
# Create simulation box and atoms

read_data data.ML_graphite_m1000atm_245K
  orthogonal box = (0 0 2.62195) to (49.22 49.0196 57.4401)
  4 by 4 by 8 MPI processor grid
  reading atoms ...
  6337 atoms
  reading velocities ...
  6337 velocities
group water type 1
3577 atoms in group water
group graphite type 2
2760 atoms in group graphite

# Define potential

pair_style sw
pair_coeff * * MLC_e.sw mW C


# Fix graphite atoms in place

fix 5 graphite setforce 0.0 0.0 0.0
velocity graphite set 0.0 0.0 0.0


# Equilibration of molecular water

# Add velocity/set timestep

velocity	    water create ${TEMP} ${SEED} rot yes dist gaussian
velocity	    water create 248 ${SEED} rot yes dist gaussian
velocity	    water create 248 537 rot yes dist gaussian
timestep	    5.0

# Define output

compute			1 water msd
compute			3 water temp
thermo	    	50
thermo_style	custom step temp press vol etotal ke pe c_1[4] c_3

# Neighbor lists

neigh_modify    delay 0 every 1 check yes

# Set fixes

fix             1 water momentum 10 linear 1 1 1 rescale
fix             2 water nve
fix             3 water temp/csvr ${TEMP} ${TEMP} 500.0 ${SEED}
fix             3 water temp/csvr 248 ${TEMP} 500.0 ${SEED}
fix             3 water temp/csvr 248 248 500.0 ${SEED}
fix             3 water temp/csvr 248 248 500.0 537
fix             4 water press/berendsen z ${PRES} ${PRES} 1000.0 modulus 20000
fix             4 water press/berendsen z -1000 ${PRES} 1000.0 modulus 20000
fix             4 water press/berendsen z -1000 -1000 1000.0 modulus 20000

# Run 0.5 ns equilibration

dump		    1 all atom 2000 ${DIR}/eq.${NAME}-${TEMP}.dump
dump		    1 all atom 2000 run_20/eq.${NAME}-${TEMP}.dump
dump		    1 all atom 2000 run_20/eq.het_freeze_20-${TEMP}.dump
dump		    1 all atom 2000 run_20/eq.het_freeze_20-248.dump

reset_timestep  0

run	            100000
Neighbor list info ...
  update every 1 steps, delay 0 steps, check yes
  max neighbors/atom: 2000, page size: 100000
  master list distance cutoff = 6.67472
  ghost atom cutoff = 6.67472
  binsize = 3.33736, bins = 15 15 17
  1 neighbor lists, perpetual/occasional/extra = 1 0 0
  (1) pair sw, perpetual
      attributes: full, newton on
      pair build: full/bin/atomonly
      stencil: full/bin/3d
      bin: standard
Per MPI rank memory allocation (min/avg/max) = 4.068 | 4.178 | 4.492 Mbytes
Step Temp Press Volume TotEng KinEng PotEng c_1[4] c_3 
       0     139.9697   -1056.0851     132262.2   -34085.323    2643.5254   -36728.848            0          248 
      50    143.61807   -1064.6251    132436.34   -34095.733    2712.4301   -36808.163   0.50720549    254.46423 
     100    138.44362   -1029.8487    132506.55   -34100.655    2614.7034   -36715.358   0.80253509    245.29608 
     150    139.40193   -1297.1395    132482.14   -34115.116    2632.8023   -36747.919    1.0059366    246.99402 
     200    136.17565   -1488.6391    132436.08   -34121.004    2571.8695   -36692.873    1.2118521    241.27766 
     250    140.23676   -1237.1838    132391.66   -34116.006    2648.5694   -36764.575    1.3925204    248.47319 
     300    138.50456   -1185.0657    132370.43   -34033.747    2615.8543   -36649.601    1.5445509    245.40406 
     350     141.0538   -1222.7024     132340.9   -34054.774    2664.0003   -36718.774    1.6842019    249.92084 
     400     140.2316   -928.71781    132327.56   -34049.186    2648.4718   -36697.658    1.8518217    248.46404 
     450    139.70631   -1201.7744    132402.43   -34053.012    2638.5509   -36691.563    2.0612544    247.53332 
     500    137.05099   -1225.9554    132402.74   -33992.346    2588.4015   -36580.747    2.1820649     242.8286 
     550    141.20997   -1087.0307    132407.44    -33966.04    2666.9498    -36632.99    2.3755823    250.19754 
     600    140.73996   -1114.9029     132405.8   -33944.652     2658.073   -36602.725    2.5828435    249.36477 
     650    144.24755   -1217.6683    132457.15   -33934.715    2724.3188   -36659.033    2.7760578    255.57956 
     700    141.52241   -1273.5611    132448.27   -33945.494    2672.8506   -36618.345    2.9496785    250.75112 
     750    140.49416   -1078.0242    132542.81   -33964.039    2653.4306   -36617.469    3.1210224    248.92925 
     800    138.16803   -1142.1023    132576.36   -33990.429    2609.4984   -36599.927    3.2996154    244.80779 
     850    140.37129   -1192.9695    132559.01   -33975.089    2651.1101   -36626.199    3.4427077    248.71155 
     900    142.69802   -1374.8737    132438.09   -33988.471    2695.0537   -36683.525     3.620126    252.83408 
     950    140.23178   -1178.0635    132425.29   -33970.928    2648.4753   -36619.403    3.8616271    248.46437 
    1000    141.01052   -1259.4949    132429.51   -33966.733    2663.1829   -36629.916    4.0621587    249.84414 
    1050    138.85751   -1117.5738       132471    -33989.19    2622.5201    -36611.71    4.2185891    246.02941 
    1100    139.56051    -1120.687    132429.25   -34003.733    2635.7974    -36639.53    4.4113391      247.275 
    1150     138.5461   -1225.8809    132415.68   -34010.959    2616.6387   -36627.598     4.486939    245.47765 
    1200    140.42381    -1009.365    132440.26   -34006.249     2652.102   -36658.351    4.6093345    248.80461 
    1250    140.48332   -1144.6813     132485.7   -34052.268    2653.2259   -36705.494     4.717648    248.91004 
    1300    137.86183   -1067.4566    132588.25   -34063.116    2603.7153   -36666.832    4.8766652    244.26525 
    1350     140.6092   -1064.1359    132561.11   -34104.488    2655.6034   -36760.091      5.08348    249.13309 
    1400    137.34999   -886.32857    132612.01   -34102.239    2594.0486   -36696.287    5.2643485    243.35837 
    1450    141.67429    -1158.368    132730.45   -34093.996    2675.7191   -36769.715    5.3433159    251.02022 
    1500    141.77482   -909.08902    132744.96   -34066.265    2677.6177   -36743.883    5.4853995    251.19834 
    1550    136.38916   -806.36045    132858.52   -34100.836     2575.902   -36676.738    5.6520998    241.65596 
    1600    141.40745   -917.38725    132921.15   -34087.449    2670.6793   -36758.129    5.8084923    250.54742 
    1650     139.4865   -1264.2682     132928.1   -34117.597    2634.3996   -36751.996    5.9126989    247.14386 
    1700    140.74966   -1281.2287    132960.34   -34129.597    2658.2562   -36787.854    6.0366484    249.38195 
    1750    141.56065    -1129.004     132900.7   -34108.761    2673.5729   -36782.334    6.1826607    250.81887 
    1800    139.40812    -1220.061    132913.21   -34081.908    2632.9193   -36714.827    6.3831166      247.005 
    1850    140.90466   -1220.7972    132935.79    -34044.32    2661.1835   -36705.503    6.6028242    249.65658 
    1900    138.05583   -1064.5397    133028.01    -34075.59    2607.3793   -36682.969    6.7756339    244.60899 
    1950     137.7417   -1130.9079    133075.27   -34090.317    2601.4466   -36691.763    6.8144669    244.05241 
    2000    139.92263   -1176.5215    133115.83   -34091.147    2642.6365   -36733.784    6.9481499    247.91661 
    2050    140.44188   -1129.1772    133213.94     -34070.8    2652.4432   -36723.244    6.9871907    248.83661 
    2100    140.44288   -1119.1933    133281.72   -34054.122    2652.4622   -36706.585    7.1506186    248.83839 
    2150    140.22055   -1211.8914    133235.42   -34051.546    2648.2632   -36699.809    7.2376252    248.44447 
    2200    141.01945   -994.88933    133214.86   -34022.995    2663.3515   -36686.347     7.368556    249.85996 
    2250    139.32413    -1204.468    133291.68   -34003.212     2631.333   -36634.545    7.4061646    246.85617 
    2300    137.24805   -1251.1503    133210.87   -33982.455    2592.1233   -36574.578    7.5354963    243.17775 
    2350    140.23392   -998.15536     133158.3     -34002.9    2648.5157   -36651.416    7.6854891    248.46816 
    2400    139.76949   -1251.4202    133145.96   -34035.945    2639.7443   -36675.689    7.8378404    247.64527 
    2450    139.72559   -1296.5244    133064.77   -34005.763     2638.915   -36644.678    8.0226407    247.56748 
    2500    139.17432   -1396.8595    132972.36   -34011.754    2628.5036   -36640.258    8.1591682    246.59074 
    2550    137.31262   -1124.9273    132925.25   -34072.694    2593.3428   -36666.036     8.311358    243.29216 
    2600    137.71693   -1220.1186    132898.66   -34046.004    2600.9788   -36646.983    8.4552008    244.00852 
    2650    137.78425   -1409.4153    132878.97   -34078.441    2602.2503   -36680.691    8.5932941    244.12781 
    2700    142.42675    -984.9112    132908.98   -34074.748    2689.9303   -36764.678    8.7284147    252.35343 
    2750    139.83688   -939.08224    132998.07   -34045.215    2641.0171   -36686.232    8.8600661    247.76468 
    2800    137.93983   -1019.0982    133083.55   -34067.809    2605.1884   -36672.998    9.0644695    244.40345 
    2850    137.68572   -921.01273    133241.65   -34073.333    2600.3894   -36673.723    9.2874548    243.95323 
    2900    137.82214   -1313.7799    133286.51   -34038.081    2602.9659   -36641.047     9.509445    244.19494 
    2950    134.86535   -1208.8129    133291.91   -34115.465    2547.1227   -36662.588    9.6825952    238.95606 
    3000     136.2891   -1183.0607    133294.95   -34069.231    2574.0122   -36643.243    9.8849623    241.47868 
    3050    136.71204   -1501.8694    133261.47   -34063.801         2582   -36645.801    10.133569    242.22805 
    3100    142.00029   -1118.1646    133172.07   -34064.071    2681.8761   -36745.947    10.222108    251.59783 
    3150    138.09149   -1405.0979     133090.3   -34075.932    2608.0528   -36683.985    10.424909    244.67217 
    3200    139.31131   -1152.0976    133000.38   -34064.178    2631.0909   -36695.269    10.616688    246.83347 
    3250    137.50324   -1341.5054    132960.47   -34104.514    2596.9429   -36701.457    10.789083     243.6299 
    3300    137.17599   -1291.6131    132961.46   -34106.162    2590.7623   -36696.925    11.037622    243.05008 
    3350    137.34552   -1157.1105    132872.07   -34115.297    2593.9642   -36709.261    11.094297    243.35046 
    3400    137.20762   -1186.5074    132900.64   -34146.363    2591.3597   -36737.722      11.2395    243.10612 
    3450     139.2028   -1012.9179    132927.36   -34148.717    2629.0415   -36777.758    11.338971    246.64121 
    3500    138.27394   -1214.0938     132890.3   -34187.145    2611.4987   -36798.644    11.541861    244.99544 
    3550    134.36251   -1110.5508    132891.69   -34149.047    2537.6259   -36686.673    11.670358    238.06513 
    3600    138.35653   -1262.1541    132961.82   -34087.075    2613.0585   -36700.134    11.844828    245.14177 
    3650    140.42747    -1170.594    132937.07    -34079.52    2652.1712   -36731.691     12.01185     248.8111 
    3700    139.25704   -1193.3437     133028.2   -34079.964    2630.0659    -36710.03    12.296032    246.73731 
    3750    140.51196   -1291.7618    133040.02   -34098.393    2653.7669    -36752.16    12.375807    248.96079 
    3800    137.26709   -1097.1241    133097.33   -34049.462    2592.4828   -36641.944    12.417899    243.21148 
    3850    140.48872   -1149.9347    133114.48   -34000.419    2653.3279   -36653.747    12.482354    248.91961 
    3900    141.03748   -1055.8593    133087.06   -33999.433    2663.6921   -36663.125    12.449875    249.89192 
    3950    142.19929   -1094.1164    133091.29   -33978.547    2685.6345   -36664.181    12.612887    251.95043 
    4000    138.94779   -1198.0941    132975.16   -33987.567    2624.2254   -36611.792    12.737987    246.18938 
    4050    140.93565   -1433.9938    132886.33   -33983.498    2661.7689   -36645.267    12.784842     249.7115 
    4100    142.17417   -1289.4944    132862.31   -34031.723      2685.16   -36716.883    12.959122    251.90591 
    4150    142.52879    -1342.005    132805.03   -34014.767    2691.8576   -36706.625     13.23209    252.53424 
    4200    143.36121   -1063.1424    132823.32   -33987.451    2707.5789    -36695.03    13.372632    254.00912 
    4250    144.11267   -1090.2133    132830.54   -33960.853    2721.7713   -36682.624    13.561832    255.34057 
    4300    142.52692   -1249.2777    132819.01   -33979.771    2691.8222   -36671.593    13.669086    252.53091 
    4350    141.40281   -1100.1925    132870.88   -33987.122    2670.5917   -36657.714    13.888444     250.5392 
    4400    141.36984   -1078.5143    132961.27   -33988.874    2669.9692   -36658.843    13.994369     250.4808 
    4450    140.28524   -1252.8164    132958.52   -34033.613    2649.4849   -36683.098    14.139209    248.55908 
    4500    140.07378   -1118.2174    132862.02   -34022.728    2645.4911   -36668.219     14.23996    248.18441 
    4550    139.36032   -1058.8876     132889.1   -33992.473    2632.0165   -36624.489    14.334964     246.9203 
    4600    140.40234   -1275.4675    132962.98   -33947.368    2651.6965   -36599.065     14.60684    248.76656 
    4650    141.64761   -1311.9454     132889.8   -33970.735    2675.2152   -36645.951    14.804012    250.97295 
    4700    135.92497   -1153.1102    132917.77   -33971.549    2567.1351   -36538.684    14.990884    240.83351 
    4750    139.54326   -1339.6384    132935.07   -34009.652    2635.4715   -36645.123    15.129691    247.24443 
    4800    140.78198   -1052.2913    132937.31   -34025.653    2658.8666    -36684.52    15.279905    249.43922 
    4850    139.02846   -1502.0149    132884.53   -34027.888    2625.7489   -36653.637    15.342596    246.33231 
    4900    136.85328   -1345.4863    132842.43   -34091.096    2584.6676   -36675.764    15.448393     242.4783 
    4950    135.75076   -1173.6659    132924.22   -34052.842    2563.8449   -36616.687    15.602313    240.52484 
    5000    137.48047   -1328.2829    132924.42   -34045.466    2596.5129   -36641.979    15.740592    243.58956 
    5050    139.70067   -1261.4933    132904.71   -34079.423    2638.4444   -36717.868    15.905752    247.52333 
    5100    137.84485   -1289.3094    132820.53    -34067.31    2603.3947   -36670.705    15.991136    244.23517 
    5150    138.44069   -1250.1418    132776.83    -34062.34    2614.6479   -36676.988    15.985067    245.29088 
    5200    138.71719   -1364.5872     132732.5   -34093.503    2619.8701   -36713.373    16.169743    245.78079 
    5250    139.55631   -1215.3059    132775.59   -34133.332     2635.718    -36769.05     16.37852    247.26755 
    5300    138.57149   -1428.9995    132701.32   -34065.993    2617.1184   -36683.111    16.558862    245.52264 
    5350    138.64757   -1053.2554     132729.4   -34108.374    2618.5552    -36726.93    16.707144    245.65744 
    5400    138.33985   -1074.3063    132742.78   -34114.898    2612.7435   -36727.641    16.820207    245.11222 
    5450    136.47341   -1121.5767    132733.93    -34123.78    2577.4931   -36701.273    16.959171    241.80523 
    5500    138.73345    -1020.078     132718.9   -34085.808    2620.1772   -36705.985    17.092722    245.80961 
    5550    136.21202   -981.07969     132809.1   -34101.528    2572.5564   -36674.085    17.247393    241.34211 
    5600    138.55407   -1183.3747    132821.31   -34130.969    2616.7893   -36747.758     17.46735    245.49177 
    5650    135.65196    -1235.723    132836.72   -34109.195    2561.9788   -36671.174    17.583772    240.34978 
    5700    139.32844   -1114.7679    132871.19   -34073.875    2631.4144   -36705.289    17.659781    246.86381 
    5750    139.99195   -1217.5004    132894.33   -34043.815    2643.9457    -36687.76    17.724873    248.03943 
    5800    140.30637   -1217.1163    132861.11   -34063.325     2649.884   -36713.209    17.922027    248.59652 
    5850    137.95174   -1130.0742    132948.64   -34052.529    2605.4135   -36657.943    18.077757    244.42456 
    5900    139.26646   -1070.2589    132864.56   -34027.768    2630.2438   -36658.011     18.22664    246.75399 
    5950    139.01348    -1120.314    132827.68     -34035.2     2625.466   -36660.666    18.409296    246.30577 
    6000    138.28834   -980.38066    132831.95    -34006.78    2611.7706   -36618.551     18.57797    245.02095 
    6050    144.08744   -950.51213    132871.38   -34019.122    2721.2949   -36740.417    18.827032    255.29587 
    6100    142.25392   -987.54395    132952.89   -33997.889    2686.6662   -36684.555    18.981202    252.04721 
    6150    141.13253   -1303.6389    132928.22   -34009.136    2665.4872   -36674.623    19.051876    250.06032 
    6200     140.2292   -1220.6487    132973.98   -33987.612    2648.4266   -36636.038    19.284844     248.4598 
    6250    143.76064   -1142.7205    133002.58    -33963.23    2715.1227   -36678.353    19.569436    254.71684 
    6300     140.1592   -1042.8685    132971.19   -33944.079    2647.1045   -36591.183     19.72148    248.33576 
    6350    144.13667   -1091.1548    133036.12   -33921.834    2722.2246   -36644.059    19.857351    255.38309 
    6400    141.62445   -1144.1366    133045.05   -33920.141    2674.7778   -36594.918    19.926843    250.93191 
    6450    141.91437   -1107.4789    133010.05    -33981.09    2680.2533   -36661.343    19.972115    251.44559 
    6500    140.67961    -1343.629    133120.14   -33972.689    2656.9332   -36629.622    20.065938    249.25784 
    6550    140.53379   -1300.6088    133030.42   -34031.442    2654.1792   -36685.621    20.023013    248.99947 
    6600    139.09471   -1309.4197    132994.07   -34077.877    2627.0001   -36704.877    20.243807    246.44969 
    6650     138.9311   -1403.5322    132878.11   -34058.281    2623.9101   -36682.192    20.289064     246.1598 
    6700    140.12575   -1122.7441    132904.56   -34062.073    2646.4727   -36708.546    20.400212     248.2765 
    6750    139.58162   -1283.8414    132835.14   -34041.737    2636.1961   -36677.933    20.669273    247.31241 
    6800    138.12652   -1159.3673    132777.98   -34059.814    2608.7144   -36668.529    20.792167    244.73423 
    6850    139.12031   -1202.1317     132809.4   -34030.062    2627.4836   -36657.545    21.018907    246.49505 
    6900    136.78083   -1331.0981    132800.45   -34068.287    2583.2991   -36651.586    21.164562    242.34992 
    6950    139.41365   -1064.8943    132880.23   -34059.126    2633.0238   -36692.149    21.368387     247.0148 
    7000    137.80239   -1215.4651     132965.4   -34111.937    2602.5928    -36714.53    21.569463    244.15995 
    7050    141.50787   -1283.6111    132879.03   -34091.163     2672.576   -36763.739    21.748534    250.72535 
    7100    139.59211   -1237.1948    132885.28   -34059.487    2636.3941   -36695.881    21.828356    247.33098 
    7150    138.13672    -1415.399    132935.11   -34058.532    2608.9071   -36667.439    21.953287    244.75231 
    7200    140.49036   -1017.4546    132957.47   -34022.481    2653.3589    -36675.84    22.096975    248.92252 
    7250    138.08331   -1479.4561    132978.59   -34018.485    2607.8983   -36626.384    22.279122    244.65767 
    7300    142.00346   -1372.0474    132908.62   -34025.255    2681.9358   -36707.191    22.454377    251.60344 
    7350    141.90989   -1267.8682    132755.55   -34039.747    2680.1688   -36719.916    22.737186    251.43766 
    7400    141.31309   -1261.7157    132790.34    -34009.35    2668.8974   -36678.247    22.950858    250.38025 
    7450    140.43177   -1139.7646    132846.16   -33976.047    2652.2524   -36628.299    23.132034    248.81872 
    7500    143.18593   -1532.6739     132867.5    -33956.79    2704.2686   -36661.059    23.273039    253.69857 
    7550    141.05512   -1505.7152    132809.56   -33992.887    2664.0251   -36656.912    23.416538    249.92316 
    7600    140.24828   -1365.5189     132761.2   -34004.573    2648.7868   -36653.359    23.406691    248.49359 
    7650    140.24318   -1219.2481    132728.81   -33998.866    2648.6905   -36647.557    23.404178    248.48456 
    7700    141.15204    -1539.616       132677   -33977.923    2665.8557   -36643.778    23.524598    250.09489 
    7750    136.72236   -1270.5282    132611.88   -34041.256    2582.1949   -36623.451    23.606255    242.24633 
    7800    138.16049   -1405.1154    132513.22   -34029.524     2609.356    -36638.88    23.892186    244.79442 
    7850    139.94251   -1508.6344    132500.71   -33979.741    2643.0119   -36622.753    24.128283    247.95182 
    7900    140.44745   -1286.9758    132530.98   -33963.987    2652.5484   -36616.535     24.22118    248.84648 
    7950    138.36493   -1233.0856    132619.09   -33953.037    2613.2171   -36566.254    24.391363    245.15665 
    8000    136.93417   -1278.7438    132609.35   -34072.639    2586.1952   -36658.834    24.579074    242.62162 
    8050    136.79424   -1363.8708    132602.36   -34080.278    2583.5525   -36663.831    24.849392    242.37369 
    8100    137.79315   -1238.6772    132538.44   -34060.831    2602.4182   -36663.249    25.046511    244.14356 
    8150    137.67889   -1095.3841    132589.29   -34035.497    2600.2604   -36635.757    25.000811    243.94113 
    8200      139.011   -1112.4425    132614.29   -33991.618    2625.4191   -36617.037    25.089331    246.30137 
    8250    140.33716   -1330.7221    132670.82   -33944.796    2650.4655   -36595.262    25.109663    248.65108 
    8300    140.99517   -1042.5186    132666.49   -33937.925     2662.893   -36600.818    25.181967    249.81695 
    8350    139.74137   -915.91436    132637.18   -33958.177    2639.2131    -36597.39    25.272955    247.59544 
    8400    141.46021   -1159.1655    132763.24   -33932.408    2671.6759   -36604.084    25.424401    250.64091 
    8450    142.10645   -1003.2451    132837.26    -33884.23    2683.8811   -36568.111    25.740623    251.78593 
    8500    140.39839   -1076.9662    132819.44   -33900.267    2651.6219   -36551.889    25.938745    248.75956 
    8550    141.84393   -823.61395    132848.36   -33899.106     2678.923   -36578.029    26.037663    251.32079 
    8600    141.30514   -977.12133    132956.27    -33890.97    2668.7471   -36559.717    26.190302    250.36615 
    8650    141.45195   -1137.5747     133042.6   -33882.643    2671.5198   -36554.163    26.273994    250.62627 
    8700    141.79608   -1196.8962    133043.26   -33856.594    2678.0192   -36534.613    26.461738    251.23601 
    8750    141.57957   -1309.2461    132963.51   -33895.501    2673.9302   -36569.431    26.592604     250.8524 
    8800    144.09298   -1253.1129    132949.49   -33850.486    2721.3995   -36571.885    26.698943    255.30569 
    8850    140.29347   -1128.1162    132874.94   -33869.969    2649.6403   -36519.609    26.794952    248.57366 
    8900    139.37898   -1339.4847    132918.33   -33942.022    2632.3689   -36574.391    26.906989    246.95336 
    8950     139.7803   -1241.9416    132863.47   -33967.851    2639.9484   -36607.799    27.019545    247.66442 
    9000    135.25873   -1159.5544    132901.39   -34024.214    2554.5521   -36578.766    27.346954    239.65304 
    9050    140.58602   -1372.6861    132973.72   -34012.704    2655.1655    -36667.87    27.681355      249.092 
    9100    137.63362   -1441.2666    132968.72   -34010.559    2599.4052   -36609.965    27.893283     243.8609 
    9150    134.10886   -1239.7154    132908.95   -34086.135    2532.8352    -36618.97    28.002407    237.61569 
    9200    137.55862   -998.57086    132850.13   -34082.033    2597.9889   -36680.021    28.099886    243.72803 
    9250    136.75426   -1266.3662    132878.35   -34058.775    2582.7974   -36641.572    28.288561    242.30285 
    9300    136.87586   -1372.9897    132806.92   -34069.705    2585.0939   -36654.798    28.391763     242.5183 
    9350    138.49629   -1119.7521    132746.62   -34091.597    2615.6981   -36707.296    28.630233    245.38941 
    9400    140.56454   -979.46064    132741.01   -34082.325    2654.7599   -36737.085    28.710174    249.05395 
    9450    137.58519   -1165.9427    132770.59   -34062.584    2598.4906   -36661.075    28.921086     243.7751 
    9500    138.44732   -1155.9644    132692.56   -34091.919    2614.7731   -36706.692    29.051272    245.30263 
    9550    137.12433   -1243.5313    132588.81   -34062.915    2589.7867   -36652.702    29.142732    242.95855 
    9600    142.55679   -997.21255    132543.94    -34037.71    2692.3863   -36730.096    29.353385    252.58384 
    9650     138.3976   -1129.9172    132650.81   -34067.511    2613.8342   -36681.345       29.644    245.21454 
    9700    137.64899   -1129.3572    132684.89    -34037.19    2599.6955   -36636.886    29.647101    243.88813 
    9750    141.23416    -1141.637    132795.81   -34043.068    2667.4066   -36710.475    29.758995    250.24039 
    9800    139.47114   -1129.3419    132848.77   -33998.509    2634.1095   -36632.619    29.765463    247.11665 
    9850    139.74461   -999.90783    132831.68   -34033.818    2639.2744   -36673.092    29.955808    247.60119 
    9900    139.99438   -1262.3712     132850.7   -34019.888    2643.9915    -36663.88      30.0465    248.04373 
    9950    141.20313    -1157.382    132801.13   -34055.094    2666.8205   -36721.914    30.071016    250.18541 
   10000    139.20165   -1126.8449    132784.16   -33951.433    2629.0198   -36580.453    30.212813    246.63917 
   10050    142.86252   -1226.4843    132786.66   -33972.244    2698.1604   -36670.404    30.417648    253.12553 
   10100    140.21435   -1130.8714    132751.67   -33961.251    2648.1461   -36609.397    30.400564    248.43348 
   10150    140.04419   -1184.0932    132776.43   -34007.868    2644.9324   -36652.801    30.577264    248.13199 
   10200    141.48846   -1459.1593    132679.94   -34009.432    2672.2094   -36681.641    30.760195    250.69096 
   10250    137.90228   -1313.0672    132576.85   -33993.033    2604.4794   -36597.512    30.925173    244.33693 
   10300    140.58131   -1056.2413    132606.52   -33979.142    2655.0765   -36634.218    31.129355    249.08366 
   10350    138.30577   -1045.3894     132575.1   -34013.193    2612.0999   -36625.293    31.347468    245.05184 
   10400    138.35752   -1116.2386    132631.43   -34017.479    2613.0772   -36630.557    31.619504    245.14352 
   10450    135.96604   -1082.1064    132639.01   -34018.036    2567.9107   -36585.947    31.892044    240.90627 
   10500     137.5013   -934.71875    132682.19   -34054.596    2596.9063   -36651.502    32.217284    243.62647 
   10550    137.94211   -1249.0152     132742.3   -34068.284    2605.2316   -36673.516    32.262831     244.4075 
   10600      138.753   -1136.8804    132681.94    -34061.06    2620.5464   -36681.607    32.338156    245.84424 
   10650    141.17739    -1030.281    132716.75   -34047.733    2666.3345   -36714.067    32.471563    250.13981 
   10700    138.63959   -1135.7413    132748.44   -34060.993    2618.4045   -36679.397    32.538616     245.6433 
   10750    138.92897   -1361.0266    132789.92   -34073.978    2623.8698   -36697.848    32.767393    246.15602 
   10800    139.88638   -1269.9409     132738.9    -34049.07    2641.9519   -36691.021    33.067447    247.85238 
   10850    140.15282   -1273.4164    132664.13   -33978.373    2646.9839   -36625.357    33.292201    248.32445 
   10900    140.26029   -1376.7495    132652.57   -33994.974    2649.0137   -36643.988    33.425493    248.51488 
   10950    140.64012   -1377.4655    132536.89   -33998.206    2656.1873   -36654.393    33.460489    249.18786 
   11000     143.6258   -1290.7179     132536.3   -33926.026    2712.5761   -36638.603    33.699494    254.47792 
   11050    138.27702   -1406.6151    132493.09   -33967.934    2611.5569    -36579.49    33.917244     245.0009 
   11100    142.24611   -1205.8298    132515.06   -33952.936    2686.5188   -36639.454    34.201305    252.03338 
   11150    138.81583   -1170.7159    132556.15   -33940.807     2621.733    -36562.54    34.393433    245.95556 
   11200    142.21178   -1337.5963    132513.76   -33929.773    2685.8704   -36615.643    34.634704    251.97256 
   11250    141.43952   -1303.9202    132467.52   -33938.687    2671.2852   -36609.972    35.082755    250.60426 
   11300    139.23775   -1431.5569    132441.85   -33967.341    2629.7015   -36597.042    35.553411    246.70312 
   11350    141.36186   -1288.9023     132378.8    -33997.48    2669.8184   -36667.298    35.655097    250.46666 
   11400    140.45397    -924.5123    132491.66    -34009.05    2652.6716   -36661.721    35.852901    248.85804 
   11450    143.24125   -1035.1402    132568.95   -33961.277    2705.3134    -36666.59    35.899387    253.79658 
   11500    139.67898      -965.91    132664.35   -33944.987    2638.0348   -36583.022    36.133696     247.4849 
   11550    143.80817   -1254.4538    132772.13   -34008.352    2716.0205   -36724.372    36.374042    254.80106 
   11600    137.11864   -1187.0939       132761   -34039.477    2589.6793   -36629.156    36.622772    242.94847 
   11650    136.60523   -987.12204    132722.78   -34069.022    2579.9827   -36649.005    36.786151     242.0388 
   11700    136.50349   -974.22064    132760.36   -34114.171    2578.0612   -36692.232    36.934178    241.85853 
   11750    137.33609   -1086.6027    132799.69   -34114.374     2593.786    -36708.16    36.984379    243.33374 
   11800    137.65196   -1077.2841    132840.01   -34070.245    2599.7518   -36669.997    37.161051    243.89341 
   11850    141.05809   -1194.7769    132838.49   -34082.992    2664.0813   -36747.073    37.155954    249.92843 
   11900    138.28272   -1559.3701    132725.86   -34060.587    2611.6645   -36672.252    37.279892    245.01099 
   11950    138.69404   -1292.1206     132567.5   -34003.031    2619.4329   -36622.464    37.335294    245.73978 
   12000    140.47409   -1168.6853    132596.85   -34012.701    2653.0516   -36665.753    37.387902    248.89369 
   12050    139.39963   -961.68218    132598.67   -34019.496    2632.7589   -36652.255     37.53305    246.98995 
   12100    139.72523   -1420.5169    132577.61   -34062.161    2638.9084   -36701.069    37.840098    247.56686 
   12150    140.25248   -1373.7141    132529.04   -34087.217    2648.8662   -36736.083     38.13416    248.50104 
   12200    138.92369   -1379.5403    132578.94   -34031.395    2623.7701   -36655.166    38.483099    246.14667 
   12250    143.91287   -1248.6535    132576.83   -34002.915    2717.9978   -36720.913     38.79999    254.98656 
   12300    139.13156   -1273.7499    132606.24   -33971.986     2627.696   -36599.682    39.016878    246.51497 
   12350    142.42187   -1213.9896     132611.8   -33993.387    2689.8382   -36683.225    39.087446     252.3448 
   12400    140.81731   -1192.4587    132482.86   -34008.873    2659.5338   -36668.406    39.241087    249.50181 
   12450     140.8982   -1162.8954    132459.49   -34012.532    2661.0614   -36673.593    39.520202    249.64513 
   12500    142.55765   -1061.2894    132489.77   -34016.197    2692.4025   -36708.599    39.522573    252.58536 
   12550    140.57618   -791.36388    132424.99   -34079.995    2654.9797   -36734.974    39.682349    249.07457 
   12600    137.45253   -1233.7012     132467.9    -34171.99    2595.9852   -36767.975     39.92959    243.54005 
   12650    138.13326   -1202.6316    132541.91   -34120.661    2608.8417   -36729.502    40.023446    244.74617 
   12700    142.79774   -1149.2447    132604.45   -34057.576     2696.937   -36754.513    40.142559    253.01076 
   12750    138.12911   -1350.6082    132681.56   -34066.747    2608.7633    -36675.51    40.207169    244.73882 
   12800    141.66463   -1361.0545    132808.33   -34045.941    2675.5367   -36721.477    40.467899    251.00311 
   12850    136.60486   -1423.0855    132856.18   -34054.157    2579.9756   -36634.133    40.605721    242.03813 
   12900    141.85166   -1172.8337    132891.51    -34070.17     2679.069   -36749.239    40.648445    251.33448 
   12950    136.71196   -1297.7052    132853.91   -34083.172    2581.9985   -36665.171    40.797776    242.22791 
   13000     137.8092   -1456.8976    132689.85   -34070.264    2602.7214   -36672.986    41.046577    244.17201 
   13050    138.45876   -1518.2077     132532.5   -34057.055    2614.9892   -36672.045    41.224883     245.3229 
   13100    138.32296   -1361.2243    132412.15   -34049.585    2612.4245    -36662.01    41.353383    245.08229 
   13150    138.58343   -1517.8666    132398.61   -34073.447    2617.3438   -36690.791    41.584871     245.5438 
   13200    139.16009   -1270.4833    132318.01   -34048.732    2628.2348   -36676.967    41.675362    246.56552 
   13250    142.01514   -1180.6229    132279.17   -34002.674    2682.1565    -36684.83    41.660569    251.62414 
   13300    142.69255   -1118.3472    132327.55   -33973.237    2694.9503   -36668.187    41.854523    252.82438 
   13350    140.92467   -1348.1836    132329.78   -33949.965    2661.5614   -36611.526    42.052917    249.69203 
   13400    140.73236   -1281.8282    132337.54   -33943.588    2657.9294   -36601.518    42.214219     249.3513 
   13450    139.22152   -1075.4879    132306.37   -33997.718    2629.3951   -36627.114    42.536323    246.67438 
   13500    142.87154   -1029.7413    132325.44   -34014.584    2698.3308   -36712.915    42.756057    253.14152 
   13550    142.71124   -867.07067    132359.79   -33998.716    2695.3034   -36694.019    42.890048     252.8575 
   13600    139.99769   -1213.2737    132384.12   -34000.605    2644.0542    -36644.66    42.994497     248.0496 
   13650    141.61681   -1033.9491    132409.15   -33907.986    2674.6334    -36582.62    43.289801    250.91837 
   13700    142.41619   -1259.6202    132374.17   -33928.799    2689.7309    -36618.53    43.278734    252.33472 
   13750    141.86233     -1292.37    132351.55    -33912.53    2679.2705   -36591.801    43.499842    251.35339 
   13800    140.10997   -1286.6151    132356.25   -34006.908    2646.1747   -36653.082    43.530361    248.24854 
   13850    141.27011   -1325.6411    132277.22   -33951.046    2668.0856   -36619.132     43.45774    250.30409 
   13900    143.40836   -1202.9106    132183.74   -33963.405    2708.4694   -36671.874    43.509305    254.09266 
   13950    138.37904   -1076.1521     132286.9   -33926.195    2613.4836   -36539.679    43.678538    245.18165 
   14000     141.1622   -1071.9004    132331.28   -33984.794    2666.0476   -36650.841    43.665796     250.1129 
   14050    140.07828   -1244.8428     132350.4    -33947.59    2645.5762   -36593.167    43.800053     248.1924 
   14100    141.65053   -1188.1097    132339.26   -33921.727    2675.2704   -36596.998    43.916439    250.97813 
   14150    143.39307   -1205.4656     132307.4   -33968.982    2708.1806   -36677.162    44.080316    254.06557 
   14200    139.49641   -1145.4666    132320.67   -33997.098    2634.5868   -36631.685    44.175827    247.16143 
   14250     136.6876   -1339.1289    132260.93   -34062.503    2581.5385   -36644.041    44.469537    242.18475 
   14300    136.66954    -1247.665    132205.13   -34044.332    2581.1972   -36625.529    44.477703    242.15274 
   14350    137.86508   -1175.7129    132203.27   -34040.422    2603.7767   -36644.199    44.641648    244.27101 
   14400    136.49553   -1100.4344    132250.76   -34019.412    2577.9108   -36597.323    44.814659    241.84442 
   14450    137.00223   -1138.2993    132234.53   -34065.345    2587.4805   -36652.826    45.027252     242.7422 
   14500    141.22701   -1358.8263    132254.09   -33949.015    2667.2716   -36616.287    45.319202    250.22773 
   14550     140.8478   -1036.2773    132310.22   -33945.382    2660.1097   -36605.492    45.419329    249.55583 
   14600    140.31404   -1135.9207    132311.01   -33946.494    2650.0289   -36596.523    45.511842    248.61011 
   14650    139.79856   -1041.8563     132379.7   -33917.384    2640.2932   -36557.677    45.631272    247.69677 
   14700    139.53073    -1182.346     132366.2    -33939.05     2635.235   -36574.285    45.868636    247.22224 
   14750    141.58993   -1209.5922    132309.42   -34000.161    2674.1258   -36674.287    46.024776    250.87074 
   14800    142.01639   -998.60253    132270.67     -33948.6    2682.1802    -36630.78     46.27862    251.62636 
   14850    142.81784   -1209.2765    132287.27   -33950.999    2697.3167   -36648.315    46.536418    253.04638 
   14900    140.81259   -1007.8288    132210.51   -33964.114    2659.4446   -36623.559    46.978319    249.49345 
   14950    143.00034   -1083.7088    132224.97   -33990.798    2700.7635   -36691.562      47.1433    253.36974 
   15000    140.99446   -1066.9003    132323.59   -33989.863    2662.8795   -36652.743    47.357274    249.81569 
   15050    141.74191   -1316.6702    132361.08   -33975.169    2676.9963   -36652.166    47.415549    251.14004 
   15100    141.02626   -1260.6879    132339.71   -33928.432    2663.4801   -36591.912    47.624434    249.87203 
   15150    139.39605   -1390.9708     132283.3   -33917.701    2632.6912   -36550.393    47.828258     246.9836 
   15200    140.00091   -1188.0051    132210.37   -33950.346    2644.1149   -36594.461     48.10296     248.0553 
   15250    139.56576   -1023.4451    132248.06   -33955.712    2635.8965   -36591.609    48.378158     247.2843 
   15300    139.79504   -1244.0295    132154.07   -33971.986    2640.2268   -36612.213    48.682921    247.69054 
   15350    140.55685   -1116.6345    132004.61   -33981.955    2654.6147    -36636.57    48.982136    249.04033 
   15400    140.30672   -1426.5015     131984.3   -33940.381    2649.8905   -36590.272    49.160776    248.59714 
   15450    140.76331   -1175.8261    131952.69   -33929.693     2658.514   -36588.207    49.196992    249.40614 
   15500    142.19384   -889.67863    132019.51   -33968.516    2685.5315   -36654.048    49.308917    251.94077 
   15550    138.91924    -1165.717    132136.04   -33964.466    2623.6861   -36588.152    49.661811    246.13879 
   15600    139.46396   -1171.4062     132174.6   -33966.354    2633.9738   -36600.327    49.859421    247.10392 
   15650    138.86627   -1203.5476    132157.59   -34026.796    2622.6857   -36649.482    50.036631    246.04494 
   15700    139.50688   -1239.5156    132072.06   -33988.053    2634.7845   -36622.838    50.160902    247.17998 
   15750    142.39002   -1070.1657    132184.07   -33946.716    2689.2366   -36635.952    50.114287    252.28835 
   15800    142.52738   -1160.9753    132269.09    -33932.81    2691.8308   -36624.641     50.26198    252.53173 
   15850    141.13972   -1184.5079    132312.67   -33933.654    2665.6229   -36599.277    50.480254    250.07306 
   15900    140.67533   -1094.5046    132258.04   -33917.372    2656.8524   -36574.224    50.709939    249.25026 
   15950    140.97676   -1516.2477    132186.88   -33943.517    2662.5452   -36606.062    50.941358    249.78432 
   16000    139.05107   -1357.8253    132078.16    -33959.48    2626.1759   -36585.656    50.968579    246.37237 
   16050    139.30314   -1274.3982     132022.2   -33986.401    2630.9366   -36617.338    50.862387    246.81899 
   16100    139.57186   -1153.6831    132028.03   -34041.728    2636.0118    -36677.74    50.761621    247.29512 
   16150    139.88434   -951.17959     132084.8   -33996.076    2641.9134   -36637.989    50.970311    247.84876 
   16200    140.69714    -1290.767    132145.27   -33957.578    2657.2643   -36614.842    51.082283     249.2889 
   16250    138.28312   -1018.2862    132245.84   -33990.525     2611.672   -36602.197    51.289586     245.0117 
   16300    139.99522   -1281.4431    132366.19   -34027.792    2644.0074   -36671.799    51.513179    248.04522 
   16350    140.71781   -956.11888    132368.74   -34022.096    2657.6545    -36679.75    51.700828    249.32551 
   16400    138.31775   -1234.6561    132419.55   -33975.809     2612.326   -36588.135     51.74258    245.07305 
   16450    139.73929    -1200.063    132546.72    -33920.71    2639.1738   -36559.884    51.970605    247.59176 
   16500    141.51342   -1260.9322    132676.08   -33863.198    2672.6808   -36535.879    52.147572    250.73519 
   16550    141.25623   -1152.9548    132707.51   -33889.406    2667.8234    -36557.23    52.523997     250.2795 
   16600    136.24087   -1124.2949     132714.5   -33947.144    2573.1013   -36520.246    52.680937    241.39322 
   16650     139.2336   -1303.8234    132782.79   -33939.419    2629.6232   -36569.042    53.008936    246.69578 
   16700    141.79992   -1121.9407    132830.58   -33874.773    2678.0919   -36552.865    53.020232    251.24282 
   16750    141.09798   -1441.2014    132853.19   -33872.441    2664.8346   -36537.275    53.357657     249.9991 
   16800    140.50836   -929.48791    132912.16     -33893.5    2653.6989   -36547.199    53.591534    248.95441 
   16850    139.38811   -1231.2645    132977.29   -33898.988    2632.5413   -36531.529    53.733022    246.96953 
   16900    140.74188   -1268.1307    132841.85   -33898.919    2658.1092   -36557.028    53.999643    249.36817 
   16950    141.43832   -1255.9875    132774.27    -33865.29    2671.2624   -36536.552    54.028655    250.60212 
   17000    144.26501   -1287.9754    132701.97   -33857.163    2724.6484   -36581.811     54.09398    255.61048 
   17050    141.10296   -1248.0624    132737.35   -33899.123    2664.9288   -36564.052    54.172515    250.00794 
   17100    140.06229   -1319.1605    132637.34    -33937.93    2645.2742   -36583.205    54.466109    248.16406 
   17150    138.58064   -1291.0758    132552.49   -33977.681    2617.2912   -36594.973    54.643395    245.53886 
   17200    138.57083   -1033.7359    132542.33   -33974.805    2617.1058   -36591.911    54.958704    245.52147 
   17250    139.86346   -1358.5167    132571.55   -33951.412     2641.519   -36592.931    55.368086    247.81176 
   17300    140.39391   -1183.4958    132538.27   -33933.898    2651.5372   -36585.435    55.460794    248.75162 
   17350    143.37664   -1297.3358    132563.94   -33876.905    2707.8704   -36584.775    55.347551    254.03647 
   17400    141.30201   -1226.0304    132535.08   -33853.056    2668.6881   -36521.745    55.660033    250.36061 
   17450    142.94944   -1011.1004    132566.35   -33886.265    2699.8021   -36586.067    56.035632    253.27955 
   17500    143.30935   -1136.1904    132620.58   -33895.317    2706.5994   -36601.917    56.298681    253.91723 
   17550    138.34633    -1266.015    132684.74   -33966.795    2612.8658   -36579.661    56.580861     245.1237 
   17600     141.8924   -1252.8063       132709   -33978.947    2679.8384   -36658.785    56.748399    251.40667 
   17650    140.55569   -1395.1644    132688.14    -33972.89    2654.5928   -36627.483    56.782847    249.03827 
   17700    141.85205   -1276.0515     132648.1   -33997.933    2679.0763    -36677.01    56.967655    251.33518 
   17750    139.00214   -1101.8496    132728.26   -34034.155    2625.2518   -36659.406    57.119856    246.28567 
   17800    140.24625   -1179.8691    132760.27   -34011.382    2648.7486    -36660.13    57.031277    248.49001 
   17850    141.43085   -1110.7014    132739.18   -34020.975    2671.1213   -36692.097    57.151866    250.58888 
   17900    139.05772   -1171.4061    132715.74   -34052.936    2626.3015   -36679.238    57.307252    246.38415 
   17950     138.4034    -1090.225    132703.94   -34025.492    2613.9437   -36639.436     57.40548    245.22482 
   18000    141.99053   -1332.2906    132672.03   -33984.641    2681.6918   -36666.332    57.487093    251.58054 
   18050    139.66284   -1234.5047    132684.09   -34018.844      2637.73   -36656.574    57.673303    247.45631 
   18100    139.86686   -1287.8012    132683.81   -34002.379    2641.5831   -36643.962    57.785677    247.81779 
   18150     140.6454   -1239.9721    132593.46   -34011.288     2656.287   -36667.575    57.815364    249.19722 
   18200    138.49056   -1105.7375    132581.63   -34029.706    2615.5898   -36645.296    57.925607    245.37924 
   18250    139.78265    -1402.193    132592.36   -34009.052    2639.9927   -36649.045     58.29538    247.66858 
   18300    142.94707   -1046.0022    132514.79   -34000.583    2699.7574   -36700.341    58.363127    253.27535 
   18350    140.81381   -1091.1057    132576.54   -33987.911    2659.4678   -36647.379    58.817561    249.49562 
   18400    142.18386   -1210.4432    132588.93   -33997.437    2685.3429    -36682.78    59.104949    251.92307 
   18450    140.36069   -988.54976    132657.99   -34012.405    2650.9098   -36663.315    59.015448    248.69276 
   18500    139.94519   -969.18235    132747.41   -34020.379    2643.0625   -36663.442    59.108107    247.95657 
   18550      138.154   -1320.8999    132755.17   -34061.883    2609.2335   -36671.117    59.595486    244.78293 
   18600    138.49562   -1114.1996    132700.43   -34052.862    2615.6855   -36668.547    59.703617    245.38822 
   18650     144.7278   -1353.3577    132632.71   -33970.526    2733.3888   -36703.914    60.078399    256.43046 
   18700    139.00527   -1186.8242    132600.43    -34027.71    2625.3109    -36653.02    60.360661    246.29122 
   18750    141.95004   -1150.7884    132533.72   -34019.601     2680.927   -36700.528    60.553468     251.5088 
   18800    143.19107   -901.91938    132548.34   -33989.741    2704.3655   -36694.107     60.47982    253.70766 
   18850    140.59293   -928.82888     132656.3   -33990.844    2655.2961    -36646.14    60.453566    249.10425 
   18900    143.67348   -1087.7092    132772.12   -33995.295    2713.4766   -36708.771    60.680075    254.56241 
   18950    141.51088   -1180.4296    132780.13   -33976.559    2672.6328   -36649.191    60.633072    250.73068 
   19000    140.33151   -1093.6868    132825.37   -34024.402    2650.3588   -36674.761    60.584026    248.64107 
   19050    138.84606   -1378.7508    132905.29   -34096.073    2622.3039   -36718.377     60.72228    246.00912 
   19100     137.8372   -1320.1375    132934.16   -34070.936    2603.2503   -36674.186    60.860894    244.22162 
   19150    138.71482   -1467.9396    132856.42   -34003.402    2619.8253   -36623.227    61.291146    245.77659 
   19200    142.89917   -914.74136    132773.04   -33986.178    2698.8527    -36685.03    61.510784    253.19048 
   19250    140.75002   -1230.0141       132773   -34004.204    2658.2629   -36662.467    61.853738    249.38259 
   19300     140.7232   -1041.2891    132717.92   -34047.496    2657.7564   -36705.253     61.89124    249.33507 
   19350    137.26144    -1093.236    132660.74   -34066.745    2592.3762   -36659.121    61.968069    243.20148 
   19400     139.2365   -1313.6937    132654.08   -34039.675     2629.678   -36669.353     61.95393    246.70091 
   19450    142.25938   -980.59879    132611.11   -34040.364    2686.7693   -36727.134    62.025834    252.05689 
   19500    141.23631   -975.83275     132688.3   -34035.961    2667.4472   -36703.409    62.183947     250.2442 
   19550    139.17739   -1178.8781    132682.28   -34021.874    2628.5616   -36650.436    62.289129    246.59618 
   19600    144.19343    -942.9922    132614.25   -33981.597    2723.2966   -36704.893    62.508884    255.48366 
   19650    139.68912   -1157.6124    132619.02    -33974.47    2638.2263   -36612.696     62.56558    247.50286 
   19700    140.42642   -1079.8938    132640.32   -33975.666    2652.1514   -36627.817    62.923932    248.80923 
   19750    141.97423   -1046.2798    132656.45   -34004.279    2681.3839   -36685.663    62.944544    251.55166 
   19800    140.69692   -1212.5904    132623.38   -34015.606    2657.2601   -36672.866    63.000533    249.28851 
   19850    136.87134   -1173.9213    132579.39   -34055.048    2585.0086   -36640.057    62.821229    242.51029 
   19900     138.1883   -945.57214     132560.7   -34066.058    2609.8812    -36675.94    62.979778     244.8437 
   19950    138.95803   -761.16822    132685.16   -34115.413    2624.4187   -36739.832    63.083339    246.20752 
   20000    139.13574   -1110.4782    132702.45   -34080.694    2627.7751   -36708.469    63.291973    246.52239 
   20050     141.4201   -1249.8326    132713.93   -34034.504    2670.9184   -36705.422    63.354067    250.56985 
   20100     139.7229   -1059.7849    132816.87   -34036.896    2638.8644   -36675.761    63.702018    247.56273 
   20150    139.92099   -1086.3411    132786.63   -34043.202    2642.6055   -36685.808    63.776716     247.9137 
   20200    139.08448   -1269.4788    132673.16   -34067.675    2626.8069   -36694.482    63.968803    246.43156 
   20250    140.68877   -792.58838       132727   -34025.983    2657.1062   -36683.089    64.023179    249.27407 
   20300    138.92497    -1157.427    132833.94    -33987.29    2623.7942   -36611.085    64.143032    246.14893 
   20350    138.68673   -1230.8307    132849.44   -34020.835    2619.2948    -36640.13    64.394877    245.72683 
   20400     138.1297   -1443.8376     132773.2   -34052.498    2608.7745   -36661.273    64.334941    244.73988 
   20450    141.00912   -1112.8392    132732.91    -34033.84    2663.1565   -36696.996    64.275258    249.84167 
   20500    139.88379   -1526.7487    132680.43   -33998.593     2641.903   -36640.496     64.36043     247.8478 
   20550    138.27122   -1232.6814    132616.15   -34018.593    2611.4473    -36630.04    64.438583    244.99062 
   20600    139.49872   -1471.1012     132562.9   -34040.396    2634.6304   -36675.026    64.564172    247.16552 
   20650    139.29769   -1225.0787     132622.4   -34059.075    2630.8337   -36689.909    64.644406    246.80934 
   20700    138.79991   -1166.0516    132716.91   -34039.328    2621.4323    -36660.76    64.683831    245.92735 
   20750    141.31838   -1265.3695    132769.49   -34012.564    2668.9973   -36681.561    65.142946    250.38962 
   20800    138.94593   -1181.2546    132740.48   -33916.396    2624.1901   -36540.586    65.095711    246.18607 
   20850    141.68379   -1076.9362    132774.49   -33865.044    2675.8985   -36540.942     65.07913    251.03705 
   20900    138.96429   -1226.5481    132852.32   -33933.876    2624.5369   -36558.413    65.383801    246.21861 
   20950    140.67073   -1271.9946    132807.08   -33916.873    2656.7654   -36573.639    65.453228    249.24209 
   21000    143.73441   -1396.8418    132734.98   -33926.319    2714.6274   -36640.946    65.737968    254.67037 
   21050     139.6272   -1668.5904    132654.89    -33969.28    2637.0569   -36606.337    65.925553    247.39316 
   21100    141.24298   -1360.5464    132570.88   -34003.774    2667.5732   -36671.347    65.872689    250.25602 
   21150    138.72727   -1442.3381    132580.79   -33989.569    2620.0605   -36609.629    65.989508    245.79866 
   21200    139.14716   -1339.4172     132495.4   -34026.786    2627.9906   -36654.776    66.398648    246.54261 
   21250    141.79597   -1134.0358    132503.83   -33979.678    2678.0172   -36657.696    66.474695    251.23582 
   21300    137.75352   -1233.7857    132469.33   -34011.673    2601.6697   -36613.343    66.529844    244.07334 
   21350    138.94401   -1140.9166    132522.56   -34032.616    2624.1539    -36656.77    66.582166    246.18268 
   21400    140.86134   -1118.1533    132574.64   -33991.451    2660.3653   -36651.816    66.986728    249.57982 
   21450    140.41788   -1163.3588    132601.55   -33977.968    2651.9901   -36629.958    67.173321     248.7941 
   21500    138.41097   -1206.6535    132623.41    -34025.06    2614.0866   -36639.146    67.203786    245.23822 
   21550    139.97509    -1089.202    132724.32   -33953.405    2643.6273   -36597.032    67.305128    248.00956 
   21600    143.39019   -1442.7413    132773.88   -33984.073    2708.1263     -36692.2    67.375211    254.06047 
   21650    139.77643   -1303.7006    132842.43   -34021.733    2639.8753   -36661.609    67.607489    247.65756 
   21700    142.07427   -1368.7598    132889.51   -34035.645    2683.2734   -36718.918    67.690195    251.72892 
   21750    137.58364   -1160.9791    132897.38   -34065.591    2598.4614   -36664.053    67.748277    243.77236 
   21800    139.52814   -1143.8935    132858.39   -33993.754     2635.186    -36628.94    67.908451    247.21764 
   21850    141.66754   -1494.3637    132796.98   -33926.603    2675.5915   -36602.194    68.201036    251.00825 
   21900    145.09553   -963.27874    132677.68   -33952.991    2740.3341   -36693.325    68.491229    257.08202 
   21950    141.38975    -1305.136    132623.86   -34018.094    2670.3452   -36688.439    68.899533    250.51607 
   22000      134.823   -1312.6662    132564.77   -34017.861    2546.3229   -36564.184     68.96932    238.88103 
   22050    142.20732   -1113.4802    132597.64   -33997.708     2685.786   -36683.494    69.249178    251.96464 
   22100    140.88634   -1129.5948    132629.04    -34036.84    2660.8376   -36697.678    69.265609    249.62412 
   22150    141.15819   -1184.6567    132665.36   -34034.634    2665.9717   -36700.605    69.354889    250.10578 
   22200     140.4608   -1104.1052    132638.95   -34023.353    2652.8006   -36676.153    69.343862    248.87014 
   22250    141.12391   -1212.1454    132590.98   -33994.034    2665.3244   -36659.359     69.43951    250.04505 
   22300    139.67721   -1250.1725    132632.04   -34001.075    2638.0013   -36639.076    69.647388    247.48176 
   22350    143.69794   -1327.0578    132497.71   -33977.014    2713.9386   -36690.953    69.781196    254.60575 
   22400    140.24593   -1222.6646    132394.16   -33988.693    2648.7426   -36637.435    69.867747    248.48944 
   22450    142.44769   -1056.7487    132321.17    -34000.74    2690.3258   -36691.066    69.902739    252.39054 
   22500    139.47194   -1023.4116    132352.81   -34005.247    2634.1247   -36639.371    69.925845    247.11808 
   22550    139.62743   -1116.9261    132394.16   -34023.134    2637.0613   -36660.195    70.065207    247.39357 
   22600    138.52102   -1038.9824    132516.32   -34034.809    2616.1651   -36650.974     70.38628    245.43322 
   22650    136.26684   -1272.9764    132595.81    -34017.49    2573.5918   -36591.082    70.338546    241.43924 
   22700    141.46187   -1035.0884    132603.01    -34013.66    2671.7072   -36685.367    70.585186    250.64385 
   22750    141.03036   -1077.0374    132566.44   -33998.801    2663.5576   -36662.359    70.691641     249.8793 
   22800    141.35283   -1098.3719    132576.56   -33992.029    2669.6478   -36661.677    70.819899    250.45065 
   22850     138.6987   -1060.3238    132632.84   -34037.101    2619.5208   -36656.622    71.108877    245.74803 
   22900    141.65758   -1087.2252    132658.03   -33973.495    2675.4034   -36648.899    71.160934    250.99061 
   22950    139.05413    -1170.527     132673.7   -34020.958    2626.2337   -36647.192    71.216372    246.37779 
   23000    141.58483    -1258.532    132719.45   -34046.929    2674.0294   -36720.958    71.243771    250.86171 
   23050    138.15209   -1220.7825    132727.46    -34097.59    2609.1973   -36706.787    71.556722    244.77954 
   23100    137.92013   -1134.8061    132715.17   -34071.355    2604.8164   -36676.171    71.816469    244.36855 
   23150     138.8486   -1177.1137    132657.57   -34096.575     2622.352   -36718.927    72.138691    246.01363 
   23200    139.38441   -1116.7826    132638.73   -34106.637    2632.4714   -36739.109    72.285179    246.96298 
   23250    136.95178   -1012.0789    132617.58   -34095.396    2586.5278   -36681.924     72.54546    242.65282 
   23300    139.25244   -722.56658    132674.86   -34086.638    2629.9791   -36716.617    72.660454    246.72916 
   23350    139.99716   -1244.7579    132706.87   -34050.281    2644.0442   -36694.325    72.966216    248.04867 
   23400    139.62874   -1180.1289    132686.84   -34015.487    2637.0859   -36652.573    73.537085    247.39588 
   23450    140.66377   -1152.4542    132674.88   -34042.221     2656.634   -36698.855    73.667871    249.22977 
   23500    139.80272   -1431.4957    132631.31   -34038.327    2640.3719   -36678.699    73.984739    247.70416 
   23550    140.67366    -905.9334    132637.15   -34039.083    2656.8207   -36695.904    74.150654    249.24728 
   23600    139.11751   -1236.4869    132615.59   -34041.294    2627.4307   -36668.725    74.199154    246.49009 
   23650    139.75482   -1154.0516    132599.18   -34058.788    2639.4672   -36698.255    74.427664    247.61928 
   23700    141.23907   -1206.2524    132674.92   -34099.633    2667.4993   -36767.133       74.625    250.24909 
   23750      139.262   -854.83081    132684.27   -34055.421    2630.1596    -36685.58    74.669849    246.74609 
   23800    141.31808   -861.05129    132750.12    -34063.19    2668.9916   -36732.181    74.838309    250.38908 
   23850    140.23269   -962.72973     132734.9   -34061.176    2648.4925   -36709.668     75.02662    248.46598 
   23900    142.40807   -913.63706    132818.11    -34052.07    2689.5776   -36741.648    75.158865    252.32035 
   23950    140.54677   -1067.4555    132913.79   -33980.209    2654.4242   -36634.633    75.353806    249.02246 
   24000    142.05913   -1077.7091    132899.69     -33908.8    2682.9874   -36591.788     75.52993    251.70209 
   24050    139.84471   -1139.4784    132851.02   -33977.526    2641.1648   -36618.691    75.776372    247.77854 
   24100    142.34957   -1288.1399    132812.67   -33966.219    2688.4726   -36654.692    75.953485    252.21668 
   24150    140.41121   -1272.5541    132801.39   -34020.173     2651.864   -36672.037    76.128754    248.78228 
   24200    138.76146   -1446.2728    132778.02   -34004.908    2620.7062   -36625.614    76.195362    245.85923 
   24250    142.02378   -1054.7572    132760.09   -34004.915    2682.3196   -36687.234    76.363518    251.63945 
   24300    141.61617   -1124.3007    132755.29   -34033.389    2674.6213    -36708.01    76.451854    250.91723 
   24350    138.95498   -1275.6792    132736.35   -34068.602    2624.3611   -36692.963    76.504876    246.20211 
   24400    140.27128   -1098.2804    132714.53   -34041.379    2649.2212   -36690.601     76.60401    248.53435 
   24450     140.2601   -1038.4795    132726.34   -34058.012      2649.01   -36707.022    76.615335    248.51453 
   24500    137.24462   -1023.1837    132819.22   -34071.045    2592.0586   -36663.103    76.978979    243.17168 
   24550    139.67283   -1223.0094    132785.67     -34044.4    2637.9187   -36682.319    77.156316    247.47401 
   24600    139.66542   -1027.9168    132779.58   -34045.304    2637.7787   -36683.083    77.293537    247.46088 
   24650    138.36349   -1160.0724    132769.53   -34097.338      2613.19   -36710.528    77.579271    245.15411 
   24700    139.48694    -787.5333    132846.19    -34081.65    2634.4079   -36716.057    77.816587    247.14465 
   24750    137.94051    -1213.715    132931.97   -34090.964    2605.2014   -36696.166    78.021678    244.40466 
   24800    141.82128   -1368.2447    132945.05   -34047.292    2678.4952   -36725.788    78.331357    251.28066 
   24850    139.91935    -1102.124    132885.69   -34039.351    2642.5746   -36681.926    78.446723    247.91079 
   24900    137.49522   -1186.1873     132911.4   -34074.835    2596.7914   -36671.626    78.661187    243.61569 
   24950    140.08998   -1150.5351    132902.59   -34029.816    2645.7971   -36675.613    79.035272    248.21312 
   25000     138.6696   -946.68228    132878.51   -34048.802    2618.9713   -36667.773    79.235656    245.69648 
   25050     139.9357   -1475.7435    132840.69   -34114.987    2642.8834    -36757.87    79.360769    247.93977 
   25100    140.71555   -1415.9512    132788.96   -34117.467     2657.612   -36775.079    79.617016    249.32152 
   25150    138.68204   -996.10234    132794.35   -34115.779    2619.2063   -36734.986    79.858458    245.71852 
   25200    137.45284    -1189.392    132867.06   -34163.203     2595.991   -36759.194    79.911109     243.5406 
   25250    140.05231   -1212.2225    132760.68   -34143.297    2645.0857   -36788.383    79.896735    248.14637 
   25300    140.06557   -1236.6648    132665.58   -34156.081    2645.3361   -36801.417    80.114989    248.16987 
   25350    138.23666   -1057.9509    132676.79   -34143.185    2610.7945   -36753.979    80.258145    244.92938 
   25400    135.05928   -1174.0531    132680.15   -34209.226    2550.7852   -36760.012    80.523947    239.29966 
   25450    137.59733   -1220.8363    132728.38   -34189.725    2598.7199   -36788.445    80.641698    243.79661 
   25500     139.1802   -1105.1884    132715.92   -34148.622    2628.6146   -36777.237    80.733368    246.60115 
   25550    136.64402   -817.85915     132818.5   -34075.212    2580.7153   -36655.927    80.858171    242.10753 
   25600    135.97333   -1162.9212    132912.05   -34103.195    2568.0483   -36671.244     80.86482    240.91918 
   25650    138.04582   -911.48141    132961.52   -34072.704    2607.1903   -36679.894    80.980396    244.59125 
   25700    139.22873   -992.86187    133033.93   -34106.756    2629.5313   -36736.288    81.161012    246.68715 
   25750    141.98788   -904.67283    133113.87   -34071.893    2681.6418   -36753.535    81.460257    251.57585 
   25800    137.74885   -1239.1882    133033.29   -34087.675    2601.5817   -36689.257    81.516868    244.06508 
   25850    140.24558   -816.79247    133045.13   -34106.184    2648.7358    -36754.92    81.622006    248.48881 
   25900    140.55779   -1243.1083    133136.76   -34095.354    2654.6324   -36749.986    81.455389    249.04199 
   25950    140.88322   -1121.1994    133075.97   -34056.188    2660.7786   -36716.966     81.71376    249.61859 
   26000     138.2243   -1281.7886    133132.68    -34083.86    2610.5611   -36694.421    81.833269    244.90748 
   26050    139.45692   -1490.1719    133054.14   -34003.478    2633.8409   -36637.319    81.874765    247.09145 
   26100    141.33697   -1517.3272    133043.97   -33980.217    2669.3482   -36649.565    81.911591    250.42254 
   26150     141.3107   -1275.4413    133037.66    -34008.17    2668.8521   -36677.023    81.977121      250.376 
   26200    140.56108   -1524.8019     132995.4   -33988.206    2654.6946     -36642.9    82.247987    249.04782 
   26250    138.73222    -1307.733    132986.98   -34017.205     2620.154   -36637.359    82.341912    245.80743 
   26300    140.29418   -1025.1725    133015.34   -34027.594    2649.6537   -36677.248    82.164674    248.57492 
   26350    140.12262   -1025.4079    132999.66   -34018.223    2646.4137   -36664.637    82.310945    248.27096 
   26400    135.72122   -1432.2528    133040.68   -34033.137     2563.287   -36596.424    82.439936     240.4725 
   26450    138.32528   -1065.1236    133055.71   -34023.716    2612.4683   -36636.185    82.788887     245.0864 
   26500    137.90223   -1157.6586    132988.34   -34027.666    2604.4784   -36632.145     82.95872    244.33684 
   26550    141.40474   -1297.9638    132927.21   -34020.566    2670.6282   -36691.194    82.977301    250.54262 
   26600    140.06953   -1141.1107    132918.74   -33997.205    2645.4108   -36642.616    83.204037    248.17688 
   26650    136.99145   -1015.9331    133007.95    -34040.92    2587.2771   -36628.197    83.541537    242.72311 
   26700    139.61218   -1481.8785    132936.86   -34075.475    2636.7733   -36712.248    83.347813    247.36655 
   26750     137.4427   -1233.9083    132944.39   -34078.193    2595.7995   -36673.992    83.393936    243.52264 
   26800    141.00419   -1384.7102    132891.69   -34075.082    2663.0633   -36738.145    83.532685    249.83293 
   26850    134.36247   -1269.5465    132892.41   -34055.136     2537.625   -36592.761    83.766787    238.06505 
   26900    139.95096   -1250.3671    132843.76   -34109.237    2643.1716   -36752.409    83.843576    247.96681 
   26950    137.36984   -1277.7373    132819.18   -34098.117    2594.4236    -36692.54     83.97669    243.39355 
   27000    140.09444   -1251.9461    132824.74   -34126.872    2645.8813   -36772.753     84.30065    248.22102 
   27050    138.58104   -1343.8256    132830.52   -34167.873    2617.2987   -36785.172    84.554891    245.53956 
   27100    139.63416   -911.93779    132937.18   -34183.298    2637.1884   -36820.487    84.886106    247.40549 
   27150    136.05635   -1224.1508    133016.99   -34132.477    2569.6164   -36702.094     85.02764    241.06629 
   27200    136.84515   -1045.7774    133063.39   -34089.682    2584.5139   -36674.195    85.356411    242.46388 
   27250    138.71335   -1312.3843    133050.06   -34085.395    2619.7975   -36705.192    85.470415    245.77398 
   27300    138.15817   -1343.8382    133021.28   -34135.722    2609.3123   -36745.034    85.462779    244.79032 
   27350    137.65651   -1167.7533    132978.04   -34094.826    2599.8376   -36694.664    85.574369    243.90147 
   27400     139.5157   -1227.8121    133009.19   -34076.426    2634.9511   -36711.377    85.468715    247.19561 
   27450    138.95897   -1181.0977    132962.61   -34088.369    2624.4364   -36712.806     85.22839    246.20918 
   27500    141.81372   -1022.5655    133104.89   -34038.699    2678.3525   -36717.051    85.382139    251.26727 
   27550    138.65948   -1264.6035    133168.93   -34129.601    2618.7801   -36748.381    85.597169    245.67854 
   27600    140.10413   -1153.4978    133183.06   -34094.631    2646.0645   -36740.695    85.629335     248.2382 
   27650    142.06962   -1093.3451    133149.85   -34098.678    2683.1855   -36781.863    85.595134    251.72067 
   27700      142.827   -1120.5854    133207.12   -34053.058    2697.4896   -36750.548    85.959013     253.0626 
   27750    139.66072   -1151.5352    133205.19    -34045.28      2637.69    -36682.97    86.235074    247.45256 
   27800    140.16301    -1166.775    133186.42   -34088.032    2647.1764   -36735.208    86.157657    248.34251 
   27850    139.51234   -1288.2495    133223.08   -34063.473    2634.8876    -36698.36    86.662997    247.18965 
   27900    142.76104   -1342.9405    133211.11   -34023.017     2696.244   -36719.261    86.767824    252.94574 
   27950    140.35113   -1429.5563    133281.03   -34027.346    2650.7294   -36678.076    86.619748    248.67583 
   28000    142.82405    -1114.028    133271.01   -34037.938    2697.4339   -36735.372     86.82206    253.05737 
   28050    139.92956   -1342.9107    133298.31   -34072.905    2642.7673   -36715.673    86.814865    247.92888 
   28100    139.52156   -1074.2255    133296.19   -34107.303    2635.0618   -36742.365     86.95109    247.20599 
   28150    140.75044   -889.40104    133373.45   -34116.854    2658.2708   -36775.125    87.222239    249.38333 
   28200    141.51683   -997.10256    133388.51   -34095.934    2672.7452   -36768.679    87.392264    250.74122 
   28250    138.40263   -1003.8469    133458.44   -34168.372    2613.9292   -36782.301    87.535576    245.22346 
   28300    140.21026   -1306.1577    133416.15   -34084.441    2648.0689    -36732.51    87.499159    248.42624 
   28350    139.29609   -1277.2699    133385.25   -34069.492    2630.8035   -36700.295    87.432219     246.8065 
   28400    141.55696   -1112.0533    133341.66   -34065.315     2673.503   -36738.818    87.631997    250.81232 
   28450    140.34866   -1016.0939    133322.16   -34066.546    2650.6828   -36717.229    87.862215    248.67146 
   28500    139.36318   -1428.8801     133242.5   -34098.523    2632.0706   -36730.593    87.748972    246.92537 
   28550    137.16955   -1272.1298    133187.75   -34146.768    2590.6407   -36737.409    88.093153    243.03866 
   28600    142.10136    -1227.763    133171.61   -34073.139    2683.7849   -36756.924    88.332093    251.77691 
   28650    139.61486   -1229.8199    133129.05    -34100.54    2636.8239   -36737.364    88.374894     247.3713 
   28700    137.33637    -1301.343    133127.53   -34117.103    2593.7913   -36710.895    88.578472    243.33424 
   28750    136.29489   -1290.9861    133104.51   -34138.216    2574.1215   -36712.338    88.801008    241.48894 
   28800    137.50068   -1117.7625    133108.63   -34152.025    2596.8945   -36748.919    88.880863    243.62536 
   28850    138.15846   -1085.1851    133084.37   -34146.344    2609.3177   -36755.662    89.078923    244.79083 
   28900     138.5494   -1024.2649    133174.24   -34143.697     2616.701   -36760.398    89.104553    245.48349 
   28950    140.13156   -1184.9503    133237.89   -34151.082    2646.5824   -36797.665    89.291459    248.28679 
   29000    139.74586   -1107.9903       133204   -34091.437     2639.298   -36730.735    89.701716     247.6034 
   29050    137.92317   -1315.1802    133192.16   -34101.235    2604.8739   -36706.109    89.813131    244.37394 
   29100    138.94526   -1337.5451    133212.97   -34090.628    2624.1775   -36714.806    89.955166    246.18489 
   29150    143.23316    -1142.763     133206.2   -34019.846    2705.1606   -36725.007    90.238987    253.78225 
   29200    143.40529   -1200.9698    133235.75   -34042.206    2708.4115   -36750.618    90.553613    254.08723 
   29250    139.43639   -1165.3593    133230.19   -34052.529    2633.4532   -36685.982     90.75667    247.05509 
   29300    139.16967   -1398.8043    133241.24    -34100.77    2628.4157   -36729.186    91.009108     246.5825 
   29350    138.40085   -1061.3288     133239.1   -34149.141    2613.8955   -36763.037    91.272109     245.2203 
   29400    138.86173   -1246.9292    133267.95    -34165.95    2622.5999    -36788.55    91.272969    246.03689 
   29450    137.56976   -1295.0404    133282.25   -34167.873    2598.1993   -36766.072    91.268394    243.74777 
   29500    140.57786   -1232.1387    133331.37   -34154.893    2655.0115   -36809.904    91.522483    249.07755 
   29550    137.72797   -1027.4974    133370.05   -34159.008    2601.1872   -36760.195     91.58998    244.02808 
   29600    139.54132   -1302.9398    133302.47   -34113.149    2635.4349   -36748.584     91.83583      247.241 
   29650    141.99318   -1072.3624    133282.54   -34012.175    2681.7417   -36693.917    92.191756    251.58523 
   29700    142.27818   -1107.9989    133334.89   -34045.085    2687.1245    -36732.21    92.232205     252.0902 
   29750     141.2371   -1180.4683    133399.64   -34060.173    2667.4622   -36727.635    92.262996    250.24561 
   29800    141.95229   -1243.3849     133430.2   -34030.258    2680.9694   -36711.228    92.311777    251.51277 
   29850    141.94366   -1032.1766    133360.16   -34009.964    2680.8065    -36690.77    92.435845    251.49749 
   29900     142.2832   -1345.8525    133342.99   -34063.589    2687.2192   -36750.808     92.93697    252.09909 
   29950      144.324   -1202.5597    133350.62   -34074.148    2725.7626    -36799.91    92.976268    255.71501 
   30000    139.56274   -1087.5383    133274.03    -34068.49    2635.8395    -36704.33    93.286596    247.27895 
   30050    139.78257   -1139.6153    133360.39   -34060.406    2639.9913   -36700.397    93.607497    247.66845 
   30100    141.47892   -1105.5198    133422.55   -34067.247    2672.0292   -36739.276    93.342436    250.67406 
   30150    143.09606   -1261.8851    133485.61   -34019.352    2702.5713   -36721.923     93.11897    253.53933 
   30200    142.53548    -1244.254    133516.54   -33993.692    2691.9839   -36685.676     93.05672    252.54609 
   30250    142.93097   -1392.6921    133456.47   -33978.575    2699.4533   -36678.028    92.844747    253.24683 
   30300    138.80979   -1398.4534    133391.53    -33972.97     2621.619   -36594.589    92.920574    245.94487 
   30350    141.44326   -1055.5789    133411.12   -33991.685    2671.3557   -36663.041     92.99929    250.61087 
   30400    140.90241   -1274.7049    133380.67   -33974.872     2661.141   -36636.013    92.936392    249.65259 
   30450    142.46584    -1048.424    133393.46   -33963.298    2690.6686   -36653.967    92.593204    252.42269 
   30500     141.7259    -1353.004    133461.49   -33979.016    2676.6939    -36655.71    92.845936    251.11167 
   30550    142.25825   -1310.4643    133386.94   -33932.016    2686.7479   -36618.764    93.045127    252.05488 
   30600    139.41391   -1175.9308    133325.85   -33967.109    2633.0285   -36600.137    93.213544    247.01524 
   30650    140.51998   -1047.2551    133417.82   -33975.593    2653.9184   -36629.512    93.482574    248.97501 
   30700    139.76281   -1408.8389     133429.9   -33975.546    2639.6181   -36615.164    93.592837    247.63344 
   30750    142.15915   -1198.5423    133385.59   -33976.251    2684.8764   -36661.127    93.893474     251.8793 
   30800    138.15924   -1399.9612    133340.06    -33996.33    2609.3324   -36605.663    94.209222    244.79221 
   30850    141.52988   -1350.2793    133315.76   -34004.733    2672.9916   -36677.725    94.284858    250.76435 
   30900    141.65052   -1171.0545    133260.31   -33893.716    2675.2701   -36568.986    94.538957     250.9781 
   30950    142.67793   -1377.6527    133251.94   -33960.565    2694.6742   -36655.239    94.791915    252.79848 
   31000    143.28163   -1137.9554    133232.46   -33891.423    2706.0759   -36597.499    94.969966    253.86812 
   31050     142.8269   -1159.4032    133344.88     -33908.1    2697.4877   -36605.587    95.171439    253.06242 
   31100    141.79184   -1235.2657    133401.83   -33892.145    2677.9391   -36570.084    95.446929    251.22849 
   31150    140.81045   -1240.0941    133413.68   -33923.348    2659.4042   -36582.753    95.243216    249.48966 
   31200    142.30841   -1362.5856    133335.88   -33956.194    2687.6953   -36643.889    95.339729    252.14376 
   31250    143.92618   -1585.8359    133280.85    -33950.31    2718.2492   -36668.559    95.804712    255.01015 
   31300    137.66001   -1277.7393    133257.15   -33997.209    2599.9037   -36597.113    96.077905    243.90766 
   31350    144.33141   -1222.8656    133265.03   -33915.495    2725.9026   -36641.398    96.404483    255.72814 
   31400    139.24649   -1189.5657    133305.18   -33908.519    2629.8666   -36538.385    96.444305    246.71861 
   31450    140.37463   -1168.6542    133267.93   -33937.872    2651.1732   -36589.046    96.697981    248.71747 
   31500    140.68869   -1056.5699    133265.53   -33944.464    2657.1046   -36601.568    96.860397    249.27391 
   31550    143.78122   -1194.2838    133251.11   -33939.224    2715.5114   -36654.736    96.895666     254.7533 
   31600    140.06608    -1018.488    133367.94   -33962.958    2645.3457   -36608.304    96.668535    248.17077 
   31650    141.79582   -1240.5068    133364.81   -33956.844    2678.0143   -36634.858    96.999447    251.23555 
   31700     142.7096   -1225.7797    133340.75   -33916.095    2695.2724   -36611.368    97.053587    252.85459 
   31750    139.74245   -1482.0961    133372.95   -33949.906    2639.2335    -36589.14    97.267152    247.59736 
   31800    140.74373   -1202.0613    133353.99   -33967.454    2658.1441   -36625.598    97.379714    249.37143 
   31850    144.03842   -1366.2141    133372.45   -33921.213     2720.369   -36641.582     97.36722    255.20901 
   31900     140.9171     -1251.73    133451.33   -33888.541    2661.4185   -36549.959    97.685332    249.67862 
   31950    140.40261   -1158.8498    133303.16    -33951.24    2651.7016   -36602.941    97.737379    248.76704 
   32000    142.28365   -1319.4084    133221.16    -33905.06    2687.2276   -36592.288    97.804906    252.09988 
   32050    143.21074   -1474.7144    133147.05   -33924.221    2704.7372   -36628.958     97.75749    253.74252 
   32100    141.73981   -1086.0636    133144.41    -33881.48    2676.9565   -36558.436    97.864681    251.13631 
   32150    140.64331   -1037.6435    133153.53    -33909.83    2656.2476   -36566.077    98.105382    249.19352 
   32200    142.68454   -1523.3366    133112.79   -33841.973     2694.799   -36536.772    98.122751    252.81019 
   32250    143.91276   -1096.6605     133042.6   -33885.243    2717.9957   -36603.239    98.210066    254.98636 
   32300    142.03192   -1348.3354    133078.45   -33918.771    2682.4734   -36601.245    98.446863    251.65387 
   32350    140.41499   -1016.7169    133157.15   -33916.149    2651.9355   -36568.084    98.748055    248.78898 
   32400    138.26663   -1344.7208     133191.5   -33939.544    2611.3606   -36550.905    98.719052    244.98248 
   32450    138.33213   -1039.3464    133194.86   -33943.775    2612.5976   -36556.372     98.76377    245.09853 
   32500    139.85066   -1076.5956    133294.92   -33942.562    2641.2772   -36583.839    99.089263    247.78908 
   32550    136.71818   -1185.8493    133246.19   -34007.108    2582.1159   -36589.224    99.047295    242.23892 
   32600    142.49996   -1052.7449    133352.86   -33948.568    2691.3131   -36639.881    99.076205    252.48316 
   32650     143.5691   -1167.5353    133363.98   -33954.035    2711.5053    -36665.54    99.079284    254.37747 
   32700    138.84006   -1516.3099    133299.46    -33979.39    2622.1906    -36601.58    99.121913    245.99849 
   32750    137.48912   -1576.0845    133225.62   -33991.706    2596.6762   -36588.382    98.952985    243.60489 
   32800    139.28394    -1537.289    133107.74   -33976.316    2630.5739    -36606.89    99.015861    246.78496 
   32850    140.11884    -1196.879    133113.92   -33972.511    2646.3421   -36618.853    98.913977    248.26425 
   32900    138.37373   -1515.6744     133146.5   -33979.424    2613.3833   -36592.807    99.180511    245.17225 
   32950    139.55936   -1082.5481    133170.21   -33929.778    2635.7757   -36565.554    99.328354    247.27296 
   33000    139.65489   -1267.8993    133224.84   -33854.644    2637.5799   -36492.224    99.409422    247.44223 
   33050     140.5294    -1237.588    133223.12   -33899.986    2654.0962   -36554.082    99.402814    248.99169 
   33100    140.65948   -1287.7161    133142.48    -33883.12    2656.5529   -36539.673    99.525766    249.22216 
   33150    140.37578   -1343.0934    133191.13   -33947.677    2651.1949   -36598.872    99.806185     248.7195 
   33200    141.17629   -1300.9412    133055.17   -33984.922    2666.3137   -36651.236    99.676658    250.13786 
   33250    141.66333   -1405.2461    132923.55   -33948.182    2675.5121   -36623.694    99.763107     251.0008 
   33300    140.35151   -1222.1525    132834.31   -33906.494    2650.7366   -36557.231    99.727289    248.67651 
   33350    141.63627   -1488.4225    132793.67   -33932.294    2675.0009   -36607.295    100.06336    250.95285 
   33400    143.59264   -1181.4609    132693.45    -33880.58    2711.9498    -36592.53    100.11504    254.41917 
   33450    144.72546   -1147.5968    132734.86   -33867.852    2733.3447   -36601.197    100.58427    256.42631 
   33500    140.03655   -1597.2471    132680.03   -33930.034    2644.7881   -36574.822    100.87079    248.11846 
   33550    141.77247   -1440.4223    132689.36   -33948.971    2677.5734   -36626.544    100.81095    251.19418 
   33600     140.6135   -1251.4999    132737.03   -33954.948    2655.6845   -36610.633    101.05495    249.14069 
   33650    142.40758   -1307.1776    132689.77    -33943.21    2689.5683   -36632.778    101.32134    252.31947 
   33700    140.86753   -1228.7572    132715.51   -33938.387    2660.4823   -36598.869    101.61085    249.59079 
   33750    139.16647   -882.54561    132813.66   -33917.936    2628.3553   -36546.291    101.78787    246.57683 
   33800    139.72128   -1435.7291    132845.62   -33937.757    2638.8336    -36576.59     102.0039    247.55984 
   33850    140.38373   -1246.8626    132879.04   -33946.809    2651.3451   -36598.154    101.98118     248.7336 
   33900    138.07683   -1206.3721    132862.23   -33964.909    2607.7759   -36572.685    102.01625    244.64619 
   33950    140.56655   -1339.3442     132786.3   -33911.916    2654.7979   -36566.714    102.09051    249.05751 
[...]
   92000    138.14444   -1295.6187    132421.64   -34097.617    2609.0528   -36706.669    268.89861    244.76598 
   92050    137.29102    -1077.243    132457.71     -34139.9    2592.9348   -36732.835     268.5619    243.25389 
   92100    138.37754   -1326.7835    132468.88   -34089.832    2613.4553   -36703.287    268.80247      245.179 
   92150    136.64874   -1235.8988    132506.73   -34073.653    2580.8044   -36654.458    269.42842    242.11588 
   92200    135.33913   -1311.5733    132524.61   -34120.046    2556.0707   -36676.116    269.65103    239.79551 
   92250    138.75368   -1367.6698    132527.69   -34148.203    2620.5593   -36768.763    269.59924    245.84545 
   92300    134.72537   -1188.7595    132514.02   -34139.297     2544.479   -36683.776    269.81448    238.70805 
   92350    136.97634   -711.68392    132641.82   -34125.057    2586.9916   -36712.049    270.10941    242.69633 
   92400    139.46356   -1073.3405    132784.82   -34117.047    2633.9664   -36751.013    270.61012    247.10323 
   92450    137.69415   -1321.5898    132795.87   -34059.158    2600.5485   -36659.707    271.36804    243.96816 
   92500    137.32391   -1319.5273    132755.54   -34088.924     2593.556    -36682.48    271.30541    243.31217 
   92550    140.56273   -1156.0898    132821.75   -34073.964    2654.7256   -36728.689    271.10203    249.05073 
   92600    141.92456    -1242.577    132914.09   -34049.386    2680.4457   -36729.831    271.40521    251.46364 
   92650    136.90933   -1441.4446     132944.9   -34076.972     2585.726   -36662.698     271.3357     242.5776 
   92700    138.84504   -1086.5217    132914.58   -34049.831    2622.2848   -36672.116    271.32079    246.00733 
   92750    138.46431   -1171.7209     132870.3   -34072.174    2615.0941   -36687.268    271.04097    245.33274 
   92800    142.09171   -1205.2878    132866.46   -34058.777    2683.6027    -36742.38    271.39491    251.75981 
   92850    139.72407    -1395.373    132831.58   -34053.328    2638.8864   -36692.214    271.51431    247.56479 
   92900    141.06678   -1170.9371    132886.82    -34043.76    2664.2454   -36708.005    271.52481    249.94382 
   92950    139.42736   -1173.3639    132894.77   -34084.555    2633.2826   -36717.838    272.00101    247.03908 
   93000    139.10314   -1146.2402    132847.08   -34108.842    2627.1592   -36736.001    272.01717    246.46462 
   93050    138.85453   -1178.4741    132806.65    -34158.14    2622.4639   -36780.604     272.0134    246.02413 
   93100    136.96672   -1343.9693    132843.94   -34111.675    2586.8099   -36698.485    272.33845    242.67928 
   93150    140.46388   -1141.8463    132722.34   -34059.023    2652.8587   -36711.882    272.65526     248.8756 
   93200    139.91816   -1110.6598    132660.33   -34067.517    2642.5522   -36710.069    272.63241    247.90869 
   93250    141.07275   -1288.8172    132710.74   -34042.299    2664.3582   -36706.658    273.12717    249.95441 
   93300    140.58084   -1108.5294    132762.32   -34047.208    2655.0677   -36702.276    273.43177    249.08282 
   93350     142.4116   -1022.4731    132837.07   -34038.568    2689.6443   -36728.212    273.59214     252.3266 
   93400    141.44903   -1076.7084    132868.94   -34018.735    2671.4646     -36690.2    273.57317    250.62109 
   93450    139.24859   -1109.8116    132891.95   -34051.122    2629.9063   -36681.028    273.81473    246.72234 
   93500    140.03077    -1328.632    132856.79   -33989.121    2644.6788   -36633.799    273.63995     248.1082 
   93550    142.51144   -1124.6981    132804.29   -34004.763    2691.5299   -36696.293    273.63712    252.50349 
   93600    139.81253    -1314.842    132780.19   -34102.296    2640.5572   -36742.853    273.46095    247.72154 
   93650    142.28152    -1165.145    132728.93    -34088.66    2687.1874   -36775.848    273.52598    252.09611 
   93700    138.59625   -1357.1123    132698.49   -34124.696     2617.586   -36742.282    273.58651    245.56651 
   93750    138.20373   -1411.8838    132629.48   -34087.516    2610.1727   -36697.689     274.1004    244.87104 
   93800    138.69466   -1285.3926    132626.51   -34084.312    2619.4446   -36703.757    274.10368    245.74088 
   93850    138.94204   -1233.4294    132637.26   -34054.369    2624.1166   -36678.485     274.8712    246.17918 
   93900    138.60104   -1092.1174     132626.9   -34057.405    2617.6763   -36675.081    275.31035    245.57499 
   93950     138.3363   -952.44203    132595.96   -34120.979    2612.6765   -36733.656    275.57285    245.10593 
   94000    140.82864   -1397.1826    132736.46    -34045.84    2659.7478   -36705.588    275.89519    249.52189 
   94050    136.09993   -1154.4493    132743.33   -34066.129    2570.4395   -36636.569    275.87286     241.1435 
   94100    139.53055   -1221.1651    132734.94    -33962.77    2635.2315   -36598.002    276.23772    247.22191 
   94150    143.92015   -1284.3324     132721.9   -33980.256    2718.1353   -36698.391    276.31602    254.99946 
   94200    142.36437    -977.3755    132763.89   -33973.633    2688.7522   -36662.385    276.20412    252.24291 
   94250    139.94224   -1096.6722    132801.32   -33958.097    2643.0068   -36601.104    276.47229    247.95134 
   94300    142.73718   -1105.0979    132861.43   -33930.211    2695.7932   -36626.005    276.81414    252.90345 
   94350    144.10274   -1018.2216    133002.04   -33953.361    2721.5838   -36674.945    277.18504    255.32298 
   94400    139.77521   -1198.1437     132982.1   -33980.887    2639.8523    -36620.74     277.5804    247.65541 
   94450    141.14577   -1223.2851    132967.24    -34020.24    2665.7372   -36685.977    277.71577    250.08378 
   94500    136.78878   -1264.3825    132888.31   -34035.304    2583.4494   -36618.753    277.57532    242.36402 
   94550    141.25769   -1240.8064    132931.21   -34039.043    2667.8511   -36706.894    277.43824    250.28209 
   94600     141.7643   -1111.4562    132946.98   -34032.864     2677.419   -36710.283    277.23336    251.17969 
   94650    141.02076   -904.49872    133043.69   -34009.668    2663.3762   -36673.044    277.68616    249.86228 
   94700    140.99493   -1290.7988    133055.72   -34006.156    2662.8883   -36669.044    277.70028    249.81651 
   94750    140.83918   -998.05733    133078.31   -34028.754    2659.9469   -36688.701    277.75998    249.54057 
   94800    137.26345   -1341.7438    133057.66   -34108.806    2592.4142    -36701.22    278.04937    243.20505 
   94850    140.78164   -1116.4504    132995.75   -34107.675    2658.8601   -36766.535    278.50159    249.43861 
   94900    140.03513   -1235.2363    132995.23   -34107.771    2644.7613   -36752.532    278.34829    248.11594 
   94950    136.51321    -1141.949    133001.01   -34100.862    2578.2448   -36679.107    278.74876    241.87575 
   95000    141.02629   -1156.5921    132961.96   -34051.116    2663.4807   -36714.596    278.74126    249.87208 
   95050    139.66694   -1313.3163    132987.29   -34047.407    2637.8074   -36685.214    279.16527    247.46357 
   95100    140.37342   -1156.0431     132978.7    -34044.93    2651.1504    -36696.08      278.985    248.71533 
   95150    138.32246   -1025.8794    133026.99   -34087.898    2612.4151   -36700.313    279.88322    245.08141 
   95200    140.62281   -958.87607    133104.15   -34062.593    2655.8604   -36718.454    279.73327     249.1572 
   95250    140.32041   -1132.6625    133110.38     -34038.2    2650.1491   -36688.349    280.07358    248.62139 
   95300    142.81455   -1645.1025    133068.61   -34022.467    2697.2545   -36719.721    279.98543    253.04055 
   95350    141.48377   -1317.0088    132971.06   -34023.842    2672.1209   -36695.963    280.24032    250.68266 
   95400    141.51005   -1152.7073    132927.64   -33931.936    2672.6172   -36604.553    280.37553    250.72922 
   95450    142.28257   -1000.5107    132866.49    -33891.33    2687.2073   -36578.537    280.51607    252.09798 
   95500    140.43405   -1223.7308       132954   -33907.181    2652.2953   -36559.476    280.37787    248.82274 
   95550      145.711   -1229.0293     132895.6   -33912.661     2751.958   -36664.619    280.60678    258.17251 
   95600    140.76032   -1185.6121    132915.66    -33933.49    2658.4574   -36591.948    280.83009    249.40083 
   95650    138.97938   -1160.7953     132814.5   -33934.666    2624.8219   -36559.488    280.88019    246.24535 
   95700    140.46724   -1283.9215    132763.55   -33914.543    2652.9222   -36567.465    281.30515    248.88155 
   95750    139.57403   -1087.6432    132803.89   -33907.641    2636.0527   -36543.693    281.66329    247.29895 
   95800    138.56339   -1039.3124    132829.03   -33937.982    2616.9654   -36554.947    282.14049    245.50829 
   95850    138.60648   -1206.2449    132940.75   -33903.274    2617.7792   -36521.054    282.55505    245.58464 
   95900    141.47541   -1039.8764    132978.37    -33942.54     2671.963   -36614.503     282.3018    250.66784 
   95950     139.7813    -1414.671    132895.26   -33905.832    2639.9674   -36545.799    282.31798     247.6662 
   96000    141.55387   -1167.4166    132834.85   -33899.685    2673.4448    -36573.13    282.73809    250.80686 
   96050     141.0314   -1107.9483    132787.92   -33884.224    2663.5771   -36547.801    282.80258    249.88113 
   96100    143.35929    -1069.396    132783.37   -33893.215    2707.5426   -36600.758    283.04898    254.00572 
   96150    141.63576   -1061.8404    132836.49   -33910.428    2674.9913   -36585.419     283.1243    250.95195 
   96200    139.70237   -1176.6932    132799.55   -33906.173    2638.4765   -36544.649    283.01275    247.52634 
   96250    142.13746   -1430.4925    132731.73   -33918.313    2684.4667   -36602.779    283.16644    251.84087 
   96300    140.46561    -1301.794    132705.14   -33924.562    2652.8915   -36577.453    283.05302    248.87867 
   96350    140.28888   -1196.2156    132738.85   -33970.268    2649.5536   -36619.822    283.50847    248.56552 
   96400    140.65299   -1056.6075    132819.66   -33970.924    2656.4304   -36627.354     283.6168    249.21067 
   96450    144.32287   -1126.7444    132877.22   -33989.826    2725.7413   -36715.567    283.91451    255.71301 
   96500    139.68742    -1230.251    132898.67   -34013.102    2638.1943   -36651.297    284.15345    247.49986 
   96550    137.00584   -1153.1461     132869.4     -34033.5    2587.5488   -36621.048    283.69151     242.7486 
   96600     138.6966   -1019.1585    132801.46   -34034.971    2619.4812   -36654.452    284.35121    245.74431 
   96650    138.54902    -1103.686    132818.03   -34078.226     2616.694    -36694.92    284.43956    245.48283 
   96700     141.3274    -1097.821    132853.96   -34005.537    2669.1676   -36674.705    284.51456     250.4056 
   96750    141.38892   -755.55032    132891.92    -34007.99    2670.3294   -36678.319    284.57862    250.51459 
   96800    140.24949   -1258.6295    133017.06   -34035.882    2648.8097   -36684.692    284.73649    248.49574 
   96850     139.3852   -1444.4273    133098.67   -34010.895    2632.4864   -36643.381    284.99745    246.96439 
   96900    139.99075    -1205.348    133150.64   -34033.266    2643.9231   -36677.189    285.16452     248.0373 
   96950    139.96401   -1188.6178    133246.32   -34046.842     2643.418    -36690.26     285.6571    247.98992 
   97000    138.14662   -1401.1475    133281.51   -34076.262     2609.094   -36685.356    285.81451    244.76984 
   97050    138.14626   -1262.8346     133237.9   -34105.471    2609.0872   -36714.558    285.83767    244.76921 
   97100    136.56605   -1164.8372    133250.13   -34065.341    2579.2427   -36644.584     286.2551    241.96938 
   97150    138.77115   -1459.5293    133262.77   -34049.089    2620.8892   -36669.978    286.52011    245.87641 
   97200    138.15409   -1440.6312    133217.72   -34017.067    2609.2351   -36626.302    286.68408    244.78308 
   97250    138.68168   -1380.2974    133212.02   -34021.028    2619.1995   -36640.228    286.96209    245.71788 
   97300    141.90437    -1233.967    133192.65   -33986.034    2680.0644   -36666.098    286.65511    251.42787 
   97350     138.2087   -1058.7314    133204.59   -34005.852    2610.2664   -36616.118    286.48941    244.87984 
   97400    138.81209   -1011.5735    133158.29   -34000.127    2621.6624   -36621.789    286.51868    245.94894 
   97450    138.48136   -1216.8754    133127.49   -34008.007    2615.4161   -36623.423    286.85618    245.36295 
   97500     140.7134   -1004.0489     133022.9   -34027.068    2657.5713   -36684.639    286.54657     249.3177 
   97550    137.79219   -1171.0505    132939.54   -33981.518    2602.4001   -36583.918    286.67035    244.14186 
   97600    141.09504    -1232.941    132943.97   -33990.811    2664.7792   -36655.591    287.12378     249.9939 
   97650    140.06428   -1160.6752    132881.85   -34008.733    2645.3118   -36654.045    287.01222    248.16759 
   97700    138.74276   -1183.3898    132883.91   -34021.571     2620.353   -36641.924    287.63968     245.8261 
   97750    140.88378   -1258.2703     132889.6    -33964.25    2660.7892   -36625.039    287.89558    249.61958 
   97800    140.12945   -1028.8553    132952.75   -33954.191    2646.5425   -36600.734    287.96555    248.28305 
   97850    140.27659   -1004.4319    132991.25   -33958.026    2649.3215   -36607.348      288.171    248.54375 
   97900    139.37873   -1179.0845    133038.34   -34022.652    2632.3641   -36655.017    288.66299    246.95291 
   97950    138.36421   -1328.9998    133023.45   -34000.921    2613.2036   -36614.124    288.86218    245.15538 
   98000    137.39209   -1123.2482    132941.39    -34008.61    2594.8437   -36603.454    288.68434    243.43297 
   98050    136.87883   -1089.6869    132914.09   -34072.828      2585.15   -36657.978    289.17986    242.52356 
   98100    141.30566   -1114.6389    132983.89   -34047.475    2668.7571   -36716.232    289.95706    250.36708 
   98150    137.66093   -1422.6907    132964.36   -34049.651    2599.9212   -36649.572    289.69444     243.9093 
   98200    138.38725   -1302.8653    133010.36   -34048.984    2613.6388   -36662.623    289.97883    245.19621 
   98250    137.91069   -1068.1105    132895.24   -34031.301    2604.6382   -36635.939    290.21168    244.35183 
   98300    139.46518   -1266.3614    132836.49   -34023.413    2633.9969    -36657.41    290.60055    247.10609 
   98350    138.75982   -762.00285    132782.77   -34023.118    2620.6752   -36643.794    290.49719    245.85633 
   98400    139.55892   -1231.0561    132854.77   -34038.162    2635.7673   -36673.929    290.72386    247.27218 
   98450     137.5527   -1025.6574    132847.97   -34068.071     2597.877   -36665.948    290.74975    243.71753 
   98500    139.52306   -1081.9756    132811.98   -33993.498    2635.0901   -36628.588    290.85448    247.20864 
   98550    140.20937   -1065.4675     132821.4   -33964.453     2648.052   -36612.505    291.21828    248.42465 
   98600    139.17869    -1107.299    132854.18   -33994.657    2628.5862   -36623.243    291.71017    246.59849 
   98650    138.39641   -1304.0228    132831.76   -34023.813    2613.8117   -36637.625    292.12505    245.21243 
   98700    140.89214   -946.43236    132865.42   -34056.861     2660.947   -36717.808    292.38429    249.63439 
   98750    138.88307   -1162.6425    132911.71   -34058.918     2623.003   -36681.921    292.34017    246.07471 
   98800    139.10412   -1349.3627    132988.49   -34072.616    2627.1777   -36699.793    292.65417    246.46636 
   98850    138.87272   -1141.7746    133031.22   -34086.375    2622.8076   -36709.182    292.63315    246.05637 
   98900    137.73894    -1144.961    133117.09   -34062.905    2601.3945     -36664.3    292.77818    244.04752 
   98950    140.04757   -1290.0961    133197.02   -34061.726    2644.9961   -36706.722    292.98223    248.13797 
   99000    137.49328   -1225.6024    133194.01   -34080.986    2596.7548   -36677.741    292.77762    243.61225 
   99050     138.5537   -1016.8967    133166.63   -34036.046    2616.7824   -36652.828    292.62596    245.49112 
   99100    139.43986    -1051.046    133190.89   -34089.683    2633.5188   -36723.202    293.12674    247.06123 
   99150    139.03991   -1297.5395    133103.22   -34066.666     2625.965   -36692.631     292.9607    246.35259 
   99200    136.98926   -1111.6949    133103.18   -34099.298    2587.2358   -36686.533     292.7108    242.71923 
   99250    136.33387   -1225.8745    133125.37   -34102.588    2574.8577   -36677.445    293.28324      241.558 
   99300    137.80695    -1512.549    133135.81   -34071.821    2602.6788     -36674.5    293.46487    244.16801 
   99350    139.96494   -1367.8668    133124.77   -34016.635    2643.4356    -36660.07    293.17445    247.99158 
   99400    138.15118   -1390.7539    133108.25   -34036.342    2609.1802   -36645.523    293.21192    244.77793 
   99450    139.13797   -1410.4502    133058.92   -34020.379    2627.8172   -36648.196    293.31516    246.52634 
   99500    139.19447   -1272.0176    132938.56   -34005.417    2628.8841   -36634.301    293.89784    246.62644 
   99550    141.49483   -1284.4397     132857.4   -33967.742    2672.3298   -36640.072    294.21805    250.70226 
   99600    140.10892   -977.94172    132833.88   -33987.053    2646.1549   -36633.208     294.2881    248.24668 
   99650    141.09161   -1128.7128    132981.36   -33970.482    2664.7143   -36635.197    294.24277    249.98781 
   99700    140.33511   -1135.8452    132965.23   -33981.987    2650.4267   -36632.414    294.06707    248.64744 
   99750    143.24596   -1379.2626    132971.77   -34017.326    2705.4023   -36722.728    294.35918    253.80493 
   99800    141.87118   -1054.9067    132985.03   -33987.426    2679.4376   -36666.863    294.61237    251.36906 
   99850    140.34532   -1184.5736    133027.04   -33996.945    2650.6196   -36647.564    295.05511    248.66553 
   99900    140.58652   -1138.9745    132976.17   -33987.281     2655.175   -36642.456    294.50094    249.09289 
   99950    141.96581   -1107.6383    132942.39   -33986.527    2681.2248   -36667.752    294.89187    251.53673 
  100000    143.52358   -1170.1361    132997.11   -33899.984    2710.6455    -36610.63    295.09496    254.29681 
Loop time of 49.1701 on 128 procs for 100000 steps with 6337 atoms

Performance: 878.583 ns/day, 0.027 hours/ns, 2033.758 timesteps/s
96.5% CPU use with 128 MPI tasks x no OpenMP threads

MPI task timing breakdown:
Section |  min time  |  avg time  |  max time  |%varavg| %total
---------------------------------------------------------------
Pair    | 5.0133     | 12.182     | 33.222     | 302.5 | 24.78
Neigh   | 0.43358    | 0.94713    | 2.9266     |  82.9 |  1.93
Comm    | 5.3748     | 14.474     | 37.488     | 302.2 | 29.44
Output  | 0.16558    | 0.16834    | 0.17644    |   0.4 |  0.34
Modify  | 3.7372     | 20.651     | 36.324     | 332.0 | 42.00
Other   |            | 0.747      |            |       |  1.52

Nlocal:    49.5078 ave 137 max 26 min
Histogram: 94 2 0 4 12 0 0 0 3 13
Nghost:    562.258 ave 959 max 370 min
Histogram: 64 0 0 32 0 0 0 0 16 16
Neighs:    0 ave 0 max 0 min
Histogram: 128 0 0 0 0 0 0 0 0 0
FullNghs:  3988.62 ave 17160 max 930 min
Histogram: 96 0 0 1 15 0 0 0 2 14

Total # of neighbors = 510544
Ave neighs/atom = 80.5656
Neighbor list builds = 6121
Dangerous builds = 0

write_data		${DIR}/data.eq-${NAME}-${TEMP}
write_data		run_20/data.eq-${NAME}-${TEMP}
write_data		run_20/data.eq-het_freeze_20-${TEMP}
write_data		run_20/data.eq-het_freeze_20-248
undump          1

reset_timestep  0

unfix           2
unfix           3
unfix           4


################################################
#######         Run Simulation         #########
################################################

log				${DIR}/log.run_${NAME}
log				run_20/log.run_${NAME}
log				run_20/log.run_het_freeze_20
