LAMMPS data file via write_data, version 16 Mar 2018, timestep = 6000000

6337 atoms
2 atom types

0.0000000000000000e+00 4.9219999999999999e+01 xlo xhi
0.0000000000000000e+00 4.9019635930410494e+01 ylo yhi
1.9089355866104256e+00 5.8153064413372476e+01 zlo zhi

Masses

1 18.015
2 12.01

Atoms # atomic

2002 1 2.0920659256189693e+00 1.8685990040318659e+00 3.0738640379155235e+00 -1 -1 0
4631 1 5.1136715209805645e+00 8.9528180219817362e+00 5.6435338955771268e+00 -1 0 1
4833 1 5.2646700196362826e+00 4.4309204552828367e+00 2.6295397385382349e+00 4 0 0
3526 1 9.2460313392819931e+00 2.0708370833007308e+00 2.8503107156677512e+00 0 3 1
4445 1 1.6035315522983138e+00 6.3833168524365522e+00 3.0411483947883537e+00 0 -1 1
1344 1 1.0326839326151834e+01 8.9501162739289484e+00 6.5709427454070806e+00 2 3 1
1896 1 9.1306056438368213e+00 6.5296431586696873e+00 2.8680137895972044e+00 3 -2 0
1453 1 1.4343248700457585e+00 1.0932123557334270e+01 2.9080381864508231e+00 2 1 0
5104 1 8.8397021847590178e+00 1.1231362943565076e+01 5.5123154660494098e+00 1 0 0
4710 1 5.4086407181288898e+00 9.1617150132363019e+00 2.8507975778519010e+00 1 -2 0
1904 1 9.0889442598766195e+00 1.1483800482613995e+01 2.8750854395058085e+00 0 1 0
1435 1 1.8739564467195025e+00 1.8393977785820843e+00 5.9208941794208405e+00 -1 0 1
6315 1 3.0130022482535588e+00 4.0739393127732084e+00 6.4776708779759717e+00 3 4 0
5191 1 7.3960073556595658e+00 2.3082650849920934e+00 6.3767787549060504e+00 2 0 0
3613 1 5.5974937037610690e+00 4.2609050147988352e+00 5.5819904843344741e+00 5 -1 0
4674 1 9.7013881034897729e+00 2.0338920647252223e+00 5.3174970792603613e+00 0 -3 1
390 1 1.6831795349116694e+00 6.2918628076358072e+00 5.9839175160952927e+00 1 1 0
4588 1 6.5668775229431180e+00 6.7384770557710674e+00 6.4487187593026771e+00 -3 2 1
2069 1 9.2917342528110733e+00 6.5694519304333676e+00 5.6450870122555354e+00 -1 1 1
4904 1 1.0769164007948444e+01 4.3180548983571585e+00 6.5920160331630369e+00 1 0 0
328 1 1.6515938860674695e+00 1.0727603288074373e+01 5.7606370955022390e+00 2 -3 0
4731 1 2.9114089685697162e+00 8.4871540815700754e+00 7.0277193762412908e+00 1 0 1
2994 1 6.2207584141132823e+00 1.1319884867217661e+01 6.1611080680035100e+00 2 3 1
3746 1 6.0762905053136853e+00 1.8145336080768529e-03 5.8650728600925941e+00 4 2 1
2868 1 6.5121561701334931e+00 1.1325729759847546e+01 8.8346664426717503e+00 -3 -2 1
4546 1 2.7597137613315250e+00 8.8221963217424282e+00 2.0760821322083389e+00 5 -2 0
113 1 2.8257022688189362e+00 4.1365051744662491e+00 1.9106130359410471e+00 0 1 1
1399 1 1.7767762078672240e+00 1.7394365150560873e+00 1.0434517136923864e+01 -1 -2 1
1866 1 5.5092942752527492e+00 4.1830690471154384e+00 1.0239844885681597e+01 1 -2 0
4993 1 1.2172290649060646e+01 2.5699993139814779e+00 1.4065528298361322e+01 0 1 0
3547 1 9.3944431704935898e+00 2.2086974767453378e+00 1.0110108823437786e+01 2 0 0
3229 1 2.5941183652238444e+00 8.9282181379770975e+00 9.6816667966401333e+00 0 1 0
5051 1 1.5442779054255034e+00 6.3146813121033265e+00 1.0026467948684397e+01 0 2 0
3396 1 1.0128132745122716e+01 9.4148180903647916e+00 9.1936984737620229e+00 -1 -2 0
4432 1 1.1433941419150962e+01 1.1241284829682735e+01 1.3955382189612763e+01 0 1 1
5021 1 8.9540915632353855e+00 6.7874173573351779e+00 9.9750814456471506e+00 -1 0 0
1332 1 7.5830725554669725e+00 8.9571982305910094e+00 1.3608237249898291e+01 -1 0 1
4567 1 1.2187517844569031e+00 1.1293128214799829e+01 1.0187106401717514e+01 1 -1 0
336 1 5.1544513281177906e+00 8.9469111843955442e+00 9.9730777429464652e+00 1 3 0
5169 1 8.7575753392015727e+00 1.1624507578280340e+01 1.0337279080621952e+01 0 2 0
5081 1 6.8891371716904253e+00 1.9696923575382126e+00 9.1871608490095973e+00 -3 2 0
6169 1 2.8741046005380949e-01 4.1894435959118992e+00 1.4074607461216941e+01 2 3 1
1575 1 1.5577973484146255e+00 1.8753673275944749e+00 1.3200209702974647e+01 0 3 1
2971 1 4.4710158407531058e+00 1.7237290643439589e+00 1.4133300316518284e+01 1 0 1
305 1 5.3783681626001298e+00 4.1552642606752341e+00 1.3144923412602894e+01 1 1 0
2919 1 3.0250835990698679e+00 3.9099839390489421e+00 9.2800875342370244e+00 -2 3 1
4679 1 9.6241055973566105e+00 2.1152315334754381e+00 1.2878530611840375e+01 2 -1 1
1724 1 1.7614883030710315e+00 6.2859888997638782e+00 1.2815905452970739e+01 0 1 0
4688 1 4.3058489701517360e+00 6.5504039472089444e+00 1.3854535412798901e+01 0 -2 0
278 1 8.0065121689557461e+00 4.1857641291007779e+00 1.3712646508792274e+01 1 0 0
3475 1 8.8358140944371808e+00 6.7413386015144692e+00 1.2742670971736867e+01 0 0 0
1408 1 1.1834719293002802e+01 6.9944395137694730e+00 1.3979852112321778e+01 2 -2 1
1568 1 1.0851890561725110e+00 1.0946086662444346e+01 1.2895343710362022e+01 4 -1 1
3235 1 3.7588062550985901e+00 1.1291102915614434e+01 1.3801586361622059e+01 1 -2 0
67 1 8.8324095330805150e+00 1.1344921962150648e+01 1.3084873799494261e+01 2 0 0
4540 1 5.0646387156052795e+00 8.9589235527139550e+00 1.2779298542765599e+01 -2 3 1
363 1 1.0462956628562040e+01 4.6352894949534411e+00 9.4027705313412113e+00 0 -2 0
6293 1 6.2430401614072277e+00 6.6248151167603382e+00 9.1331592804527979e+00 3 2 1
4528 1 4.9753559288065269e-01 8.3808058299315995e+00 1.3943952663921403e+01 -1 1 0
423 1 1.0917407378455765e+01 1.7803966653453682e-01 9.3604177316738131e+00 0 1 0
3149 1 4.7234325390030607e+00 1.7388513225577276e+00 1.6791109621219036e+01 0 -1 1
6279 1 3.3434512938669445e+00 3.9794314310911822e+00 1.7495280760864446e+01 1 0 0
6152 1 4.8972001507451790e-01 4.1171744890193258e+00 2.1049708287824014e+01 -1 2 1
3741 1 7.2269246670286282e+00 1.6454563998188638e+00 1.7516565285047328e+01 -2 0 0
3669 1 1.1679993627278222e+01 2.5255999975109606e+00 1.6901044363759766e+01 1 0 1
419 1 3.9771451290204087e+00 6.4865724906870552e+00 1.6634822377587490e+01 -2 1 0
1257 1 7.7647410096345357e+00 4.1034638753361845e+00 1.6610675625041889e+01 1 3 1
307 1 6.4870493970940579e+00 6.4396053581611916e+00 1.7514654831691566e+01 -1 -4 1
6314 1 1.0345252993554812e+01 4.5956632012084278e+00 1.7474326960409400e+01 1 3 1
5030 1 1.1409936006389445e+01 6.9318675286005442e+00 1.6683078363875651e+01 1 2 0
3129 1 2.8176765552925924e+00 8.9284879390415686e+00 1.7238618829012605e+01 -2 -3 0
5201 1 3.7242802530624162e+00 1.1150812789427201e+01 1.6420528849454826e+01 2 4 1
455 1 1.0080544111440526e+01 9.3423584678014944e+00 1.9931083927544819e+01 -1 0 1
1431 1 7.5924451666836532e+00 8.8606950952838872e+00 1.6354187281815669e+01 -1 2 1
3706 1 6.2616490364697750e+00 1.1164915544725432e+01 1.7378083667069635e+01 -2 0 1
5261 1 1.1488969548620171e+01 1.1604119186793387e+01 1.6945876134283061e+01 2 -3 1
1823 1 1.0159559487626289e+01 9.1905905826441572e+00 1.7280739196331243e+01 3 4 0
457 1 6.4256764635419072e+00 1.1276242275546750e+01 2.0299261691631965e+01 -2 3 0
5321 1 3.1600743389694848e+00 4.0589744820676268e+00 2.0352628524435520e+01 -1 -1 1
1925 1 4.5769616339341015e+00 1.6890823166618167e+00 2.1286933713525713e+01 2 3 1
1552 1 7.2616010193227583e+00 1.7722386595076256e+00 2.0409781655267150e+01 3 -2 1
1519 1 7.9639352794113742e+00 4.5628401350467938e+00 2.1372099357361524e+01 0 3 0
382 1 1.2164519048638860e+01 2.6043315328776178e+00 2.1495960546294544e+01 -2 0 0
1348 1 4.3677183274079239e+00 6.6712057943001799e+00 2.1376688548892137e+01 -3 1 1
1617 1 1.1021083826711241e+01 1.1886545782042251e+01 2.1074256790339717e+01 3 0 1
3007 1 6.8772198491666376e+00 6.7922338906448880e+00 2.0331686966212700e+01 -1 -2 1
3219 1 1.0537105480803369e+01 4.6521943967334218e+00 2.0184831810417453e+01 5 4 1
3584 1 1.1216486340614388e+01 7.0119600405853539e+00 2.1050368944630321e+01 2 -1 0
5974 1 3.8080215003659514e+00 1.1196748065278040e+01 2.1361063494511921e+01 -1 3 1
1664 1 2.9552570501367379e+00 8.7749505812776238e+00 2.0345585662973871e+01 1 -1 0
3648 1 7.7455373317239244e+00 9.0742975748038361e+00 2.1464797945846406e+01 -5 1 0
4938 1 3.2493965263513691e-01 8.7757932054392196e+00 2.0989795725294272e+01 2 1 0
1684 1 4.6324487363317096e-01 3.7207868998580826e+00 1.7007855722754289e+01 1 2 0
3366 1 1.3467489902402460e-01 8.6029001759085446e+00 1.6701872868039903e+01 2 5 0
5986 1 1.0869546040740737e+01 2.9427029725967407e-01 2.0517214039490167e+01 2 3 1
80 1 2.4367388941464627e+00 1.9723723775150821e+00 2.4391619562218057e+01 0 -2 0
3226 1 1.0305500782591412e+00 4.2644834825457263e+00 2.3719513066209480e+01 -3 4 1
1893 1 5.3278798129025802e+00 1.9850166097283137e+00 2.3953093555539731e+01 -1 -3 0
5153 1 6.7538430363768169e+00 4.2011313604828038e+00 2.4040667369140902e+01 -2 4 0
2838 1 1.1080251036080808e+01 2.0616595826528146e+00 2.3965260141989912e+01 -1 -1 0
6143 1 2.5967872770410301e+00 6.5110360509081442e+00 2.3989152914361867e+01 2 -2 1
1377 1 5.5228967448882331e+00 6.6709842127970251e+00 2.4007744931878658e+01 1 2 1
3505 1 9.6642775591672478e+00 4.5426239711966545e+00 2.3873127399164307e+01 2 0 0
2027 1 1.1130112513043711e+01 6.9549253523871748e+00 2.3801548144334454e+01 -2 1 0
1746 1 1.8349689796205602e+00 1.0756834362121852e+01 2.3856708842783348e+01 -3 0 0
5175 1 1.1023236879125175e+01 1.2029372594854316e+01 2.3828130265970870e+01 2 1 0
2057 1 6.6997297823314774e+00 9.1975645360489739e+00 2.4262819057866924e+01 1 1 1
1292 1 4.6842863241594666e+00 1.1258270974270852e+01 2.4274525162192898e+01 -1 0 1
149 1 9.5433113159988956e+00 9.3673420712222732e+00 2.3822877409106407e+01 1 0 0
777 2 1.2304999999999998e+01 1.1366872099805333e+01 2.6792074349538129e+01 0 0 0
554 2 0.0000000000000000e+00 2.8417180249513345e+00 2.6792074349538129e+01 0 0 0
556 2 0.0000000000000000e+00 0.0000000000000000e+00 2.6792074349538129e+01 0 0 0
558 2 1.2305000000000001e+00 7.1042950623783474e-01 2.6792074349538129e+01 0 0 0
565 2 1.2305000000000001e+00 2.1312885187134998e+00 2.6792074349538129e+01 0 0 0
567 2 2.4610000000000003e+00 2.8417180249513345e+00 2.6792074349538129e+01 0 0 0
569 2 2.4610000000000003e+00 0.0000000000000000e+00 2.6792074349538129e+01 0 0 0
571 2 3.6915000000000004e+00 7.1042950623783474e-01 2.6792074349538129e+01 0 0 0
586 2 3.6914999999999996e+00 2.1312885187134998e+00 2.6792074349538129e+01 0 0 0
588 2 4.9220000000000006e+00 2.8417180249513332e+00 2.6792074349538129e+01 0 0 0
590 2 4.9220000000000006e+00 0.0000000000000000e+00 2.6792074349538129e+01 0 0 0
592 2 6.1524999999999999e+00 7.1042950623783407e-01 2.6792074349538129e+01 0 0 0
615 2 6.1524999999999999e+00 2.1312885187134989e+00 2.6792074349538129e+01 0 0 0
617 2 7.3829999999999991e+00 2.8417180249513345e+00 2.6792074349538129e+01 0 0 0
619 2 7.3829999999999991e+00 0.0000000000000000e+00 2.6792074349538129e+01 0 0 0
621 2 8.6134999999999984e+00 7.1042950623783407e-01 2.6792074349538129e+01 0 0 0
652 2 8.6134999999999984e+00 2.1312885187135002e+00 2.6792074349538129e+01 0 0 0
654 2 9.8440000000000012e+00 2.8417180249513332e+00 2.6792074349538129e+01 0 0 0
656 2 9.8440000000000012e+00 0.0000000000000000e+00 2.6792074349538129e+01 0 0 0
658 2 1.1074500000000002e+01 7.1042950623783330e-01 2.6792074349538129e+01 0 0 0
697 2 1.1074500000000002e+01 2.1312885187135002e+00 2.6792074349538129e+01 0 0 0
561 2 0.0000000000000000e+00 4.2625770374269996e+00 2.6792074349538129e+01 0 0 0
563 2 1.2305000000000001e+00 4.9730065436648339e+00 2.6792074349538129e+01 0 0 0
578 2 1.2305000000000001e+00 6.3938655561404980e+00 2.6792074349538129e+01 0 0 0
582 2 2.4610000000000003e+00 4.2625770374269996e+00 2.6792074349538129e+01 0 0 0
584 2 3.6914999999999996e+00 4.9730065436648339e+00 2.6792074349538129e+01 0 0 0
607 2 3.6914999999999996e+00 6.3938655561404980e+00 2.6792074349538129e+01 0 0 0
559 2 0.0000000000000000e+00 7.1042950623783341e+00 2.6792074349538129e+01 0 0 0
580 2 2.4610000000000003e+00 7.1042950623783341e+00 2.6792074349538129e+01 0 0 0
611 2 4.9220000000000006e+00 4.2625770374269978e+00 2.6792074349538129e+01 0 0 0
613 2 6.1524999999999999e+00 4.9730065436648339e+00 2.6792074349538129e+01 0 0 0
644 2 6.1524999999999999e+00 6.3938655561404980e+00 2.6792074349538129e+01 0 0 0
648 2 7.3829999999999991e+00 4.2625770374269996e+00 2.6792074349538129e+01 0 0 0
609 2 4.9220000000000006e+00 7.1042950623783341e+00 2.6792074349538129e+01 0 0 0
646 2 7.3830000000000009e+00 7.1042950623783341e+00 2.6792074349538129e+01 0 0 0
650 2 8.6135000000000002e+00 4.9730065436648339e+00 2.6792074349538129e+01 0 0 0
689 2 8.6135000000000002e+00 6.3938655561404980e+00 2.6792074349538129e+01 0 0 0
693 2 9.8440000000000012e+00 4.2625770374270004e+00 2.6792074349538129e+01 0 0 0
695 2 1.1074500000000002e+01 4.9730065436648339e+00 2.6792074349538129e+01 0 0 0
736 2 1.1074500000000002e+01 6.3938655561404980e+00 2.6792074349538129e+01 0 0 0
691 2 9.8440000000000012e+00 7.1042950623783341e+00 2.6792074349538129e+01 0 0 0
574 2 0.0000000000000000e+00 8.5251540748539991e+00 2.6792074349538129e+01 0 0 0
576 2 1.2305000000000001e+00 9.2355835810918343e+00 2.6792074349538129e+01 0 0 0
603 2 2.4610000000000003e+00 8.5251540748539991e+00 2.6792074349538129e+01 0 0 0
605 2 3.6915000000000004e+00 9.2355835810918343e+00 2.6792074349538129e+01 0 0 0
572 2 0.0000000000000000e+00 1.1366872099805333e+01 2.6792074349538129e+01 0 0 0
599 2 1.2305000000000001e+00 1.0656442593567498e+01 2.6792074349538129e+01 0 0 0
601 2 2.4610000000000003e+00 1.1366872099805333e+01 2.6792074349538129e+01 0 0 0
636 2 3.6914999999999996e+00 1.0656442593567499e+01 2.6792074349538129e+01 0 0 0
681 2 6.1524999999999999e+00 1.0656442593567499e+01 2.6792074349538129e+01 0 0 0
642 2 6.1524999999999999e+00 9.2355835810918343e+00 2.6792074349538129e+01 0 0 0
685 2 7.3830000000000009e+00 8.5251540748539991e+00 2.6792074349538129e+01 0 0 0
638 2 4.9220000000000006e+00 1.1366872099805333e+01 2.6792074349538129e+01 0 0 0
683 2 7.3829999999999991e+00 1.1366872099805333e+01 2.6792074349538129e+01 0 0 0
640 2 4.9220000000000006e+00 8.5251540748539991e+00 2.6792074349538129e+01 0 0 0
687 2 8.6134999999999984e+00 9.2355835810918343e+00 2.6792074349538129e+01 0 0 0
730 2 9.8440000000000012e+00 1.1366872099805333e+01 2.6792074349538129e+01 0 0 0
775 2 1.1074500000000002e+01 1.0656442593567498e+01 2.6792074349538129e+01 0 0 0
732 2 9.8440000000000012e+00 8.5251540748539956e+00 2.6792074349538129e+01 0 0 0
734 2 1.1074500000000002e+01 9.2355835810918343e+00 2.6792074349538129e+01 0 0 0
728 2 8.6134999999999984e+00 1.0656442593567498e+01 2.6792074349538129e+01 0 0 0
2056 1 6.1759662356553702e-01 8.4527920004879658e+00 2.3775967188227298e+01 1 1 0
555 2 0.0000000000000000e+00 1.4208590124756650e+00 3.0030999999991494e+01 0 0 0
557 2 0.0000000000000000e+00 0.0000000000000000e+00 3.0030999999991494e+01 0 0 0
566 2 1.2305000000000001e+00 2.1312885187134998e+00 3.0030999999991494e+01 0 0 0
568 2 2.4610000000000003e+00 1.4208590124756650e+00 3.0030999999991494e+01 0 0 0
570 2 2.4610000000000003e+00 0.0000000000000000e+00 3.0030999999991494e+01 0 0 0
587 2 3.6914999999999996e+00 2.1312885187134998e+00 3.0030999999991494e+01 0 0 0
564 2 1.2305000000000001e+00 3.5521475311891644e+00 3.0030999999991494e+01 0 0 0
585 2 3.6914999999999996e+00 3.5521475311891644e+00 3.0030999999991494e+01 0 0 0
883 2 0.0000000000000000e+00 2.8417180249513345e+00 3.3269925650452805e+01 0 0 0
884 2 0.0000000000000000e+00 0.0000000000000000e+00 3.3269925650452805e+01 0 0 0
885 2 1.2305000000000001e+00 7.1042950623783474e-01 3.3269925650452805e+01 0 0 0
889 2 1.2305000000000001e+00 2.1312885187134998e+00 3.3269925650452805e+01 0 0 0
890 2 2.4610000000000003e+00 2.8417180249513345e+00 3.3269925650452805e+01 0 0 0
891 2 2.4610000000000003e+00 0.0000000000000000e+00 3.3269925650452805e+01 0 0 0
892 2 3.6915000000000004e+00 7.1042950623783474e-01 3.3269925650452805e+01 0 0 0
900 2 3.6914999999999996e+00 2.1312885187134998e+00 3.3269925650452805e+01 0 0 0
589 2 4.9220000000000006e+00 1.4208590124756650e+00 3.0030999999991494e+01 0 0 0
591 2 4.9220000000000006e+00 0.0000000000000000e+00 3.0030999999991494e+01 0 0 0
616 2 6.1524999999999999e+00 2.1312885187134989e+00 3.0030999999991494e+01 0 0 0
618 2 7.3829999999999991e+00 1.4208590124756659e+00 3.0030999999991494e+01 0 0 0
620 2 7.3829999999999991e+00 0.0000000000000000e+00 3.0030999999991494e+01 0 0 0
614 2 6.1524999999999999e+00 3.5521475311891644e+00 3.0030999999991494e+01 0 0 0
901 2 4.9220000000000006e+00 2.8417180249513332e+00 3.3269925650452805e+01 0 0 0
902 2 4.9220000000000006e+00 0.0000000000000000e+00 3.3269925650452805e+01 0 0 0
903 2 6.1524999999999999e+00 7.1042950623783407e-01 3.3269925650452805e+01 0 0 0
915 2 6.1524999999999999e+00 2.1312885187134989e+00 3.3269925650452805e+01 0 0 0
916 2 7.3829999999999991e+00 2.8417180249513345e+00 3.3269925650452805e+01 0 0 0
917 2 7.3829999999999991e+00 0.0000000000000000e+00 3.3269925650452805e+01 0 0 0
653 2 8.6134999999999984e+00 2.1312885187135002e+00 3.0030999999991494e+01 0 0 0
655 2 9.8440000000000012e+00 1.4208590124756659e+00 3.0030999999991494e+01 0 0 0
657 2 9.8440000000000012e+00 0.0000000000000000e+00 3.0030999999991494e+01 0 0 0
698 2 1.1074500000000002e+01 2.1312885187135002e+00 3.0030999999991494e+01 0 0 0
651 2 8.6134999999999984e+00 3.5521475311891657e+00 3.0030999999991494e+01 0 0 0
696 2 1.1074500000000002e+01 3.5521475311891644e+00 3.0030999999991494e+01 0 0 0
918 2 8.6134999999999984e+00 7.1042950623783407e-01 3.3269925650452805e+01 0 0 0
934 2 8.6134999999999984e+00 2.1312885187135002e+00 3.3269925650452805e+01 0 0 0
935 2 9.8440000000000012e+00 2.8417180249513332e+00 3.3269925650452805e+01 0 0 0
936 2 9.8440000000000012e+00 0.0000000000000000e+00 3.3269925650452805e+01 0 0 0
937 2 1.1074500000000002e+01 7.1042950623783330e-01 3.3269925650452805e+01 0 0 0
957 2 1.1074500000000002e+01 2.1312885187135002e+00 3.3269925650452805e+01 0 0 0
560 2 0.0000000000000000e+00 5.6834360499026637e+00 3.0030999999991494e+01 0 0 0
562 2 0.0000000000000000e+00 4.2625770374269996e+00 3.0030999999991494e+01 0 0 0
579 2 1.2305000000000001e+00 6.3938655561404980e+00 3.0030999999991494e+01 0 0 0
581 2 2.4610000000000003e+00 5.6834360499026637e+00 3.0030999999991494e+01 0 0 0
583 2 2.4610000000000003e+00 4.2625770374269996e+00 3.0030999999991494e+01 0 0 0
608 2 3.6914999999999996e+00 6.3938655561404980e+00 3.0030999999991494e+01 0 0 0
577 2 1.2305000000000001e+00 7.8147245686161639e+00 3.0030999999991494e+01 0 0 0
606 2 3.6914999999999996e+00 7.8147245686161639e+00 3.0030999999991494e+01 0 0 0
887 2 0.0000000000000000e+00 4.2625770374269996e+00 3.3269925650452805e+01 0 0 0
888 2 1.2305000000000001e+00 4.9730065436648339e+00 3.3269925650452805e+01 0 0 0
896 2 1.2305000000000001e+00 6.3938655561404980e+00 3.3269925650452805e+01 0 0 0
898 2 2.4610000000000003e+00 4.2625770374269996e+00 3.3269925650452805e+01 0 0 0
899 2 3.6914999999999996e+00 4.9730065436648339e+00 3.3269925650452805e+01 0 0 0
911 2 3.6914999999999996e+00 6.3938655561404980e+00 3.3269925650452805e+01 0 0 0
886 2 0.0000000000000000e+00 7.1042950623783341e+00 3.3269925650452805e+01 0 0 0
897 2 2.4610000000000003e+00 7.1042950623783341e+00 3.3269925650452805e+01 0 0 0
610 2 4.9220000000000006e+00 5.6834360499026637e+00 3.0030999999991494e+01 0 0 0
612 2 4.9220000000000006e+00 4.2625770374269978e+00 3.0030999999991494e+01 0 0 0
645 2 6.1524999999999999e+00 6.3938655561404980e+00 3.0030999999991494e+01 0 0 0
647 2 7.3829999999999991e+00 5.6834360499026637e+00 3.0030999999991494e+01 0 0 0
649 2 7.3829999999999991e+00 4.2625770374269996e+00 3.0030999999991494e+01 0 0 0
643 2 6.1524999999999999e+00 7.8147245686161639e+00 3.0030999999991494e+01 0 0 0
913 2 4.9220000000000006e+00 4.2625770374269978e+00 3.3269925650452805e+01 0 0 0
914 2 6.1524999999999999e+00 4.9730065436648339e+00 3.3269925650452805e+01 0 0 0
930 2 6.1524999999999999e+00 6.3938655561404980e+00 3.3269925650452805e+01 0 0 0
932 2 7.3829999999999991e+00 4.2625770374269996e+00 3.3269925650452805e+01 0 0 0
912 2 4.9220000000000006e+00 7.1042950623783341e+00 3.3269925650452805e+01 0 0 0
931 2 7.3830000000000009e+00 7.1042950623783341e+00 3.3269925650452805e+01 0 0 0
690 2 8.6135000000000002e+00 6.3938655561404980e+00 3.0030999999991494e+01 0 0 0
692 2 9.8440000000000012e+00 5.6834360499026637e+00 3.0030999999991494e+01 0 0 0
694 2 9.8440000000000012e+00 4.2625770374270004e+00 3.0030999999991494e+01 0 0 0
737 2 1.1074500000000002e+01 6.3938655561404980e+00 3.0030999999991494e+01 0 0 0
688 2 8.6135000000000002e+00 7.8147245686161639e+00 3.0030999999991494e+01 0 0 0
735 2 1.1074500000000002e+01 7.8147245686161639e+00 3.0030999999991494e+01 0 0 0
933 2 8.6135000000000002e+00 4.9730065436648339e+00 3.3269925650452805e+01 0 0 0
953 2 8.6135000000000002e+00 6.3938655561404980e+00 3.3269925650452805e+01 0 0 0
955 2 9.8440000000000012e+00 4.2625770374270004e+00 3.3269925650452805e+01 0 0 0
956 2 1.1074500000000002e+01 4.9730065436648339e+00 3.3269925650452805e+01 0 0 0
977 2 1.1074500000000002e+01 6.3938655561404980e+00 3.3269925650452805e+01 0 0 0
954 2 9.8440000000000012e+00 7.1042950623783341e+00 3.3269925650452805e+01 0 0 0
573 2 0.0000000000000000e+00 9.9460130873296642e+00 3.0030999999991494e+01 0 0 0
575 2 0.0000000000000000e+00 8.5251540748539991e+00 3.0030999999991494e+01 0 0 0
602 2 2.4610000000000003e+00 9.9460130873296642e+00 3.0030999999991494e+01 0 0 0
604 2 2.4610000000000003e+00 8.5251540748539991e+00 3.0030999999991494e+01 0 0 0
598 2 1.2305000000000001e+00 1.2077301606043163e+01 3.0030999999991494e+01 0 0 0
600 2 1.2305000000000001e+00 1.0656442593567498e+01 3.0030999999991494e+01 0 0 0
635 2 3.6914999999999996e+00 1.2077301606043163e+01 3.0030999999991494e+01 0 0 0
637 2 3.6914999999999996e+00 1.0656442593567499e+01 3.0030999999991494e+01 0 0 0
894 2 0.0000000000000000e+00 8.5251540748539991e+00 3.3269925650452805e+01 0 0 0
895 2 1.2305000000000001e+00 9.2355835810918343e+00 3.3269925650452805e+01 0 0 0
909 2 2.4610000000000003e+00 8.5251540748539991e+00 3.3269925650452805e+01 0 0 0
910 2 3.6915000000000004e+00 9.2355835810918343e+00 3.3269925650452805e+01 0 0 0
893 2 0.0000000000000000e+00 1.1366872099805333e+01 3.3269925650452805e+01 0 0 0
907 2 1.2305000000000001e+00 1.0656442593567498e+01 3.3269925650452805e+01 0 0 0
908 2 2.4610000000000003e+00 1.1366872099805333e+01 3.3269925650452805e+01 0 0 0
926 2 3.6914999999999996e+00 1.0656442593567499e+01 3.3269925650452805e+01 0 0 0
639 2 4.9220000000000006e+00 9.9460130873296642e+00 3.0030999999991494e+01 0 0 0
641 2 4.9220000000000006e+00 8.5251540748539991e+00 3.0030999999991494e+01 0 0 0
684 2 7.3830000000000009e+00 9.9460130873296642e+00 3.0030999999991494e+01 0 0 0
686 2 7.3830000000000009e+00 8.5251540748539991e+00 3.0030999999991494e+01 0 0 0
680 2 6.1524999999999999e+00 1.2077301606043163e+01 3.0030999999991494e+01 0 0 0
682 2 6.1524999999999999e+00 1.0656442593567499e+01 3.0030999999991494e+01 0 0 0
928 2 4.9220000000000006e+00 8.5251540748539991e+00 3.3269925650452805e+01 0 0 0
929 2 6.1524999999999999e+00 9.2355835810918343e+00 3.3269925650452805e+01 0 0 0
951 2 7.3830000000000009e+00 8.5251540748539991e+00 3.3269925650452805e+01 0 0 0
927 2 4.9220000000000006e+00 1.1366872099805333e+01 3.3269925650452805e+01 0 0 0
949 2 6.1524999999999999e+00 1.0656442593567499e+01 3.3269925650452805e+01 0 0 0
950 2 7.3829999999999991e+00 1.1366872099805333e+01 3.3269925650452805e+01 0 0 0
731 2 9.8440000000000012e+00 9.9460130873296642e+00 3.0030999999991494e+01 0 0 0
733 2 9.8440000000000012e+00 8.5251540748539956e+00 3.0030999999991494e+01 0 0 0
727 2 8.6135000000000002e+00 1.2077301606043163e+01 3.0030999999991494e+01 0 0 0
729 2 8.6134999999999984e+00 1.0656442593567498e+01 3.0030999999991494e+01 0 0 0
774 2 1.1074500000000002e+01 1.2077301606043163e+01 3.0030999999991494e+01 0 0 0
776 2 1.1074500000000002e+01 1.0656442593567498e+01 3.0030999999991494e+01 0 0 0
952 2 8.6134999999999984e+00 9.2355835810918343e+00 3.3269925650452805e+01 0 0 0
975 2 9.8440000000000012e+00 8.5251540748539956e+00 3.3269925650452805e+01 0 0 0
976 2 1.1074500000000002e+01 9.2355835810918343e+00 3.3269925650452805e+01 0 0 0
973 2 8.6134999999999984e+00 1.0656442593567498e+01 3.3269925650452805e+01 0 0 0
974 2 9.8440000000000012e+00 1.1366872099805333e+01 3.3269925650452805e+01 0 0 0
997 2 1.1074500000000002e+01 1.0656442593567498e+01 3.3269925650452805e+01 0 0 0
998 2 1.2304999999999998e+01 1.1366872099805333e+01 3.3269925650452805e+01 0 0 0
4973 1 1.9257596671947472e+00 1.1265512251803365e+00 3.5567962124555521e+01 0 1 0
283 1 9.1933905204217155e+00 1.0798971806562783e+01 3.5518537128356009e+01 2 2 -1
3447 1 4.5210266464297080e+00 1.4948331177728573e+00 3.6442484419749697e+01 3 -2 -1
4656 1 5.5036635219664944e+00 8.0694368184815080e+00 3.5813123409019830e+01 2 -2 0
3057 1 1.1706664390720897e+01 1.1147361717230488e+01 3.6384748104883670e+01 -1 2 0
6129 1 9.9638226588688834e+00 1.6140545730439031e+00 3.5945907770986011e+01 0 1 0
4711 1 3.8449750352177903e-01 2.9957634359183358e+00 3.6453275191815550e+01 -3 1 -1
5279 1 1.6804763809483687e+00 5.3413340938578555e+00 3.5740884742401974e+01 -1 1 0
4619 1 5.8111069255851975e+00 3.7728225410001994e+00 3.5627691544848517e+01 3 1 0
369 1 4.0588067621051582e+00 1.0389777727231845e+01 3.6365871241682633e+01 1 -2 -1
403 1 1.1976268708211318e+01 6.4890927242614218e+00 3.6425219812431685e+01 1 2 -1
1514 1 8.5753417385030826e+00 3.7932378949005034e+00 3.6601748797143529e+01 2 1 0
3376 1 9.4112794636460464e+00 6.2187998936198916e+00 3.5661567511884037e+01 -2 -1 -1
4772 1 1.5446767245861761e+00 1.0134981777348322e+01 3.5840447239625668e+01 4 2 0
4779 1 4.1789055024581989e+00 5.6723028244730971e+00 3.6512029517073486e+01 0 0 0
4988 1 8.0585747904813374e+00 8.4954257462686300e+00 3.6722141628354379e+01 2 -1 -1
22 1 4.6122539013546804e-01 7.7513953835859306e+00 3.6596799617766884e+01 0 -1 0
2004 1 4.4732868908481809e+00 1.6085253873923120e+00 3.9382351714710701e+01 2 -2 -1
4871 1 7.0271088813052698e+00 1.8407595546284363e+00 4.0365812001965978e+01 0 0 -1
1857 1 1.1886267030760862e+01 6.1865174156243068e+00 3.9236872378364204e+01 2 3 -1
4771 1 8.2880592628703429e+00 4.2619239142262693e+00 3.9475285209349295e+01 3 0 -1
6249 1 1.1771456213256466e+01 2.1050189193435260e+00 3.9488402389408172e+01 0 3 0
188 1 4.0413168481618333e+00 6.0741365565792016e+00 3.9209137423866281e+01 -1 0 -1
6139 1 6.7441301243803524e+00 6.1299781264692035e+00 4.0010463333880729e+01 1 0 0
3546 1 1.0579819690674196e+01 4.2225017981078183e+00 4.0541122044355994e+01 2 2 0
311 1 1.0708137542179905e+01 8.5832345934784531e+00 4.2967439259301472e+01 2 -3 -1
3724 1 2.2226384342718572e-01 8.0713816546761397e+00 3.9432751957414531e+01 -1 0 0
1349 1 2.9301232006073490e+00 8.2638468784634362e+00 4.0379612440103557e+01 -3 0 0
2954 1 4.2664000195304679e+00 1.0417400808870473e+01 3.9175033524211663e+01 1 1 0
6324 1 8.0335186285956564e+00 8.5753158343475828e+00 3.9597774583823998e+01 0 0 0
1744 1 1.1673440417996678e+01 1.0849040178351926e+01 3.9267450974990446e+01 -3 -1 -1
3288 1 1.0672931643086319e+01 8.5240204640071209e+00 4.0153372971420744e+01 2 0 -1
3378 1 2.7038613802734859e+00 3.8638006636311375e+00 4.3006456188611082e+01 -2 1 -1
3304 1 6.7837888220185727e+00 1.8420118151307194e+00 4.3047523158438835e+01 1 2 0
55 1 3.0785613697468350e+00 8.5648307293543642e+00 4.3211064053755727e+01 0 4 -1
2976 1 6.6119201918250745e+00 1.0763761463585901e+01 4.0205178395097370e+01 -1 2 0
3193 1 2.9979420645452035e+00 3.7506110286142049e+00 4.0273369642861546e+01 3 -2 0
454 1 6.5971342872211922e+00 6.3873005505541265e+00 4.2824326584584583e+01 -2 -1 0
131 1 1.0817912007701445e+01 4.5304308381536122e+00 4.3556416352690448e+01 3 1 -1
1274 1 6.7198483216859968e+00 1.0837403004451822e+01 4.3200350850054711e+01 3 -4 0
6163 1 9.3043314297015076e+00 1.0861572681430362e+01 4.3702596281605629e+01 2 -2 -1
416 1 2.8667225403874091e-01 3.7880617333693309e+00 3.9151468198070475e+01 2 -1 -1
1379 1 1.7856436747937192e+00 1.0982834827815687e+01 4.4008260770206135e+01 3 -2 0
4500 1 9.3553637621827743e+00 2.1357282003633591e+00 4.3782742332574308e+01 2 -1 0
1862 1 5.1301585130687579e+00 4.1237831827866946e+00 4.3770362575381839e+01 3 -1 -1
5040 1 1.4861127892553239e+00 1.7080955084723122e+00 4.6887202863505088e+01 1 -1 -1
1290 1 7.9856897223887300e+00 8.6170208836116977e+00 4.8028661575274022e+01 -1 0 0
6068 1 3.9319291239690273e+00 1.0785869883946789e+01 4.7849804456477592e+01 -4 4 0
1256 1 9.2783435090413438e+00 1.9596798128609563e+00 4.6525047038406697e+01 -2 -2 0
2130 1 1.1537676255589124e+01 1.1056824374291651e+01 5.0254832125318899e+01 -2 1 0
4906 1 1.6696597831585411e+00 5.9349067227253318e+00 4.6990152646224026e+01 0 -1 -1
2903 1 4.1065722873832611e+00 1.0920562071713185e+01 5.0492540456986227e+01 0 -4 0
92 1 5.4260745462205735e+00 3.9475199665379357e+00 4.6464679740880648e+01 2 0 0
552 1 9.2969222958762288e+00 6.3638003901944256e+00 4.6948680619500244e+01 4 1 -1
132 1 1.1850561097711553e+01 6.3933483462993603e+00 4.7970404259621560e+01 -2 0 0
3301 1 1.5251653169490997e+00 1.0622701923076528e+01 4.6766052581143128e+01 -1 2 0
6274 1 5.5872181665450373e+00 8.6687028018600607e+00 4.7264596443429888e+01 1 -7 -1
3507 1 1.1221750755674982e+01 1.1045580019483035e+01 4.7460364042557885e+01 3 -2 -1
139 1 8.9118230810564985e+00 1.0895998120837678e+01 4.6417699484118636e+01 4 2 -1
2965 1 1.2002231760152304e+01 1.9397083733252749e+00 4.7598288755520485e+01 2 0 0
6126 1 1.6238290194513336e-01 3.9316988845992871e+00 4.8285976284015675e+01 -1 2 0
3324 1 5.5118676164878988e-01 8.2829206796913315e+00 4.7762031665268978e+01 0 5 0
6164 1 3.8551469830662164e+00 1.8234234046502713e+00 4.8013292952111364e+01 2 3 0
5157 1 7.7982978043647533e+00 4.1551497005918590e+00 5.0563478262373984e+01 -1 0 -1
1979 1 4.0224055032176889e+00 1.9890495941655499e+00 5.0740354671325264e+01 1 -3 -1
5989 1 7.9283821619970487e+00 8.6721422680397087e+00 5.0763413549720887e+01 1 1 0
1900 1 2.9869831343825715e-01 4.3398127152062695e+00 5.0941871064528726e+01 -1 -1 -1
4446 1 7.8256826763284293e+00 3.9084221767035014e+00 4.7804701959249165e+01 0 0 0
2164 1 4.1313077715814606e+00 6.2778604136496972e+00 5.0570598233989131e+01 -3 0 0
1434 1 4.3010291245949732e+00 5.9745615652252457e+00 4.7725064522853053e+01 0 -1 0
343 1 1.1418976442152211e+01 6.4542480854072348e+00 5.0569978167144029e+01 1 1 -1