LAMMPS data file via write_data, version 16 Mar 2018, timestep = 100000

6337 atoms
2 atom types

0.0000000000000000e+00 4.9219999999999999e+01 xlo xhi
0.0000000000000000e+00 4.9019635930410494e+01 ylo yhi
2.5371385365736430e+00 5.7524861463423733e+01 zlo zhi

Masses

1 18.015
2 12.01

Atoms # atomic

8 1 1.0959335325368373e+01 7.4334013933901684e+00 4.9942213221812990e+00 0 1 1
3609 1 3.1633247370672586e+00 1.9242496680310688e+00 6.4564849091710634e+00 0 0 0
416 1 6.9233239267257973e+00 6.7351863714353062e+00 7.6290996145360355e+00 -1 1 0
1660 1 5.4972619467322366e+00 5.9202070019643642e+00 5.5639438510429180e+00 0 1 0
4552 1 3.2484752447849501e+00 4.8163522025033151e-01 4.2322795184112216e+00 1 1 1
6128 1 1.1907535411676358e+00 1.9748070875368950e+00 3.5775287859943008e+00 1 0 1
4795 1 2.8682281517169517e+00 4.9161517438747371e+00 6.3606209019433928e+00 1 0 0
4808 1 6.2466614234650075e+00 1.1462426861742607e+01 8.6054304619827384e+00 1 0 0
4526 1 4.4279311593455413e+00 8.2133560771511132e+00 4.6174982883207223e+00 0 0 1
3557 1 1.0459097373648664e+01 4.8151838241847136e+00 6.2597426300229912e+00 0 0 0
1863 1 2.0236055647082885e+00 9.2644584395287524e+00 8.4065072965789156e+00 2 0 0
1869 1 9.3963333246795990e+00 3.9266031372656580e+00 3.8573748991545997e+00 0 0 0
6271 1 2.2930320981877372e+00 1.1844222838394538e+01 4.8502724203930327e+00 1 0 0
1259 1 7.6454894759598870e+00 9.4924049287993029e+00 7.1176084801636286e+00 0 1 1
4499 1 1.9229741973444530e+00 1.8832133995891942e+00 8.8916164750862627e+00 0 1 1
3171 1 6.5190119188068163e+00 1.0064935505746574e+01 4.6798477162494461e+00 0 0 0
3720 1 1.0826724491178123e+01 1.0564984614659952e+01 4.1696729968900925e+00 0 0 1
2976 1 9.0348464167706251e+00 5.4436831480242525e+00 8.6134647858752924e+00 0 1 1
3367 1 6.0998153835854136e+00 2.3897913730031384e-01 4.9748868817755474e+00 0 0 0
4455 1 2.2243313923712443e-01 3.7338172163035401e+00 7.4612723010607276e+00 0 0 1
3343 1 1.0354445733568852e+01 9.8985469268109689e+00 6.9802173564019903e+00 0 0 1
1833 1 5.8560061452512224e+00 1.7571028849454966e+00 7.3763864040425364e+00 0 1 0
4424 1 1.8409694062288045e+00 4.4144285706190960e+00 3.9360417288652738e+00 0 0 1
6152 1 1.1218865102753320e+01 1.7167126272983049e+00 4.1872156047549041e+00 0 1 1
6001 1 8.1392041049221451e+00 2.8073349933775145e+00 8.7423187062047312e+00 1 1 1
5050 1 2.9521173702457966e+00 6.6690683392059293e+00 8.6795818810841237e+00 1 0 0
1782 1 1.8630748710875575e+00 9.1933422585736295e+00 5.5530667930251996e+00 1 1 0
5263 1 1.0766092397817408e+01 7.7377673311855384e+00 9.2408282098196999e+00 0 1 1
1383 1 6.6535772976322871e+00 4.9540103475344246e+00 3.5275830050970747e+00 0 1 0
3613 1 7.2674932701072361e+00 1.8859838824349096e+00 3.0142095740537762e+00 1 0 0
1372 1 4.6077646043650198e+00 3.5198352333430399e-01 9.2825111330243004e+00 1 1 1
5000 1 8.2945079565423132e+00 1.0744893387280905e+01 2.7887850346593703e+00 1 -1 0
6229 1 3.6460659151662131e+00 2.9310847149213552e+00 1.3102018274551270e+01 0 1 1
4946 1 1.2134132529682255e+01 3.4182903766753161e+00 9.6989863009599411e+00 0 1 0
398 1 5.4915419608677478e+00 1.1548158330670957e+00 1.1614537834582279e+01 0 0 0
3357 1 4.9812314139578057e-01 4.7571947462659550e+00 1.2295606703422253e+01 0 0 0
4548 1 4.4107469806883879e+00 9.6679282943866962e+00 9.7710135001256351e+00 0 0 1
1389 1 6.7270310756953648e+00 5.9743715183517736e+00 1.2248744141114772e+01 -1 0 1
404 1 2.6956420526661025e+00 4.1816126934361559e+00 1.0623371968373794e+01 0 0 0
2073 1 8.6814444127992285e+00 7.5729028222457631e+00 1.3344760854891838e+01 1 0 0
6129 1 1.1625147057023691e+01 3.4811660118468440e-01 1.5115285731312452e+01 0 1 1
4784 1 8.5981377536150756e+00 1.1939850200530621e+01 1.0333380436119832e+01 0 0 0
2009 1 4.3997729346043029e+00 1.0461446017059266e+01 1.2316597999468291e+01 0 0 0
5184 1 7.1532754278075306e+00 1.0141085828331727e+01 1.3944491569124111e+01 1 0 0
6046 1 9.7361942740056495e+00 1.0758909933440634e+01 1.2550314028702182e+01 0 0 0
114 1 1.1295983351658865e+01 8.3422164276151225e+00 1.1968865017499771e+01 1 1 0
4855 1 1.5811396081062910e+00 2.4639645021743486e+00 1.5078943292811891e+01 0 0 0
4819 1 5.4367572964470510e+00 1.1931300968828178e+00 1.4703761626812874e+01 1 1 0
4811 1 7.9380721376544958e+00 2.9373111031732009e+00 1.4944753688261924e+01 0 0 0
4763 1 7.6177093462246859e+00 3.5729741252628551e+00 1.1441742034685195e+01 0 1 1
5168 1 1.0054589425780643e+01 2.7882174789730536e+00 1.3081461663923793e+01 1 0 1
357 1 5.6010696849966175e+00 6.9745701958030999e+00 9.8901650664425436e+00 0 0 0
57 1 2.9613893175381141e+00 5.8733605681247392e+00 1.4047949151365948e+01 0 0 0
3303 1 5.5055918197906877e+00 4.8562378461840972e+00 1.4466629348935596e+01 0 0 0
199 1 7.9824400286072628e+00 6.4919600045850769e+00 1.5881461238720371e+01 -1 1 0
1550 1 1.0417017299912061e+01 5.0015956588872932e+00 1.1137442396986629e+01 0 1 0
1795 1 1.9440924734331126e+00 1.0271611772026057e+01 1.6036596489937821e+01 1 -1 1
4710 1 3.2875584333014616e+00 8.7261421074307108e+00 1.4141553554529827e+01 1 0 0
3278 1 5.6078741721175271e+00 8.1894333831139949e+00 1.5821891710547950e+01 1 -1 1
3001 1 2.6984336172918427e-01 1.0237328136024194e+01 1.0421698426354563e+01 0 1 0
3256 1 1.1297878954693624e+01 1.2239544487915888e+01 1.4475306306986434e+01 1 0 0
4541 1 1.0452219494976209e+01 1.3714028753660672e+00 9.8240655205851404e+00 -1 1 1
2079 1 4.1174665853830655e-01 9.5510583690377171e+00 1.3075346041110043e+01 1 1 1
4857 1 3.6580741611563100e-01 1.3227260919550379e-01 1.6136482468386873e+01 1 0 1
4918 1 6.3946888008724256e+00 1.0057484395278193e+01 2.1535689984264391e+01 1 -1 0
230 1 5.1511627938074969e-02 6.7990489538210834e+00 2.2015814617568260e+01 0 0 1
3160 1 5.2289908809970838e+00 3.1215154315122962e-01 1.7328439692945977e+01 1 1 1
3195 1 8.5629494813748277e+00 4.1824467145752502e+00 1.7489165944836486e+01 0 -1 1
3470 1 6.8950093295215149e+00 1.2502143469664153e+00 1.9419200507197935e+01 0 0 0
1854 1 9.6188381662821030e+00 7.7776621859508843e-01 1.9268618843240581e+01 1 1 0
1774 1 2.4002920534348135e-01 9.0505278571379826e+00 2.0188666708101124e+01 0 0 0
5112 1 4.7502191072411550e+00 4.8831023997936649e+00 1.7535298338775405e+01 1 0 1
3466 1 2.4375493633937948e+00 3.3013188993586247e+00 1.7711394436399583e+01 1 0 0
1721 1 1.0552424807996191e+01 2.0986105326093440e+00 1.6990860114756082e+01 0 0 1
6124 1 2.7017263990003682e+00 1.0139367636406783e+01 2.1055162741116252e+01 0 0 1
178 1 6.6829971635522956e+00 4.2250465342508203e+00 1.9433165570734804e+01 1 1 1
1630 1 1.0763425360931455e+01 5.7585166525166187e+00 1.7942592399644834e+01 0 1 0
4757 1 5.8298341258420807e+00 1.0091587087490334e+01 1.8736277636144425e+01 1 0 0
2013 1 1.8620532126299973e+00 8.4860342311939050e+00 1.7985782991114768e+01 1 1 0
6307 1 5.8533635250567047e+00 2.9483861050798837e-01 2.1649878004884219e+01 0 0 1
30 1 1.1337642013018923e+01 9.5086581945101645e-01 2.1381766821695059e+01 0 0 0
88 1 4.0279474929122836e+00 1.2228590910745007e+01 1.9780455308040302e+01 0 0 0
2944 1 1.1304665821796920e+01 6.4048418059148364e+00 2.1046152248764173e+01 0 0 1
2077 1 4.0912991044448619e+00 7.4845626212180196e+00 2.1409228768455058e+01 1 0 0
1601 1 1.2980517328199987e+00 1.0556532927606510e-01 2.0018238371979635e+01 0 0 0
5222 1 6.4690400236000156e-01 2.6022657209718134e+00 2.0171616363955387e+01 1 1 0
399 1 1.0572439049893509e+01 1.0694494859617262e+01 1.9398409448436297e+01 0 0 0
360 1 4.7293480448739311e+00 3.1628926406744986e+00 2.1670300013931776e+01 1 2 0
1299 1 9.2300414252156457e+00 1.0346991303408213e+01 2.1801173068308550e+01 1 0 0
1668 1 9.3358802938543519e+00 8.4348919407565859e+00 1.7222063858936195e+01 0 1 0
1478 1 8.7661358200837398e+00 7.8070909965615476e+00 2.0095346455603888e+01 0 0 1
1851 1 2.5280823212649177e+00 5.0335940005495763e+00 2.1484877494844351e+01 0 0 0
2 1 4.3610620237332176e+00 7.5814578255175942e+00 1.8480622249070912e+01 1 0 0
2152 1 6.8630918840158746e+00 6.3361747006225899e+00 2.1532188504926090e+01 0 1 0
1903 1 7.6515539303409836e+00 1.1010353886787358e+01 1.6757930244248968e+01 1 1 0
3296 1 7.0644115790720230e-01 2.7712660531219844e+00 2.2907391953240179e+01 1 0 0
6138 1 1.7182194655818896e+00 5.8900846467230705e+00 1.6686471592818059e+01 1 0 1
5091 1 2.7204243480494511e-01 1.2231081783901899e+01 2.2007777281612363e+01 1 1 0
775 2 1.1074500000000002e+01 1.0656442593567498e+01 2.6864426884487877e+01 0 0 0
2870 1 2.9580594042188961e+00 2.3948600457370417e+00 2.4343275885479130e+01 0 1 1
2885 1 1.1330167983461624e+01 6.9637495923449206e+00 2.3811249719654768e+01 0 1 0
3741 1 9.9015746948249621e+00 1.7331384238848044e+00 2.3584091704132540e+01 -1 0 0
777 2 1.2304999999999998e+01 1.1366872099805333e+01 2.6864426884487877e+01 0 0 0
734 2 1.1074500000000002e+01 9.2355835810918343e+00 2.6864426884487877e+01 0 0 0
1672 1 3.3053091207001501e+00 5.8431696172632464e+00 2.4178640557220227e+01 0 1 1
201 1 5.2609431058515668e+00 4.0622800047076488e+00 2.4559238750974270e+01 0 1 0
3398 1 7.8730134033371719e+00 5.4266081988576609e+00 2.4424470468679363e+01 1 0 0
1968 1 1.0664280432297110e+01 4.4583579968099443e+00 2.4536334000535884e+01 0 1 0
1790 1 1.1843482540541165e+01 1.1699233176225080e+01 2.4613440016312293e+01 0 2 0
3247 1 4.5036947687060449e+00 8.7139710127668817e+00 2.3954305305566095e+01 0 0 1
1752 1 2.2240766318739427e+00 1.0553391299075413e+01 2.3765479817028787e+01 1 0 0
160 1 7.8404104028172172e+00 6.8530849745903732e-02 2.4279107785152785e+01 2 1 0
4569 1 7.4546842891223486e+00 8.0898569263243392e+00 2.4054506923960844e+01 0 0 1
1893 1 1.0401575231753444e+01 9.5016751345701014e+00 2.4107545274081232e+01 1 -1 0
1991 1 4.2412660545045577e-01 4.7940513011586301e+00 2.4532097535090138e+01 1 1 1
554 2 0.0000000000000000e+00 2.8417180249513345e+00 2.6864426884487877e+01 0 0 0
556 2 0.0000000000000000e+00 0.0000000000000000e+00 2.6864426884487877e+01 0 0 0
558 2 1.2305000000000001e+00 7.1042950623783474e-01 2.6864426884487877e+01 0 0 0
565 2 1.2305000000000001e+00 2.1312885187134998e+00 2.6864426884487877e+01 0 0 0
567 2 2.4610000000000003e+00 2.8417180249513345e+00 2.6864426884487877e+01 0 0 0
569 2 2.4610000000000003e+00 0.0000000000000000e+00 2.6864426884487877e+01 0 0 0
571 2 3.6915000000000004e+00 7.1042950623783474e-01 2.6864426884487877e+01 0 0 0
586 2 3.6914999999999996e+00 2.1312885187134998e+00 2.6864426884487877e+01 0 0 0
588 2 4.9220000000000006e+00 2.8417180249513332e+00 2.6864426884487877e+01 0 0 0
590 2 4.9220000000000006e+00 0.0000000000000000e+00 2.6864426884487877e+01 0 0 0
592 2 6.1524999999999999e+00 7.1042950623783407e-01 2.6864426884487877e+01 0 0 0
615 2 6.1524999999999999e+00 2.1312885187134989e+00 2.6864426884487877e+01 0 0 0
617 2 7.3829999999999991e+00 2.8417180249513345e+00 2.6864426884487877e+01 0 0 0
619 2 7.3829999999999991e+00 0.0000000000000000e+00 2.6864426884487877e+01 0 0 0
621 2 8.6134999999999984e+00 7.1042950623783407e-01 2.6864426884487877e+01 0 0 0
652 2 8.6134999999999984e+00 2.1312885187135002e+00 2.6864426884487877e+01 0 0 0
654 2 9.8440000000000012e+00 2.8417180249513332e+00 2.6864426884487877e+01 0 0 0
656 2 9.8440000000000012e+00 0.0000000000000000e+00 2.6864426884487877e+01 0 0 0
658 2 1.1074500000000002e+01 7.1042950623783330e-01 2.6864426884487877e+01 0 0 0
697 2 1.1074500000000002e+01 2.1312885187135002e+00 2.6864426884487877e+01 0 0 0
561 2 0.0000000000000000e+00 4.2625770374269996e+00 2.6864426884487877e+01 0 0 0
563 2 1.2305000000000001e+00 4.9730065436648339e+00 2.6864426884487877e+01 0 0 0
578 2 1.2305000000000001e+00 6.3938655561404980e+00 2.6864426884487877e+01 0 0 0
582 2 2.4610000000000003e+00 4.2625770374269996e+00 2.6864426884487877e+01 0 0 0
584 2 3.6914999999999996e+00 4.9730065436648339e+00 2.6864426884487877e+01 0 0 0
607 2 3.6914999999999996e+00 6.3938655561404980e+00 2.6864426884487877e+01 0 0 0
559 2 0.0000000000000000e+00 7.1042950623783341e+00 2.6864426884487877e+01 0 0 0
580 2 2.4610000000000003e+00 7.1042950623783341e+00 2.6864426884487877e+01 0 0 0
611 2 4.9220000000000006e+00 4.2625770374269978e+00 2.6864426884487877e+01 0 0 0
613 2 6.1524999999999999e+00 4.9730065436648339e+00 2.6864426884487877e+01 0 0 0
644 2 6.1524999999999999e+00 6.3938655561404980e+00 2.6864426884487877e+01 0 0 0
648 2 7.3829999999999991e+00 4.2625770374269996e+00 2.6864426884487877e+01 0 0 0
609 2 4.9220000000000006e+00 7.1042950623783341e+00 2.6864426884487877e+01 0 0 0
646 2 7.3830000000000009e+00 7.1042950623783341e+00 2.6864426884487877e+01 0 0 0
650 2 8.6135000000000002e+00 4.9730065436648339e+00 2.6864426884487877e+01 0 0 0
689 2 8.6135000000000002e+00 6.3938655561404980e+00 2.6864426884487877e+01 0 0 0
693 2 9.8440000000000012e+00 4.2625770374270004e+00 2.6864426884487877e+01 0 0 0
695 2 1.1074500000000002e+01 4.9730065436648339e+00 2.6864426884487877e+01 0 0 0
736 2 1.1074500000000002e+01 6.3938655561404980e+00 2.6864426884487877e+01 0 0 0
691 2 9.8440000000000012e+00 7.1042950623783341e+00 2.6864426884487877e+01 0 0 0
574 2 0.0000000000000000e+00 8.5251540748539991e+00 2.6864426884487877e+01 0 0 0
576 2 1.2305000000000001e+00 9.2355835810918343e+00 2.6864426884487877e+01 0 0 0
603 2 2.4610000000000003e+00 8.5251540748539991e+00 2.6864426884487877e+01 0 0 0
605 2 3.6915000000000004e+00 9.2355835810918343e+00 2.6864426884487877e+01 0 0 0
572 2 0.0000000000000000e+00 1.1366872099805333e+01 2.6864426884487877e+01 0 0 0
599 2 1.2305000000000001e+00 1.0656442593567498e+01 2.6864426884487877e+01 0 0 0
601 2 2.4610000000000003e+00 1.1366872099805333e+01 2.6864426884487877e+01 0 0 0
636 2 3.6914999999999996e+00 1.0656442593567499e+01 2.6864426884487877e+01 0 0 0
640 2 4.9220000000000006e+00 8.5251540748539991e+00 2.6864426884487877e+01 0 0 0
642 2 6.1524999999999999e+00 9.2355835810918343e+00 2.6864426884487877e+01 0 0 0
685 2 7.3830000000000009e+00 8.5251540748539991e+00 2.6864426884487877e+01 0 0 0
638 2 4.9220000000000006e+00 1.1366872099805333e+01 2.6864426884487877e+01 0 0 0
681 2 6.1524999999999999e+00 1.0656442593567499e+01 2.6864426884487877e+01 0 0 0
683 2 7.3829999999999991e+00 1.1366872099805333e+01 2.6864426884487877e+01 0 0 0
728 2 8.6134999999999984e+00 1.0656442593567498e+01 2.6864426884487877e+01 0 0 0
732 2 9.8440000000000012e+00 8.5251540748539956e+00 2.6864426884487877e+01 0 0 0
730 2 9.8440000000000012e+00 1.1366872099805333e+01 2.6864426884487877e+01 0 0 0
687 2 8.6134999999999984e+00 9.2355835810918343e+00 2.6864426884487877e+01 0 0 0
3559 1 9.3256125540391491e-02 8.6222052781249374e+00 2.4064892313200232e+01 0 1 0
555 2 0.0000000000000000e+00 1.4208590124756650e+00 3.0030999999998723e+01 0 0 0
557 2 0.0000000000000000e+00 0.0000000000000000e+00 3.0030999999998723e+01 0 0 0
566 2 1.2305000000000001e+00 2.1312885187134998e+00 3.0030999999998723e+01 0 0 0
568 2 2.4610000000000003e+00 1.4208590124756650e+00 3.0030999999998723e+01 0 0 0
570 2 2.4610000000000003e+00 0.0000000000000000e+00 3.0030999999998723e+01 0 0 0
587 2 3.6914999999999996e+00 2.1312885187134998e+00 3.0030999999998723e+01 0 0 0
564 2 1.2305000000000001e+00 3.5521475311891644e+00 3.0030999999998723e+01 0 0 0
585 2 3.6914999999999996e+00 3.5521475311891644e+00 3.0030999999998723e+01 0 0 0
883 2 0.0000000000000000e+00 2.8417180249513345e+00 3.3197573115505307e+01 0 0 0
884 2 0.0000000000000000e+00 0.0000000000000000e+00 3.3197573115505307e+01 0 0 0
885 2 1.2305000000000001e+00 7.1042950623783474e-01 3.3197573115505307e+01 0 0 0
889 2 1.2305000000000001e+00 2.1312885187134998e+00 3.3197573115505307e+01 0 0 0
890 2 2.4610000000000003e+00 2.8417180249513345e+00 3.3197573115505307e+01 0 0 0
891 2 2.4610000000000003e+00 0.0000000000000000e+00 3.3197573115505307e+01 0 0 0
892 2 3.6915000000000004e+00 7.1042950623783474e-01 3.3197573115505307e+01 0 0 0
900 2 3.6914999999999996e+00 2.1312885187134998e+00 3.3197573115505307e+01 0 0 0
589 2 4.9220000000000006e+00 1.4208590124756650e+00 3.0030999999998723e+01 0 0 0
591 2 4.9220000000000006e+00 0.0000000000000000e+00 3.0030999999998723e+01 0 0 0
616 2 6.1524999999999999e+00 2.1312885187134989e+00 3.0030999999998723e+01 0 0 0
618 2 7.3829999999999991e+00 1.4208590124756659e+00 3.0030999999998723e+01 0 0 0
620 2 7.3829999999999991e+00 0.0000000000000000e+00 3.0030999999998723e+01 0 0 0
614 2 6.1524999999999999e+00 3.5521475311891644e+00 3.0030999999998723e+01 0 0 0
901 2 4.9220000000000006e+00 2.8417180249513332e+00 3.3197573115505307e+01 0 0 0
902 2 4.9220000000000006e+00 0.0000000000000000e+00 3.3197573115505307e+01 0 0 0
903 2 6.1524999999999999e+00 7.1042950623783407e-01 3.3197573115505307e+01 0 0 0
915 2 6.1524999999999999e+00 2.1312885187134989e+00 3.3197573115505307e+01 0 0 0
916 2 7.3829999999999991e+00 2.8417180249513345e+00 3.3197573115505307e+01 0 0 0
917 2 7.3829999999999991e+00 0.0000000000000000e+00 3.3197573115505307e+01 0 0 0
653 2 8.6134999999999984e+00 2.1312885187135002e+00 3.0030999999998723e+01 0 0 0
655 2 9.8440000000000012e+00 1.4208590124756659e+00 3.0030999999998723e+01 0 0 0
657 2 9.8440000000000012e+00 0.0000000000000000e+00 3.0030999999998723e+01 0 0 0
698 2 1.1074500000000002e+01 2.1312885187135002e+00 3.0030999999998723e+01 0 0 0
651 2 8.6134999999999984e+00 3.5521475311891657e+00 3.0030999999998723e+01 0 0 0
696 2 1.1074500000000002e+01 3.5521475311891644e+00 3.0030999999998723e+01 0 0 0
918 2 8.6134999999999984e+00 7.1042950623783407e-01 3.3197573115505307e+01 0 0 0
934 2 8.6134999999999984e+00 2.1312885187135002e+00 3.3197573115505307e+01 0 0 0
935 2 9.8440000000000012e+00 2.8417180249513332e+00 3.3197573115505307e+01 0 0 0
936 2 9.8440000000000012e+00 0.0000000000000000e+00 3.3197573115505307e+01 0 0 0
937 2 1.1074500000000002e+01 7.1042950623783330e-01 3.3197573115505307e+01 0 0 0
957 2 1.1074500000000002e+01 2.1312885187135002e+00 3.3197573115505307e+01 0 0 0
560 2 0.0000000000000000e+00 5.6834360499026637e+00 3.0030999999998723e+01 0 0 0
562 2 0.0000000000000000e+00 4.2625770374269996e+00 3.0030999999998723e+01 0 0 0
579 2 1.2305000000000001e+00 6.3938655561404980e+00 3.0030999999998723e+01 0 0 0
581 2 2.4610000000000003e+00 5.6834360499026637e+00 3.0030999999998723e+01 0 0 0
583 2 2.4610000000000003e+00 4.2625770374269996e+00 3.0030999999998723e+01 0 0 0
608 2 3.6914999999999996e+00 6.3938655561404980e+00 3.0030999999998723e+01 0 0 0
577 2 1.2305000000000001e+00 7.8147245686161639e+00 3.0030999999998723e+01 0 0 0
606 2 3.6914999999999996e+00 7.8147245686161639e+00 3.0030999999998723e+01 0 0 0
887 2 0.0000000000000000e+00 4.2625770374269996e+00 3.3197573115505307e+01 0 0 0
888 2 1.2305000000000001e+00 4.9730065436648339e+00 3.3197573115505307e+01 0 0 0
896 2 1.2305000000000001e+00 6.3938655561404980e+00 3.3197573115505307e+01 0 0 0
898 2 2.4610000000000003e+00 4.2625770374269996e+00 3.3197573115505307e+01 0 0 0
899 2 3.6914999999999996e+00 4.9730065436648339e+00 3.3197573115505307e+01 0 0 0
911 2 3.6914999999999996e+00 6.3938655561404980e+00 3.3197573115505307e+01 0 0 0
886 2 0.0000000000000000e+00 7.1042950623783341e+00 3.3197573115505307e+01 0 0 0
897 2 2.4610000000000003e+00 7.1042950623783341e+00 3.3197573115505307e+01 0 0 0
610 2 4.9220000000000006e+00 5.6834360499026637e+00 3.0030999999998723e+01 0 0 0
612 2 4.9220000000000006e+00 4.2625770374269978e+00 3.0030999999998723e+01 0 0 0
645 2 6.1524999999999999e+00 6.3938655561404980e+00 3.0030999999998723e+01 0 0 0
647 2 7.3829999999999991e+00 5.6834360499026637e+00 3.0030999999998723e+01 0 0 0
649 2 7.3829999999999991e+00 4.2625770374269996e+00 3.0030999999998723e+01 0 0 0
643 2 6.1524999999999999e+00 7.8147245686161639e+00 3.0030999999998723e+01 0 0 0
913 2 4.9220000000000006e+00 4.2625770374269978e+00 3.3197573115505307e+01 0 0 0
914 2 6.1524999999999999e+00 4.9730065436648339e+00 3.3197573115505307e+01 0 0 0
930 2 6.1524999999999999e+00 6.3938655561404980e+00 3.3197573115505307e+01 0 0 0
932 2 7.3829999999999991e+00 4.2625770374269996e+00 3.3197573115505307e+01 0 0 0
912 2 4.9220000000000006e+00 7.1042950623783341e+00 3.3197573115505307e+01 0 0 0
931 2 7.3830000000000009e+00 7.1042950623783341e+00 3.3197573115505307e+01 0 0 0
690 2 8.6135000000000002e+00 6.3938655561404980e+00 3.0030999999998723e+01 0 0 0
692 2 9.8440000000000012e+00 5.6834360499026637e+00 3.0030999999998723e+01 0 0 0
694 2 9.8440000000000012e+00 4.2625770374270004e+00 3.0030999999998723e+01 0 0 0
737 2 1.1074500000000002e+01 6.3938655561404980e+00 3.0030999999998723e+01 0 0 0
688 2 8.6135000000000002e+00 7.8147245686161639e+00 3.0030999999998723e+01 0 0 0
735 2 1.1074500000000002e+01 7.8147245686161639e+00 3.0030999999998723e+01 0 0 0
933 2 8.6135000000000002e+00 4.9730065436648339e+00 3.3197573115505307e+01 0 0 0
953 2 8.6135000000000002e+00 6.3938655561404980e+00 3.3197573115505307e+01 0 0 0
955 2 9.8440000000000012e+00 4.2625770374270004e+00 3.3197573115505307e+01 0 0 0
956 2 1.1074500000000002e+01 4.9730065436648339e+00 3.3197573115505307e+01 0 0 0
977 2 1.1074500000000002e+01 6.3938655561404980e+00 3.3197573115505307e+01 0 0 0
954 2 9.8440000000000012e+00 7.1042950623783341e+00 3.3197573115505307e+01 0 0 0
573 2 0.0000000000000000e+00 9.9460130873296642e+00 3.0030999999998723e+01 0 0 0
575 2 0.0000000000000000e+00 8.5251540748539991e+00 3.0030999999998723e+01 0 0 0
602 2 2.4610000000000003e+00 9.9460130873296642e+00 3.0030999999998723e+01 0 0 0
604 2 2.4610000000000003e+00 8.5251540748539991e+00 3.0030999999998723e+01 0 0 0
598 2 1.2305000000000001e+00 1.2077301606043163e+01 3.0030999999998723e+01 0 0 0
600 2 1.2305000000000001e+00 1.0656442593567498e+01 3.0030999999998723e+01 0 0 0
635 2 3.6914999999999996e+00 1.2077301606043163e+01 3.0030999999998723e+01 0 0 0
637 2 3.6914999999999996e+00 1.0656442593567499e+01 3.0030999999998723e+01 0 0 0
894 2 0.0000000000000000e+00 8.5251540748539991e+00 3.3197573115505307e+01 0 0 0
895 2 1.2305000000000001e+00 9.2355835810918343e+00 3.3197573115505307e+01 0 0 0
909 2 2.4610000000000003e+00 8.5251540748539991e+00 3.3197573115505307e+01 0 0 0
910 2 3.6915000000000004e+00 9.2355835810918343e+00 3.3197573115505307e+01 0 0 0
893 2 0.0000000000000000e+00 1.1366872099805333e+01 3.3197573115505307e+01 0 0 0
907 2 1.2305000000000001e+00 1.0656442593567498e+01 3.3197573115505307e+01 0 0 0
908 2 2.4610000000000003e+00 1.1366872099805333e+01 3.3197573115505307e+01 0 0 0
926 2 3.6914999999999996e+00 1.0656442593567499e+01 3.3197573115505307e+01 0 0 0
639 2 4.9220000000000006e+00 9.9460130873296642e+00 3.0030999999998723e+01 0 0 0
641 2 4.9220000000000006e+00 8.5251540748539991e+00 3.0030999999998723e+01 0 0 0
684 2 7.3830000000000009e+00 9.9460130873296642e+00 3.0030999999998723e+01 0 0 0
686 2 7.3830000000000009e+00 8.5251540748539991e+00 3.0030999999998723e+01 0 0 0
680 2 6.1524999999999999e+00 1.2077301606043163e+01 3.0030999999998723e+01 0 0 0
682 2 6.1524999999999999e+00 1.0656442593567499e+01 3.0030999999998723e+01 0 0 0
928 2 4.9220000000000006e+00 8.5251540748539991e+00 3.3197573115505307e+01 0 0 0
929 2 6.1524999999999999e+00 9.2355835810918343e+00 3.3197573115505307e+01 0 0 0
951 2 7.3830000000000009e+00 8.5251540748539991e+00 3.3197573115505307e+01 0 0 0
927 2 4.9220000000000006e+00 1.1366872099805333e+01 3.3197573115505307e+01 0 0 0
949 2 6.1524999999999999e+00 1.0656442593567499e+01 3.3197573115505307e+01 0 0 0
950 2 7.3829999999999991e+00 1.1366872099805333e+01 3.3197573115505307e+01 0 0 0
731 2 9.8440000000000012e+00 9.9460130873296642e+00 3.0030999999998723e+01 0 0 0
733 2 9.8440000000000012e+00 8.5251540748539956e+00 3.0030999999998723e+01 0 0 0
727 2 8.6135000000000002e+00 1.2077301606043163e+01 3.0030999999998723e+01 0 0 0
729 2 8.6134999999999984e+00 1.0656442593567498e+01 3.0030999999998723e+01 0 0 0
774 2 1.1074500000000002e+01 1.2077301606043163e+01 3.0030999999998723e+01 0 0 0
776 2 1.1074500000000002e+01 1.0656442593567498e+01 3.0030999999998723e+01 0 0 0
952 2 8.6134999999999984e+00 9.2355835810918343e+00 3.3197573115505307e+01 0 0 0
975 2 9.8440000000000012e+00 8.5251540748539956e+00 3.3197573115505307e+01 0 0 0
976 2 1.1074500000000002e+01 9.2355835810918343e+00 3.3197573115505307e+01 0 0 0
973 2 8.6134999999999984e+00 1.0656442593567498e+01 3.3197573115505307e+01 0 0 0
974 2 9.8440000000000012e+00 1.1366872099805333e+01 3.3197573115505307e+01 0 0 0
997 2 1.1074500000000002e+01 1.0656442593567498e+01 3.3197573115505307e+01 0 0 0
998 2 1.2304999999999998e+01 1.1366872099805333e+01 3.3197573115505307e+01 0 0 0
2116 1 1.1127638448164350e+00 1.7877285313250946e+00 3.5917348793992460e+01 0 1 0
3204 1 3.4956022756817622e+00 4.3587150552131124e+00 3.5650981108222105e+01 1 1 0
1452 1 5.7995696505952097e+00 2.7884069953740442e+00 3.5782669783214516e+01 0 0 0
6114 1 1.3849071529355712e+00 8.2826800909181557e+00 3.5565355070434315e+01 0 -1 0
6069 1 1.1422077020439360e+01 9.4870675033728666e+00 3.5632904733906564e+01 0 1 -1
2948 1 5.4458819983297380e+00 6.8283769565206613e+00 3.5686092792895991e+01 1 1 0
6199 1 1.0486824883901821e+01 4.8704760057733729e+00 3.6245580511214250e+01 1 1 0
6108 1 7.7107930135457510e+00 8.4167161320808397e+00 3.6415032449508431e+01 0 0 0
1567 1 1.0646302848727053e+01 2.0156433052517171e+00 3.5962261931723653e+01 -1 1 0
6194 1 7.5842717416080205e+00 4.8320187702866617e+00 3.5850655727269427e+01 0 0 0
5093 1 2.0682235993158442e+00 1.0982846478025646e+01 3.5824837392314549e+01 1 0 -1
6066 1 7.0694131695154514e+00 2.3420887857504707e-01 3.5831847669580533e+01 0 1 0
4942 1 7.4015947016517734e+00 1.1228548013908224e+01 3.6622563885706761e+01 1 0 0
2839 1 9.9918915232209766e+00 1.1859001112585329e+01 3.5950614147611994e+01 0 0 -1
3726 1 5.1930508874988517e+00 3.1404005809811903e+00 3.8483576714207381e+01 0 0 0
1325 1 1.0312200610229191e+01 7.6740054471161709e+00 4.2830959740257960e+01 0 1 -1
6198 1 6.2755767987270037e+00 7.7474825836593741e-01 3.9854570338912403e+01 1 1 0
5297 1 8.0857920794485718e+00 3.9852227223101599e+00 3.8752850586047472e+01 1 1 0
4591 1 2.3791770810739128e+00 1.1125834927464807e+01 4.2667641208316297e+01 1 0 0
6219 1 5.6306001600837901e+00 5.5656855530806997e+00 4.0285247057312382e+01 1 3 -1
2992 1 8.8314489828649343e+00 8.8445369397227971e+00 3.9761098679558877e+01 0 0 -1
3536 1 1.1412859159604729e+01 5.0826332133547716e+00 3.9010444465323658e+01 0 0 -1
3314 1 1.1199839057321116e+01 9.6252634231091960e+00 4.1041183291905540e+01 1 0 0
4521 1 7.0843410646788714e+00 3.2075133324094502e+00 4.3491210778707945e+01 1 0 0
2091 1 4.8921184868610617e+00 7.6212918958965563e+00 3.8534773903654759e+01 0 0 0
1634 1 2.6206611804326942e+00 1.0743036858304142e+01 3.8685735950620099e+01 0 0 -1
5983 1 5.2275949479258363e+00 1.0116697280528628e+01 4.2812756967143052e+01 0 0 -1
1882 1 5.2058178255997074e+00 1.0030950368653725e+01 3.9924149939232173e+01 1 0 -1
3708 1 7.7256030466644354e+00 1.1274625668139601e+01 3.9257336878179331e+01 1 0 0
2941 1 8.0636685713839462e-01 9.9152327094720967e+00 4.0754915768872138e+01 0 1 0
4827 1 2.0566838436909727e+00 3.8400687579272605e+00 4.1419760638621533e+01 1 1 -1
1446 1 2.3788126756673251e+00 1.0485393052088416e+00 4.1413318539628136e+01 0 0 0
84 1 8.6445936128181948e+00 4.4212335909779066e+00 4.1532513298128357e+01 0 0 0
4480 1 1.1098230717852250e+01 2.9251395475112085e+00 4.1098450048250051e+01 1 0 0
5323 1 3.7679297293915975e-01 7.2941672584446389e+00 4.0735378529694444e+01 1 1 0
1455 1 2.2103435769541528e+00 6.4170769465997646e+00 3.7475809463409135e+01 0 0 0
365 1 3.2567800340405504e+00 6.3375987479011702e+00 4.1573630080477365e+01 0 0 -1
2910 1 7.7764212983987537e+00 7.1031773338139255e+00 4.1832644471740757e+01 0 0 0
3485 1 9.9205244029971986e+00 1.1886096049178443e+01 4.1188300494176737e+01 0 0 -1
1779 1 6.1668513915504048e+00 8.0205321480087099e-01 4.2731782765296529e+01 1 1 -1
5166 1 8.6909553199049032e+00 1.4711536966535603e+00 3.8154817318293354e+01 0 0 0
1282 1 3.4250683760862017e+00 1.7308488010180489e-01 3.8982880752464517e+01 0 1 0
4597 1 5.7369942164594090e-01 4.9079030392239424e+00 3.9215044712979008e+01 0 1 -1
4836 1 2.4859515193769539e+00 2.9965388602785148e+00 3.8238611474311504e+01 1 1 -1
3272 1 1.0232798226067475e+01 7.5009693944010589e+00 3.7043693498981135e+01 0 0 0
5972 1 1.2027355530949785e+01 3.4214185344326582e+00 4.3460044092040569e+01 1 1 0
3051 1 1.3731479942884844e-01 3.2057653775481394e+00 4.3144198220638387e+01 1 1 0
6031 1 1.0935758027656361e+01 1.5854808430554923e-01 4.1155001933650546e+01 0 0 0
5231 1 1.6516157506498099e+00 2.6720695475780425e+00 4.5534454058979733e+01 0 1 0
124 1 5.2605039446441673e+00 4.2374827934172847e+00 4.5412330677968384e+01 0 1 -1
6171 1 1.0036744192247797e+01 5.1014720386314298e+00 4.4058084771764172e+01 0 0 0
1471 1 8.0616615196069414e+00 4.3604849681173619e+00 4.6243823076943158e+01 0 0 0
3146 1 9.3267373611134943e+00 1.9278736727371362e+00 4.7124535046825947e+01 0 0 0
3603 1 2.8084469888453905e+00 7.2531665612200742e+00 4.6540606755597025e+01 0 0 0
4774 1 2.3916374523667133e-01 5.1211790655062317e-01 4.6814057727058234e+01 1 0 -1
4533 1 5.2484818371249338e+00 1.0943293680598726e+01 4.6950934490631298e+01 -1 0 0
3114 1 9.2926347661589528e+00 1.0467220354982880e+01 4.6106185074028573e+01 0 1 -1
1536 1 2.7189460142533334e-01 8.6281229779829562e+00 4.5480492745155431e+01 0 0 0
1502 1 7.1656579817123722e+00 8.9409449587787648e+00 4.6432684525589927e+01 0 1 -1
4936 1 6.4112855098037400e+00 8.0497998055267850e+00 4.4134831768356918e+01 1 1 -1
3260 1 7.8221809579002977e-01 5.6245620782678862e-02 4.9848839947914179e+01 1 1 0
2868 1 1.1579642751475211e+01 1.1490303537140907e+00 4.5323373137733483e+01 0 1 0
1970 1 1.2251240377466932e+01 7.7563954474274457e+00 4.8240283729263290e+01 0 0 -1
318 1 5.1733872568553734e+00 2.0523900646048762e-01 4.7819291948050711e+01 -1 1 -1
1688 1 4.6846356952149772e+00 2.3269265745550487e+00 4.9435852494268438e+01 0 0 -1
1326 1 4.1633077043767139e+00 4.8283671301823681e+00 4.8337461311347411e+01 1 0 0
6044 1 4.1510261071189465e+00 6.6728063016599695e+00 4.4310369587457181e+01 1 0 0
3031 1 1.1668730544441004e+01 1.0473058283069021e+01 4.8294133275988862e+01 0 0 0
4503 1 1.1772656539336572e+00 4.9793945288926427e+00 4.6998459462583341e+01 0 1 -1