
# Create simulation box and atoms

read_data data.ML_graphite_m1000atm_245K
  orthogonal box = (0 0 2.62195) to (49.22 49.0196 57.4401)
  4 by 4 by 8 MPI processor grid
  reading atoms ...
  6337 atoms
  reading velocities ...
  6337 velocities
group water type 1
3577 atoms in group water
group graphite type 2
2760 atoms in group graphite

# Define potential

pair_style sw
pair_coeff * * MLC_e.sw mW C


# Fix graphite atoms in place

fix 5 graphite setforce 0.0 0.0 0.0
velocity graphite set 0.0 0.0 0.0


# Equilibration of molecular water

# Add velocity/set timestep

velocity	    water create ${TEMP} ${SEED} rot yes dist gaussian
velocity	    water create 248 ${SEED} rot yes dist gaussian
velocity	    water create 248 13230 rot yes dist gaussian
timestep	    5.0

# Define output

compute			1 water msd
compute			3 water temp
thermo	    	50
thermo_style	custom step temp press vol etotal ke pe c_1[4] c_3

# Neighbor lists

neigh_modify    delay 0 every 1 check yes

# Set fixes

fix             1 water momentum 10 linear 1 1 1 rescale
fix             2 water nve
fix             3 water temp/csvr ${TEMP} ${TEMP} 500.0 ${SEED}
fix             3 water temp/csvr 248 ${TEMP} 500.0 ${SEED}
fix             3 water temp/csvr 248 248 500.0 ${SEED}
fix             3 water temp/csvr 248 248 500.0 13230
fix             4 water press/berendsen z ${PRES} ${PRES} 1000.0 modulus 20000
fix             4 water press/berendsen z -1000 ${PRES} 1000.0 modulus 20000
fix             4 water press/berendsen z -1000 -1000 1000.0 modulus 20000

# Run 0.5 ns equilibration

dump		    1 all atom 2000 ${DIR}/eq.${NAME}-${TEMP}.dump
dump		    1 all atom 2000 run_12/eq.${NAME}-${TEMP}.dump
dump		    1 all atom 2000 run_12/eq.het_freeze_12-${TEMP}.dump
dump		    1 all atom 2000 run_12/eq.het_freeze_12-248.dump

reset_timestep  0

run	            100000
Neighbor list info ...
  update every 1 steps, delay 0 steps, check yes
  max neighbors/atom: 2000, page size: 100000
  master list distance cutoff = 6.67472
  ghost atom cutoff = 6.67472
  binsize = 3.33736, bins = 15 15 17
  1 neighbor lists, perpetual/occasional/extra = 1 0 0
  (1) pair sw, perpetual
      attributes: full, newton on
      pair build: full/bin/atomonly
      stencil: full/bin/3d
      bin: standard
Per MPI rank memory allocation (min/avg/max) = 4.068 | 4.178 | 4.492 Mbytes
Step Temp Press Volume TotEng KinEng PotEng c_1[4] c_3 
       0     139.9697   -1056.0851     132262.2   -34085.323    2643.5254   -36728.848            0          248 
      50    141.49026   -1006.5656    132311.24    -34074.08    2672.2434   -36746.324   0.51357947    250.69415 
     100    141.05657   -1055.8553    132409.85   -34072.358    2664.0526   -36736.411   0.79401445    249.92574 
     150    143.91686   -1080.8927    132453.89   -34057.949    2718.0732   -36776.022   0.97769805    254.99363 
     200    138.98988   -1195.1383    132516.88   -34026.685    2625.0202   -36651.705    1.2143997    246.26395 
     250    139.77958   -1056.5904    132572.99   -34084.785    2639.9348    -36724.72    1.3930793    247.66315 
     300    139.37788   -1111.9801    132580.09   -34103.277    2632.3482   -36735.626    1.5306792    246.95141 
     350    136.69476   -1143.4621    132639.42   -34122.759    2581.6736   -36704.433    1.6969931    242.19742 
     400    137.70948   -1187.6423    132620.55   -34127.353    2600.8381   -36728.191    1.9029264    243.99532 
     450    139.26086   -1264.0302    132583.49   -34132.827    2630.1381   -36762.965    2.1149279    246.74408 
     500    138.28877   -1181.4256    132631.34   -34140.452    2611.7788    -36752.23    2.2680522    245.02172 
     550    139.63556   -1108.5989    132722.01   -34095.856    2637.2149   -36733.071    2.4408209    247.40798 
     600    138.25863   -821.38435    132822.95   -33992.641    2611.2096   -36603.851    2.5952033    244.96832 
     650    142.20208    -1048.996    132948.14    -34037.18     2685.687   -36722.867    2.7235913    251.95535 
     700    139.53532   -1210.8754    133011.05   -34095.757    2635.3216   -36731.079     2.878689    247.23036 
     750    141.01269   -1138.7378    133052.14   -34134.318    2663.2238   -36797.542    2.9672972    249.84799 
     800    138.45729   -1119.2767    133125.89    -34171.17    2614.9615   -36786.131    3.1210774     245.3203 
     850    140.22363   -1296.6714    133187.46   -34175.682    2648.3214   -36824.003    3.2138619    248.44993 
     900    137.04694   -1146.5469    133164.92   -34207.668    2588.3251   -36795.993    3.3472634    242.82143 
     950    136.23244    -1081.168    133174.83     -34177.7    2572.9421   -36750.642    3.5230806    241.37829 
    1000    139.93003   -1367.2084    133138.65   -34187.658    2642.7763   -36830.434    3.6596662    247.92972 
    1050    137.36928   -1059.9987    133133.25   -34147.663    2594.4128   -36742.076    3.8689828    243.39254 
    1100    137.85166   -1311.8377    133177.04   -34181.698    2603.5232   -36785.221    4.0169419    244.24723 
    1150    138.12041   -1401.3498    133194.19   -34165.437     2608.599   -36774.036    4.1622482    244.72341 
    1200    138.23198   -1409.7184    133163.75   -34174.382    2610.7061   -36785.088     4.298264    244.92109 
    1250    139.37925   -1430.3174     133142.3   -34091.311     2632.374   -36723.685    4.3948717    246.95384 
    1300    144.90544   -1198.7185    133182.18   -33996.507    2736.7438   -36733.251    4.5186682     256.7452 
    1350    143.76967   -1291.7168    133184.49   -33973.861    2715.2933   -36689.154    4.6873337    254.73284 
    1400    144.66122   -932.81455    133209.91   -33955.967    2732.1316   -36688.099    4.8526277    256.31251 
    1450    143.27934   -1009.0484    133216.73   -33915.839    2706.0327   -36621.872    4.9768634    253.86407 
    1500    145.34929   -1104.9645    133245.66   -33884.485    2745.1267   -36629.611    5.0666105    257.53163 
    1550    142.32046   -1168.9255    133233.72   -33875.858    2687.9229   -36563.781    5.2279976    252.16511 
    1600     147.5278   -998.96059     133244.7   -33859.997    2786.2708   -36646.267    5.3133275    261.39153 
    1650    142.35371   -1433.4352    133239.55   -33901.716    2688.5508   -36590.267    5.4213465    252.22402 
    1700    142.38168   -1524.8818    133079.54   -33886.887    2689.0791   -36575.966    5.5101695    252.27357 
    1750    141.00399   -1323.7843    132992.58    -33899.22    2663.0596    -36562.28    5.6277256    249.83258 
    1800    141.27823   -1367.3171    132976.16   -33940.494    2668.2389   -36608.732     5.708238    250.31847 
    1850    141.82926   -1287.7664    133046.67   -33977.107     2678.646   -36655.753    5.7478369     251.2948 
    1900    138.46353   -1123.7152     133090.5    -34007.98    2615.0793   -36623.059    5.9400992    245.33135 
    1950    137.79943   -1388.5243     133094.3    -34009.86    2602.5369   -36612.397    6.1184751    244.15469 
    2000     139.6387   -1228.2863    133142.01    -33953.28    2637.2741   -36590.554    6.2900443    247.41354 
    2050    137.08751   -1355.8639    133084.73   -34005.234    2589.0912   -36594.325    6.4598614     242.8933 
    2100    141.95363   -1451.0746    133087.19    -33941.86    2680.9948   -36622.855    6.5822651    251.51515 
    2150     140.5857   -1106.7039    133061.73    -33965.73    2655.1595    -36620.89    6.7718103    249.09144 
    2200    141.41621   -1327.9018     132970.4   -33990.942    2670.8448   -36661.787      6.92592    250.56294 
    2250    137.47122   -1280.6001    132872.62    -34038.85    2596.3382   -36635.188    7.0414252    243.57318 
    2300    140.11536   -1234.2237    132898.62   -34018.876    2646.2765   -36665.153    7.2410962    248.25809 
    2350    141.08925    -1386.116    132825.87     -33975.3    2664.6697    -36639.97    7.4164484    249.98363 
    2400     138.1935    -1328.195    132835.59   -34000.026    2609.9794   -36610.006    7.6080915    244.85291 
    2450    139.52244   -1286.6821    132757.58   -33936.355    2635.0784   -36571.433    7.7340179    247.20755 
    2500    140.76659   -1045.7783     132785.4    -33934.11    2658.5759   -36592.686    7.9003746    249.41195 
    2550    140.61436   -1177.2105    132866.68    -33959.88    2655.7008   -36615.581    8.0743292    249.14223 
    2600    143.16835   -1313.8004    132912.01   -33984.478    2703.9365   -36688.414    8.3537684    253.66741 
    2650    141.97667   -1536.6619    132811.85   -34006.415    2681.4299   -36687.845    8.6433988    251.55598 
    2700    138.83748   -1473.2712     132656.7   -34052.558     2622.142     -36674.7    8.8794318    245.99393 
    2750    142.59864   -1111.3739    132655.14   -33999.602    2693.1767   -36692.779    9.1509789    252.65799 
    2800    140.77892   -1351.6706    132672.25   -34023.189    2658.8087   -36681.998    9.3601821    249.43378 
    2850    137.73664   -1440.7248    132671.62   -34078.651    2601.3511   -36680.002    9.4400514    244.04345 
    2900    139.45035   -1305.0839    132667.46   -34080.788    2633.7168   -36714.505    9.4942734    247.07981 
    2950    140.82257   -983.78972    132714.78   -34071.538    2659.6331   -36731.171    9.6964784    249.51113 
    3000    139.47843   -1116.3718    132665.13   -34082.291    2634.2471   -36716.538    9.8880208    247.12956 
    3050    140.23449   -927.89588    132748.66   -34139.239    2648.5265   -36787.765    10.112859    248.46917 
    3100    137.19846   -1116.8003    132839.97   -34121.115    2591.1868   -36712.302    10.292766     243.0899 
    3150    138.35781   -1223.5624    132895.75   -34068.605    2613.0826   -36681.687    10.388309    245.14403 
    3200    140.88033     -1317.55    132993.91   -34085.855     2660.724   -36746.579    10.449421    249.61346 
    3250    141.21442   -1001.0599    133050.42   -34078.213    2667.0338   -36745.247    10.512191    250.20542 
    3300     139.4508   -1269.7319    133047.36   -34104.092    2633.7253   -36737.818    10.600653    247.08061 
    3350    140.18593   -1199.8074    133073.54   -34140.149    2647.6092   -36787.759     10.68399    248.38312 
    3400    139.43142   -1083.7816    133153.95   -34139.608    2633.3594   -36772.967     10.92929    247.04628 
    3450    139.25582   -1334.1561    133169.56   -34116.908    2630.0428   -36746.951    11.184293    246.73514 
    3500    138.77515   -1150.8049    133140.85   -34093.118    2620.9647   -36714.082    11.350552    245.88349 
    3550    136.84424   -1398.1351    133183.34   -34098.613    2584.4967    -36683.11    11.469402    242.46228 
    3600    138.22658   -1193.5064    133160.08   -34078.163    2610.6042   -36688.767    11.543675    244.91152 
    3650    138.44072   -1145.7604    133228.28   -34106.151    2614.6486     -36720.8    11.791045    245.29095 
    3700    141.19963   -1101.1137    133189.94   -34103.299    2666.7545   -36770.054    11.855794    250.17921 
    3750    139.03396   -1062.6453    133266.66   -34046.421    2625.8527   -36672.274    12.056022    246.34205 
    3800    139.78308   -964.26311    133348.31   -34030.063     2640.001   -36670.064    12.131494    247.66936 
    3850    138.22567   -1102.1854    133391.16   -34007.417     2610.587   -36618.004    12.420092    244.90991 
    3900    141.25125   -1156.8914    133372.72   -34022.337    2667.7293   -36690.066    12.530274    250.27067 
    3950    142.69426   -1037.3578    133392.31   -34015.431    2694.9826   -36710.414    12.734773    252.82741 
    4000    138.39191   -989.67863    133425.69   -34049.819    2613.7267   -36663.545    12.888592    245.20446 
    4050    139.42197   -1207.1289    133401.87   -33993.691    2633.1808   -36626.872    13.022178    247.02953 
    4100    139.66861   -1110.1605    133504.16    -33989.64     2637.839   -36627.479    13.125395    247.46654 
    4150    141.59847   -1157.3049    133535.57   -33971.043     2674.287    -36645.33    13.417345    250.88587 
    4200    141.12166   -1270.0833    133534.78   -33996.396    2665.2819   -36661.678    13.662944    250.04107 
    4250    142.12076   -1515.3875     133490.3   -33932.796    2684.1513   -36616.947    13.789255    251.81128 
    4300    143.09762   -1309.5394    133356.99   -33909.547    2702.6008   -36612.148    13.915771     253.5421 
    4350    142.63947   -1367.2614    133352.17   -33932.282    2693.9478    -36626.23    14.100189    252.73033 
    4400    140.76498   -1140.0746    133227.07   -33919.837    2658.5455   -36578.382    14.370967    249.40909 
    4450    141.32263   -1402.4763     133167.5   -33933.929    2669.0775   -36603.007    14.470133    250.39714 
    4500    144.13768   -1229.8094    133125.01   -33951.557    2722.2436     -36673.8    14.690203    255.38488 
    4550    143.63383   -1077.0321    133181.28   -33939.965    2712.7277   -36652.692    14.973099    254.49215 
    4600     140.4069    -1277.277    133162.41   -33989.551    2651.7827   -36641.334    15.117549    248.77465 
    4650    141.90344   -1208.4037    133136.98   -34018.738    2680.0469   -36698.784    15.285749    251.42623 
    4700    138.50217   -1171.7895    133170.37   -34051.256    2615.8091   -36667.066    15.367038    245.39982 
    4750    137.33603   -1169.8851    133135.65   -33977.693    2593.7849   -36571.477    15.498056    243.33363 
    4800    144.44621   -1206.5496    133059.19    -33964.16    2728.0706   -36692.231    15.659399    255.93153 
    4850    139.66258    -1065.697    133023.22   -34036.502    2637.7251   -36674.227     15.89692    247.45585 
    4900    139.22967   -1169.8504    133038.59   -34072.304    2629.5491   -36701.854    16.113125    246.68882 
    4950    141.03813   -1134.5014    133002.33   -34076.779    2663.7043   -36740.484    16.220766    249.89306 
    5000    137.01216   -1012.2553    133037.95   -34116.192    2587.6682    -36703.86    16.382377    242.75981 
    5050    139.17864   -1177.6856    132994.12   -34149.531    2628.5852   -36778.116    16.488264     246.5984 
    5100    140.57457   -1301.6338    132881.37   -34115.419    2654.9492   -36770.369    16.588551    249.07172 
    5150    138.63193   -1255.2213    132789.03   -34161.888    2618.2598   -36780.148    16.782441    245.62973 
    5200    137.95137   -1402.2609    132786.91   -34222.554    2605.4064    -36827.96    16.736821     244.4239 
    5250    137.01962   -1198.9111    132644.86    -34192.76    2587.8091   -36780.569     16.93599    242.77302 
    5300    139.19413   -1259.3431    132596.04   -34190.006    2628.8778   -36818.884    17.026584    246.62585 
    5350    137.46948   -1176.7721    132619.08   -34172.248    2596.3052   -36768.553    17.239818    243.57008 
    5400    138.46395   -967.65984    132612.76   -34139.943    2615.0873    -36755.03    17.364722    245.33211 
    5450    139.03204   -1271.4785    132676.62   -34155.613    2625.8165    -36781.43     17.47138    246.33865 
    5500    134.20418   -1191.0872    132668.82   -34172.509    2534.6355   -36707.145    17.578722    237.78458 
    5550    135.44564   -1363.8543    132664.96   -34150.648    2558.0822    -36708.73    17.718331    239.98422 
    5600    139.13576   -1029.4014    132599.82   -34075.501    2627.7754   -36703.276    17.871412    246.52242 
    5650    142.08672   -1212.5599    132574.34   -34058.602    2683.5083    -36742.11    17.940601    251.75096 
    5700    138.49748   -1087.6599    132563.97   -34073.687    2615.7205   -36689.407    18.054629    245.39151 
    5750    137.35954   -1138.9125    132573.68   -34078.297     2594.229   -36672.526    18.048753     243.3753 
    5800    138.06617    -1313.765    132549.83   -34107.934    2607.5745   -36715.508    18.193313     244.6273 
    5850    140.12935   -1377.5253    132473.52   -34124.071    2646.5407   -36770.611    18.465922    248.28287 
    5900    138.62471   -1106.8816    132426.17   -34124.686    2618.1235    -36742.81    18.629821    245.61694 
    5950    136.68541    -1235.134    132470.38   -34090.474     2581.497   -36671.971    18.784247    242.18085 
    6000     138.4435   -1099.5593    132481.09   -34130.874    2614.7011   -36745.576    19.019912    245.29587 
    6050    139.38553   -953.43836     132532.2   -34114.249    2632.4925   -36746.741    19.121055    246.96496 
    6100    139.89463   -1191.5408    132575.46   -34137.947    2642.1077   -36780.054    19.367472    247.86699 
    6150    138.41629   -1186.0447    132548.14   -34154.242    2614.1872   -36768.429    19.665931    245.24766 
    6200    139.27225     -1048.26    132701.11   -34109.112    2630.3532   -36739.466    19.839702    246.76425 
    6250     140.0453   -1249.2165    132644.87   -34068.524    2644.9533   -36713.477    19.940052    248.13395 
    6300    138.65345   -1095.1692     132662.9   -34111.057    2618.6663   -36729.723    20.049792    245.66786 
    6350    140.30408   -981.62145     132674.5   -34106.925    2649.8407   -36756.765    20.153927    248.59246 
    6400    143.58934   -1197.8612    132714.66   -34034.202    2711.8874    -36746.09    20.334355    254.41332 
    6450    144.04968   -1120.9636    132748.13   -34035.082    2720.5817   -36755.664    20.470536    255.22897 
    6500    143.35098   -1068.6686    132895.26   -34005.077    2707.3857   -36712.463    20.489391    253.99099 
    6550    143.97531    -956.9528    133092.53   -33980.826    2719.1771   -36700.003    20.515901    255.09719 
    6600    141.29899    -1017.461    133145.77   -34058.902     2668.631   -36727.533    20.676483    250.35526 
    6650    140.86661    -962.0101    133139.89   -34073.687    2660.4649   -36734.151    20.732225    249.58916 
    6700    138.04816   -1102.4037    133164.36   -34099.366    2607.2344     -36706.6    20.942843    244.59539 
    6750    141.18614   -1237.8276    133133.89   -34096.774    2666.4996   -36763.274    21.186534    250.15531 
    6800     137.6418   -1069.8658    133063.73   -34092.111    2599.5597    -36691.67    21.416824     243.8754 
    6850     143.6652   -1007.2844    133089.69   -34034.246    2713.3203   -36747.567    21.585923    254.54775 
    6900    142.28846   -1459.6155    132986.68   -34023.996    2687.3186   -36711.315    21.752725    252.10842 
    6950    140.28141   -1163.6406    132856.73    -34071.21    2649.4125   -36720.623    21.811133    248.55229 
    7000    137.60774   -1072.7128    132933.66   -34059.198    2598.9165   -36658.115     21.93935    243.81506 
    7050    138.17328   -1220.7862    132880.25   -34080.284    2609.5975   -36689.881    22.029955    244.81708 
    7100    141.26762   -1159.8401    132829.37    -34011.33    2668.0385   -36679.369    21.998949    250.29968 
    7150    144.48946   -1228.7011    132896.86   -34026.739    2728.8875   -36755.626    22.133892    256.00817 
    7200    140.73191    -1348.909    132936.44   -34044.059    2657.9208    -36701.98    22.241302    249.35049 
    7250     142.8579   -1200.2016    132893.22   -34028.202    2698.0731   -36726.275    22.230636    253.11735 
    7300     141.4062   -1262.6916    132882.66   -34041.747    2670.6559   -36712.403    22.254549    250.54522 
    7350    139.33906   -1255.6264    132815.44   -34089.133     2631.615   -36720.748    22.368756    246.88263 
    7400    140.77444   -1242.7682    132780.38    -34110.85    2658.7241   -36769.575    22.520267    249.42585 
    7450    140.19711   -1411.6295    132785.34   -34107.115    2647.8205   -36754.936    22.480829    248.40294 
    7500    138.27965    -1598.305    132704.95   -34132.813    2611.6065    -36744.42    22.592984    245.00555 
    7550    137.26682   -1535.0486    132648.17   -34120.226    2592.4778   -36712.704    22.817512    243.21101 
    7600    142.04306   -1307.5042     132577.5   -34064.506    2682.6838    -36747.19    22.993446     251.6736 
    7650    138.02812   -1268.0069     132504.8   -34092.338     2606.856   -36699.194    23.279302    244.55989 
    7700     140.8989   -1090.2867    132542.34   -34038.833    2661.0748   -36699.908    23.383173    249.64638 
    7750    139.44252   -1126.2748    132560.41   -34006.304     2633.569   -36639.873    23.643423    247.06595 
    7800    142.89909   -1187.4823    132588.71   -34000.564    2698.8512   -36699.415    23.747993    253.19034 
    7850    140.19993    -1257.888    132559.74   -34067.606    2647.8737    -36715.48    23.906723    248.40793 
    7900    140.17167   -939.40532    132567.39    -34044.14      2647.34    -36691.48    24.094097    248.35786 
    7950    140.86587   -1068.8387    132627.14   -34041.147     2660.451   -36701.598    24.203844    249.58785 
    8000    138.69995   -1121.4398    132640.83   -34016.344    2619.5445   -36635.888    24.395611    245.75025 
    8050    137.52976   -997.14874    132652.78   -33999.409    2597.4437   -36596.852    24.673391    243.67689 
    8100    139.51674   -1133.2196     132682.1   -34040.678    2634.9708   -36675.649    24.717576    247.19745 
    8150    141.28083    -1038.594    132638.44   -34062.672    2668.2881   -36730.961     24.73124    250.32309 
    8200    140.85087   -1181.9855    132746.74   -33981.883    2660.1677   -36642.051     24.95086    249.56128 
    8250    142.80571   -1024.1286    132841.43   -33974.265    2697.0875   -36671.353    25.128306    253.02488 
    8300    139.14075   -1060.7305    132985.12   -33992.405    2627.8697   -36620.274    25.298347    246.53127 
    8350    140.54097    -1503.978    132954.26   -34034.924    2654.3148   -36689.239    25.372204     249.0122 
    8400     140.3211   -1396.0524    132889.06   -33989.918    2650.1621    -36640.08    25.534483    248.62262 
    8450    140.59223   -1271.3826    132872.74   -33981.107    2655.2828    -36636.39    25.647462    249.10301 
    8500    138.92642     -1089.17    132923.17    -33972.64    2623.8218   -36596.461     25.83579    246.15152 
    8550    140.11308   -1006.0858    133025.77    -34016.12    2646.2335   -36662.353    25.868397    248.25406 
    8600    136.46487   -1380.7418    133172.89   -34035.829    2577.3318   -36613.161    26.132463     241.7901 
    8650    141.58544   -1305.1812    133216.24   -34020.407    2674.0409   -36694.448    26.319686    250.86278 
    8700    141.87849   -1423.5717     133172.3   -33992.141    2679.5756   -36671.717    26.447793    251.38202 
    8750    137.24758   -1185.1971    133216.27   -34018.627    2592.1144   -36610.742    26.577708    243.17692 
    8800    140.00196   -1385.4814    133101.22   -34019.649    2644.1347   -36663.784    26.730363    248.05716 
    8850    140.11191   -1285.3189    133045.71   -34018.737    2646.2114   -36664.948    26.841021    248.25198 
    8900     141.6778   -1171.6378    133004.71   -34016.237    2675.7854   -36692.022    27.083206    251.02644 
    8950     139.7339   -1316.7484    133036.55   -34004.472     2639.072   -36643.544     27.17331    247.58221 
    9000    140.18435   -1116.9366    133008.11   -33998.842    2647.5794   -36646.422    27.411253    248.38032 
    9050    137.49487   -1259.9055    132955.79   -34037.193    2596.7849   -36633.978    27.491615    243.61507 
    9100    138.77034   -1139.5026    132892.21   -34038.946     2620.874    -36659.82    27.585842    245.87497 
    9150    141.85452   -1147.3518    132939.88   -34002.039    2679.1229   -36681.162    27.756771    251.33955 
    9200    141.34189   -1048.3457    132970.34   -34023.679    2669.4412   -36693.121    27.911582    250.43127 
    9250    140.55383   -1305.2106    132935.06   -33961.419    2654.5576   -36615.977     28.03281    249.03498 
    9300    143.02527   -1249.6303    132860.53   -33939.608    2701.2343   -36640.843    28.074598    253.41391 
    9350    139.34187    -869.6828    132815.09   -33975.665     2631.668   -36607.333    28.223166    246.88761 
    9400    142.40405   -1115.5113    132845.45   -33987.176    2689.5016   -36676.678    28.396112    252.31321 
    9450     138.9582   -1107.6064    132913.62    -34022.92    2624.4219   -36647.342    28.541815    246.20782 
    9500    145.12521   -1230.7151    132897.46   -33932.402    2740.8946   -36673.297    28.699142    257.13461 
    9550    140.93846   -1268.1959    132870.48    -33987.75     2661.822   -36649.572    28.775617    249.71647 
    9600    144.49381   -1260.0728    132789.19   -33959.243    2728.9696   -36688.213    28.987807    256.01587 
    9650    141.70857   -1227.2674    132795.19   -33951.509    2676.3664   -36627.876    29.039618    251.08095 
    9700    139.86966   -1280.1312     132768.4   -33988.455     2641.636   -36630.091    29.000795    247.82275 
    9750    140.89371   -1130.0667    132771.95   -34069.454    2660.9768   -36730.431    29.163302    249.63718 
    9800     141.7677   -1508.2855    132720.99   -34073.406    2677.4832   -36750.889    29.237401    251.18572 
    9850    142.19906   -923.98811    132762.49   -34041.871      2685.63   -36727.501    29.353614    251.95001 
    9900    141.94016   -882.51645     132849.2    -34057.71    2680.7404    -36738.45    29.550457    251.49129 
    9950    138.65194   -1094.9189    132899.63   -34045.374    2618.6378   -36664.011    29.855353    245.66519 
   10000      143.203   -982.87673    132930.96   -33983.212     2704.591   -36687.803    30.268764    253.72881 
   10050    141.83545   -1023.0845    132945.84   -34006.398    2678.7629   -36685.161    30.533799    251.30577 
   10100    142.09563   -1041.1523    133058.77   -33977.018    2683.6767   -36660.694    30.561013    251.76676 
   10150    142.95034    -1306.844    133060.87   -33966.832    2699.8191   -36666.651    30.698631    253.28114 
   10200    141.58996   -1344.3773    133049.34   -33993.366    2674.1264   -36667.493    30.941224     250.8708 
   10250    141.35408   -1090.6339    133001.84   -33985.053    2669.6715   -36654.724    30.886134    250.45287 
   10300    140.13158   -1240.0267    133024.56   -33991.959    2646.5828   -36638.542    31.013432    248.28682 
   10350    141.04859   -1333.8895    132987.65   -34006.451    2663.9018   -36670.353    31.255501    249.91159 
   10400    139.46827   -1174.8721    132948.31   -33997.515    2634.0553   -36631.571    31.490419    247.11157 
   10450    140.82848   -1289.6385    132966.59   -33995.536    2659.7447    -36655.28    31.494351    249.52159 
   10500    141.58727   -1079.5526     132940.8   -34005.547    2674.0756   -36679.622    31.754629    250.86604 
   10550    141.85563   -1291.7021    132911.06   -34028.207    2679.1439   -36707.351    31.902202    251.34152 
   10600    143.55397   -1337.7292    132834.13   -33970.581    2711.2195     -36681.8    32.074885    254.35066 
   10650     141.8949   -1314.5203    132842.23   -33998.037    2679.8856   -36677.922    32.065406    251.41109 
   10700    138.89296   -1097.2198    132931.63   -33986.531    2623.1898   -36609.721    32.200984    246.09223 
   10750    140.31396   -1011.9714    133042.78   -33991.352    2650.0273   -36641.379    32.259227    248.60997 
   10800     141.2815   -1194.9084    133019.65   -34021.216    2668.3007   -36689.517    32.342215    250.32427 
   10850    143.63833   -958.06598    133045.12   -33997.077    2712.8127    -36709.89    32.525255    254.50013 
   10900    141.52795   -1186.2704    133045.65    -33997.78    2672.9552   -36670.735     32.64386    250.76093 
   10950    140.35626   -1078.3907    133083.46   -34012.745    2650.8262   -36663.571    32.752973    248.68492 
   11000    137.31909   -1046.7679     133196.4   -34025.461    2593.4649   -36618.926    33.070391    243.30362 
   11050    141.21543   -1137.2542    133209.18   -34012.991    2667.0528   -36680.044    33.274166     250.2072 
   11100    138.05793   -1051.0803    133244.46   -34058.885    2607.4189   -36666.304    33.475533     244.6127 
   11150    141.50175   -1300.9486    133162.72   -34023.526    2672.4605   -36695.987    33.544154    250.71452 
   11200    137.98506   -1493.0177    133037.22   -34071.289    2606.0427   -36677.332    33.737119    244.48359 
   11250     139.8797   -1409.0978    132960.46   -34023.589    2641.8257   -36665.415    33.765624    247.84055 
   11300    141.08098    -1124.829    133029.16   -33969.408    2664.5136   -36633.922    33.798358    249.96899 
   11350    142.24666   -1517.9691    132950.01   -34016.622    2686.5292   -36703.151    33.959617    252.03436 
   11400    140.71496   -1134.3778    132949.49   -33981.023    2657.6008   -36638.624      34.1867    249.32047 
   11450    137.67703   -1204.4662    132945.37    -34050.15    2600.2251   -36650.375     34.36119    243.93782 
   11500    139.21204   -1306.1446    132980.73   -34086.497    2629.2159   -36715.713    34.581597    246.65757 
   11550    136.98921   -1274.3417    132969.49   -34062.987    2587.2347   -36650.221    34.857953    242.71913 
   11600    139.51606   -1198.0593     133039.3   -34091.858    2634.9578   -36726.816    34.981879    247.19623 
   11650    140.57221   -936.31431    133120.27   -34061.591    2654.9048   -36716.496     35.01984    249.06754 
   11700    140.59602   -1189.7313    133102.94   -34035.036    2655.3544   -36690.391    35.227654    249.10972 
   11750    138.57854   -1277.1921    133084.55    -34032.27    2617.2515   -36649.522    35.405621    245.53514 
   11800    137.43051   -1378.7133    132952.95   -34072.959    2595.5694   -36668.528    35.705832    243.50105 
   11850     141.1748   -1330.8521    132816.21   -34037.843    2666.2854   -36704.128    35.838478    250.13521 
   11900    138.82516   -1312.9727    132752.22   -34037.249    2621.9092   -36659.159    35.792689    245.97209 
   11950     140.4792   -1178.9054    132740.41   -34082.005    2653.1482   -36735.153     35.87066    248.90275 
   12000    139.35522   -1420.8815     132710.1   -34047.007    2631.9202   -36678.928    35.983181    246.91127 
   12050    140.79556   -1065.4036    132712.71   -34026.727    2659.1229    -36685.85    35.939024    249.46327 
   12100    140.06415   -1179.2938    132805.58   -34036.572    2645.3093   -36681.881    36.316298    248.16735 
   12150    140.12356   -1224.9166     132857.4   -34036.091    2646.4314   -36682.522    36.471451    248.27262 
   12200    142.62641   -1024.8343    132988.36   -34028.003    2693.7012   -36721.705     36.70013     252.7072 
   12250     140.8184   -1376.5776     132936.7   -34027.055    2659.5543   -36686.609    36.940713    249.50373 
   12300    144.11361   -1173.0019    132839.78   -34009.761    2721.7891    -36731.55    37.214765    255.34224 
   12350    142.07661   -1501.7588    132864.79   -34038.737    2683.3175   -36722.055    37.284316    251.73306 
   12400    140.85569   -1254.3034    132837.98   -34091.854    2660.2586   -36752.112    37.460011    249.56981 
   12450    140.18498   -1245.0861    132810.69   -34132.036    2647.5914   -36779.628    37.575796    248.38145 
   12500    137.88829   -1070.4453    132743.33   -34088.224    2604.2151    -36692.44    37.627038    244.31214 
   12550    137.27472    -1357.722    132741.57   -34040.196     2592.627   -36632.823    37.768696    243.22501 
   12600    142.16117   -1324.7862    132811.09   -33956.486    2684.9144   -36641.401    38.085761    251.88287 
   12650    140.64067    -1103.504    132829.04   -33947.691    2656.1977   -36603.889    38.334621    249.18883 
   12700    142.85881   -1226.2749    132942.46   -33933.913    2698.0904   -36632.003    38.727831    253.11897 
   12750    141.82608    -1468.899    132945.05   -33927.339    2678.5858   -36605.925    38.832037    251.28916 
   12800    142.04963   -1034.6129    132979.31   -33979.066    2682.8079   -36661.874    38.842034    251.68525 
   12850    142.70824   -1215.0077    132971.18   -33999.355    2695.2466   -36694.601    38.953938    252.85218 
   12900    142.10596   -1412.7623    132879.16   -34019.057    2683.8717   -36702.929    38.973154    251.78505 
   12950    141.53818   -1458.8537    132798.46   -33967.013    2673.1484   -36640.161     39.04575    250.77905 
   13000    142.29281   -1299.2181     132739.8   -33994.772    2687.4007   -36682.172     39.30911    252.11612 
   13050    142.53593   -1087.4377    132717.97   -33978.094    2691.9925   -36670.087    39.445412    252.54689 
   13100    144.29006    -1159.443    132666.02   -33963.222    2725.1216   -36688.344    39.522349    255.65488 
   13150    140.84435   -1176.2771     132717.3   -34018.381    2660.0445   -36678.425    39.671202    249.54972 
   13200    139.43572   -1318.8081    132661.16   -34053.488    2633.4406   -36686.928    39.761035     247.0539 
   13250    141.72344   -1002.1728    132729.42   -34036.896    2676.6474   -36713.544    39.971158    251.10731 
   13300    141.02888   -1202.0237    132749.42   -33997.251    2663.5296   -36660.781    40.090072    249.87667 
   13350     143.7491   -1080.0018    132697.41   -34032.567    2714.9048   -36747.472     40.18331    254.69639 
   13400    142.59229   -1084.1572    132768.28    -34000.67    2693.0568   -36693.726    40.346939    252.64674 
   13450    141.01561   -1095.9888    132871.05    -34044.42     2663.279   -36707.699    40.309097    249.85316 
   13500    138.69475    -1170.708     132868.2   -34075.656    2619.4463   -36695.103    40.243965    245.74104 
   13550     136.4797   -1086.5105    132999.08     -34141.4     2577.612   -36719.012    40.219191    241.81639 
   13600    139.96888   -1273.0602    133101.88   -34082.749    2643.5101   -36726.259    40.254216    247.99856 
   13650    138.01887    -1125.256     133069.7   -34098.359    2606.6813    -36705.04    40.369977     244.5435 
   13700    138.85102   -984.12638    133150.36   -34134.163    2622.3977    -36756.56    40.594558    246.01792 
   13750    139.11793   -1328.2831    133173.37   -34153.356    2627.4385   -36780.794    40.710458    246.49082 
   13800    137.45543   -1300.6482    133128.93   -34144.856      2596.04   -36740.896    40.901128    243.54519 
   13850    139.94553   -1418.1013    133089.62   -34190.498    2643.0691   -36833.567    41.198122    247.95719 
   13900    140.28138   -1187.9924     133092.4   -34205.359     2649.412   -36854.771    41.462535    248.55224 
   13950    138.01059   -1405.9093    133048.02   -34200.442     2606.525   -36806.967    41.466824    244.52884 
   14000    138.40339   -1103.2877    132981.05   -34132.694    2613.9436   -36746.638    41.522364    245.22481 
   14050    140.81189   -1195.7401    132976.76     -34119.2    2659.4315   -36778.632    41.786569    249.49222 
   14100    140.05919   -1051.2067    132985.02   -34099.499    2645.2157   -36744.715    41.946603    248.15857 
   14150    140.55508   -1069.1081    132971.48   -34106.934    2654.5812   -36761.515    41.989742    249.03719 
   14200    138.67416   -1136.2409    132982.65    -34140.23    2619.0573   -36759.288    41.934016    245.70455 
   14250     139.7886   -1006.0497    133060.14    -34136.98    2640.1052   -36777.085    42.224621    247.67913 
   14300    137.44324   -992.56535    133142.87   -34164.029    2595.8097   -36759.839    42.332136    243.52359 
   14350     139.9617   -1207.9086     133120.4   -34171.783    2643.3745   -36815.157    42.313826    247.98584 
   14400     138.8826   -1110.0714    133120.64   -34158.482    2622.9941   -36781.476    42.398124    246.07387 
   14450     139.4031   -1061.9913    133168.38   -34118.966    2632.8245   -36751.791     42.44821     246.9961 
   14500    138.21535   -936.51332    133334.51   -34140.383    2610.3922   -36750.775     42.80541    244.89163 
   14550    139.77872   -886.08801    133340.22   -34085.578    2639.9185   -36725.496    43.017546    247.66162 
   14600    139.56541   -1137.0094    133332.32   -34119.014    2635.8899   -36754.903      43.1757    247.28368 
   14650    136.87598   -1392.6475    133284.27   -34143.871    2585.0961   -36728.967    43.339942    242.51851 
   14700    142.32556   -1104.9511    133217.54   -34091.966    2688.0192   -36779.985    43.574448    252.17415 
   14750    141.57963   -1170.5458    133191.39   -34075.813    2673.9313   -36749.744    43.552715     250.8525 
   14800    140.51406    -1279.084    133199.82   -34091.619    2653.8065   -36745.426    43.638146    248.96451 
   14850     142.1183   -1390.4813    133176.87    -34059.45    2684.1048   -36743.555    43.648304    251.80692 
   14900    140.41008   -960.12662    133181.26   -34080.625    2651.8427   -36732.467    43.736259    248.78028 
   14950    142.15965   -1116.5946    133147.37   -34072.643    2684.8857   -36757.529    43.894192    251.88018 
   15000    142.34536   -1213.8766    133096.58   -34077.478    2688.3932   -36765.871    44.128342    252.20923 
   15050    142.95555   -1206.6928    133102.79   -34087.732    2699.9175    -36787.65    44.447603    253.29037 
   15100    138.13978   -1153.6031    133146.71   -34120.953    2608.9648   -36729.918    44.490159    244.75772 
   15150    138.41622   -1240.8083    133157.06   -34134.751    2614.1859   -36748.937    44.743422    245.24754 
   15200    139.39044   -1330.8982    133066.31   -34085.839    2632.5853   -36718.424    44.763463    246.97366 
   15250      142.565   -926.09985     133062.2   -34046.578    2692.5415   -36739.119    44.830668     252.5984 
   15300    139.96889   -1135.4882    133067.27   -34105.149    2643.5102   -36748.659    44.726536    247.99858 
   15350    141.34919   -1093.9032     133008.7   -34077.937    2669.5791   -36747.516    45.048354     250.4442 
   15400    138.67617   -1039.6161    132936.72    -34092.75    2619.0953   -36711.845    45.046464    245.70811 
   15450    139.39239   -1191.2911    132906.92   -34128.337    2632.6222   -36760.959    45.205596    246.97712 
   15500    139.84137    -1111.161    132790.96   -34122.797    2641.1018   -36763.899    45.443296    247.77263 
   15550    136.74083   -999.13471       132763   -34169.778    2582.5437   -36752.322    45.549776    242.27905 
   15600    143.92097   -1017.9237    132787.37   -34068.521    2718.1508   -36786.671    45.500153    255.00091 
   15650     138.1995   -1189.7763    132705.73   -34054.464    2610.0928   -36664.557    45.646632    244.86355 
   15700    138.44164    -1292.042    132696.78   -34075.648    2614.6659   -36690.314    45.679073    245.29257 
   15750    140.35267    -1214.455    132625.98   -34039.083    2650.7584   -36689.841    45.985004    248.67855 
   15800    136.81935   -1227.9286    132613.76   -34051.516    2584.0266   -36635.543    46.326767    242.41817 
   15850    144.37116   -1363.1009    132504.82   -34016.504    2726.6533   -36743.157    46.459679    255.79857 
   15900    136.37947   -1146.8468    132408.62   -34100.686     2575.719   -36676.404    46.811822     241.6388 
   15950     139.2165   -1015.3391    132428.96   -34116.957    2629.3002   -36746.257    46.745774    246.66547 
   16000     140.0027   -1234.9464     132543.7   -34060.506    2644.1487   -36704.654    46.702285    248.05847 
   16050    140.28077   -1300.0848    132553.28   -34042.941    2649.4004   -36692.342    46.806292    248.55116 
   16100    138.74347   -1286.3686    132546.02   -34030.359    2620.3664   -36650.725    47.051521    245.82736 
   16150    141.76449   -1221.7319     132486.5   -34011.305    2677.4226   -36688.728    47.237354    251.18003 
   16200    140.29746   -1358.7499    132433.63   -34023.952    2649.7156   -36673.667    47.423034    248.58073 
   16250    137.91122   -1135.8224    132374.54    -33991.18    2604.6483   -36595.828    47.588027    244.35277 
   16300    138.96564    -1161.728    132339.14   -33988.047    2624.5623   -36612.609    47.733709    246.22099 
   16350    144.38907   -1161.8675     132344.2    -33927.62    2726.9915   -36654.611    47.908479     255.8303 
   16400    139.89663   -1040.1523    132419.76   -33933.699    2642.1455   -36575.845    48.229849    247.87054 
   16450    144.50673   -1003.9842    132429.74   -33930.071    2729.2137   -36659.285    48.292876    256.03877 
   16500     140.7121   -1327.4665    132453.94   -33937.564    2657.5468   -36595.111    48.558031     249.3154 
   16550    144.60435   -1236.3249    132399.68   -33933.339    2731.0575   -36664.396    48.833318    256.21174 
   16600    139.90609   -1177.1541    132400.73   -33975.584     2642.324   -36617.908     49.11787    247.88729 
   16650    142.03592   -1346.8026    132505.44   -33956.339     2682.549   -36638.888    49.472372    251.66097 
   16700     139.1697   -1345.6878    132519.26   -34010.073    2628.4163   -36638.489    49.714346    246.58255 
   16750    136.93411    -1395.108    132507.45   -34006.247    2586.1942   -36592.441    49.791344    242.62152 
   16800     140.0299   -1383.2554    132426.14   -34018.652    2644.6625   -36663.314    49.770219    248.10667 
   16850    138.33613   -1148.7916    132448.46   -33998.269    2612.6732   -36610.942    50.096647    245.10562 
   16900    137.55124   -1144.3033    132467.73   -34045.892    2597.8494   -36643.741    50.167924    243.71495 
   16950     138.3114   -1392.6054    132451.57   -33996.275    2612.2061   -36608.482    50.155508    245.06181 
   17000    140.12853   -1285.8366    132385.77   -33997.786    2646.5253   -36644.311    50.265792    248.28143 
   17050    137.48969   -1167.1503    132400.07    -33998.56     2596.687   -36595.247    50.407457     243.6059 
   17100    141.53184    -919.1007    132510.47   -34027.135    2673.0288   -36700.164     50.56322    250.76783 
   17150    140.18212   -1147.2349    132506.23   -34008.011    2647.5373   -36655.548    50.554155    248.37637 
   17200     139.8312   -1095.2255    132439.27   -33967.754    2640.9097   -36608.663    50.717811     247.7546 
   17250    140.74621   -1191.6091    132457.37   -33989.943    2658.1909   -36648.134    50.774284    249.37583 
   17300    140.19234   -1072.8351    132450.38   -34028.935    2647.7303   -36676.665    50.844557    248.39447 
   17350    140.25236   -881.08074    132553.72   -34033.637    2648.8639   -36682.501    51.022673    248.50083 
   17400    138.41926   -984.84508    132544.91   -33978.476    2614.2432   -36592.719    51.059291    245.25292 
   17450    142.97595   -1250.5784    132587.62   -33948.371    2700.3027   -36648.673    51.035955    253.32651 
   17500     145.3062   -1183.3704    132716.51   -33962.915    2744.3128   -36707.228    51.196134    257.45527 
   17550    140.52375   -976.22883    132786.66   -34008.472    2653.9895   -36662.461    51.192531    248.98168 
   17600    141.60117    -918.6239    132850.38    -33958.81     2674.338   -36633.148    51.301704    250.89066 
   17650    139.12714   -1346.4634    132925.57   -33950.986    2627.6126   -36578.599     51.38165    246.50715 
   17700    139.93332   -1383.5689    132873.33   -33914.946    2642.8383   -36557.784    51.232368    247.93554 
   17750    142.26928   -1146.4329    132821.04   -33861.915    2686.9562   -36548.871     51.45588    252.07442 
   17800    143.66096   -1121.4065    132848.37   -33843.232    2713.2402   -36556.472    51.689643    254.54023 
   17850    143.83182   -1045.7744    132783.22   -33868.272    2716.4671   -36584.739    51.886912    254.84295 
   17900    140.27316   -1354.9531    132652.78   -33918.915    2649.2568   -36568.172    51.958113    248.53768 
   17950    142.80397   -1351.6295    132551.38   -33919.633    2697.0546   -36616.688    52.103136    253.02179 
   18000    140.78281   -1276.0949    132465.16   -33971.823    2658.8823   -36630.705    52.340667    249.44069 
   18050    140.35788   -1165.7522    132479.21   -33963.177    2650.8567   -36614.034     52.40848    248.68778 
   18100    138.01442   -1054.2909    132431.71   -33982.646    2606.5973   -36589.244    52.706718    244.53562 
   18150    141.08822   -950.15292    132424.83   -33967.817    2664.6503   -36632.467     53.06203    249.98181 
   18200    138.63322   -1193.8086    132423.73   -34005.941    2618.2842   -36624.225    53.153329    245.63202 
   18250    140.30148   -1067.7616     132437.3   -34047.499    2649.7916   -36697.291    53.202114    248.58786 
   18300    140.24962   -1141.4408    132368.01   -34019.515    2648.8122   -36668.328    53.472779    248.49597 
   18350    138.90698   -1342.4075    132327.39   -34071.778    2623.4546   -36695.233    53.584626    246.11707 
   18400    139.32243    -981.1911    132362.81   -34081.675    2631.3009   -36712.976    53.857539    246.85317 
   18450    139.84918   -1237.4394    132392.72   -34045.424    2641.2492   -36686.673    54.017713    247.78646 
   18500    136.33823   -1211.7613    132347.61   -34132.128    2574.9401   -36707.068    54.180481    241.56573 
   18550    142.31493   -1012.0276    132285.39   -34096.103    2687.8185   -36783.922    54.361569    252.15531 
   18600    140.18849    -998.9168    132323.23   -34079.553    2647.6577   -36727.211    54.498241    248.38767 
   18650    137.69714   -968.17622    132339.86   -34071.022     2600.605   -36671.627    54.517494    243.97345 
   18700    140.64033   -791.22312    132365.65   -34081.773    2656.1913   -36737.964    54.725733    249.18824 
   18750    138.84895   -1166.7002    132467.66   -34060.376    2622.3586   -36682.735    55.046946    246.01425 
   18800      141.398   -1111.8749    132479.96   -34024.091     2670.501   -36694.592    55.403349    250.53069 
   18850    138.87475   -1239.1799    132436.58   -34073.212    2622.8459   -36696.058    55.530039    246.05997 
   18900    140.42268    -1102.763    132562.04   -34000.049    2652.0806    -36652.13    55.567121    248.80259 
   18950    141.84293   -1195.6773    132549.33   -33990.316    2678.9041    -36669.22    55.875161    251.31902 
   19000    143.43033    -1233.328    132550.67   -33993.649    2708.8844   -36702.533    55.988787    254.13159 
   19050    140.82666   -1380.1573    132645.86   -34053.538    2659.7103   -36713.248    56.063389    249.51837 
   19100    139.14139   -1390.9717     132608.7   -34096.307    2627.8816   -36724.188    56.209012    246.53239 
   19150    137.09899     -1321.42    132568.97   -34084.772     2589.308    -36674.08    56.285272    242.91364 
   19200    137.29642    -1091.574    132540.75   -34055.821    2593.0368   -36648.858    56.400299    243.26345 
   19250    142.64943   -1273.6915     132526.7    -34054.91     2694.136   -36749.046    56.584479    252.74798 
   19300    139.65475   -1392.0399    132559.23   -34060.852    2637.5772    -36698.43    56.818938    247.44197 
   19350    138.59002   -1376.5738    132489.85   -34059.362    2617.4683    -36676.83    56.934565    245.55548 
   19400    139.04357   -1028.8031    132408.39   -34071.866    2626.0342   -36697.901    56.933589    246.35907 
   19450    136.60374   -986.20108     132464.3   -34129.139    2579.9545   -36709.094    57.067428    242.03615 
   19500    138.66208   -1126.4635    132548.58   -34079.874    2618.8292   -36698.703    57.325992    245.68314 
   19550    140.11492   -1178.7278    132665.71   -34050.425    2646.2681   -36696.693    57.623136     248.2573 
   19600    138.07903   -1086.4353    132738.05   -34054.055    2607.8175   -36661.872     57.62413    244.65009 
   19650    140.15575   -1265.8683    132705.23   -34049.261    2647.0394     -36696.3    57.442337    248.32966 
   19700    139.50901    -1347.457    132651.53   -34054.979    2634.8248   -36689.804    57.530022    247.18375 
   19750    142.37936   -1294.3655    132598.32   -34037.016    2689.0354   -36726.051    57.600126    252.26948 
   19800    142.74864   -1393.4664     132536.1    -34004.74    2696.0097    -36700.75    57.616784    252.92377 
   19850     138.6498   -1290.4863    132475.22   -34002.551    2618.5972   -36621.149    57.719411    245.66138 
   19900    142.41663   -1216.6971     132458.5   -33997.253    2689.7392   -36686.993    57.852444     252.3355 
   19950    139.18941   -992.33262    132539.73   -34018.577    2628.7886   -36647.365    58.182248    246.61748 
   20000    141.09377   -1144.7468    132641.19   -34037.396    2664.7551   -36702.151    58.330784    249.99164 
   20050    140.59411    -1284.279    132588.59   -34036.535    2655.3183   -36691.854    58.419329    249.10634 
   20100    140.10431   -1011.1634    132587.03   -34059.014    2646.0677   -36705.081    58.797452     248.2385 
   20150     136.2913   -1315.3157    132604.91   -34110.658    2574.0538   -36684.712    58.891359    241.48258 
   20200    139.79815   -1171.8857    132518.24   -34119.652    2640.2856   -36759.938    59.027954    247.69606 
   20250    137.95537   -1120.0476    132474.31   -34147.533     2605.482   -36753.015    59.096229    244.43099 
   20300    137.33855    -1209.753    132395.32   -34181.054    2593.8324   -36774.887    59.359965     243.3381 
   20350     139.9733   -1020.7083    132430.55   -34165.916    2643.5935    -36809.51    59.533622    248.00639 
   20400    140.79238   -1136.0078    132516.31   -34142.294     2659.063   -36801.357    59.492743    249.45764 
   20450     142.1942    -1200.343    132623.39   -34126.726    2685.5383   -36812.265    59.520113     251.9414 
   20500    136.35096   -1270.3624    132655.84   -34165.078    2575.1805   -36740.258    59.812433    241.58828 
   20550    140.21635   -1575.4947    132545.58   -34106.082    2648.1838   -36754.266    60.151839    248.43702 
   20600     142.4136    -1124.346     132514.7   -34054.134     2689.682   -36743.816    60.344847    252.33014 
   20650    141.24391   -1196.6577    132535.26   -34017.278    2667.5908   -36684.869     60.55483    250.25767 
   20700    143.24693   -680.74912    132629.32    -33966.27    2705.4206   -36671.691    60.793184    253.80664 
   20750    140.36657   -1232.4893    132702.15   -33975.977     2651.021   -36626.998    60.956382    248.70319 
   20800     142.1021   -1100.0025    132695.74   -33940.999    2683.7988   -36624.798    61.274556    251.77821 
   20850    143.41799   -1110.9789    132693.09   -33922.585    2708.6513   -36631.237    61.375765    254.10973 
   20900    143.35932   -1073.3503    132736.55   -33932.659    2707.5433   -36640.202    61.618803    254.00578 
   20950     139.2822   -991.12317    132707.67    -33988.28    2630.5411   -36618.821    61.795566    246.78189 
   21000    140.01802    -1216.707    132613.33   -34028.874    2644.4381   -36673.312    62.042358    248.08562 
   21050    140.05003   -1313.5167     132533.2   -34033.589    2645.0426   -36678.632    62.157302    248.14233 
   21100    139.12234   -1100.9857     132512.8    -34054.48    2627.5218   -36682.002     62.36049    246.49864 
   21150     139.1154   -1356.9668    132437.79   -34043.364    2627.3908   -36670.755    62.512241    246.48635 
   21200    139.23868   -1298.7046    132363.13   -34089.816    2629.7192   -36719.535    62.718345    246.70478 
   21250    138.59135   -1427.5905    132267.26   -34057.766    2617.4934   -36675.259    62.726448    245.55783 
   21300    138.53128   -1121.0959    132243.69   -34063.073    2616.3588   -36679.432    62.812734    245.45139 
   21350    142.33185    -1163.751    132243.92   -34002.236     2688.138   -36690.375    63.005107    252.18529 
   21400    142.98965   -884.76281    132258.35   -34028.923    2700.5614   -36729.485    63.205662    253.35078 
   21450    138.86097   -1055.6224    132351.25   -34060.861    2622.5856   -36683.446      63.4621    246.03555 
   21500    138.82012   -881.48785    132435.12    -34056.44    2621.8141   -36678.254    63.323089    245.96317 
   21550    139.71102   -970.06472    132490.32   -34096.458    2638.6399   -36735.098    63.228889    247.54167 
   21600    140.27843   -980.17237    132470.41   -34080.445    2649.3563   -36729.802    63.481199    248.54701 
   21650    138.11096   -1266.3211    132545.46   -34052.333    2608.4205   -36660.753    63.331603    244.70666 
   21700    140.85482   -1126.4686    132526.76   -34022.045    2660.2422   -36682.288    63.289789    249.56827 
   21750    140.15484   -1265.1047    132589.19   -34027.795    2647.0221   -36674.817    63.632821    248.32804 
   21800    137.37357   -1161.5971    132659.07    -34020.05    2594.4938   -36614.544     63.75183    243.40014 
   21850    142.64666   -1448.6386    132646.17   -34031.966    2694.0836   -36726.049    64.009847    252.74307 
   21900    140.08368   -1225.4298    132661.77   -34029.679    2645.6781   -36675.357    64.251994    248.20195 
   21950    144.35991   -1363.4494    132728.45    -33994.83    2726.4407    -36721.27    64.204523    255.77862 
   22000    142.78241   -1467.0807    132726.47   -33949.526    2696.6474   -36646.173    64.252412    252.98359 
   22050    142.28998   -1386.5832    132672.97   -33918.982    2687.3472   -36606.329    64.746069     252.1111 
   22100    138.81572     -1503.59     132701.2   -33911.315     2621.731   -36533.046    65.061937    245.95538 
   22150     142.6134   -1322.7705     132647.6   -33958.733    2693.4555   -36652.189    64.960339    252.68415 
   22200    143.32517   -1308.3601    132601.36   -33951.706    2706.8983   -36658.605    65.370008    253.94527 
   22250    140.28139    -926.7549    132670.75   -33905.037    2649.4121   -36554.449    65.516836    248.55225 
   22300     142.3131   -1381.7363    132776.85   -33925.119    2687.7839   -36612.903    65.620574    252.15207 
   22350     142.5095   -1369.5962     132817.4    -33981.17    2691.4933   -36672.664    65.545306    252.50006 
   22400    139.45747   -1259.1491    132790.28   -33980.019    2633.8513   -36613.871    65.650989    247.09243 
   22450    144.63198   -973.66303    132773.01   -33989.407    2731.5792   -36720.986    65.522842    256.26069 
   22500    141.80659   -1278.4172    132907.22   -33943.277    2678.2178   -36621.495    65.852175    251.25463 
   22550    143.62912   -1409.5998    132944.38   -33922.382    2712.6387    -36635.02    66.034335     254.4838 
   22600    144.90699   -1273.4514    133017.98   -33904.294    2736.7731   -36641.067    66.165604    256.74795 
   22650    142.07956   -1244.0098    133060.03   -33899.669    2683.3732   -36583.042    66.468602    251.73828 
   22700    142.41162   -1201.5155    133034.54   -33868.638    2689.6446   -36558.283    66.538874    252.32663 
   22750    141.83811   -845.30542     133068.1   -33867.963     2678.813   -36546.776    66.675217    251.31047 
   22800    141.95173   -1432.3568    133070.19    -33904.95    2680.9589   -36585.909     66.53307    251.51179 
   22850    140.14664   -1093.3018    133050.68   -33874.038    2646.8672   -36520.905    66.680705     248.3135 
   22900    137.96167   -1295.0007    133035.19   -33917.834    2605.6009   -36523.435    66.857103    244.44215 
   22950     140.9543   -1202.6427    133028.11   -33864.689    2662.1211    -36526.81    67.137794    249.74454 
   23000    140.27413   -1140.6701    133113.08   -33893.657     2649.275   -36542.932    67.419876    248.53939 
   23050    139.39311   -1116.9987    133088.37   -33904.401    2632.6358   -36537.037    67.495612     246.9784 
   23100    143.31975   -1415.0806    133149.48   -33905.636    2706.7959   -36612.431    67.369139    253.93567 
   23150    140.52931   -1311.3003    133046.02     -33926.2    2654.0946   -36580.295    67.502544    248.99154 
   23200    144.29523   -1332.7332    133065.84   -33909.558    2725.2193   -36634.777     67.81053    255.66404 
   23250    141.46627   -1187.0247    133042.84   -33934.339    2671.7903   -36606.129    67.973293    250.65164 
   23300    141.01054   -1152.0287    132986.62   -33919.236    2663.1832   -36582.419    68.089747    249.84418 
   23350    141.84629   -1227.3707    132922.67   -33901.435    2678.9675   -36580.402    68.060741    251.32497 
   23400    140.80991   -1055.2541    132906.09   -33904.307    2659.3941   -36563.701    67.995438    249.48871 
   23450    137.54293   -1247.3428    132891.54    -33986.35    2597.6926   -36584.042    68.041027    243.70023 
   23500      139.341   -1290.7493    132911.42   -34005.071    2631.6516   -36636.722    68.236895    246.88607 
   23550    139.74661   -1196.2303    132880.48   -34037.838    2639.3121    -36677.15     68.35239    247.60473 
   23600    137.97466   -998.72026     132940.6   -34015.237    2605.8463   -36621.083    68.674704    244.46516 
   23650    140.91241   -1062.2438    133025.03   -33954.727    2661.3298   -36616.057     69.02235     249.6703 
   23700    141.05424   -1085.6881    133118.88   -33913.879    2664.0085   -36577.888    69.173286    249.92161 
   23750    140.00609   -919.61562    133144.58   -33954.893    2644.2129   -36599.106    69.221747    248.06449 
   23800    141.48516   -1122.5835    133223.21   -33938.511    2672.1471   -36610.658    69.437216    250.68511 
   23850    142.47877   -1217.4471    133272.72   -33939.043    2690.9128   -36629.956    69.375684    252.44561 
   23900    144.11841   -1223.6219    133372.94   -33898.889    2721.8796   -36620.769    69.271433    255.35073 
   23950    139.37137   -1143.7272    133304.81   -33957.744    2632.2251   -36589.969    69.514423    246.93987 
   24000    139.11756   -1488.3627     133219.3   -33984.294    2627.4317   -36611.725    69.350009    246.49018 
   24050    143.08959   -1230.3661    133193.44   -33987.762     2702.449   -36690.211    69.182635    253.52786 
   24100    139.53743   -1348.8493    133104.34    -34011.23    2635.3614   -36646.591    69.144849     247.2341 
   24150    142.16128   -1163.2433    133028.51   -33974.803    2684.9165   -36659.719    69.305569    251.88307 
   24200    136.99571   -1172.3748    133022.08   -34008.976    2587.3576   -36596.334    69.583197    242.73066 
   24250    137.58418   -1288.6674    133022.13   -34056.396    2598.4715   -36654.867    69.739821     243.7733 
   24300    140.17176   -1173.7929    133015.17   -34068.502    2647.3418   -36715.844    70.150288    248.35802 
   24350    139.63728   -1308.0601    133089.28    -34069.65    2637.2472   -36706.898    70.205131    247.41102 
   24400    137.58822   -1312.3949    133049.51   -34088.705    2598.5478   -36687.253     70.32808    243.78047 
   24450    136.92232   -1122.6039    132952.88   -34034.306    2585.9715   -36620.277     70.44037    242.60063 
   24500    140.38978   -1252.5361    132951.07   -34036.232    2651.4592   -36687.691    70.504638     248.7443 
   24550    138.55875   -1207.5911     132991.8   -34040.834    2616.8778   -36657.712    70.380822    245.50008 
   24600     139.3232   -1241.2419    132940.76    -34023.97    2631.3154   -36655.286    70.495649    246.85453 
   24650    142.47801   -1265.7236    132953.75   -34013.653    2690.8985   -36704.551    70.644413    252.44426 
   24700    137.00782   -1171.5252     132906.6   -34046.308    2587.5862   -36633.894    70.813092    242.75211 
   24750    138.06337   -1525.3933    132841.44   -34064.606    2607.5218   -36672.127    70.918332    244.62235 
   24800     137.1972   -1345.8756    132689.23   -34058.138    2591.1628   -36649.301     71.25176    243.08765 
   24850    136.28873   -1200.7095    132635.51   -34114.817    2574.0052   -36688.823    71.433165    241.47802 
   24900    140.11447   -1191.4037     132601.6   -34118.727    2646.2598   -36764.987    71.456134    248.25652 
   24950     137.7327   -1334.3833    132645.57   -34093.506    2601.2765   -36694.783    71.692252    244.03646 
   25000    137.89529   -1149.0176    132668.63   -34087.794    2604.3474   -36692.141    71.814151    244.32455 
   25050    137.10608   -1200.3966    132765.48   -34078.384    2589.4421   -36667.826    71.972951    242.92622 
   25100    140.12395   -1389.9075    132728.15   -34037.768    2646.4387   -36684.206    72.082744    248.27331 
   25150    139.32887   -935.92403     132671.4   -33993.481    2631.4225   -36624.903    72.254497    246.86458 
   25200     142.4866   -958.82981     132740.3   -33975.421    2691.0606   -36666.482    72.335117    252.45947 
   25250    141.32668   -1405.5204     132765.6   -33946.955    2669.1539   -36616.109    72.563687    250.40432 
   25300    140.13737   -1443.6014    132737.43   -34039.188    2646.6921    -36685.88    72.529071    248.29708 
   25350    139.74157   -1503.7105    132614.28   -34058.916    2639.2169   -36698.133    72.722907     247.5958 
   25400     140.0031   -1180.3258    132649.56   -33988.175    2644.1563   -36632.332    72.844311    248.05918 
   25450    140.94693   -1235.3639    132601.86   -34007.173    2661.9819   -36669.154    72.876948    249.73148 
   25500    138.51579   -1018.9542    132602.89   -34054.747    2616.0663   -36670.813    72.910692    245.42394 
   25550    139.15671   -1014.3015    132571.55   -34076.856     2628.171   -36705.027    73.115255    246.55954 
   25600    138.84062   -1110.0729    132603.66   -34022.627    2622.2011   -36644.828    73.172709    245.99948 
   25650    139.55801   -1436.6714    132571.55   -34017.913    2635.7502   -36653.663    73.510732    247.27057 
   25700    139.52386   -1232.6883    132502.11   -34052.753    2635.1051   -36687.858    73.648037    247.21005 
   25750    139.90378   -1063.0812     132553.7   -34025.471    2642.2805   -36667.751    73.678194    247.88321 
   25800    139.89537   -1438.5261    132471.77   -34024.411    2642.1216   -36666.533        73.81     247.8683 
   25850    139.40903   -1095.2924    132489.62   -34042.409    2632.9365   -36675.346    73.828554     247.0066 
   25900    140.34878   -1290.5545    132551.38   -34029.714    2650.6849   -36680.399    74.186886    248.67166 
   25950    139.69738   -1306.0301    132604.17   -33992.599    2638.3824   -36630.981    74.435434    247.51751 
   26000    139.91368     -1432.31     132539.6   -33985.823    2642.4674   -36628.291    74.388208    247.90074 
   26050    141.20528   -1161.2138    132465.72   -34003.957    2666.8612   -36670.818    74.349919    250.18923 
   26100    143.32189   -898.60475    132471.99   -34002.958    2706.8363   -36709.794    74.663893    253.93945 
   26150    139.51543   -1058.6581    132561.17   -33976.612     2634.946   -36611.558    74.665095    247.19513 
   26200    141.31148   -1124.5637    132591.21   -34007.202    2668.8668   -36676.069    74.508114    250.37738 
   26250    138.21168   -1298.8789    132623.64   -34029.947    2610.3227    -36640.27    74.722155    244.88512 
   26300     141.4288   -1420.4852    132516.68   -34026.302    2671.0827   -36697.385     74.84732    250.58526 
   26350    138.45199   -1172.5546    132501.05   -34063.988    2614.8614   -36678.849     75.02351    245.31091 
   26400    144.07619   -1245.6317    132473.14   -34078.853    2721.0824   -36799.935    75.357099    255.27594 
   26450    143.67173   -924.48881    132437.32   -34044.627    2713.4436   -36758.071    75.344502    254.55931 
   26500    140.89523   -860.50327    132496.28   -34035.371    2661.0054   -36696.377    75.413093    249.63986 
   26550    139.07808   -1160.8192    132560.73   -34040.177     2626.686   -36666.863    75.665268    246.42023 
   26600    138.87571   -1011.9776    132637.82   -34104.225    2622.8639   -36727.089    75.829337    246.06166 
   26650    142.03507    -1266.007    132621.71   -34049.364     2682.533   -36731.897    76.016334    251.65946 
   26700    141.06279   -1315.6418    132584.69    -34028.04    2664.1701    -36692.21     76.10428    249.93676 
   26750    139.72928    -1344.051    132605.17   -34011.481    2638.9849   -36650.466    76.493645    247.57403 
   26800    137.89789   -1125.6286    132498.46   -34069.956    2604.3964   -36674.352    76.637164    244.32915 
   26850    137.72443   -1222.7483    132531.99   -34034.464    2601.1205   -36635.584    76.758894    244.02182 
   26900    141.71709   -944.36367    132553.08   -33983.011    2676.5274   -36659.538    77.000306    251.09605 
   26950    140.40586   -1038.2414    132563.26   -33956.503     2651.763   -36608.266    77.206913     248.7728 
   27000    140.04512   -1136.0912    132650.63    -33915.43    2644.9498    -36560.38    77.330645    248.13363 
   27050    142.54461   -1123.0221    132697.46   -33936.018    2692.1562   -36628.174    77.554842    252.56225 
   27100    140.59583    -1227.971    132786.45   -33952.612    2655.3509   -36607.963     77.75965     249.1094 
   27150    138.95881   -1296.8768     132682.7   -33971.022    2624.4333   -36595.455    77.688802    246.20889 
   27200    136.77857   -1175.5822     132678.6   -33982.239    2583.2564   -36565.495    78.084274    242.34592 
   27250    138.31641   -1155.6122    132717.53   -34008.678    2612.3007   -36620.979    78.328028    245.07068 
   27300    138.59396   -1112.6361    132734.06   -33994.103    2617.5427   -36611.645    78.555218    245.56245 
   27350    140.71911   -1159.0233    132707.77   -33983.559    2657.6792   -36641.238    78.734784    249.32782 
   27400    138.76384    -1226.261    132625.22   -34025.938    2620.7512   -36646.689     78.98069    245.86345 
   27450    137.85312    -1335.144    132575.39   -33976.219    2603.5509    -36579.77    79.147587    244.24983 
   27500     140.4544   -1059.8916    132527.59   -33971.289    2652.6797   -36623.968     79.53172     248.8588 
   27550    140.47421   -1216.8641    132514.95   -34062.515    2653.0539   -36715.569    79.692526     248.8939 
   27600    140.26846   -1341.5595    132557.49   -34074.426    2649.1679   -36723.594    79.519918    248.52934 
   27650     137.4876    -1201.907    132576.73   -34073.208    2596.6476   -36669.856    79.756276     243.6022 
   27700    140.37407   -1177.8939    132640.67   -34097.534    2651.1625   -36748.697    79.929503    248.71646 
   27750    139.77018   -1076.9861    132748.49   -34051.008    2639.7572   -36690.765    79.891604    247.64649 
   27800     139.3927   -1296.0349    132722.64   -34045.389    2632.6281   -36678.017    80.102521    246.97767 
   27850    141.14388   -1112.0346    132735.82   -34038.685    2665.7016   -36704.387     80.10659    250.08044 
   27900    138.93952   -1174.7261    132763.26   -34014.974     2624.069   -36639.043    80.265603    246.17471 
   27950    139.94563   -1139.7365    132730.91   -34020.743     2643.071   -36663.814    80.090643    247.95737 
   28000    137.58484   -1413.4978    132733.73   -34056.087    2598.4839   -36654.571    80.383772    243.77447 
   28050    138.17337   -1340.5255     132651.7   -34092.288    2609.5993   -36701.887    80.725907    244.81725 
   28100    139.79685   -1317.4099    132584.67   -34064.667    2640.2609   -36704.928      81.0294    247.69374 
   28150    138.84206   -1372.8989    132555.58    -34065.34    2622.2284   -36687.569    81.040242    246.00204 
   28200    139.49023   -1197.2521       132447   -34063.114      2634.47   -36697.584    81.353537    247.15047 
   28250    138.74721   -1266.7372    132462.88   -34027.745     2620.437   -36648.182    81.441341    245.83398 
   28300    138.57339   -987.28803    132482.26   -34046.526    2617.1542    -36663.68    81.682734    245.52601 
   28350    137.86474   -1450.4646    132576.44   -34071.141    2603.7704   -36674.912     81.78458    244.27041 
   28400     140.3729   -1210.1877    132575.47    -34025.95    2651.1406   -36677.091    81.899942    248.71441 
   28450    136.86994   -1079.1242    132630.25   -34063.781    2584.9822   -36648.763    81.755171    242.50782 
   28500     142.3001   -1033.8798    132713.95    -34092.79    2687.5384   -36780.328    82.022872    252.12904 
   28550    141.35376   -1282.6678    132637.25   -34048.787    2669.6654   -36718.452    82.194286     250.4523 
   28600    139.14748   -1261.7916    132624.13   -34054.851    2627.9967   -36682.848    82.446201    246.54318 
   28650    140.23939   -968.19977    132661.27   -34070.077    2648.6189   -36718.695    82.461378    248.47784 
   28700    141.63427   -1086.8584    132694.65   -34067.691    2674.9632   -36742.655    82.518176    250.94931 
   28750    139.43662   -873.84414    132681.99   -34060.162    2633.4575   -36693.619    82.841391    247.05549 
   28800    137.68973   -1130.2332    132722.43   -34063.096    2600.4651   -36663.561    82.964675    243.96033 
   28850    139.45348   -1118.1656    132683.78   -34064.185     2633.776   -36697.961    82.839027    247.08536 
   28900     139.2002    -1229.247    132745.84   -34064.089    2628.9925   -36693.081    83.089087     246.6366 
   28950    139.33132    -1282.702    132803.41    -34065.93    2631.4687   -36697.399    83.337879    246.86891 
   29000    140.41092   -1110.1767    132803.02   -34030.489    2651.8585   -36682.347    83.616415    248.78176 
   29050    139.07377   -1102.4277    132777.09   -34038.176    2626.6045   -36664.781    83.816198    246.41258 
   29100    138.31309   -1217.7354    132772.78   -34042.533    2612.2381   -36654.771    83.987791    245.06481 
   29150    137.00787   -1313.6029    132656.17   -34053.411    2587.5872   -36640.999     84.26981     242.7522 
   29200    140.74345   -1304.0793    132696.24   -34021.111    2658.1388    -36679.25    84.401489    249.37094 
   29250    138.92811   -1199.1868    132715.94   -34017.885    2623.8535   -36641.739    84.743864     246.1545 
   29300     140.8748   -1221.2436    132730.37   -34013.323    2660.6196   -36673.943    84.881342    249.60367 
   29350    141.69126   -1096.8261    132721.94   -34000.248    2676.0397   -36676.287    85.009401    251.05029 
   29400    139.90998   -1019.5638    132692.83   -34002.056    2642.3977   -36644.454    85.083376     247.8942 
   29450    141.76629   -1138.0138    132659.94   -33952.751    2677.4565   -36630.207    85.213515    251.18322 
   29500    142.73118   -1208.9868    132594.47   -33947.963    2695.6799   -36643.643    85.283965    252.89283 
   29550    144.89564   -1419.5957    132546.08   -33907.211    2736.5587    -36643.77    85.460498    256.72784 
   29600    143.85241   -1104.4638    132455.94   -33894.928    2716.8559   -36611.784    85.772382    254.87943 
   29650    140.19744   -1129.7538    132495.29   -33943.965    2647.8268   -36591.792    86.016801    248.40352 
   29700    141.90436   -998.07326    132595.67   -33921.212    2680.0642   -36601.276     86.34986    251.42785 
   29750    143.02995   -1156.0508    132677.46   -33901.627    2701.3226   -36602.949    86.229066    253.42219 
   29800    142.33352   -1239.3018    132706.05   -33858.652    2688.1696   -36546.822    86.431869    252.18825 
   29850    140.75614   -972.34829    132702.82   -33882.465    2658.3785   -36540.843    86.714346    249.39343 
   29900    140.01331    -1148.954    132721.97   -33949.974    2644.3491   -36594.323    86.931789    248.07727 
   29950    141.05438    -1070.463    132731.09   -33924.461    2664.0112   -36588.472    86.796761    249.92186 
   30000    141.00562   -1093.8794    132737.97   -33932.884    2663.0904   -36595.975    86.972127    249.83547 
   30050    140.42292   -1178.4645     132762.4   -34004.016    2652.0852   -36656.101    87.038282    248.80303 
   30100    138.05641   -1412.2808    132721.19   -34017.791    2607.3902   -36625.181    87.225065    244.61001 
   30150    139.32185   -1253.4584    132724.08   -33983.775      2631.29   -36615.065    87.412353    246.85214 
   30200    143.20229   -1282.3435    132799.12   -33961.851    2704.5775   -36666.428    87.558515    253.72754 
   30250    139.30979   -1196.9183    132829.96   -34021.395    2631.0621   -36652.457    87.976187    246.83077 
   30300    138.92981    -1300.841    132733.96   -33997.299    2623.8857   -36621.184    88.121631    246.15752 
   30350     138.6567   -1213.3122    132729.45   -34010.354    2618.7276   -36629.082    88.330104    245.67361 
   30400    139.30731   -1169.3599    132758.08   -33969.566    2631.0153   -36600.582    88.617089    246.82637 
   30450      138.517   -960.65891    132867.57   -33979.286    2616.0892   -36595.375    88.920923     245.4261 
   30500    143.18354   -1216.6059    132891.23   -33997.105    2704.2234   -36701.328    89.080233    253.69433 
   30550     139.9795   -1212.0065    132812.21   -33950.483    2643.7106   -36594.194    89.106138    248.01737 
   30600    142.49279   -1055.5089    132855.07   -33957.902    2691.1776    -36649.08    89.090268    252.47044 
   30650    140.89943   -1137.3189    132856.98   -33922.076    2661.0848   -36583.161    89.277842    249.64732 
   30700     142.2724   -915.41263    132934.82   -33900.484    2687.0153   -36587.499    89.141286    252.07996 
   30750    142.99209     -993.727    133055.98   -33891.902    2700.6075   -36592.509    89.166092     253.3551 
   30800    140.43563   -1066.4095    133100.11   -33937.955    2652.3253   -36590.281    89.539563    248.82555 
   30850    138.21018   -1367.3818    133059.33   -33970.049    2610.2945   -36580.344    89.864078    244.88247 
   30900    141.83762   -1526.4108    132995.59   -33924.454    2678.8038   -36603.257    89.942681    251.30961 
   30950    139.38078   -1320.4789    132922.59   -33960.021    2632.4028   -36592.424    90.248702    246.95654 
   31000     138.6323   -1209.9216    132993.92   -33968.613    2618.2669    -36586.88    90.390917    245.63039 
   31050    142.03295   -1355.3104     132981.7   -33993.834    2682.4929   -36676.327    90.691412     251.6557 
   31100    139.84889   -1144.1823    133010.75    -34001.66    2641.2439   -36642.904    90.852835    247.78596 
   31150    141.26046   -988.11402    133039.23   -34010.076    2667.9034    -36677.98    90.917819      250.287 
   31200    142.21345   -1214.5253    133018.98   -33998.508     2685.902    -36684.41    91.180857    251.97552 
   31250    137.94328   -833.84297    132938.39    -34027.19    2605.2536   -36632.443    91.360528    244.40957 
   31300    138.94815   -1215.8573    133023.91    -34013.44    2624.2321   -36637.672    91.526615    246.19001 
   31350    139.45858   -1266.8328    133046.46   -33978.957    2633.8722   -36612.829    91.686764    247.09439 
   31400    143.37283   -1390.2786    132967.17   -33952.538    2707.7984   -36660.337    91.780767    254.02971 
   31450    140.57796   -1267.9985    132903.45   -33931.432    2655.0133   -36586.445    92.037004    249.07773 
   31500    141.50491   -1272.2026    132815.98   -33973.493      2672.52   -36646.013    92.104364     250.7201 
   31550    137.29411   -1116.7788    132747.65   -33973.868    2592.9932   -36566.861    92.208709    243.25937 
   31600    141.86177   -1145.9087    132805.88   -33944.917    2679.2599   -36624.177    92.356112     251.3524 
   31650      142.593   -1142.3456    132854.19   -33952.025    2693.0702   -36645.096     92.39091      252.648 
   31700    137.52988    -985.2301    132863.14   -34013.368    2597.4461   -36610.814    92.537421    243.67711 
   31750    138.92137   -1233.8492     132905.5   -33987.733    2623.7263   -36611.459    92.780574    246.14256 
   31800    142.58174   -1017.3624    132869.62   -33964.387    2692.8575   -36657.245    92.809142    252.62804 
   31850    139.35374   -1085.7158    132904.07   -33949.797    2631.8923   -36581.689     92.87083    246.90865 
   31900    140.30626   -1121.3613     132885.5   -33983.357    2649.8818   -36633.239    92.902292    248.59632 
   31950    139.81654   -1204.6054    132903.26   -33984.202    2640.6328   -36624.834    93.108344    247.72863 
   32000    140.24169   -1366.8637    132918.19    -33962.75    2648.6623   -36611.413    93.574835    248.48191 
   32050    143.01901   -1354.0565    132838.34   -33953.893    2701.1161   -36655.009     93.45933    253.40282 
   32100    142.96879   -1328.7326    132751.36   -33976.886    2700.1676   -36677.053    93.443206    253.31384 
   32150    140.23926   -1298.8852    132786.15   -34004.968    2648.6165   -36653.584    93.692616    248.47762 
   32200    139.13701   -1172.7146    132828.69   -33973.538    2627.7989   -36601.337    93.582467    246.52463 
   32250    140.49248   -1159.6182     132873.4   -33921.701    2653.3989   -36575.099     93.62681    248.92627 
   32300    139.77434   -1152.3988    132877.87   -34043.555    2639.8357   -36683.391    93.811505    247.65386 
   32350    141.90713   -1086.1001    132928.22   -34051.537    2680.1165   -36731.653    94.118713    251.43276 
   32400    141.47347   -1069.4669    132962.54    -34035.42    2671.9263   -36707.346    94.308992     250.6644 
   32450    140.85075   -1110.3855    132986.27   -33990.484    2660.1654   -36650.649    94.344808    249.56106 
   32500     140.8348   -1238.0644    132903.36   -33999.624     2659.864   -36659.488    94.601825    249.53279 
   32550    139.76451   -1078.5747    132873.13   -33984.827    2639.6502   -36624.477    94.605045    247.63645 
   32600    140.84273    -1318.292    132837.36   -33985.356     2660.014    -36645.37     94.97402    249.54686 
   32650    139.54695   -1226.9834    132765.22    -33998.51    2635.5413   -36634.051    95.173404    247.25098 
   32700    139.27355   -1206.6079    132850.29   -33998.397    2630.3778   -36628.775    95.273985    246.76656 
   32750    137.83271   -1346.8652    132867.99   -34013.168    2603.1655   -36616.334    95.606431    244.21367 
   32800     139.4667   -1031.3819    132848.04   -33995.783    2634.0257   -36629.809    95.813374    247.10879 
   32850    142.31909   -1267.2192    132788.38   -33978.199     2687.897   -36666.096    95.725312    252.16267 
   32900    138.25118   -1341.2443    132757.78   -33998.801    2611.0687    -36609.87    95.954412     244.9551 
   32950    135.82841   -1103.0972    132674.85   -33983.704    2565.3114   -36549.016      95.9166    240.66242 
   33000    137.33173   -1311.9839     132639.6   -33995.005    2593.7037   -36588.708    96.146754    243.32601 
   33050    141.64478   -1299.9947    132638.23   -34021.706    2675.1617   -36696.867    96.197782    250.96793 
   33100    139.19127   -1300.7086    132683.05   -34053.149    2628.8237   -36681.973    96.573877    246.62077 
   33150    140.48947   -1191.7077    132784.62   -34039.132     2653.342   -36692.474    96.936845    248.92094 
   33200    138.38566   -1232.4773    132798.01   -34036.589    2613.6086   -36650.197     96.92318    245.19338 
   33250    138.02213   -1360.5033    132720.44   -34067.025    2606.7428   -36673.768     97.22243    244.54927 
   33300    139.27918   -1361.0256    132708.45   -34026.894     2630.484   -36657.378     97.15786    246.77653 
   33350    141.30655   -1339.5016    132733.56   -33989.386    2668.7738   -36658.159    97.392692    250.36865 
   33400    141.34503   -1396.5652    132691.96   -33966.673    2669.5005   -36636.174    97.409204    250.43682 
   33450    143.11721   -919.41447    132706.94   -33953.629    2702.9707   -36656.599    97.748424    253.57681 
   33500    141.88442   -1357.9445    132712.46   -34007.114    2679.6877   -36686.802    98.191711    251.39253 
   33550    142.42587    -1399.075    132702.83   -34008.375    2689.9136   -36698.288    98.392282    252.35187 
   33600    141.54617   -1306.5994    132661.72   -34062.856    2673.2994   -36736.156      98.4625    250.79321 
   33650    138.33402   -1136.4537     132685.1    -34078.73    2612.6334   -36691.363    98.315034    245.10189 
   33700     139.4169   -1171.0707    132727.67   -34058.853    2633.0851   -36691.938    98.403566    247.02055 
   33750    139.68346    -1251.746    132655.99   -34057.542    2638.1195   -36695.662    98.573554    247.49285 
   33800    140.99164   -1277.2761    132670.05   -34088.268    2662.8262   -36751.094    98.487368    249.81069 
   33850    138.96546   -1016.7985    132704.99   -34138.931     2624.559    -36763.49    98.903907    246.22068 
   33900     141.1897   -1288.5088    132792.39   -34099.375    2666.5669   -36765.942    99.201632    250.16162 
   33950    140.90376    -1332.876    132784.85   -34079.247    2661.1666   -36740.413    99.361182    249.65499 
[...]
   92000    138.30466   -1383.3196    132553.75   -34032.879    2612.0789   -36644.957    268.67666    245.04987 
   92050    137.85238   -1477.9572    132441.89   -34050.358    2603.5369   -36653.895    268.79524    244.24852 
   92100     140.2955    -1067.434    132360.77   -34035.669    2649.6788   -36685.348    268.63684    248.57727 
   92150    138.56149   -1302.7013    132327.46   -34024.375    2616.9294   -36641.305    268.26413    245.50492 
   92200    139.76649   -1102.5696    132336.25   -34020.396    2639.6876   -36660.084    268.72485    247.63995 
   92250    140.06898   -1241.0923    132345.45   -33951.024    2645.4005   -36596.425     268.9954    248.17591 
   92300    140.94072   -944.70673    132440.65   -33960.075    2661.8645    -36621.94     269.4285    249.72046 
   92350    139.40573   -1200.5417    132501.23   -33999.306    2632.8742    -36632.18    269.58124    247.00076 
   92400    142.21772   -1232.6305    132492.33   -34000.844    2685.9826   -36686.827     269.7207    251.98308 
   92450    138.22384     -940.439    132524.35   -33973.738    2610.5524    -36584.29    270.04066    244.90667 
   92500    142.72101   -1244.7388    132483.45   -34001.557    2695.4878   -36697.045     269.8173     252.8748 
   92550    137.28824   -939.43318    132470.17   -34050.976    2592.8823   -36643.858    269.64217    243.24896 
   92600    138.74356   -1280.7316    132435.62   -34068.252     2620.368    -36688.62    269.57909    245.82751 
   92650    140.51109   -1148.4313    132522.88   -34046.727    2653.7505   -36700.477    269.48059    248.95925 
   92700    139.16555   -1480.4645    132527.36   -34014.564     2628.338   -36642.902    269.29937     246.5752 
   92750    141.37384   -1349.2149     132492.3   -34022.213    2670.0447   -36692.258    269.48043    250.48788 
   92800    136.90395    -1309.129    132506.69   -34038.525    2585.6244   -36624.149    269.67804    242.56806 
   92850    138.50417   -1124.5228    132487.91   -34025.071    2615.8469   -36640.918    270.03705    245.40336 
   92900     138.6006    -1279.521     132463.6   -34010.867    2617.6681   -36628.536    270.39551    245.57421 
   92950    141.82063   -1186.4442    132388.75   -33966.463    2678.4829   -36644.946    270.44342    251.27951 
   93000    140.90177   -1124.8806    132440.61   -33984.494     2661.129   -36645.623    270.64523    249.65146 
   93050    142.69692   -943.79473    132466.82   -34020.459    2695.0329   -36715.492    270.87612    252.83212 
   93100    138.36193   -994.42399    132572.36   -34033.917    2613.1605   -36647.077    270.70992    245.15134 
   93150     139.7667   -1039.1909    132624.96   -34028.748    2639.6915    -36668.44    270.91384    247.64033 
   93200     137.2704   -1030.0552    132715.74   -34067.284    2592.5455   -36659.829    271.12171    243.21736 
   93250     139.8511   -1466.8344    132751.84   -34034.092    2641.2855   -36675.377    271.42597    247.78986 
   93300    139.23069   -1225.6184    132726.62   -34035.258    2629.5682   -36664.827    271.33411    246.69062 
   93350    136.23454   -1153.7203    132689.26   -34031.094    2572.9816   -36604.075    271.16398      241.382 
   93400    137.72049   -1270.2185    132603.04   -34003.082    2601.0459   -36604.128     271.1015    244.01482 
   93450    141.17962   -1154.7729    132577.59   -33938.225    2666.3766   -36604.602    271.24824    250.14376 
   93500    138.57487   -1220.9984    132562.74   -33938.874    2617.1821   -36556.056      271.368    245.52863 
   93550    141.35209   -1208.5962    132502.25   -33926.242    2669.6339   -36595.876     271.6125    250.44934 
   93600    138.03483   -1103.6658    132535.05   -33948.371    2606.9827   -36555.354    271.83316    244.57177 
   93650    139.96829   -1386.6336    132493.44    -33954.88    2643.4989   -36598.379     272.1041    247.99751 
   93700    137.82749   -1322.7372    132458.26    -33963.61    2603.0669   -36566.677    271.89241    244.20442 
   93750    138.27612   -1181.0694    132370.27   -33992.193    2611.5398   -36603.733    272.35824     244.9993 
   93800    140.38673   -1457.6328    132190.88   -33931.815    2651.4017   -36583.217    271.87477     248.7389 
   93850    141.16036   -1123.3987    132117.21   -33968.682    2666.0128   -36634.694    272.13269    250.10963 
   93900    138.10948   -1236.1802    132130.84   -33979.959    2608.3925   -36588.351    272.06633    244.70404 
   93950    139.89732   -1222.3522    132056.82   -33991.142    2642.1585     -36633.3    272.06468    247.87176 
   94000    138.82126   -997.30486    132072.57   -33975.885    2621.8356   -36597.721    272.02537    245.96519 
   94050    140.01496   -1499.9199    132060.27   -33937.243    2644.3803   -36581.623    272.83103     248.0802 
   94100    138.97959   -1223.0895    131974.97   -33964.185    2624.8258   -36589.011    273.38561    246.24571 
   94150    140.09037   -1110.8528     132042.8   -33968.622    2645.8045   -36614.427    273.60754    248.21381 
   94200    139.33549   -988.90329    132145.65     -33989.3    2631.5475   -36620.848    274.16047     246.8763 
   94250    139.28565   -904.15749    132249.96   -34023.097    2630.6062   -36653.703    274.05258      246.788 
   94300    141.03668   -1313.4629    132217.31   -33996.739    2663.6769   -36660.416    274.23555    249.89049 
   94350    139.75615   -1315.8085    132284.67   -34020.001    2639.4924   -36659.493     274.1767    247.62164 
   94400    140.89782   -1355.0807    132223.14   -33959.102    2661.0544   -36620.157    274.23967    249.64446 
   94450    142.42935   -1213.2887    132207.62   -33915.035    2689.9794   -36605.014    274.83322    252.35804 
   94500     141.7084    -1014.642    132284.79   -33950.734    2676.3633   -36627.097    274.85913    251.08065 
   94550    138.70598   -761.29603    132363.72    -33967.77    2619.6584   -36587.428    274.70439    245.76093 
   94600    139.77037   -1152.7526    132362.85   -33944.751    2639.7608   -36584.511    274.73879    247.64682 
   94650    145.83792   -1295.4166    132368.51    -33914.46    2754.3551   -36668.815     275.5233    258.39739 
   94700    140.34124   -1085.1396    132381.97   -33937.544    2650.5425   -36588.086    275.47862     248.6583 
   94750    141.30387   -1016.3118    132448.39   -33940.486    2668.7233   -36609.209     275.7545    250.36391 
   94800    142.18857   -1080.4369    132551.46   -33973.701     2685.432   -36659.133    276.11398    251.93143 
   94850    141.74479   -1388.7529    132551.03   -33972.733    2677.0506   -36649.783    276.15097    251.14514 
   94900    142.87727   -1429.4922    132502.66   -33971.181     2698.439    -36669.62    276.09419    253.15167 
   94950    139.12313   -1492.6659    132398.35   -34013.933    2627.5369    -36641.47    276.48156    246.50005 
   95000    143.11185   -1525.4362    132363.87   -33983.612    2702.8693   -36686.482    276.64844     253.5673 
   95050    140.84165    -1128.926    132287.95   -33993.341    2659.9935   -36653.335    276.76028    249.54494 
   95100    140.42866     -1182.12    132260.88   -34019.366    2652.1935   -36671.559    277.03572    248.81319 
   95150    142.44089   -1036.8493    132317.82   -34000.949    2690.1974   -36691.147    277.53543    252.37849 
   95200    140.14293   -1462.2141    132292.91   -34033.271    2646.7972   -36680.068    278.21465    248.30693 
   95250    138.74315   -1361.1576    132304.86   -33998.573    2620.3604   -36618.933    278.03707     245.8268 
   95300    139.39491   -1403.8522    132321.93    -33978.31    2632.6697    -36610.98    278.22796    246.98158 
   95350    137.61394   -1159.8012    132264.71   -33961.299    2599.0336   -36560.333    278.70502    243.82604 
   95400    140.38896   -1179.2306    132235.21   -33935.779    2651.4437   -36587.222    278.93402    248.74285 
   95450     140.6712   -1194.8631    132356.66   -33944.919    2656.7743   -36601.694    278.84722    249.24293 
   95500    141.74586   -1637.4083    132297.15   -33928.013    2677.0708   -36605.083    279.17603    251.14703 
   95550    141.11657   -1239.3016    132240.54   -33945.411    2665.1857   -36610.596    279.37386    250.03204 
   95600    138.61982   -1341.5587    132266.09    -33912.32    2618.0312   -36530.351    279.65297    245.60828 
   95650    142.04101   -1293.2335    132286.61   -33841.519    2682.6451   -36524.164    280.15452    251.66998 
   95700    139.58746   -1406.7401    132254.92   -33848.784    2636.3063    -36485.09    280.13388    247.32274 
   95750    139.96996   -1500.2047    132269.06   -33867.114    2643.5304   -36510.644    280.22416    248.00047 
   95800    139.30428   -1132.9061    132328.33   -33881.248     2630.958   -36512.206    280.52496      246.821 
   95850      143.194   -1072.6148    132319.45   -33924.101    2704.4209   -36628.522    280.72191    253.71285 
   95900    142.97331   -1112.0163     132401.7   -33893.925    2700.2529   -36594.178     280.8158    253.32184 
   95950    142.98051    -1339.419    132408.21   -33905.318    2700.3888   -36605.707    281.14929    253.33459 
   96000    139.74022   -1045.8755    132552.67   -33893.549    2639.1915   -36532.741    281.14005    247.59341 
   96050    139.30611   -1107.2577    132570.47   -33916.298    2630.9927   -36547.291    281.34303    246.82426 
   96100    141.05995   -1200.4963    132614.68   -33908.131    2664.1164   -36572.248    281.44548    249.93172 
   96150    136.13033   -1101.5205    132615.16   -33930.149    2571.0136   -36501.163    282.13908    241.19737 
   96200    142.28081   -1009.9432    132760.75   -33882.875    2687.1741   -36570.049    282.58688    252.09486 
   96250    142.28472    -1244.406    132801.95   -33868.133     2687.248   -36555.381    282.56838    252.10179 
   96300    141.32068   -1020.4356    132767.85   -33880.424    2669.0407   -36549.465      282.822    250.39369 
   96350    137.84254   -1199.3713    132749.69   -33890.353    2603.3511   -36493.704    282.81223    244.23108 
   96400    143.31456   -1243.8103    132683.88   -33939.249    2706.6979   -36645.947    282.59287    253.92647 
   96450     140.5069   -1312.2909    132641.11   -33943.213    2653.6713   -36596.884    282.92295    248.95183 
   96500    139.44143   -1303.2906     132598.7   -33967.745    2633.5484   -36601.293    282.88358    247.06402 
   96550    138.11322   -1213.8115    132673.58   -33950.977    2608.4632    -36559.44    283.00817    244.71066 
   96600    138.19736   -1299.6873     132640.2   -33934.294    2610.0524   -36544.346    283.16013    244.85975 
   96650    139.55635   -1568.6529    132584.69   -33945.634    2635.7187   -36581.352    283.02444    247.26762 
   96700    138.63299   -1247.4228    132570.29   -33924.887    2618.2799   -36543.167    283.24576    245.63161 
   96750    137.25991   -1278.6561    132566.21   -33958.648    2592.3473   -36550.995    283.37542    243.19877 
   96800    140.12259   -1205.1499    132597.75   -33951.579     2646.413   -36597.992    283.25164    248.27089 
   96850    141.32521   -1361.4791    132663.79   -33907.157    2669.1263   -36576.283     283.8677    250.40172 
   96900    141.39032   -1250.7697    132654.97   -33905.662     2670.356   -36576.018    284.50016    250.51708 
   96950    138.89019   -1057.5006    132764.87   -33934.686    2623.1374   -36557.824     284.6487    246.08732 
   97000    141.48926   -1139.1664    132788.77   -33901.712    2672.2245   -36573.936    284.85821    250.69238 
   97050    141.99594   -1023.6936     132784.1   -33845.935    2681.7939   -36527.729    285.04965    251.59012 
   97100    141.20561   -1123.3931    132748.36   -33847.107    2666.8674   -36513.975    285.42304    250.18981 
   97150    141.11638   -1406.5746    132817.08   -33848.869    2665.1823   -36514.052    285.90664    250.03172 
   97200    139.52391   -998.71753     132731.8   -33898.226     2635.106   -36533.332    285.87527    247.21014 
   97250    143.81449   -1420.2629    132720.85   -33895.544    2716.1398   -36611.683    286.77746    254.81225 
   97300    141.01359   -1334.6719    132655.22   -33907.775    2663.2409   -36571.016    286.50256    249.84959 
   97350    140.28948   -1064.2964    132649.69   -33934.482    2649.5649   -36584.046    286.68567    248.56659 
   97400    142.63655   -1095.4787    132676.61   -33891.792    2693.8926   -36585.685    286.75402    252.72515 
   97450    140.55159   -898.22795    132661.85    -33908.97    2654.5153   -36563.485    286.92257      249.031 
   97500    142.91182   -1185.1223    132655.76   -33883.929    2699.0916    -36583.02     287.1194    253.21289 
   97550    139.52557   -1232.5809    132589.65   -33937.097    2635.1375   -36572.235     287.2537     247.2131 
   97600    140.06088    -1298.445    132516.57   -34015.891    2645.2476   -36661.138    287.12975    248.16157 
   97650    140.83827   -1416.6093    132411.82   -33967.984    2659.9297   -36627.914    286.93603    249.53895 
   97700    141.26624   -1226.9744    132414.46   -33990.365    2668.0125   -36658.377    287.13068    250.29723 
   97750     140.1277   -1229.6739    132407.85   -34021.552    2646.5095   -36668.061    287.16009    248.27995 
   97800    140.68884   -1115.7016    132527.54   -34075.894    2657.1075   -36733.001    287.29377    249.27419 
   97850    140.49473   -1029.5358    132586.75   -34102.165    2653.4413   -36755.606    287.32092    248.93025 
   97900    139.36215   -1393.1242    132534.43   -34116.589     2632.051    -36748.64    287.45784    246.92354 
   97950    139.45981   -1241.8456    132586.14   -34044.841    2633.8954   -36678.736    287.71569    247.09657 
   98000    139.11664   -1283.0812    132570.46   -34026.711    2627.4142   -36654.125    287.96901    246.48854 
   98050    140.35397   -1109.0663    132583.07    -34017.91     2650.783   -36668.693    288.22367    248.68086 
   98100    139.72604    -1123.704     132541.1    -33981.32    2638.9237   -36620.244    288.25529    247.56829 
   98150    139.46079    -1170.231     132596.9    -33955.81     2633.914   -36589.724    288.82046    247.09831 
   98200    141.09059   -1165.0023    132550.78   -33958.429    2664.6951   -36623.125    288.59463    249.98601 
   98250    141.42782   -1396.4883    132530.06   -33960.303    2671.0642   -36631.368    289.12872    250.58353 
   98300    141.66127   -1238.5513    132467.88   -33924.622    2675.4733   -36600.095    289.13642    250.99716 
   98350    143.94455   -1394.0945     132495.5   -33922.753    2718.5962   -36641.349    289.36806     255.0427 
   98400    140.79852   -1206.9262    132470.48   -33954.643     2659.179   -36613.822    289.88862    249.46852 
   98450    140.12424   -1322.2674    132585.91   -33911.628    2646.4443   -36558.073    290.74748    248.27383 
   98500    139.06881   -1270.5161    132562.13   -33942.667    2626.5109   -36569.178    290.47467    246.40379 
   98550    141.60245   -1236.9988    132565.36   -33854.312    2674.3622   -36528.674    290.80716    250.89293 
   98600    143.08852   -1277.5844    132615.83   -33898.767    2702.4288   -36601.195    290.98372    253.52597 
   98650    141.65085   -1332.5368    132626.13   -33897.429    2675.2764   -36572.706    291.31728    250.97869 
   98700     138.9321   -1234.8947    132619.08   -33907.203     2623.929   -36531.132    291.77247    246.16158 
   98750    140.61334   -1009.0857    132660.59   -33921.924    2655.6816   -36577.606    292.04764    249.14042 
   98800    140.38362   -1292.2719    132732.56   -33931.624     2651.343   -36582.967     292.5219    248.73339 
   98850    141.92748   -1161.0487    132690.69   -33920.262    2680.5009   -36600.763    292.45627    251.46882 
   98900    142.56214   -1349.9482    132720.09   -33900.116    2692.4874   -36592.604    292.94183    252.59332 
   98950    140.86676   -1200.2658    132746.42   -33959.425    2660.4677   -36619.892    292.93457    249.58943 
   99000    141.75064   -1169.2408    132807.14   -33938.604    2677.1611   -36615.765    292.89859     251.1555 
   99050     138.7945   -1075.8099    132779.16   -33935.315    2621.3302   -36556.645    292.79987    245.91777 
   99100     141.8603   -1219.2493    132709.03   -33937.719    2679.2322   -36616.951    292.91822     251.3498 
   99150    143.09684    -1129.665    132719.37   -33941.901     2702.586   -36644.487    293.28716    253.54071 
   99200    140.87544   -1116.1554    132687.98   -33914.819    2660.6316   -36575.451    293.43253     249.6048 
   99250    139.40262   -1035.3652    132758.19   -33935.251    2632.8154   -36568.067    293.61754    246.99524 
   99300    140.67388   -1021.1019    132816.11   -33975.811    2656.8249   -36632.636    293.83435    249.24768 
   99350    139.29458   -1122.8462     132847.3   -34038.892    2630.7749   -36669.667    293.84358    246.80382 
   99400    137.51263   -1351.5194    132710.41   -34058.099    2597.1202   -36655.219    293.99049    243.64653 
   99450    137.61317   -1334.1369    132614.93   -34089.051    2599.0191    -36688.07    294.08356    243.82467 
   99500    139.42473   -1177.2318    132575.52   -34082.925     2633.233   -36716.158     294.2867    247.03442 
   99550    136.31246   -1052.7988    132462.32   -34106.846    2574.4533   -36681.299    294.47565    241.52006 
   99600    140.44701   -1279.8679    132504.63   -34090.552    2652.5402   -36743.093    294.78409    248.84571 
   99650    140.70181   -1149.1411    132530.82   -34100.045    2657.3525   -36757.398    295.11619    249.29717 
   99700    142.05381   -1045.2895    132596.47   -34080.925    2682.8869   -36763.812    294.85578    251.69266 
   99750    138.68267    -948.5344    132636.59   -34075.394    2619.2181   -36694.612    295.51668    245.71963 
   99800    140.67415   -1244.8314    132728.42   -34073.682      2656.83   -36730.512    295.37779    249.24815 
   99850    141.40574   -1186.7749    132755.69   -34076.776    2670.6471   -36747.423    295.77564     250.5444 
   99900    138.56648   -1118.5749    132670.18    -34093.31    2617.0238   -36710.334    295.62246    245.51377 
   99950    141.27221   -1108.2358       132694   -34090.811    2668.1253   -36758.936    296.07104    250.30781 
  100000    137.14924    -1326.337    132671.43   -34109.422    2590.2571   -36699.679    296.58891    243.00268 
Loop time of 49.6234 on 128 procs for 100000 steps with 6337 atoms

Performance: 870.557 ns/day, 0.028 hours/ns, 2015.179 timesteps/s
96.5% CPU use with 128 MPI tasks x no OpenMP threads

MPI task timing breakdown:
Section |  min time  |  avg time  |  max time  |%varavg| %total
---------------------------------------------------------------
Pair    | 4.9931     | 12.229     | 33.644     | 304.9 | 24.64
Neigh   | 0.43445    | 0.9464     | 2.9352     |  83.5 |  1.91
Comm    | 5.5087     | 14.657     | 37.89      | 302.6 | 29.54
Output  | 0.16586    | 0.16872    | 0.18083    |   0.4 |  0.34
Modify  | 3.677      | 20.867     | 36.67      | 333.5 | 42.05
Other   |            | 0.7551     |            |       |  1.52

Nlocal:    49.5078 ave 137 max 26 min
Histogram: 95 1 0 5 11 0 0 0 3 13
Nghost:    563.906 ave 959 max 378 min
Histogram: 64 0 2 30 0 0 0 0 16 16
Neighs:    0 ave 0 max 0 min
Histogram: 128 0 0 0 0 0 0 0 0 0
FullNghs:  3984.69 ave 17103 max 984 min
Histogram: 96 0 0 0 16 0 0 0 1 15

Total # of neighbors = 510040
Ave neighs/atom = 80.486
Neighbor list builds = 6131
Dangerous builds = 0

write_data		${DIR}/data.eq-${NAME}-${TEMP}
write_data		run_12/data.eq-${NAME}-${TEMP}
write_data		run_12/data.eq-het_freeze_12-${TEMP}
write_data		run_12/data.eq-het_freeze_12-248
undump          1

reset_timestep  0

unfix           2
unfix           3
unfix           4


################################################
#######         Run Simulation         #########
################################################

log				${DIR}/log.run_${NAME}
log				run_12/log.run_${NAME}
log				run_12/log.run_het_freeze_12
