LAMMPS data file via write_data, version 16 Mar 2018, timestep = 100000

4990 atoms
2 atom types

0.0000000000000000e+00 4.9219999999999999e+01 xlo xhi
0.0000000000000000e+00 4.9019635930410494e+01 ylo yhi
2.0821037094017427e+00 3.7917896290600112e+01 zlo zhi

Masses

1 18.015
2 12.01

Atoms # atomic

1776 1 6.3339259342053529e+00 7.7274310988423067e-01 5.6162113327312522e+00 0 0 1
910 1 6.9139534875382873e+00 1.0567769006115322e+01 7.2909381375990128e+00 1 0 0
1824 1 8.9749889921459900e+00 4.0150605657841281e+00 1.0899352697843359e+01 1 1 0
3361 1 6.6975977886568199e+00 3.1697162960038257e+00 4.4849359070059052e+00 0 0 0
489 1 4.1877915082831692e+00 3.9659076908435265e+00 3.6911683170706393e+00 0 1 1
3512 1 8.4917656937969799e+00 3.4620579241929277e+00 2.5209678881267634e+00 0 1 0
2629 1 1.1976766825559022e+01 1.6961480456884999e+00 2.6267893404795251e+00 0 2 1
515 1 5.2703096065420718e+00 2.5222564667427305e-01 2.5958668293061238e+00 1 1 0
3380 1 9.3721199084951934e+00 1.0829548488573405e+01 4.9408972680318790e+00 1 0 0
2566 1 6.5258373264922209e+00 8.2049247374108436e+00 1.0588008910217697e+01 0 1 1
3770 1 3.0904218589580408e+00 7.8098145780119168e+00 3.9689417501011599e+00 -1 -1 0
2082 1 1.0605792476369608e+01 9.4177370238286873e+00 1.0231557676487554e+01 1 0 1
1852 1 5.1693344363788887e+00 1.1405711316000296e+01 9.3247303295229642e+00 1 0 0
11 1 2.9018625868195200e+00 2.6443639339991458e+00 1.0942455288538898e+01 0 1 0
538 1 2.6081522084989777e+00 1.0533775182065575e+00 6.4799015416028976e+00 1 0 0
432 1 1.0506088302383938e+01 5.6888628217799386e+00 4.0687380367759971e+00 0 0 1
975 1 7.8393923533903829e+00 9.0826943002445422e+00 3.5842703244503111e+00 1 1 0
4540 1 1.6731491757457684e+00 1.2219988548867445e+01 2.9633741167869796e+00 -1 0 0
115 1 1.1526807420550051e+01 4.1291189786695783e+00 6.6823826738924961e+00 0 -1 1
3056 1 8.3523235046579464e-02 1.0627547683073608e+01 4.9339055626493327e+00 2 0 1
2926 1 3.2285384690420660e+00 1.0002428270739532e+01 2.2123817023474182e+00 1 1 2
2102 1 9.6780306383842374e-01 9.1253337488762014e+00 6.9391610365135810e+00 1 1 0
2673 1 6.2412602149705798e-01 7.0846481289495253e+00 3.6367667842210336e+00 0 1 0
4595 1 5.4189002677647879e+00 1.0467439731644888e+01 4.1872613037844921e+00 0 0 1
140 1 2.5480860612452219e+00 1.0690196352767723e+01 8.7969279760049695e+00 1 0 1
151 1 8.8421160245611592e+00 7.5975316111557545e+00 5.7253516339429948e+00 1 0 1
4334 1 6.0856135977328689e+00 8.4414813466865635e-01 9.6447756428474314e+00 1 2 0
927 1 4.8524743532531938e+00 2.1098328572281377e+00 7.3130933940797851e+00 1 0 0
1010 1 1.0088218339427289e+01 2.4195176143504047e+00 4.7124982733623551e+00 -1 1 1
1000 1 2.1397176957016311e+00 3.7943880919220700e+00 5.6513128709663984e+00 0 0 1
4217 1 2.6878822322881835e+00 5.4904975440964261e+00 7.6767426905733878e+00 1 1 1
444 1 9.4060128628221022e+00 1.1056827171778751e+01 8.1928644099448835e+00 0 -1 1
152 1 6.2012738941626342e+00 7.8449244471530539e+00 7.7992916810279898e+00 1 0 1
184 1 4.7750791117036666e+00 3.8796609930873829e+00 9.3234617902022130e+00 0 1 0
2068 1 6.7661081369540552e+00 4.6291512587471413e+00 6.8462043170324112e+00 0 0 0
1831 1 9.8876761699455411e+00 6.5278842296135133e+00 8.1961972264052516e+00 0 1 0
1380 1 9.0834570627230384e+00 3.5699256063307079e+00 7.9579553314559810e+00 1 -1 1
1382 1 9.0597706768836854e+00 7.1277728650771799e+00 1.0881361085575092e+01 -1 0 0
169 1 3.4961987041308680e+00 8.0159503003987496e+00 6.7876980518550569e+00 0 0 1
3351 1 9.5878701505042638e+00 8.3486430251343957e-01 8.7163018681694648e+00 1 0 1
1045 1 1.2206932331490183e+01 1.1018428669090957e+01 3.8687406232881618e+00 0 1 -1
377 1 1.1988572575088931e+01 1.0045950278544186e+01 6.7771159156046323e+00 0 0 1
409 1 2.2272790493559130e-01 1.2885464389013346e+00 1.0673816127662597e+01 0 0 1
4529 1 9.5195285002846342e-01 3.9219593407413200e-01 2.2613368086817909e+00 0 0 1
372 1 3.7670708689859111e-02 1.5845327309078610e+00 4.8729267632120798e+00 1 1 1
364 1 7.6676094973522906e+00 6.1734398914035253e+00 2.4412437415701667e+00 0 2 0
4573 1 7.3229422410017033e+00 1.8189582042390955e+00 1.2022297001910214e+01 0 0 0
2654 1 9.3653177035774124e+00 2.4310217412239463e-01 1.1929907690611454e+01 0 1 0
174 1 5.0758438028159221e+00 4.6638979965692249e+00 1.3995132032344149e+01 0 0 1
2945 1 1.1972866336931325e+01 1.6404147060395968e+00 1.4595972772223991e+01 0 1 0
532 1 9.2022362703555842e+00 1.1351838588889166e+01 1.1808432185854542e+01 1 0 0
3454 1 3.8726122582276468e-01 1.2027728106116585e+01 1.4530203169668575e+01 1 0 0
3710 1 7.5285309301558838e+00 3.0122642594038291e+00 1.4724276233395143e+01 1 0 1
4630 1 9.7894350190970094e+00 1.0593690739261648e+01 1.4556040181393190e+01 1 1 1
285 2 9.8440000000000012e+00 8.5251540748539956e+00 1.6997672866996126e+01 0 0 0
286 2 1.1074500000000002e+01 9.2355835810918343e+00 1.6997672866996126e+01 0 0 0
2061 1 3.0584335819914804e-01 5.7023531078304135e+00 1.3799191870153235e+01 1 1 0
308 2 1.2304999999999998e+01 1.1366872099805333e+01 1.6997672866996126e+01 0 0 0
2919 1 3.5538762622881319e+00 2.2295838640565995e+00 1.3549830892085046e+01 0 0 1
2086 1 6.1514216189476993e+00 5.1503278574017921e+00 1.1522784604372692e+01 1 1 1
4580 1 2.7953706228877140e+00 6.5198188533115768e+00 1.4554491541715498e+01 1 1 1
262 2 8.6134999999999984e+00 9.2355835810918343e+00 1.6997672866996126e+01 0 0 0
3446 1 5.8857410108757300e+00 7.4479277131189301e+00 1.4601287494882962e+01 1 0 1
389 1 9.9821983312592799e+00 4.1716539732866940e+00 1.4490328946763794e+01 0 1 1
49 1 1.0728740602210699e+01 6.4437342065829855e+00 1.3481221418904651e+01 0 -1 -1
1326 1 8.7693656327550840e-01 2.7692075096937203e+00 1.4375916893206684e+01 1 0 0
4242 1 6.0181911566418247e+00 4.6657039123938937e-01 1.4750556314742392e+01 2 1 0
3740 1 6.3628377967098011e+00 1.0761498320051494e+01 1.1879489423830051e+01 0 0 0
1823 1 3.5826755519208042e+00 7.1007969534948723e+00 1.1707885202066258e+01 0 0 0
1284 1 1.1393439312553317e+01 2.8749646759930334e+00 1.1860475583174765e+01 0 1 1
908 1 5.0075340575218394e+00 1.0266677106997570e+01 1.4178261610374610e+01 0 0 1
2108 1 2.3920585842265152e+00 9.4174927261040846e+00 1.4352057516843539e+01 0 0 1
283 2 8.6134999999999984e+00 1.0656442593567498e+01 1.6997672866996126e+01 0 0 0
359 1 1.7491386580331001e+00 9.2903377637140565e+00 1.1175808526821985e+01 0 1 1
1775 1 8.7833151362393824e+00 8.1018216662364342e+00 1.4399833623283667e+01 -1 0 1
193 2 0.0000000000000000e+00 2.8417180249513345e+00 1.6997672866996126e+01 0 0 0
194 2 0.0000000000000000e+00 0.0000000000000000e+00 1.6997672866996126e+01 0 0 0
195 2 1.2305000000000001e+00 7.1042950623783474e-01 1.6997672866996126e+01 0 0 0
199 2 1.2305000000000001e+00 2.1312885187134998e+00 1.6997672866996126e+01 0 0 0
200 2 2.4610000000000003e+00 2.8417180249513345e+00 1.6997672866996126e+01 0 0 0
201 2 2.4610000000000003e+00 0.0000000000000000e+00 1.6997672866996126e+01 0 0 0
202 2 3.6915000000000004e+00 7.1042950623783474e-01 1.6997672866996126e+01 0 0 0
210 2 3.6914999999999996e+00 2.1312885187134998e+00 1.6997672866996126e+01 0 0 0
211 2 4.9220000000000006e+00 2.8417180249513332e+00 1.6997672866996126e+01 0 0 0
212 2 4.9220000000000006e+00 0.0000000000000000e+00 1.6997672866996126e+01 0 0 0
213 2 6.1524999999999999e+00 7.1042950623783407e-01 1.6997672866996126e+01 0 0 0
225 2 6.1524999999999999e+00 2.1312885187134989e+00 1.6997672866996126e+01 0 0 0
226 2 7.3829999999999991e+00 2.8417180249513345e+00 1.6997672866996126e+01 0 0 0
227 2 7.3829999999999991e+00 0.0000000000000000e+00 1.6997672866996126e+01 0 0 0
228 2 8.6134999999999984e+00 7.1042950623783407e-01 1.6997672866996126e+01 0 0 0
244 2 8.6134999999999984e+00 2.1312885187135002e+00 1.6997672866996126e+01 0 0 0
245 2 9.8440000000000012e+00 2.8417180249513332e+00 1.6997672866996126e+01 0 0 0
246 2 9.8440000000000012e+00 0.0000000000000000e+00 1.6997672866996126e+01 0 0 0
247 2 1.1074500000000002e+01 7.1042950623783330e-01 1.6997672866996126e+01 0 0 0
267 2 1.1074500000000002e+01 2.1312885187135002e+00 1.6997672866996126e+01 0 0 0
197 2 0.0000000000000000e+00 4.2625770374269996e+00 1.6997672866996126e+01 0 0 0
198 2 1.2305000000000001e+00 4.9730065436648339e+00 1.6997672866996126e+01 0 0 0
206 2 1.2305000000000001e+00 6.3938655561404980e+00 1.6997672866996126e+01 0 0 0
208 2 2.4610000000000003e+00 4.2625770374269996e+00 1.6997672866996126e+01 0 0 0
209 2 3.6914999999999996e+00 4.9730065436648339e+00 1.6997672866996126e+01 0 0 0
221 2 3.6914999999999996e+00 6.3938655561404980e+00 1.6997672866996126e+01 0 0 0
196 2 0.0000000000000000e+00 7.1042950623783341e+00 1.6997672866996126e+01 0 0 0
207 2 2.4610000000000003e+00 7.1042950623783341e+00 1.6997672866996126e+01 0 0 0
223 2 4.9220000000000006e+00 4.2625770374269978e+00 1.6997672866996126e+01 0 0 0
224 2 6.1524999999999999e+00 4.9730065436648339e+00 1.6997672866996126e+01 0 0 0
240 2 6.1524999999999999e+00 6.3938655561404980e+00 1.6997672866996126e+01 0 0 0
242 2 7.3829999999999991e+00 4.2625770374269996e+00 1.6997672866996126e+01 0 0 0
222 2 4.9220000000000006e+00 7.1042950623783341e+00 1.6997672866996126e+01 0 0 0
241 2 7.3830000000000009e+00 7.1042950623783341e+00 1.6997672866996126e+01 0 0 0
243 2 8.6135000000000002e+00 4.9730065436648339e+00 1.6997672866996126e+01 0 0 0
263 2 8.6135000000000002e+00 6.3938655561404980e+00 1.6997672866996126e+01 0 0 0
265 2 9.8440000000000012e+00 4.2625770374270004e+00 1.6997672866996126e+01 0 0 0
266 2 1.1074500000000002e+01 4.9730065436648339e+00 1.6997672866996126e+01 0 0 0
287 2 1.1074500000000002e+01 6.3938655561404980e+00 1.6997672866996126e+01 0 0 0
264 2 9.8440000000000012e+00 7.1042950623783341e+00 1.6997672866996126e+01 0 0 0
204 2 0.0000000000000000e+00 8.5251540748539991e+00 1.6997672866996126e+01 0 0 0
205 2 1.2305000000000001e+00 9.2355835810918343e+00 1.6997672866996126e+01 0 0 0
219 2 2.4610000000000003e+00 8.5251540748539991e+00 1.6997672866996126e+01 0 0 0
220 2 3.6915000000000004e+00 9.2355835810918343e+00 1.6997672866996126e+01 0 0 0
203 2 0.0000000000000000e+00 1.1366872099805333e+01 1.6997672866996126e+01 0 0 0
217 2 1.2305000000000001e+00 1.0656442593567498e+01 1.6997672866996126e+01 0 0 0
218 2 2.4610000000000003e+00 1.1366872099805333e+01 1.6997672866996126e+01 0 0 0
236 2 3.6914999999999996e+00 1.0656442593567499e+01 1.6997672866996126e+01 0 0 0
238 2 4.9220000000000006e+00 8.5251540748539991e+00 1.6997672866996126e+01 0 0 0
260 2 7.3829999999999991e+00 1.1366872099805333e+01 1.6997672866996126e+01 0 0 0
239 2 6.1524999999999999e+00 9.2355835810918343e+00 1.6997672866996126e+01 0 0 0
261 2 7.3830000000000009e+00 8.5251540748539991e+00 1.6997672866996126e+01 0 0 0
237 2 4.9220000000000006e+00 1.1366872099805333e+01 1.6997672866996126e+01 0 0 0
259 2 6.1524999999999999e+00 1.0656442593567499e+01 1.6997672866996126e+01 0 0 0
307 2 1.1074500000000002e+01 1.0656442593567498e+01 1.6997672866996126e+01 0 0 0
284 2 9.8440000000000012e+00 1.1366872099805333e+01 1.6997672866996126e+01 0 0 0
491 1 1.5782918326710698e+00 5.1598895974581973e+00 1.1244101380217783e+01 0 1 1
3445 1 1.8739923912685543e+00 1.2154790000546623e+01 1.1699009954507552e+01 0 -1 0
1779 1 1.2286092340505247e+01 9.2641474031032262e-02 1.1366153322548971e+01 1 1 1
549 2 0.0000000000000000e+00 1.4208590124756650e+00 2.0028008468589626e+01 0 0 0
550 2 0.0000000000000000e+00 0.0000000000000000e+00 2.0028008468589626e+01 0 0 0
554 2 1.2305000000000001e+00 2.1312885187134998e+00 2.0028008468589626e+01 0 0 0
555 2 2.4610000000000003e+00 1.4208590124756650e+00 2.0028008468589626e+01 0 0 0
556 2 2.4610000000000003e+00 0.0000000000000000e+00 2.0028008468589626e+01 0 0 0
564 2 3.6914999999999996e+00 2.1312885187134998e+00 2.0028008468589626e+01 0 0 0
710 2 0.0000000000000000e+00 2.8417180249513345e+00 2.3058344070185154e+01 0 0 0
711 2 0.0000000000000000e+00 0.0000000000000000e+00 2.3058344070185154e+01 0 0 0
712 2 1.2305000000000001e+00 7.1042950623783474e-01 2.3058344070185154e+01 0 0 0
716 2 1.2305000000000001e+00 2.1312885187134998e+00 2.3058344070185154e+01 0 0 0
717 2 2.4610000000000003e+00 2.8417180249513345e+00 2.3058344070185154e+01 0 0 0
718 2 2.4610000000000003e+00 0.0000000000000000e+00 2.3058344070185154e+01 0 0 0
719 2 3.6915000000000004e+00 7.1042950623783474e-01 2.3058344070185154e+01 0 0 0
727 2 3.6914999999999996e+00 2.1312885187134998e+00 2.3058344070185154e+01 0 0 0
553 2 1.2305000000000001e+00 3.5521475311891644e+00 2.0028008468589626e+01 0 0 0
563 2 3.6914999999999996e+00 3.5521475311891644e+00 2.0028008468589626e+01 0 0 0
565 2 4.9220000000000006e+00 1.4208590124756650e+00 2.0028008468589626e+01 0 0 0
566 2 4.9220000000000006e+00 0.0000000000000000e+00 2.0028008468589626e+01 0 0 0
578 2 6.1524999999999999e+00 2.1312885187134989e+00 2.0028008468589626e+01 0 0 0
579 2 7.3829999999999991e+00 1.4208590124756659e+00 2.0028008468589626e+01 0 0 0
580 2 7.3829999999999991e+00 0.0000000000000000e+00 2.0028008468589626e+01 0 0 0
728 2 4.9220000000000006e+00 2.8417180249513332e+00 2.3058344070185154e+01 0 0 0
729 2 4.9220000000000006e+00 0.0000000000000000e+00 2.3058344070185154e+01 0 0 0
730 2 6.1524999999999999e+00 7.1042950623783407e-01 2.3058344070185154e+01 0 0 0
742 2 6.1524999999999999e+00 2.1312885187134989e+00 2.3058344070185154e+01 0 0 0
743 2 7.3829999999999991e+00 2.8417180249513345e+00 2.3058344070185154e+01 0 0 0
744 2 7.3829999999999991e+00 0.0000000000000000e+00 2.3058344070185154e+01 0 0 0
577 2 6.1524999999999999e+00 3.5521475311891644e+00 2.0028008468589626e+01 0 0 0
596 2 8.6134999999999984e+00 2.1312885187135002e+00 2.0028008468589626e+01 0 0 0
597 2 9.8440000000000012e+00 1.4208590124756659e+00 2.0028008468589626e+01 0 0 0
598 2 9.8440000000000012e+00 0.0000000000000000e+00 2.0028008468589626e+01 0 0 0
618 2 1.1074500000000002e+01 2.1312885187135002e+00 2.0028008468589626e+01 0 0 0
745 2 8.6134999999999984e+00 7.1042950623783407e-01 2.3058344070185154e+01 0 0 0
761 2 8.6134999999999984e+00 2.1312885187135002e+00 2.3058344070185154e+01 0 0 0
762 2 9.8440000000000012e+00 2.8417180249513332e+00 2.3058344070185154e+01 0 0 0
763 2 9.8440000000000012e+00 0.0000000000000000e+00 2.3058344070185154e+01 0 0 0
764 2 1.1074500000000002e+01 7.1042950623783330e-01 2.3058344070185154e+01 0 0 0
784 2 1.1074500000000002e+01 2.1312885187135002e+00 2.3058344070185154e+01 0 0 0
595 2 8.6134999999999984e+00 3.5521475311891657e+00 2.0028008468589626e+01 0 0 0
617 2 1.1074500000000002e+01 3.5521475311891644e+00 2.0028008468589626e+01 0 0 0
551 2 0.0000000000000000e+00 5.6834360499026637e+00 2.0028008468589626e+01 0 0 0
552 2 0.0000000000000000e+00 4.2625770374269996e+00 2.0028008468589626e+01 0 0 0
560 2 1.2305000000000001e+00 6.3938655561404980e+00 2.0028008468589626e+01 0 0 0
561 2 2.4610000000000003e+00 5.6834360499026637e+00 2.0028008468589626e+01 0 0 0
562 2 2.4610000000000003e+00 4.2625770374269996e+00 2.0028008468589626e+01 0 0 0
574 2 3.6914999999999996e+00 6.3938655561404980e+00 2.0028008468589626e+01 0 0 0
714 2 0.0000000000000000e+00 4.2625770374269996e+00 2.3058344070185154e+01 0 0 0
715 2 1.2305000000000001e+00 4.9730065436648339e+00 2.3058344070185154e+01 0 0 0
723 2 1.2305000000000001e+00 6.3938655561404980e+00 2.3058344070185154e+01 0 0 0
725 2 2.4610000000000003e+00 4.2625770374269996e+00 2.3058344070185154e+01 0 0 0
726 2 3.6914999999999996e+00 4.9730065436648339e+00 2.3058344070185154e+01 0 0 0
738 2 3.6914999999999996e+00 6.3938655561404980e+00 2.3058344070185154e+01 0 0 0
559 2 1.2305000000000001e+00 7.8147245686161639e+00 2.0028008468589626e+01 0 0 0
573 2 3.6914999999999996e+00 7.8147245686161639e+00 2.0028008468589626e+01 0 0 0
713 2 0.0000000000000000e+00 7.1042950623783341e+00 2.3058344070185154e+01 0 0 0
724 2 2.4610000000000003e+00 7.1042950623783341e+00 2.3058344070185154e+01 0 0 0
575 2 4.9220000000000006e+00 5.6834360499026637e+00 2.0028008468589626e+01 0 0 0
576 2 4.9220000000000006e+00 4.2625770374269978e+00 2.0028008468589626e+01 0 0 0
592 2 6.1524999999999999e+00 6.3938655561404980e+00 2.0028008468589626e+01 0 0 0
593 2 7.3829999999999991e+00 5.6834360499026637e+00 2.0028008468589626e+01 0 0 0
594 2 7.3829999999999991e+00 4.2625770374269996e+00 2.0028008468589626e+01 0 0 0
740 2 4.9220000000000006e+00 4.2625770374269978e+00 2.3058344070185154e+01 0 0 0
741 2 6.1524999999999999e+00 4.9730065436648339e+00 2.3058344070185154e+01 0 0 0
757 2 6.1524999999999999e+00 6.3938655561404980e+00 2.3058344070185154e+01 0 0 0
759 2 7.3829999999999991e+00 4.2625770374269996e+00 2.3058344070185154e+01 0 0 0
591 2 6.1524999999999999e+00 7.8147245686161639e+00 2.0028008468589626e+01 0 0 0
739 2 4.9220000000000006e+00 7.1042950623783341e+00 2.3058344070185154e+01 0 0 0
758 2 7.3830000000000009e+00 7.1042950623783341e+00 2.3058344070185154e+01 0 0 0
614 2 8.6135000000000002e+00 6.3938655561404980e+00 2.0028008468589626e+01 0 0 0
615 2 9.8440000000000012e+00 5.6834360499026637e+00 2.0028008468589626e+01 0 0 0
616 2 9.8440000000000012e+00 4.2625770374270004e+00 2.0028008468589626e+01 0 0 0
637 2 1.1074500000000002e+01 6.3938655561404980e+00 2.0028008468589626e+01 0 0 0
760 2 8.6135000000000002e+00 4.9730065436648339e+00 2.3058344070185154e+01 0 0 0
780 2 8.6135000000000002e+00 6.3938655561404980e+00 2.3058344070185154e+01 0 0 0
782 2 9.8440000000000012e+00 4.2625770374270004e+00 2.3058344070185154e+01 0 0 0
783 2 1.1074500000000002e+01 4.9730065436648339e+00 2.3058344070185154e+01 0 0 0
804 2 1.1074500000000002e+01 6.3938655561404980e+00 2.3058344070185154e+01 0 0 0
613 2 8.6135000000000002e+00 7.8147245686161639e+00 2.0028008468589626e+01 0 0 0
636 2 1.1074500000000002e+01 7.8147245686161639e+00 2.0028008468589626e+01 0 0 0
781 2 9.8440000000000012e+00 7.1042950623783341e+00 2.3058344070185154e+01 0 0 0
557 2 0.0000000000000000e+00 9.9460130873296642e+00 2.0028008468589626e+01 0 0 0
558 2 0.0000000000000000e+00 8.5251540748539991e+00 2.0028008468589626e+01 0 0 0
571 2 2.4610000000000003e+00 9.9460130873296642e+00 2.0028008468589626e+01 0 0 0
572 2 2.4610000000000003e+00 8.5251540748539991e+00 2.0028008468589626e+01 0 0 0
721 2 0.0000000000000000e+00 8.5251540748539991e+00 2.3058344070185154e+01 0 0 0
722 2 1.2305000000000001e+00 9.2355835810918343e+00 2.3058344070185154e+01 0 0 0
736 2 2.4610000000000003e+00 8.5251540748539991e+00 2.3058344070185154e+01 0 0 0
737 2 3.6915000000000004e+00 9.2355835810918343e+00 2.3058344070185154e+01 0 0 0
569 2 1.2305000000000001e+00 1.2077301606043163e+01 2.0028008468589626e+01 0 0 0
570 2 1.2305000000000001e+00 1.0656442593567498e+01 2.0028008468589626e+01 0 0 0
587 2 3.6914999999999996e+00 1.2077301606043163e+01 2.0028008468589626e+01 0 0 0
588 2 3.6914999999999996e+00 1.0656442593567499e+01 2.0028008468589626e+01 0 0 0
720 2 0.0000000000000000e+00 1.1366872099805333e+01 2.3058344070185154e+01 0 0 0
734 2 1.2305000000000001e+00 1.0656442593567498e+01 2.3058344070185154e+01 0 0 0
735 2 2.4610000000000003e+00 1.1366872099805333e+01 2.3058344070185154e+01 0 0 0
753 2 3.6914999999999996e+00 1.0656442593567499e+01 2.3058344070185154e+01 0 0 0
589 2 4.9220000000000006e+00 9.9460130873296642e+00 2.0028008468589626e+01 0 0 0
590 2 4.9220000000000006e+00 8.5251540748539991e+00 2.0028008468589626e+01 0 0 0
611 2 7.3830000000000009e+00 9.9460130873296642e+00 2.0028008468589626e+01 0 0 0
612 2 7.3830000000000009e+00 8.5251540748539991e+00 2.0028008468589626e+01 0 0 0
755 2 4.9220000000000006e+00 8.5251540748539991e+00 2.3058344070185154e+01 0 0 0
756 2 6.1524999999999999e+00 9.2355835810918343e+00 2.3058344070185154e+01 0 0 0
778 2 7.3830000000000009e+00 8.5251540748539991e+00 2.3058344070185154e+01 0 0 0
609 2 6.1524999999999999e+00 1.2077301606043163e+01 2.0028008468589626e+01 0 0 0
610 2 6.1524999999999999e+00 1.0656442593567499e+01 2.0028008468589626e+01 0 0 0
754 2 4.9220000000000006e+00 1.1366872099805333e+01 2.3058344070185154e+01 0 0 0
776 2 6.1524999999999999e+00 1.0656442593567499e+01 2.3058344070185154e+01 0 0 0
777 2 7.3829999999999991e+00 1.1366872099805333e+01 2.3058344070185154e+01 0 0 0
634 2 9.8440000000000012e+00 9.9460130873296642e+00 2.0028008468589626e+01 0 0 0
635 2 9.8440000000000012e+00 8.5251540748539956e+00 2.0028008468589626e+01 0 0 0
779 2 8.6134999999999984e+00 9.2355835810918343e+00 2.3058344070185154e+01 0 0 0
802 2 9.8440000000000012e+00 8.5251540748539956e+00 2.3058344070185154e+01 0 0 0
803 2 1.1074500000000002e+01 9.2355835810918343e+00 2.3058344070185154e+01 0 0 0
632 2 8.6135000000000002e+00 1.2077301606043163e+01 2.0028008468589626e+01 0 0 0
633 2 8.6134999999999984e+00 1.0656442593567498e+01 2.0028008468589626e+01 0 0 0
655 2 1.1074500000000002e+01 1.2077301606043163e+01 2.0028008468589626e+01 0 0 0
656 2 1.1074500000000002e+01 1.0656442593567498e+01 2.0028008468589626e+01 0 0 0
800 2 8.6134999999999984e+00 1.0656442593567498e+01 2.3058344070185154e+01 0 0 0
801 2 9.8440000000000012e+00 1.1366872099805333e+01 2.3058344070185154e+01 0 0 0
824 2 1.1074500000000002e+01 1.0656442593567498e+01 2.3058344070185154e+01 0 0 0
825 2 1.2304999999999998e+01 1.1366872099805333e+01 2.3058344070185154e+01 0 0 0
1835 1 2.7056406543520652e+00 4.9836741521853805e+00 2.5884024681409031e+01 0 0 -1
2981 1 9.4702009600607830e+00 2.1164156140557759e+00 2.5934882042056781e+01 0 1 0
479 1 1.0969018302756302e+00 2.8693382477247287e+00 2.5869437613955551e+01 1 0 0
4246 1 5.5833731990770774e+00 3.9419082398803922e+00 2.5903178149130920e+01 1 0 0
936 1 1.3604443950370637e-02 1.1028822000373664e+01 2.8686042416046281e+01 2 0 -1
8 1 6.4968347023242679e+00 1.1417132581273703e+00 2.5814808313164630e+01 -1 1 -2
2173 1 1.1301107226556860e+01 4.4480468911032602e+00 2.5732482963384150e+01 0 1 -1
3461 1 3.7420658255083572e-01 7.2350535484749772e+00 2.5896734309614285e+01 1 0 -1
2221 1 4.0408734288559875e+00 7.8593633469285002e+00 2.5596817703056658e+01 -1 0 -1
2684 1 1.2285396484264298e+01 1.0330659125923603e+01 2.5103229692161630e+01 0 0 -1
4523 1 4.8166422471948636e+00 8.7413931896656383e+00 2.8353069770340422e+01 1 0 -1
2692 1 6.4758659699755849e+00 6.4106878760514121e+00 2.5283913054160145e+01 -1 0 -1
1379 1 1.0062062504002453e+01 9.3812555119919683e+00 2.8517324833364153e+01 1 -1 0
4315 1 9.6892867048315079e+00 9.5820275138989111e+00 2.5878698942371038e+01 0 0 -1
1849 1 9.3552864705052805e+00 6.8214825747798331e+00 2.5276677531928332e+01 0 0 0
913 1 8.9203119915915554e+00 5.9104992395210498e+00 2.8096660495354392e+01 0 1 -1
1226 1 1.8078617883998296e+00 7.2152302825249146e+00 2.8387074682789137e+01 1 0 -1
167 1 4.3957149315709225e+00 1.0765269192291205e+01 2.5630115682351970e+01 0 1 -1
883 1 6.8313307343172571e+00 1.1014385306758605e+01 2.8771887194192733e+01 -1 1 -1
3836 1 7.0466856557367024e+00 1.1092369516461689e+01 2.6005194346751054e+01 0 0 0
993 1 9.4054947921937195e+00 2.6175648532191218e+00 2.8691004932309809e+01 1 0 0
28 1 6.5732482669750185e+00 1.5602285890723746e+00 2.8542670423068472e+01 0 -1 -1
3753 1 1.2046562715380839e+01 7.3999398207405216e+00 2.7977840094524083e+01 1 0 0
885 1 1.1561464358934350e+01 4.8828532202009116e+00 2.8445005201620774e+01 0 0 -1
1221 1 1.0608464485020743e+01 1.3174993744479480e-01 2.8423294269061927e+01 0 0 0
3367 1 3.3058501892100924e+00 4.7177138583806881e+00 2.8878829409832310e+01 1 1 0
434 1 3.4212349336626460e+00 1.8337600580338871e+00 3.2406169095640159e+01 0 1 0
3395 1 1.7809680627658531e+00 2.4128678819873586e+00 2.9905811532329654e+01 0 0 1
544 1 1.1330895234786219e+01 8.1480138051050393e+00 3.5632004141164892e+01 1 0 -1
932 1 1.0083609812717986e+01 2.0674438395807129e+00 3.5830986606080508e+01 0 1 -1
4600 1 1.0305258101595076e+01 1.2226925447274970e+01 3.7012908136175952e+01 0 0 -1
3772 1 7.7280153080954426e+00 1.8479250871785482e+00 3.2351311326593475e+01 0 1 0
4547 1 1.0192178833180268e+01 8.8948199926927607e-01 3.3193226296868602e+01 1 1 -1
2711 1 1.1299175662924938e+01 2.1770027750310277e+00 3.0865099787369772e+01 0 1 -1
3500 1 2.5680302173304619e+00 4.5122212905035726e+00 3.2895572697241704e+01 -1 1 -1
4634 1 2.6564926741761035e+00 1.0899622952375758e+01 3.2763547496541364e+01 1 1 0
2048 1 8.3746062125512033e+00 4.4280449481331905e+00 3.1245448266374449e+01 1 1 0
3822 1 5.8564333786186786e+00 7.1596526287302149e+00 3.0230022568279320e+01 0 0 -1
2589 1 5.6792994647750508e+00 7.0198128122367487e-01 3.1160268759607625e+01 0 0 0
1031 1 2.4231472013443236e+00 9.6567400231516629e+00 2.9574078636529350e+01 0 0 -1
2935 1 2.0038877045073438e+00 8.2787872677384406e+00 3.2507227363663063e+01 1 2 -1
2999 1 1.0354930497327515e-01 1.1624258145770799e+01 3.3883708642275209e+01 1 -1 0
1287 1 1.2249673129108116e+01 5.8353310239569662e+00 3.7392630193418547e+01 0 0 0
4271 1 7.2759443458090942e+00 9.9269353153920488e+00 3.1629720789333955e+01 0 1 -1
4619 1 8.5712853971267560e+00 7.7191371093739347e+00 3.0744738099656217e+01 0 0 0
2646 1 8.8542924389653326e+00 9.2829762215856242e+00 3.6921080760572330e+01 1 0 0
4226 1 4.1948775964499774e+00 1.2358722712338277e+00 3.5076370034684963e+01 0 0 -1
419 1 7.1955972901188510e+00 1.3290479475342629e+00 3.6815627057495973e+01 1 1 0
545 1 6.5867123206864102e+00 2.8242227226240399e+00 3.4726171750232375e+01 1 1 0
3007 1 9.3985587289571484e+00 1.1182460731949828e+01 3.2771192210548534e+01 1 1 -1
2091 1 1.7574947572371482e+00 4.2323319876414036e+00 3.5680863460343772e+01 1 0 0
465 1 4.4803849710632413e+00 6.4500050401361859e+00 3.2755117344572980e+01 0 1 0
355 1 7.8612631189845361e+00 7.0905091845644233e+00 3.5164367728707802e+01 0 0 0
3751 1 5.7354089186774591e+00 5.5837481696458759e+00 3.5129342913838315e+01 2 1 0
2888 1 7.9307945068434869e+00 1.1339678546400972e+01 3.5059070200115428e+01 0 -1 -1
1268 1 9.8710019969392047e+00 6.3238820950333920e+00 3.3344736069492534e+01 -1 0 0
4593 1 1.1262891565668454e+01 4.4681215254657056e+00 3.4996434207476220e+01 0 0 -1
429 1 9.4336267554802244e-01 6.8533685478910273e+00 3.6490484587643138e+01 0 1 0
4238 1 2.9267053845973661e+00 7.8945730480034682e+00 3.5378219534557587e+01 -1 0 -1
3808 1 3.9826849404079172e+00 1.0660783436160651e+01 3.5268351719844887e+01 0 0 0
1771 1 6.3459732379890461e+00 9.2041320537379541e+00 3.4069441984094993e+01 1 0 -1
2126 1 1.1097692165354543e+01 8.9874507335985125e+00 3.3132067819630421e+01 0 0 0
2602 1 1.1800940908696781e+01 4.2122035501497015e+00 3.1980371330742312e+01 0 1 -1
2586 1 2.6721690240439216e-01 5.8342769253633060e+00 3.2208454780018513e+01 1 0 -1
50 1 3.3645773546510376e+00 2.1833364099468557e+00 3.7423539887676071e+01 1 -1 0
1761 1 4.5929371187808652e+00 6.3097084989201058e+00 3.7813940016000103e+01 1 2 -1
3698 1 6.3268252004494903e+00 4.7138442736073367e+00 2.9036347739514241e+01 0 1 -1
1249 1 3.2931825156069343e+00 1.4718752765058166e+01 3.3955440888669584e+00 2 0 1
133 1 4.3488042976033476e+00 2.1585413036257854e+01 3.3854932099500461e+00 0 0 0
1861 1 6.1415036274014554e+00 1.7448252729969418e+01 5.9918651682615662e+00 0 0 1
1772 1 3.2565977802206070e+00 1.4081159192722470e+01 6.2455336227850635e+00 2 -1 1
417 1 5.5646064738597527e+00 1.4050134312465554e+01 9.4244412790442240e+00 1 0 0
1038 1 3.8727775708841481e+00 2.3895654370318876e+01 5.0047500667973104e+00 -1 0 0
1829 1 1.1912127962431194e+01 1.5117243827671713e+01 9.3838928695502730e+00 0 1 0
1215 1 8.4860063583024719e+00 1.6328847180039691e+01 7.3155176623927725e+00 1 1 0
4567 1 1.9777802360221222e+00 1.7012929550246017e+01 3.5335323397477700e+00 1 0 0
2114 1 1.4385966494404285e+00 2.3762146480628090e+01 9.0303720120488258e+00 0 -1 0
4621 1 7.4860222259670026e+00 1.9857218728367577e+01 6.2170271973496707e+00 1 1 0
2879 1 9.6334901198348959e+00 1.6146099320909702e+01 4.4628685122362644e+00 1 0 1
4663 1 1.0414543878886519e-01 2.3450906320834235e+01 2.8151049178253484e+00 0 1 1
1312 1 6.0343821249380749e+00 1.4181405167206263e+01 2.5428076477501724e+00 0 -1 1
1367 1 8.4844827474580764e-01 2.0584089314031431e+01 3.3563808539577384e+00 1 0 1
4214 1 5.0387367202226496e+00 1.7286940887505200e+01 3.3731890742042414e+00 2 0 1
2065 1 7.0339007561119402e+00 1.2571565703107719e+01 4.5562279575936007e+00 0 0 1
59 1 3.7805160105259348e+00 2.2681665446004899e+01 7.7606158304206092e+00 0 0 0
974 1 4.7184511721958193e+00 2.0438841437270359e+01 6.1366297067635340e+00 0 1 1
471 1 1.0265008689673945e+01 2.0509645294203626e+01 5.5666632559806875e+00 0 0 0
4582 1 7.2147356848149551e+00 2.1294061584473887e+01 3.2135800676736030e+00 1 1 1
4524 1 8.3160961886116898e+00 2.3956573076103780e+01 2.9894433189173868e+00 0 0 1
2111 1 1.0506497584336284e+01 2.0624456643639210e+01 2.7900519551404366e+00 -1 -1 1
3484 1 9.8838892129393976e+00 2.2708725201870131e+01 7.3439555456250982e+00 0 0 1
2571 1 7.3122656623754727e+00 2.2172373820121386e+01 8.2995611983685151e+00 1 -1 0
392 1 9.2101496237299294e+00 1.3952204061619607e+01 8.7680802315098703e+00 -1 0 0
3736 1 9.7839289238355356e+00 1.3528881983237858e+01 3.6592062567233241e+00 1 1 0
3725 1 2.6349567784929033e+00 1.8560343169414072e+01 6.0981434461469703e+00 0 0 0
3794 1 1.0643044184457890e+00 1.5989227851746000e+01 8.9208647183031200e+00 1 0 1
447 1 1.3973394890902280e+00 1.3064625346334003e+01 7.9990938525053634e+00 1 1 1
4230 1 6.2724144450172412e+00 1.3944084982792070e+01 6.7036930483227612e+00 1 1 1
2996 1 4.0580021820818342e+00 1.6557683442729743e+01 7.5799627459391576e+00 0 0 1
1715 1 1.0899269527220056e+01 1.7920524209049852e+01 8.8289088402990128e+00 1 0 0
2157 1 3.1516482642788728e+00 1.8137915443656262e+01 9.7801952109505379e+00 -1 0 0
4261 1 8.3216436588250375e-01 1.9356131321106922e+01 8.2881226179552385e+00 1 -1 1
1208 1 8.0184030947388596e+00 1.8919564359578029e+01 8.7878197299431626e+00 1 1 0
4694 1 5.8930462055544330e+00 1.9184702094132906e+01 1.0706632746863090e+01 0 0 2
2110 1 7.7687074319168747e+00 1.6348021032467070e+01 2.4068341997245342e+00 2 1 0
3786 1 1.2214535023603588e+01 2.2313583372261952e+01 8.8464570268398344e+00 1 0 1
3506 1 4.4672675036167675e-02 2.1160997844445788e+01 6.0847085307056714e+00 1 0 0
361 1 9.4927416455353553e-01 2.1775057433913616e+01 1.1671164443816762e+01 1 1 0
967 1 9.4226524669546041e+00 2.3800544038120059e+01 1.4057318357222318e+01 -1 1 0