LAMMPS data file via write_data, version 16 Mar 2018, timestep = 8000000

4990 atoms
2 atom types

0.0000000000000000e+00 4.9219999999999999e+01 xlo xhi
0.0000000000000000e+00 4.9019635930410494e+01 ylo yhi
1.2611858886539657e+00 3.8738814111353179e+01 zlo zhi

Masses

1 18.015
2 12.01

Atoms # atomic

4207 1 4.3511528880331580e+00 2.2222539717330911e+00 3.5049314597518983e+00 0 2 1
4363 1 6.8437497072637381e+00 2.4226512175032013e+00 2.7563718076706092e+00 4 -1 0
3422 1 8.0213799080947101e+00 5.4942591960845277e-02 3.7169590244994231e+00 -2 0 0
1239 1 1.0642487477620181e+01 1.4425617332767357e-01 2.8764435194044751e+00 1 1 0
4615 1 1.2293920027947461e+01 2.2640567177523958e+00 3.4739460877235229e+00 1 -2 1
1845 1 7.6196099176869536e-01 4.2182395173676150e+00 3.3523465637842054e+00 -6 3 0
1232 1 3.2192046262210101e+00 4.5642711827721865e+00 2.1909350477310943e+00 -1 1 0
1739 1 4.7633226403109070e+00 6.6011874071693910e+00 3.1926416631975187e+00 1 -1 0
186 1 7.3177090688915181e+00 7.0529438467484393e+00 2.5488817931264052e+00 2 0 1
891 1 4.6547419992214127e+00 6.7566407546344127e+00 5.8877670600420666e+00 -2 -1 0
4688 1 8.2757992443202184e+00 4.6717816236318246e+00 3.4424602546349270e+00 2 4 0
3 1 1.0778568104162714e+01 4.6061337949459142e+00 2.7432368581094391e+00 1 1 0
2207 1 1.2203407639724448e+01 6.7172592425695150e+00 3.5871798553621184e+00 -3 1 1
2962 1 8.0001447773594414e-01 8.7367059440618640e+00 2.9886047407685155e+00 -1 -3 1
3761 1 3.3813490058158839e+00 8.9422809105597754e+00 2.0778908737397437e+00 1 3 0
2667 1 6.8372635118751990e-01 8.6779991161144512e+00 5.8225691215426219e+00 1 -2 0
3016 1 4.7541633657175311e+00 1.1139079333710542e+01 3.4352658586024436e+00 -1 -4 1
1309 1 7.2384797161826864e+00 1.1288011601234723e+01 2.4858936702447982e+00 1 -4 1
1339 1 8.2656019069199012e+00 9.1392336689792408e+00 3.3893209086111229e+00 -4 -2 0
4299 1 1.0925429984429817e+01 8.8066888394882152e+00 2.7332008801163639e+00 -1 3 0
2160 1 1.2292880147181828e+01 1.1036201554026331e+01 3.6951468791740756e+00 -3 -2 0
510 1 4.3207017709915441e+00 2.5245923135629833e+00 6.3978175404166713e+00 0 2 1
2571 1 7.1535668316210739e+00 2.5200067565941913e+00 1.0148755977299922e+01 1 1 0
349 1 6.9936435216260326e+00 2.6397690367713142e+00 7.3696321990681817e+00 4 -4 1
353 1 8.4495461058405841e+00 3.0522912976255068e-01 6.6070182991597166e+00 0 -3 1
1785 1 1.1158786101464532e+01 2.5571997102849725e-01 1.0016990438992497e+01 -1 -1 0
1294 1 5.5439856733095882e-01 4.5144507355277010e+00 6.0470341987076592e+00 2 -3 1
3419 1 3.0787217760265833e+00 4.3707230201289793e+00 9.6578934509787846e+00 2 1 1
4644 1 3.0869816813679911e+00 4.9051819789618065e+00 6.9894308765676900e+00 1 0 1
1828 1 6.8137340218306672e+00 6.6735258878254458e+00 9.6865195362872090e+00 1 3 1
2945 1 7.2189898909542185e+00 6.8580768355551109e+00 6.9636052949496632e+00 -1 2 0
152 1 8.5594722188166532e+00 4.6409856842750870e+00 6.2163370056990246e+00 4 1 1
2086 1 1.1157775169466394e+01 4.6118533995337065e+00 7.4180125593638788e+00 2 1 1
1865 1 1.0768726281513780e+01 4.7881220665026163e+00 1.0009073561182223e+01 5 6 0
1008 1 1.2220563326422523e+01 6.9722768710162804e+00 6.2718955472527282e+00 3 1 1
2992 1 3.1272046806410816e+00 8.7122739040135819e+00 9.6783630865557395e+00 1 -1 0
1813 1 3.3793338409785552e+00 8.9266576777819786e+00 6.9603582215675370e+00 2 3 0
27 1 5.4208713802321129e-01 8.7541650410225618e+00 1.0434612623079508e+01 -1 2 1
3859 1 6.8079477953885634e+00 1.0845386041474303e+01 9.7707658965337458e+00 -2 -1 0
1762 1 4.4328483876498650e+00 1.1160508898431804e+01 6.2602147383128024e+00 3 -3 1
437 1 7.0040683540221762e+00 1.1517351505445220e+01 7.0985682821985154e+00 -1 -1 0
4190 1 1.0636178664833183e+01 9.0081042699434661e+00 7.2360450131970486e+00 -2 3 0
1763 1 8.2716885452690452e+00 9.0876390020148303e+00 5.9864632470718409e+00 3 -1 0
191 1 1.0859379512837638e+01 9.0334644058957956e+00 9.8554546377199941e+00 -6 -1 0
529 1 1.2252193726254420e+01 1.1143536530917119e+01 6.3840672427684453e+00 -3 1 1
2891 1 9.0462733379451532e-01 4.0773125424560366e+00 1.1115364406269927e+01 1 4 1
4563 1 4.7457362886105718e+00 1.9550954801263138e+00 1.3680468881681412e+01 2 4 0
2927 1 7.1364169353941680e+00 2.3680875652407134e+00 1.4474423338064138e+01 1 2 1
3028 1 4.4158831745405216e+00 2.0712780336878960e+00 1.0841563585291979e+01 0 2 1
1240 1 1.2163535714629864e+01 2.5503399566925906e+00 1.0891218256666754e+01 4 -2 1
982 1 1.2157368369919574e+01 2.4833748230599415e+00 1.3665003805555974e+01 2 -2 0
2068 1 8.2489104811853853e+00 9.7181224735404526e-03 1.3575780357027625e+01 2 3 0
1756 1 1.0930357454309755e+01 9.4519113833172241e-02 1.4454942358607068e+01 0 2 0
477 1 8.5182643207020394e+00 1.1919408330431884e-01 1.0696994338507025e+01 -2 4 1
4203 1 7.1898355268561542e-01 4.4055008339730097e+00 1.4076159167762249e+01 4 -2 0
940 1 3.6742756952256475e+00 4.2727253162109928e+00 1.4414513527918126e+01 2 2 0
4607 1 4.5258757080941914e+00 6.7012151342645971e+00 1.3566410477271990e+01 2 1 1
3863 1 6.9459716483299649e+00 6.8914418876396075e+00 1.4730446204019524e+01 2 5 0
3435 1 8.1864751837862819e+00 4.7699067736530640e+00 1.3888756436850789e+01 0 1 0
4616 1 4.2216379711603018e+00 6.5096286065040809e+00 1.0670272604647087e+01 -4 3 0
1754 1 1.0905252429505891e+01 4.9034101519659563e+00 1.4474713324529565e+01 -2 -1 1
1738 1 8.2558889223913940e+00 4.7300125422035340e+00 1.1180015192245985e+01 -1 3 1
2884 1 1.2161417355302182e+01 6.9571312349638541e+00 1.0857743595449646e+01 -3 -1 1
3449 1 3.7709220612469674e-01 8.6623081475694903e+00 1.3122458551258266e+01 3 0 0
1875 1 2.9746352299760077e+00 8.6063344426678547e+00 1.4328990450399816e+01 -2 0 1
4679 1 4.3304184782742459e+00 1.0787733668426311e+01 1.0918734002859985e+01 -3 5 1
4532 1 4.2542504677771484e+00 1.0925714562108823e+01 1.3670373733614657e+01 2 -6 1
1042 1 6.9212135225843765e+00 1.0908108332527606e+01 1.4472734449610750e+01 2 0 0
438 1 1.2267263454837227e+01 1.1164288126378466e+01 1.3357618485879858e+01 0 -2 2
4657 1 8.3679389433909961e+00 8.7302754674614995e+00 1.3748197436169509e+01 -4 -3 1
2246 1 1.1118528510562379e+01 9.0452657727096497e+00 1.4615759683792019e+01 -2 3 1
2603 1 8.3126281591616049e+00 8.7539176490002859e+00 1.0729679484950266e+01 -4 3 0
193 2 0.0000000000000000e+00 2.8417180249513345e+00 1.6860119673956170e+01 0 0 0
194 2 0.0000000000000000e+00 0.0000000000000000e+00 1.6860119673956170e+01 0 0 0
195 2 1.2305000000000001e+00 7.1042950623783474e-01 1.6860119673956170e+01 0 0 0
199 2 1.2305000000000001e+00 2.1312885187134998e+00 1.6860119673956170e+01 0 0 0
200 2 2.4610000000000003e+00 2.8417180249513345e+00 1.6860119673956170e+01 0 0 0
201 2 2.4610000000000003e+00 0.0000000000000000e+00 1.6860119673956170e+01 0 0 0
202 2 3.6915000000000004e+00 7.1042950623783474e-01 1.6860119673956170e+01 0 0 0
210 2 3.6914999999999996e+00 2.1312885187134998e+00 1.6860119673956170e+01 0 0 0
211 2 4.9220000000000006e+00 2.8417180249513332e+00 1.6860119673956170e+01 0 0 0
212 2 4.9220000000000006e+00 0.0000000000000000e+00 1.6860119673956170e+01 0 0 0
213 2 6.1524999999999999e+00 7.1042950623783407e-01 1.6860119673956170e+01 0 0 0
225 2 6.1524999999999999e+00 2.1312885187134989e+00 1.6860119673956170e+01 0 0 0
226 2 7.3829999999999991e+00 2.8417180249513345e+00 1.6860119673956170e+01 0 0 0
227 2 7.3829999999999991e+00 0.0000000000000000e+00 1.6860119673956170e+01 0 0 0
228 2 8.6134999999999984e+00 7.1042950623783407e-01 1.6860119673956170e+01 0 0 0
244 2 8.6134999999999984e+00 2.1312885187135002e+00 1.6860119673956170e+01 0 0 0
245 2 9.8440000000000012e+00 2.8417180249513332e+00 1.6860119673956170e+01 0 0 0
246 2 9.8440000000000012e+00 0.0000000000000000e+00 1.6860119673956170e+01 0 0 0
247 2 1.1074500000000002e+01 7.1042950623783330e-01 1.6860119673956170e+01 0 0 0
267 2 1.1074500000000002e+01 2.1312885187135002e+00 1.6860119673956170e+01 0 0 0
197 2 0.0000000000000000e+00 4.2625770374269996e+00 1.6860119673956170e+01 0 0 0
198 2 1.2305000000000001e+00 4.9730065436648339e+00 1.6860119673956170e+01 0 0 0
206 2 1.2305000000000001e+00 6.3938655561404980e+00 1.6860119673956170e+01 0 0 0
208 2 2.4610000000000003e+00 4.2625770374269996e+00 1.6860119673956170e+01 0 0 0
209 2 3.6914999999999996e+00 4.9730065436648339e+00 1.6860119673956170e+01 0 0 0
221 2 3.6914999999999996e+00 6.3938655561404980e+00 1.6860119673956170e+01 0 0 0
196 2 0.0000000000000000e+00 7.1042950623783341e+00 1.6860119673956170e+01 0 0 0
207 2 2.4610000000000003e+00 7.1042950623783341e+00 1.6860119673956170e+01 0 0 0
223 2 4.9220000000000006e+00 4.2625770374269978e+00 1.6860119673956170e+01 0 0 0
224 2 6.1524999999999999e+00 4.9730065436648339e+00 1.6860119673956170e+01 0 0 0
240 2 6.1524999999999999e+00 6.3938655561404980e+00 1.6860119673956170e+01 0 0 0
242 2 7.3829999999999991e+00 4.2625770374269996e+00 1.6860119673956170e+01 0 0 0
222 2 4.9220000000000006e+00 7.1042950623783341e+00 1.6860119673956170e+01 0 0 0
241 2 7.3830000000000009e+00 7.1042950623783341e+00 1.6860119673956170e+01 0 0 0
243 2 8.6135000000000002e+00 4.9730065436648339e+00 1.6860119673956170e+01 0 0 0
263 2 8.6135000000000002e+00 6.3938655561404980e+00 1.6860119673956170e+01 0 0 0
265 2 9.8440000000000012e+00 4.2625770374270004e+00 1.6860119673956170e+01 0 0 0
266 2 1.1074500000000002e+01 4.9730065436648339e+00 1.6860119673956170e+01 0 0 0
287 2 1.1074500000000002e+01 6.3938655561404980e+00 1.6860119673956170e+01 0 0 0
264 2 9.8440000000000012e+00 7.1042950623783341e+00 1.6860119673956170e+01 0 0 0
204 2 0.0000000000000000e+00 8.5251540748539991e+00 1.6860119673956170e+01 0 0 0
205 2 1.2305000000000001e+00 9.2355835810918343e+00 1.6860119673956170e+01 0 0 0
219 2 2.4610000000000003e+00 8.5251540748539991e+00 1.6860119673956170e+01 0 0 0
220 2 3.6915000000000004e+00 9.2355835810918343e+00 1.6860119673956170e+01 0 0 0
203 2 0.0000000000000000e+00 1.1366872099805333e+01 1.6860119673956170e+01 0 0 0
217 2 1.2305000000000001e+00 1.0656442593567498e+01 1.6860119673956170e+01 0 0 0
218 2 2.4610000000000003e+00 1.1366872099805333e+01 1.6860119673956170e+01 0 0 0
236 2 3.6914999999999996e+00 1.0656442593567499e+01 1.6860119673956170e+01 0 0 0
239 2 6.1524999999999999e+00 9.2355835810918343e+00 1.6860119673956170e+01 0 0 0
237 2 4.9220000000000006e+00 1.1366872099805333e+01 1.6860119673956170e+01 0 0 0
260 2 7.3829999999999991e+00 1.1366872099805333e+01 1.6860119673956170e+01 0 0 0
259 2 6.1524999999999999e+00 1.0656442593567499e+01 1.6860119673956170e+01 0 0 0
261 2 7.3830000000000009e+00 8.5251540748539991e+00 1.6860119673956170e+01 0 0 0
238 2 4.9220000000000006e+00 8.5251540748539991e+00 1.6860119673956170e+01 0 0 0
307 2 1.1074500000000002e+01 1.0656442593567498e+01 1.6860119673956170e+01 0 0 0
285 2 9.8440000000000012e+00 8.5251540748539956e+00 1.6860119673956170e+01 0 0 0
284 2 9.8440000000000012e+00 1.1366872099805333e+01 1.6860119673956170e+01 0 0 0
308 2 1.2304999999999998e+01 1.1366872099805333e+01 1.6860119673956170e+01 0 0 0
286 2 1.1074500000000002e+01 9.2355835810918343e+00 1.6860119673956170e+01 0 0 0
262 2 8.6134999999999984e+00 9.2355835810918343e+00 1.6860119673956170e+01 0 0 0
283 2 8.6134999999999984e+00 1.0656442593567498e+01 1.6860119673956170e+01 0 0 0
549 2 0.0000000000000000e+00 1.4208590124756650e+00 2.0029291691266497e+01 0 0 0
550 2 0.0000000000000000e+00 0.0000000000000000e+00 2.0029291691266497e+01 0 0 0
554 2 1.2305000000000001e+00 2.1312885187134998e+00 2.0029291691266497e+01 0 0 0
555 2 2.4610000000000003e+00 1.4208590124756650e+00 2.0029291691266497e+01 0 0 0
556 2 2.4610000000000003e+00 0.0000000000000000e+00 2.0029291691266497e+01 0 0 0
564 2 3.6914999999999996e+00 2.1312885187134998e+00 2.0029291691266497e+01 0 0 0
710 2 0.0000000000000000e+00 2.8417180249513345e+00 2.3198463708600769e+01 0 0 0
711 2 0.0000000000000000e+00 0.0000000000000000e+00 2.3198463708600769e+01 0 0 0
712 2 1.2305000000000001e+00 7.1042950623783474e-01 2.3198463708600769e+01 0 0 0
716 2 1.2305000000000001e+00 2.1312885187134998e+00 2.3198463708600769e+01 0 0 0
717 2 2.4610000000000003e+00 2.8417180249513345e+00 2.3198463708600769e+01 0 0 0
718 2 2.4610000000000003e+00 0.0000000000000000e+00 2.3198463708600769e+01 0 0 0
719 2 3.6915000000000004e+00 7.1042950623783474e-01 2.3198463708600769e+01 0 0 0
727 2 3.6914999999999996e+00 2.1312885187134998e+00 2.3198463708600769e+01 0 0 0
553 2 1.2305000000000001e+00 3.5521475311891644e+00 2.0029291691266497e+01 0 0 0
563 2 3.6914999999999996e+00 3.5521475311891644e+00 2.0029291691266497e+01 0 0 0
565 2 4.9220000000000006e+00 1.4208590124756650e+00 2.0029291691266497e+01 0 0 0
566 2 4.9220000000000006e+00 0.0000000000000000e+00 2.0029291691266497e+01 0 0 0
578 2 6.1524999999999999e+00 2.1312885187134989e+00 2.0029291691266497e+01 0 0 0
579 2 7.3829999999999991e+00 1.4208590124756659e+00 2.0029291691266497e+01 0 0 0
580 2 7.3829999999999991e+00 0.0000000000000000e+00 2.0029291691266497e+01 0 0 0
728 2 4.9220000000000006e+00 2.8417180249513332e+00 2.3198463708600769e+01 0 0 0
729 2 4.9220000000000006e+00 0.0000000000000000e+00 2.3198463708600769e+01 0 0 0
730 2 6.1524999999999999e+00 7.1042950623783407e-01 2.3198463708600769e+01 0 0 0
742 2 6.1524999999999999e+00 2.1312885187134989e+00 2.3198463708600769e+01 0 0 0
743 2 7.3829999999999991e+00 2.8417180249513345e+00 2.3198463708600769e+01 0 0 0
744 2 7.3829999999999991e+00 0.0000000000000000e+00 2.3198463708600769e+01 0 0 0
577 2 6.1524999999999999e+00 3.5521475311891644e+00 2.0029291691266497e+01 0 0 0
596 2 8.6134999999999984e+00 2.1312885187135002e+00 2.0029291691266497e+01 0 0 0
597 2 9.8440000000000012e+00 1.4208590124756659e+00 2.0029291691266497e+01 0 0 0
598 2 9.8440000000000012e+00 0.0000000000000000e+00 2.0029291691266497e+01 0 0 0
618 2 1.1074500000000002e+01 2.1312885187135002e+00 2.0029291691266497e+01 0 0 0
745 2 8.6134999999999984e+00 7.1042950623783407e-01 2.3198463708600769e+01 0 0 0
761 2 8.6134999999999984e+00 2.1312885187135002e+00 2.3198463708600769e+01 0 0 0
762 2 9.8440000000000012e+00 2.8417180249513332e+00 2.3198463708600769e+01 0 0 0
763 2 9.8440000000000012e+00 0.0000000000000000e+00 2.3198463708600769e+01 0 0 0
764 2 1.1074500000000002e+01 7.1042950623783330e-01 2.3198463708600769e+01 0 0 0
784 2 1.1074500000000002e+01 2.1312885187135002e+00 2.3198463708600769e+01 0 0 0
595 2 8.6134999999999984e+00 3.5521475311891657e+00 2.0029291691266497e+01 0 0 0
617 2 1.1074500000000002e+01 3.5521475311891644e+00 2.0029291691266497e+01 0 0 0
551 2 0.0000000000000000e+00 5.6834360499026637e+00 2.0029291691266497e+01 0 0 0
552 2 0.0000000000000000e+00 4.2625770374269996e+00 2.0029291691266497e+01 0 0 0
560 2 1.2305000000000001e+00 6.3938655561404980e+00 2.0029291691266497e+01 0 0 0
561 2 2.4610000000000003e+00 5.6834360499026637e+00 2.0029291691266497e+01 0 0 0
562 2 2.4610000000000003e+00 4.2625770374269996e+00 2.0029291691266497e+01 0 0 0
574 2 3.6914999999999996e+00 6.3938655561404980e+00 2.0029291691266497e+01 0 0 0
714 2 0.0000000000000000e+00 4.2625770374269996e+00 2.3198463708600769e+01 0 0 0
715 2 1.2305000000000001e+00 4.9730065436648339e+00 2.3198463708600769e+01 0 0 0
723 2 1.2305000000000001e+00 6.3938655561404980e+00 2.3198463708600769e+01 0 0 0
725 2 2.4610000000000003e+00 4.2625770374269996e+00 2.3198463708600769e+01 0 0 0
726 2 3.6914999999999996e+00 4.9730065436648339e+00 2.3198463708600769e+01 0 0 0
738 2 3.6914999999999996e+00 6.3938655561404980e+00 2.3198463708600769e+01 0 0 0
559 2 1.2305000000000001e+00 7.8147245686161639e+00 2.0029291691266497e+01 0 0 0
573 2 3.6914999999999996e+00 7.8147245686161639e+00 2.0029291691266497e+01 0 0 0
713 2 0.0000000000000000e+00 7.1042950623783341e+00 2.3198463708600769e+01 0 0 0
724 2 2.4610000000000003e+00 7.1042950623783341e+00 2.3198463708600769e+01 0 0 0
575 2 4.9220000000000006e+00 5.6834360499026637e+00 2.0029291691266497e+01 0 0 0
576 2 4.9220000000000006e+00 4.2625770374269978e+00 2.0029291691266497e+01 0 0 0
592 2 6.1524999999999999e+00 6.3938655561404980e+00 2.0029291691266497e+01 0 0 0
593 2 7.3829999999999991e+00 5.6834360499026637e+00 2.0029291691266497e+01 0 0 0
594 2 7.3829999999999991e+00 4.2625770374269996e+00 2.0029291691266497e+01 0 0 0
740 2 4.9220000000000006e+00 4.2625770374269978e+00 2.3198463708600769e+01 0 0 0
741 2 6.1524999999999999e+00 4.9730065436648339e+00 2.3198463708600769e+01 0 0 0
757 2 6.1524999999999999e+00 6.3938655561404980e+00 2.3198463708600769e+01 0 0 0
759 2 7.3829999999999991e+00 4.2625770374269996e+00 2.3198463708600769e+01 0 0 0
591 2 6.1524999999999999e+00 7.8147245686161639e+00 2.0029291691266497e+01 0 0 0
739 2 4.9220000000000006e+00 7.1042950623783341e+00 2.3198463708600769e+01 0 0 0
758 2 7.3830000000000009e+00 7.1042950623783341e+00 2.3198463708600769e+01 0 0 0
614 2 8.6135000000000002e+00 6.3938655561404980e+00 2.0029291691266497e+01 0 0 0
615 2 9.8440000000000012e+00 5.6834360499026637e+00 2.0029291691266497e+01 0 0 0
616 2 9.8440000000000012e+00 4.2625770374270004e+00 2.0029291691266497e+01 0 0 0
637 2 1.1074500000000002e+01 6.3938655561404980e+00 2.0029291691266497e+01 0 0 0
760 2 8.6135000000000002e+00 4.9730065436648339e+00 2.3198463708600769e+01 0 0 0
780 2 8.6135000000000002e+00 6.3938655561404980e+00 2.3198463708600769e+01 0 0 0
782 2 9.8440000000000012e+00 4.2625770374270004e+00 2.3198463708600769e+01 0 0 0
783 2 1.1074500000000002e+01 4.9730065436648339e+00 2.3198463708600769e+01 0 0 0
804 2 1.1074500000000002e+01 6.3938655561404980e+00 2.3198463708600769e+01 0 0 0
613 2 8.6135000000000002e+00 7.8147245686161639e+00 2.0029291691266497e+01 0 0 0
636 2 1.1074500000000002e+01 7.8147245686161639e+00 2.0029291691266497e+01 0 0 0
781 2 9.8440000000000012e+00 7.1042950623783341e+00 2.3198463708600769e+01 0 0 0
557 2 0.0000000000000000e+00 9.9460130873296642e+00 2.0029291691266497e+01 0 0 0
558 2 0.0000000000000000e+00 8.5251540748539991e+00 2.0029291691266497e+01 0 0 0
571 2 2.4610000000000003e+00 9.9460130873296642e+00 2.0029291691266497e+01 0 0 0
572 2 2.4610000000000003e+00 8.5251540748539991e+00 2.0029291691266497e+01 0 0 0
721 2 0.0000000000000000e+00 8.5251540748539991e+00 2.3198463708600769e+01 0 0 0
722 2 1.2305000000000001e+00 9.2355835810918343e+00 2.3198463708600769e+01 0 0 0
736 2 2.4610000000000003e+00 8.5251540748539991e+00 2.3198463708600769e+01 0 0 0
737 2 3.6915000000000004e+00 9.2355835810918343e+00 2.3198463708600769e+01 0 0 0
569 2 1.2305000000000001e+00 1.2077301606043163e+01 2.0029291691266497e+01 0 0 0
570 2 1.2305000000000001e+00 1.0656442593567498e+01 2.0029291691266497e+01 0 0 0
587 2 3.6914999999999996e+00 1.2077301606043163e+01 2.0029291691266497e+01 0 0 0
588 2 3.6914999999999996e+00 1.0656442593567499e+01 2.0029291691266497e+01 0 0 0
720 2 0.0000000000000000e+00 1.1366872099805333e+01 2.3198463708600769e+01 0 0 0
734 2 1.2305000000000001e+00 1.0656442593567498e+01 2.3198463708600769e+01 0 0 0
735 2 2.4610000000000003e+00 1.1366872099805333e+01 2.3198463708600769e+01 0 0 0
753 2 3.6914999999999996e+00 1.0656442593567499e+01 2.3198463708600769e+01 0 0 0
589 2 4.9220000000000006e+00 9.9460130873296642e+00 2.0029291691266497e+01 0 0 0
590 2 4.9220000000000006e+00 8.5251540748539991e+00 2.0029291691266497e+01 0 0 0
611 2 7.3830000000000009e+00 9.9460130873296642e+00 2.0029291691266497e+01 0 0 0
612 2 7.3830000000000009e+00 8.5251540748539991e+00 2.0029291691266497e+01 0 0 0
755 2 4.9220000000000006e+00 8.5251540748539991e+00 2.3198463708600769e+01 0 0 0
756 2 6.1524999999999999e+00 9.2355835810918343e+00 2.3198463708600769e+01 0 0 0
778 2 7.3830000000000009e+00 8.5251540748539991e+00 2.3198463708600769e+01 0 0 0
609 2 6.1524999999999999e+00 1.2077301606043163e+01 2.0029291691266497e+01 0 0 0
610 2 6.1524999999999999e+00 1.0656442593567499e+01 2.0029291691266497e+01 0 0 0
754 2 4.9220000000000006e+00 1.1366872099805333e+01 2.3198463708600769e+01 0 0 0
776 2 6.1524999999999999e+00 1.0656442593567499e+01 2.3198463708600769e+01 0 0 0
777 2 7.3829999999999991e+00 1.1366872099805333e+01 2.3198463708600769e+01 0 0 0
634 2 9.8440000000000012e+00 9.9460130873296642e+00 2.0029291691266497e+01 0 0 0
635 2 9.8440000000000012e+00 8.5251540748539956e+00 2.0029291691266497e+01 0 0 0
779 2 8.6134999999999984e+00 9.2355835810918343e+00 2.3198463708600769e+01 0 0 0
802 2 9.8440000000000012e+00 8.5251540748539956e+00 2.3198463708600769e+01 0 0 0
803 2 1.1074500000000002e+01 9.2355835810918343e+00 2.3198463708600769e+01 0 0 0
632 2 8.6135000000000002e+00 1.2077301606043163e+01 2.0029291691266497e+01 0 0 0
633 2 8.6134999999999984e+00 1.0656442593567498e+01 2.0029291691266497e+01 0 0 0
655 2 1.1074500000000002e+01 1.2077301606043163e+01 2.0029291691266497e+01 0 0 0
656 2 1.1074500000000002e+01 1.0656442593567498e+01 2.0029291691266497e+01 0 0 0
800 2 8.6134999999999984e+00 1.0656442593567498e+01 2.3198463708600769e+01 0 0 0
801 2 9.8440000000000012e+00 1.1366872099805333e+01 2.3198463708600769e+01 0 0 0
824 2 1.1074500000000002e+01 1.0656442593567498e+01 2.3198463708600769e+01 0 0 0
825 2 1.2304999999999998e+01 1.1366872099805333e+01 2.3198463708600769e+01 0 0 0
56 1 1.0534478965019725e+00 3.7933187784439437e+00 2.6411481993099461e+01 2 -4 -2
423 1 3.4388300261336116e+00 3.7592921271301889e+00 2.5388962583156818e+01 -1 0 0
101 1 1.4681256818275679e+00 3.6899377494620120e+00 2.9184451572159013e+01 1 2 -1
955 1 5.0306110745282266e+00 1.6626245781716951e+00 2.6264658511312955e+01 -2 3 -1
486 1 4.6885926173461341e+00 1.9138639303029621e+00 2.9254937347812128e+01 4 1 0
4189 1 7.8278282606962488e+00 1.1349481418171241e+00 2.6039482551043289e+01 2 7 0
1861 1 9.1947500778550122e+00 3.7188245583659194e+00 2.5766817448727721e+01 1 -1 0
1775 1 1.1750676490483496e+01 3.7487858191916641e+00 2.6064183651655870e+01 1 -1 0
1340 1 8.6568687076084121e+00 6.7022622937305584e-02 2.8728966087048516e+01 3 3 0
3062 1 4.7132261285984773e+00 6.4693392644800651e+00 2.9135668657556909e+01 -3 2 -1
3843 1 4.9921242106363346e+00 6.1264297050738117e+00 2.6215855565125814e+01 1 0 0
3835 1 7.7412996597944730e+00 5.9400516107899168e+00 2.6079501556317361e+01 -1 2 -1
2553 1 8.2809962057278543e+00 4.6606793230504255e+00 2.8665967550019158e+01 -3 3 -1
414 1 1.1976826394085041e+01 7.1938701648910524e+00 2.8762318224551461e+01 1 -3 -1
1818 1 7.0697876175450702e-01 8.2209945003692848e+00 2.6114749347619174e+01 1 2 0
1343 1 3.4822838693362099e+00 8.3712114497449086e+00 2.5698227945725915e+01 1 -1 -1
359 1 1.0008710557453333e+00 8.5014384977313995e+00 2.8732517903820899e+01 4 0 0
4525 1 7.3141753880403897e+00 1.1187381602076721e+01 2.5710732819457892e+01 -1 0 0
132 1 4.8224858539487956e+00 1.1242144466019134e+01 2.9265359996180251e+01 2 -1 -1
4381 1 4.5689705383819774e+00 1.0810088770563841e+01 2.6427025968926397e+01 2 0 -1
3386 1 8.5780535720409645e+00 8.7121098917310302e+00 2.6163702684646566e+01 -4 -1 0
896 1 8.2736717263751078e+00 8.9015987773764493e+00 2.8858307572046471e+01 3 1 -1
31 1 1.1355795787879721e+01 8.6365220430956349e+00 2.5837918980447864e+01 0 -1 0
1205 1 1.2068458478162237e+01 1.1401076892071162e+01 2.9105821076440112e+01 1 0 0
3512 1 2.3101662170283590e+00 1.9071104884708574e+00 3.2734956670140861e+01 1 2 -1
2965 1 2.2917942742813939e+00 1.3006039228918669e+00 3.0143285378500305e+01 2 -2 0
4693 1 4.8850136193018843e+00 2.0486619943309439e+00 3.3591672171378903e+01 -2 1 -1
1844 1 9.9598731312461197e+00 2.2750940529502386e+00 3.2477169503813322e+01 -1 1 -1
2650 1 9.8046428518232247e+00 2.4569500308366523e+00 2.9520380401830536e+01 -1 4 0
3746 1 1.9911919150744246e+00 6.2417489386758351e+00 2.9683242208604849e+01 2 2 0
3790 1 7.8120711269081455e-01 4.1438119889684746e+00 3.3247901624649749e+01 4 -2 0
1712 1 2.0638770153749002e+00 6.4801403899435659e+00 3.2355397638665139e+01 -4 2 -1
2198 1 5.9924860533050790e+00 4.2099023620640814e+00 3.3080990843070566e+01 -1 3 0
2613 1 4.5443851420058667e+00 6.3428319143631882e+00 3.3493677187726675e+01 0 0 -1
3004 1 6.0344110231520514e+00 4.3601810928340816e+00 3.0138240140886353e+01 4 2 0
3781 1 1.2121338436935250e+01 7.0291097127813371e+00 3.3633219398433482e+01 -2 0 0
1777 1 8.6332383595763886e+00 4.3912274616344718e+00 3.4024391486514489e+01 4 -1 -1
39 1 9.2746548802604707e+00 6.6460354640250587e+00 3.2647976648645312e+01 1 -2 -1
1793 1 9.5377559808592842e+00 6.7322548528405655e+00 2.9860501179959503e+01 -1 3 -1
376 1 2.1872408266587580e+00 1.1014781168931860e+01 2.9775240067177709e+01 -1 5 -1
2072 1 4.9458942907091730e-01 8.5326591052612795e+00 3.3309332837000895e+01 -1 1 0
3006 1 1.8774973085656159e+00 1.0901544017984442e+01 3.2461756392009555e+01 5 -1 0
998 1 4.3796697034277416e+00 1.1044733385984779e+01 3.3273105796509483e+01 -1 1 0
3846 1 5.7033072463949699e+00 8.8860133506583772e+00 3.2595209720311928e+01 0 0 0
3396 1 5.6991702661781769e+00 8.9065822009979811e+00 2.9988373967888155e+01 3 -2 0
505 1 9.4510169079529760e+00 1.1130102100765210e+01 2.9940845787387318e+01 -2 0 0
4599 1 8.2579713258590228e+00 8.9487957392035753e+00 3.3747983899803472e+01 1 5 0
136 1 9.4621371047156497e+00 1.1096472834627180e+01 3.2736954882573258e+01 -1 -1 -1
100 1 1.1980432319841414e+01 1.1299286468267221e+01 3.3692585561904806e+01 2 2 -1
432 1 1.0013083238217606e+00 4.0097968538414479e+00 3.6024095419774895e+01 -1 -2 0
174 1 4.6984989228815044e+00 1.9782962420573453e+00 3.6417511074595765e+01 1 0 0
519 1 7.3171675358992223e+00 2.3395005650395579e+00 3.7236416817340498e+01 1 -1 0
3485 1 1.2204066406287341e+01 2.3287515028075667e+00 3.6360065686397363e+01 3 -2 -1
121 1 3.4207204994269724e+00 4.3466117347427922e+00 3.7160778356730461e+01 -1 2 0
2562 1 4.6178561881542892e+00 6.6737552268052358e+00 3.6267199307780672e+01 1 7 0
1716 1 7.0477515303331710e+00 6.9624348760066068e+00 3.7323684583410142e+01 3 -1 0
2695 1 8.3671524487825213e+00 4.6703448131043546e+00 3.6738709011542340e+01 2 2 -1
3487 1 1.0987033373971759e+01 4.6505019509512637e+00 3.7306430053722110e+01 1 2 -2
2726 1 1.2011795166440749e+01 6.8619799874970226e+00 3.6242272218476387e+01 -3 4 -1
3382 1 3.8300129955800749e-01 8.5435841350005202e+00 3.5969749754252447e+01 2 4 -1
4640 1 2.9304730916483965e+00 8.9457757253157162e+00 3.6872362157153518e+01 -3 -2 -1
385 1 7.0025529517082159e+00 1.1113979951345645e+01 3.7264616358911667e+01 0 -2 0
1804 1 4.4647789926282293e+00 1.1198946684206984e+01 3.6157390510746055e+01 0 -1 -1
3489 1 8.4198444008998568e+00 8.9927195127141655e+00 3.6371917978076297e+01 1 3 -1
4556 1 1.0895947496273196e+01 9.1117030395940724e+00 3.7408872192432000e+01 5 -2 0
1351 1 1.2144697504068235e+01 1.1362001972602084e+01 3.6636017120293218e+01 -2 1 -1
4380 1 3.5188243364215039e+00 1.3387855313882207e+01 2.2408789766354933e+00 -1 0 1
375 1 1.0107974893662384e+00 1.3148387339066813e+01 3.3297888714191513e+00 -3 2 1
1752 1 4.8397580064017118e+00 1.5354362922948539e+01 3.2841532652607817e+00 1 -1 0
2612 1 7.3324750708924009e+00 1.5680020218447664e+01 2.4953505027515210e+00 0 0 0
4307 1 8.4456206270898129e+00 1.3510190539312426e+01 3.4695990801514967e+00 -1 2 0
1803 1 1.0928929552900874e+01 1.3455205508968842e+01 2.5945129653210355e+00 1 -4 0
3414 1 1.2029519956546178e+01 1.5748370592636753e+01 3.5479228931942477e+00 5 -1 1
910 1 4.9363238413402366e-01 1.7429700494805996e+01 3.6446120005748712e+00 -3 0 0
4338 1 3.1852141787046890e+00 1.7601742658247577e+01 2.9227663342254919e+00 -2 0 1
922 1 4.5422748500681855e+00 2.0033199565850353e+01 3.6244119718212322e+00 1 -3 0
2977 1 7.0727410376261846e+00 2.0146611567277045e+01 2.6075370108082558e+00 0 -2 1
503 1 8.5604620246037584e+00 1.7961807142113219e+01 3.4327462899195882e+00 -1 4 2
4591 1 1.1149045041219340e+01 1.8075749863435558e+01 2.6496348110858241e+00 0 -5 1
1035 1 3.4389518746866541e+00 2.2433799089978798e+01 2.4570876216790962e+00 2 0 0
3817 1 8.6178121132789487e-01 2.2087096125731964e+01 3.5793828905444918e+00 2 0 1
2071 1 8.7583682545016988e+00 2.2228825544850935e+01 3.5339031090819528e+00 8 -4 0
548 1 1.1171858117403803e+01 2.2396925862749452e+01 2.5219977950273158e+00 6 -5 1
165 1 7.0202109128123058e-01 1.3308601096967747e+01 6.0066614641688201e+00 1 2 1
2245 1 3.3812595461959258e+00 1.3347797819929779e+01 9.8404019318403098e+00 0 -2 1
1318 1 3.1856582154150797e+00 1.3460799368820007e+01 7.0207570171675124e+00 3 -1 0
155 1 7.3212785685344739e-01 1.3300386471599397e+01 1.0144022781301826e+01 2 -1 0
3421 1 4.5025061732233196e+00 1.5651289710146909e+01 6.0812409845917808e+00 4 5 2
521 1 7.2846331823503743e+00 1.5798513335303301e+01 1.0011433172796977e+01 -2 0 0
2679 1 6.9307127711704100e+00 1.5523757502927021e+01 7.1400543879900571e+00 4 -3 0
3481 1 8.5727221112289111e+00 1.3553625693256189e+01 6.1431728451180430e+00 0 1 0
2081 1 1.1039305698539890e+01 1.3601910712788687e+01 7.2447136895984707e+00 -3 -3 0
996 1 1.0650773874538070e+01 1.3366312469874277e+01 1.0016228351540368e+01 5 0 -1
1878 1 1.2231523246646619e+01 1.5746716606501103e+01 6.2647162135185424e+00 3 -2 1
3709 1 1.0023682933416718e+00 1.7862060491716004e+01 6.2981803926068993e+00 1 0 0
4666 1 3.4915628748593939e+00 1.7984752199936747e+01 7.4389524378700971e+00 1 7 1
492 1 3.5337706111547358e+00 1.7759864036772289e+01 1.0208945072451771e+01 -2 1 0
3407 1 5.1079834476521517e+00 1.9853298724183254e+01 6.3259253241863034e+00 1 1 0
1367 1 7.4528822643502224e+00 1.9972960890908489e+01 7.3696058379758416e+00 0 -1 1
3509 1 7.0021051466755386e+00 2.0176665580904068e+01 1.0343944273039002e+01 2 0 1
4700 1 1.0787093279284687e+01 1.8241573124755881e+01 1.0080179134281350e+01 0 -1 1
925 1 8.3433859299998865e+00 1.7753606098103493e+01 6.2577799495368600e+00 -2 2 0
2082 1 1.0868758485632288e+01 1.7947720639169376e+01 7.2761208534341533e+00 -3 -2 1
2167 1 1.2290158491074463e+01 2.0040909600545781e+01 6.4072877420767149e+00 -2 5 1
3743 1 1.1283342831702134e+00 2.2300646260109794e+01 6.5398854617271702e+00 2 3 1
4662 1 3.7135563487694667e+00 2.1908097936715887e+01 7.3490366589299105e+00 -1 4 1
462 1 3.2753192273088954e+00 2.2635232252923263e+01 9.9915819579575889e+00 -2 1 1
3704 1 5.0641821463010057e+00 2.4215293088345941e+01 6.3535217267707127e+00 1 0 0