LAMMPS data file via write_data, version 16 Mar 2018, timestep = 100000

6589 atoms
2 atom types

0.0000000000000000e+00 4.9219999999999999e+01 xlo xhi
0.0000000000000000e+00 4.9019635930410494e+01 ylo yhi
1.5948565830246402e+00 5.8467143416974729e+01 zlo zhi

Masses

1 18.015
2 12.01

Atoms # atomic

3864 1 2.9114430673812486e-01 1.0621777465581216e+01 6.0738998729368134e+00 1 1 1
4714 1 1.9573733766011510e+00 1.2675197435112874e+01 2.6135213616988251e+00 0 -1 1
3112 1 3.0093389488496101e+00 6.3916876318560190e-01 2.7064768332977946e+00 1 0 1
1998 1 6.3841617806441651e+00 8.9349225170168953e+00 3.8772897928621468e+00 1 1 1
410 1 4.0530234010958175e+00 3.0868220776131969e+00 6.5773429496200668e+00 1 0 1
1962 1 5.8525207705457554e+00 2.3447323966334812e+00 4.6268588488029936e+00 0 2 0
1495 1 9.0364458989828584e+00 2.2092778047581292e+00 2.6161003814512496e+00 -1 0 1
3776 1 5.3400878507499119e+00 3.1299486729947779e+00 1.9891545422763319e+00 1 0 1
5535 1 1.3746663481828847e+00 4.1435191355082557e+00 3.8653212965557047e+00 1 0 0
2087 1 2.7222227787491300e+00 5.6775569331035056e+00 5.8578659311202879e+00 0 1 0
3331 1 2.4543630014783244e+00 8.7122647511337199e+00 2.1631436862598523e+00 1 1 0
5497 1 1.2519265409021161e+00 1.4648423736850942e+01 1.2207481802891275e+01 -1 1 1
4925 1 7.1119867340515270e+00 4.7404683622027983e+00 4.9568985280773585e+00 0 0 1
3551 1 7.5614926534347022e+00 1.0392882827175209e+00 8.7651349196216799e+00 0 1 0
127 1 7.8186382183147654e+00 6.5612662689355234e+00 2.8731015521866139e+00 0 2 0
5435 1 5.4958860172899442e+00 6.0500175571496948e+00 6.7823743468510136e+00 1 0 1
1701 1 1.1944174140591153e+01 5.6230349959844270e+00 5.4522115253533876e+00 1 1 1
5242 1 9.7721310390563705e+00 3.7243892539587220e+00 5.0660932713491764e+00 1 1 0
3398 1 1.0390087333768045e+01 7.7691713705610397e+00 2.2050730546025434e+00 0 0 0
5102 1 4.4224422576114746e+00 1.0841529594579100e+01 2.5012200466211540e+00 0 0 0
6531 1 7.6854131433833208e+00 9.1496344434782895e+00 1.1353611130951048e+01 -1 0 1
4902 1 5.5423031428721803e+00 1.5435706492394536e+01 1.2205185031319722e+01 1 0 1
1363 1 3.3840210317815886e+00 4.9566591340947754e+00 2.2936018342276929e+00 0 0 1
2159 1 6.1671529808884902e+00 8.8330709982069564e+00 6.7097878857605844e+00 1 0 0
362 1 3.4773671702326387e+00 8.3257423143804861e+00 4.7134537833129100e+00 1 1 0
3008 1 3.0899626303887144e+00 1.0521543133314001e+01 6.3737205654898990e+00 0 1 0
2245 1 1.0311318535445734e+01 1.3583789045611431e+01 1.1987422166592546e+01 1 0 1
6569 1 8.6003357742004596e+00 9.9077852022406105e+00 7.0358203149622902e+00 0 1 0
3152 1 1.0392183564352905e+01 7.6760531483083776e+00 7.2999940830232672e+00 0 0 1
6512 1 5.7620155766251617e+00 1.2752367218180288e+01 4.1916455894477327e+00 0 1 1
3218 1 2.2656263438815225e+00 1.4349440584026890e+01 4.6273149763184129e+00 0 0 0
5040 1 5.2184165203813579e+00 1.4039173687716692e+01 8.9796745632577011e+00 0 1 0
4774 1 6.0838305412597160e+00 1.4772338008495534e+01 2.7337823630589657e+00 2 0 1
2954 1 4.1231044443431397e+00 1.3114700328661721e+01 6.5520293503023002e+00 1 -1 1
5359 1 7.6521829855741563e+00 1.4644940861705837e+01 7.5546714049615513e+00 0 -1 0
332 1 8.3346934021508883e+00 1.1207478714302544e+01 4.6015671679073407e+00 -1 0 0
3333 1 9.0235789164537739e+00 1.3952454269394361e+01 4.9644298240034761e+00 0 0 1
3461 1 5.3904224672386389e+00 8.1377448884938797e-01 1.0601798747588905e+01 1 1 0
3295 1 8.4318508642548586e+00 1.5499921343921393e+01 1.1858767218699903e+01 0 1 0
1656 1 4.5232090033843031e+00 3.0741339504560159e+00 9.3789525700135243e+00 -1 2 1
3609 1 4.8684308237722712e-01 4.1052982018575337e+00 1.1325825489349016e+01 2 0 1
1531 1 9.9177408644880121e+00 2.3943003854499487e+00 7.6371502018849613e+00 0 1 1
1627 1 9.0745041192294706e-02 5.5600670515935681e-02 1.2533889273633354e+01 1 0 1
5172 1 2.5185960124412481e+00 9.4849391794421969e+00 1.2458985767946459e+01 2 0 0
228 1 8.6372074659280684e-01 6.5171267567816411e+00 7.7998591251371785e+00 1 1 0
3780 1 1.2177093885053058e+01 1.6073578036356924e+01 8.8564616157117086e+00 1 1 0
3236 1 3.0101049400738980e+00 4.7736141844365285e+00 1.0989843969698372e+01 -2 0 1
1572 1 6.4665599278208346e+00 4.9935445937634757e+00 9.2492574587645642e+00 -1 1 0
1824 1 1.0497609860900091e+01 6.3205213487713001e+00 9.6388634932341493e+00 0 1 0
4827 1 8.9190440338922627e+00 3.9081524537718870e+00 9.9487070507660906e+00 1 1 0
62 1 1.0178772768149200e+01 8.0475609711675826e+00 1.1596850563800528e+01 1 1 1
3808 1 1.1536098283216307e+00 8.1139325517390404e+00 1.0011620167709046e+01 0 0 0
5065 1 1.1723299701343059e+01 1.3190675836530209e+01 5.1539154260125715e+00 1 0 0
3133 1 1.1294613275270716e+01 1.2146657537738406e+01 9.7629395917332378e+00 0 1 1
5411 1 8.5878449292974501e+00 1.3707422040828709e+01 1.6605023359580910e+00 -1 0 0
2213 1 3.7693123368182868e+00 9.0345376412651852e+00 8.5853179464465370e+00 1 0 1
1475 1 4.3081333161003146e+00 7.4400963811603802e+00 1.1991945171184563e+01 1 1 1
6472 1 3.7528164486643574e+00 1.1492333447276897e+01 1.0747851886696305e+01 0 -2 1
3407 1 6.6158440347923193e+00 1.2007331166860334e+01 1.0717470666870854e+01 0 0 0
411 1 5.9442922196406256e+00 7.6784555986553711e+00 9.9663116746175096e+00 2 0 0
1908 1 3.1187991700429180e-01 1.0558801315747425e+01 3.3631494318538211e+00 -2 0 0
3151 1 9.8046590422969686e+00 1.0359871281666491e+01 2.1685311326884560e+00 2 -2 1
4785 1 8.7711367162006333e+00 1.2313298635879063e+01 8.6870467963689677e+00 1 1 1
3868 1 2.1712598476928302e+00 1.3514045665127781e+00 5.3868305325380046e+00 0 -1 0
4821 1 1.2141181805209296e+01 1.1101383871497083e+01 3.5381609724437091e+00 0 1 0
4969 1 3.6425633904258574e+00 1.3417476571554021e+01 1.2686377396404087e+01 1 0 1
5419 1 2.3486692687334489e+00 1.3611984249506381e+01 9.3179829060619266e+00 1 2 0
1496 1 8.6095969992893195e-01 1.3985835082112223e+01 6.7797509240148583e+00 1 2 0
4781 1 8.9756412006102781e+00 2.7427313215988463e+00 1.2522130752120283e+01 0 1 1
2113 1 6.7990709160887661e+00 3.8079085149123913e-02 6.2893475060861705e+00 1 1 0
343 1 9.2846572818388378e+00 5.8877850462433245e-01 1.1028349092401680e+01 0 0 0
6221 1 4.7746094160593495e+00 7.1216552382397467e+00 1.8284985540877376e+00 0 0 1
1876 1 1.2217651739186101e+01 9.7499982339595093e+00 1.0556861879834262e+01 -1 1 0
236 1 2.4432207230320785e-03 2.1024862183994841e+00 1.8257714581751642e+01 1 1 0
4964 1 2.7535016908711918e+00 2.6331102414741316e+00 1.4622247442199196e+01 2 2 0
1613 1 7.9190510759890165e+00 7.3526486427131896e+00 2.3418323666919704e+01 2 0 0
1303 1 4.1853508382699314e+00 1.2169687892805194e-01 1.4836536864170187e+01 -1 2 1
1682 1 1.1469516583772414e+01 6.2637179219662746e+00 1.4308347508733748e+01 1 0 0
6322 1 3.8223481819783389e+00 1.6175796543382596e+01 1.4491169148224072e+01 1 0 1
248 1 8.5953427109445339e+00 8.3470191116657000e-01 1.7075194709116833e+01 -1 1 0
6339 1 8.8248129324393823e+00 3.6481986883625299e+00 1.7076652905345739e+01 0 1 0
3799 1 3.7636445831335612e+00 5.0449083052864045e+00 1.3566941519165029e+01 1 1 1
4864 1 2.3211972387506656e+00 3.3439146067138563e+00 1.7250584730290292e+01 0 1 0
519 1 2.1362017908284705e+00 9.8401461692648873e+00 1.9138462828511930e+01 1 2 1
460 1 2.6716298754867109e+00 5.9291385004713009e+00 1.7839658653725831e+01 0 -1 1
3127 1 7.1810092053012173e+00 1.2822604955431753e+01 1.3335946233349086e+01 -1 0 1
3370 1 6.3555517331132316e+00 3.8718105380565118e+00 1.6697251248391943e+01 -1 -1 0
3662 1 6.6293505065956913e+00 4.5972787085208937e+00 1.3955855538524778e+01 2 0 0
5325 1 6.6469326960497384e+00 7.6345398148247945e+00 1.3830762758630724e+01 1 1 0
3469 1 5.6258517637260361e+00 6.4029166738708119e+00 1.8546285227975218e+01 1 1 1
1655 1 1.0127727418447753e+01 3.9278566442795384e+00 1.4571641755549063e+01 2 1 1
3219 1 4.1084783136788632e+00 1.2179941115255486e+01 2.4252503382988952e+01 -1 0 1
3707 1 1.0820871143784236e+00 9.5980345152394104e+00 1.6503092454685330e+01 -1 0 1
4611 1 6.2481921795919437e-01 1.3785814697544275e+01 1.9244015570558847e+01 1 1 1
1418 1 2.8816144613279504e+00 7.3109274199764016e+00 1.5320594435925829e+01 1 0 1
3620 1 5.1401936356500624e+00 9.1745345940904119e+00 1.5839497092135487e+01 1 1 0
580 1 6.1224656294187909e+00 9.5742345591342399e+00 1.8411655218121911e+01 0 0 0
6567 1 1.0422798573718953e+01 9.9584794081401782e+00 1.6983528205396052e+01 -1 -1 1
3754 1 9.7567353877259446e+00 8.4610009403809663e+00 1.4743422843224570e+01 1 0 1
5479 1 6.7750405822148183e+00 1.2112888778849872e+01 1.7448990213060696e+01 1 1 1
3648 1 7.4071402999284075e+00 5.3413103452598421e-02 1.9432493393548189e+01 0 1 0
3079 1 2.6266381658201066e-01 1.0876028546930161e+01 1.3215955947308080e+01 2 0 1
6565 1 1.6795855405972875e+00 1.4490728507403880e+01 1.6082073589882512e+01 1 0 1
5297 1 2.1952702038437382e+00 1.1785670407177566e+01 1.4981215570548345e+01 1 0 0
4920 1 3.1009106670482560e+00 1.4511081184780910e+01 1.9085672514429223e+01 0 1 1
339 1 4.8710006605682903e+00 1.1867110656033399e+01 1.5019610066350614e+01 1 0 0
6358 1 4.6564374604823406e+00 1.4213925010574638e+01 1.6767460077733453e+01 2 0 0
6277 1 6.5737691365541027e+00 1.5606882507564825e+00 1.3275701695597233e+01 0 1 1
5212 1 9.2484980843990563e+00 1.2247062492008526e+01 1.6076062873334639e+01 0 0 0
22 1 8.6192174780922723e+00 1.5102935557895108e+01 1.4910193426579649e+01 0 1 0
59 1 9.6290701293613434e+00 1.1370461845259980e+01 1.3411903365777963e+01 0 1 1
3615 1 2.1950905561110083e+00 1.5230416564101421e+00 2.1157375096358241e+01 1 1 0
1919 1 4.4687210916188942e+00 1.8124406576522556e-01 2.3940527758970475e+01 1 0 0
6210 1 6.9497142864299137e+00 1.6197348506530332e+01 1.6770275033928087e+01 0 -1 1
401 1 9.9862090688706431e+00 5.3618617375902220e+00 2.3123824157103176e+01 1 2 0
557 1 1.4897158298699533e+00 3.8036952155219250e+00 2.3984526270294900e+01 2 1 1
7 1 6.7941750881958924e+00 2.4352030490622147e+00 2.0917478114247668e+01 0 1 1
2963 1 4.7650546566991707e+00 2.7577300266381495e+00 1.8550363185966471e+01 0 1 1
1796 1 6.1368590802401810e+00 2.2916253500586605e+00 2.3655810341290902e+01 0 0 0
4775 1 1.2215001565842460e+01 1.3757532113683490e+01 2.4033830206895647e+01 1 0 1
5113 1 8.8068386577110207e+00 4.0074965358996852e+00 1.9933335266238871e+01 1 1 0
3246 1 1.0515746207157976e+01 5.9140092784785985e+00 1.7753229522803540e+01 0 0 0
4990 1 2.1423555297986088e+00 8.0556197623689982e+00 2.2838546816081102e+01 1 1 0
360 1 1.7960097863303026e-01 5.7716051678859728e+00 1.9435423220062216e+01 2 -1 1
2973 1 8.5612683167541785e+00 1.0329884765386213e+01 2.3588210672561608e+01 1 1 1
6256 1 2.0115691033873273e+00 1.1247514715679465e+00 2.3977258423021077e+01 1 1 1
3726 1 2.3739076002974793e+00 4.7821383933566866e+00 2.1639937154888941e+01 1 2 0
3273 1 1.1091350773373804e+01 2.8579312188591826e+00 2.3481865475764675e+01 1 1 1
455 1 5.3520599034738483e+00 4.8056652429116236e+00 2.1240043276630203e+01 1 1 0
3424 1 7.2377400825567753e+00 1.3066253120428955e+01 2.4028574536400413e+01 1 1 0
6491 1 3.5433557801439322e+00 7.4088573377844531e+00 2.0576055214776673e+01 0 0 1
3832 1 8.0231535071500950e+00 6.9175457684567938e+00 1.6503881001400593e+01 0 0 1
3031 1 1.0958722912875499e+01 2.5644537758891484e+00 2.0880001689445105e+01 0 1 1
1521 1 7.9552121277793688e+00 6.6269183621847239e+00 2.0667108769798638e+01 -1 1 1
95 1 7.9743167313054233e+00 1.6311267882766987e+01 1.9373671318700115e+01 0 1 0
2978 1 5.4231263301573929e-01 1.1371862601675208e+01 2.0760877138840023e+01 2 0 1
5119 1 1.1219401271524747e+01 1.3942211776040578e+01 1.7119541393854810e+01 0 0 0
3013 1 5.7219884862061159e+00 9.8315650499375966e+00 2.3634531085251655e+01 0 1 1
3789 1 4.6743822820986383e+00 9.9544038609497836e+00 2.0850793488525873e+01 1 0 0
6375 1 8.6821738876716861e+00 8.7646122025232724e+00 1.9030293484558751e+01 0 1 1
3249 1 3.7161279228898647e+00 1.2667982851896396e+01 2.1105940292934918e+01 0 0 0
3468 1 8.4182867618891812e+00 1.2711495330656716e+01 1.9861500045885290e+01 0 -1 1
4797 1 6.3096204816881150e+00 1.3591112006422343e+01 2.1484489372537926e+01 -1 0 1
3737 1 1.0209026203247657e+01 1.4728243909860007e+01 1.9524214260677709e+01 1 1 0
1853 1 1.1725140855340122e+01 1.5923327806106848e+01 1.5113216060831695e+01 1 1 0
1459 1 1.0949343856677066e+01 6.6788335864390724e+00 2.0474096469782992e+01 1 2 1
3417 1 2.5707644160010767e+00 1.4796888783869761e+01 2.2872942907629817e+01 1 -1 0
518 1 9.8582282059569906e+00 1.0447550478335648e+01 2.1124915886901309e+01 0 0 0
3514 1 9.6036393402766311e+00 1.4034607005894580e+01 2.2418510531655642e+01 1 1 0
5503 1 5.8924894412312794e+00 5.1980870493444629e+00 2.3695817401090672e+01 1 0 1
270 1 8.6503398207222890e+00 1.4031569574609575e+00 2.4319282453234589e+01 1 1 0
6332 1 9.5841848260126028e+00 1.6246752557941150e+01 2.4168950595722396e+01 0 0 1
4929 1 1.1130441098957567e+01 1.1192769883415419e+01 2.4311040801322111e+01 0 1 0
594 2 0.0000000000000000e+00 2.8417180249513345e+00 2.6839214383459367e+01 0 0 0
596 2 0.0000000000000000e+00 0.0000000000000000e+00 2.6839214383459367e+01 0 0 0
598 2 1.2305000000000001e+00 7.1042950623783474e-01 2.6839214383459367e+01 0 0 0
605 2 1.2305000000000001e+00 2.1312885187134998e+00 2.6839214383459367e+01 0 0 0
607 2 2.4610000000000003e+00 2.8417180249513345e+00 2.6839214383459367e+01 0 0 0
609 2 2.4610000000000003e+00 0.0000000000000000e+00 2.6839214383459367e+01 0 0 0
611 2 3.6915000000000004e+00 7.1042950623783474e-01 2.6839214383459367e+01 0 0 0
626 2 3.6914999999999996e+00 2.1312885187134998e+00 2.6839214383459367e+01 0 0 0
628 2 4.9220000000000006e+00 2.8417180249513332e+00 2.6839214383459367e+01 0 0 0
630 2 4.9220000000000006e+00 0.0000000000000000e+00 2.6839214383459367e+01 0 0 0
632 2 6.1524999999999999e+00 7.1042950623783407e-01 2.6839214383459367e+01 0 0 0
655 2 6.1524999999999999e+00 2.1312885187134989e+00 2.6839214383459367e+01 0 0 0
657 2 7.3829999999999991e+00 2.8417180249513345e+00 2.6839214383459367e+01 0 0 0
659 2 7.3829999999999991e+00 0.0000000000000000e+00 2.6839214383459367e+01 0 0 0
661 2 8.6134999999999984e+00 7.1042950623783407e-01 2.6839214383459367e+01 0 0 0
692 2 8.6134999999999984e+00 2.1312885187135002e+00 2.6839214383459367e+01 0 0 0
694 2 9.8440000000000012e+00 2.8417180249513332e+00 2.6839214383459367e+01 0 0 0
696 2 9.8440000000000012e+00 0.0000000000000000e+00 2.6839214383459367e+01 0 0 0
698 2 1.1074500000000002e+01 7.1042950623783330e-01 2.6839214383459367e+01 0 0 0
737 2 1.1074500000000002e+01 2.1312885187135002e+00 2.6839214383459367e+01 0 0 0
599 2 0.0000000000000000e+00 7.1042950623783341e+00 2.6839214383459367e+01 0 0 0
601 2 0.0000000000000000e+00 4.2625770374269996e+00 2.6839214383459367e+01 0 0 0
603 2 1.2305000000000001e+00 4.9730065436648339e+00 2.6839214383459367e+01 0 0 0
618 2 1.2305000000000001e+00 6.3938655561404980e+00 2.6839214383459367e+01 0 0 0
620 2 2.4610000000000003e+00 7.1042950623783341e+00 2.6839214383459367e+01 0 0 0
622 2 2.4610000000000003e+00 4.2625770374269996e+00 2.6839214383459367e+01 0 0 0
624 2 3.6914999999999996e+00 4.9730065436648339e+00 2.6839214383459367e+01 0 0 0
647 2 3.6914999999999996e+00 6.3938655561404980e+00 2.6839214383459367e+01 0 0 0
649 2 4.9220000000000006e+00 7.1042950623783341e+00 2.6839214383459367e+01 0 0 0
651 2 4.9220000000000006e+00 4.2625770374269978e+00 2.6839214383459367e+01 0 0 0
653 2 6.1524999999999999e+00 4.9730065436648339e+00 2.6839214383459367e+01 0 0 0
684 2 6.1524999999999999e+00 6.3938655561404980e+00 2.6839214383459367e+01 0 0 0
686 2 7.3830000000000009e+00 7.1042950623783341e+00 2.6839214383459367e+01 0 0 0
688 2 7.3829999999999991e+00 4.2625770374269996e+00 2.6839214383459367e+01 0 0 0
1034 2 9.8440000000000012e+00 1.5629449137232328e+01 3.3222785616541664e+01 0 0 0
690 2 8.6135000000000002e+00 4.9730065436648339e+00 2.6839214383459367e+01 0 0 0
729 2 8.6135000000000002e+00 6.3938655561404980e+00 2.6839214383459367e+01 0 0 0
731 2 9.8440000000000012e+00 7.1042950623783341e+00 2.6839214383459367e+01 0 0 0
733 2 9.8440000000000012e+00 4.2625770374270004e+00 2.6839214383459367e+01 0 0 0
735 2 1.1074500000000002e+01 4.9730065436648339e+00 2.6839214383459367e+01 0 0 0
776 2 1.1074500000000002e+01 6.3938655561404980e+00 2.6839214383459367e+01 0 0 0
612 2 0.0000000000000000e+00 1.1366872099805333e+01 2.6839214383459367e+01 0 0 0
614 2 0.0000000000000000e+00 8.5251540748539991e+00 2.6839214383459367e+01 0 0 0
616 2 1.2305000000000001e+00 9.2355835810918343e+00 2.6839214383459367e+01 0 0 0
639 2 1.2305000000000001e+00 1.0656442593567498e+01 2.6839214383459367e+01 0 0 0
641 2 2.4610000000000003e+00 1.1366872099805333e+01 2.6839214383459367e+01 0 0 0
643 2 2.4610000000000003e+00 8.5251540748539991e+00 2.6839214383459367e+01 0 0 0
645 2 3.6915000000000004e+00 9.2355835810918343e+00 2.6839214383459367e+01 0 0 0
676 2 3.6914999999999996e+00 1.0656442593567499e+01 2.6839214383459367e+01 0 0 0
678 2 4.9220000000000006e+00 1.1366872099805333e+01 2.6839214383459367e+01 0 0 0
680 2 4.9220000000000006e+00 8.5251540748539991e+00 2.6839214383459367e+01 0 0 0
682 2 6.1524999999999999e+00 9.2355835810918343e+00 2.6839214383459367e+01 0 0 0
721 2 6.1524999999999999e+00 1.0656442593567499e+01 2.6839214383459367e+01 0 0 0
723 2 7.3829999999999991e+00 1.1366872099805333e+01 2.6839214383459367e+01 0 0 0
725 2 7.3830000000000009e+00 8.5251540748539991e+00 2.6839214383459367e+01 0 0 0
727 2 8.6134999999999984e+00 9.2355835810918343e+00 2.6839214383459367e+01 0 0 0
768 2 8.6134999999999984e+00 1.0656442593567498e+01 2.6839214383459367e+01 0 0 0
770 2 9.8440000000000012e+00 1.1366872099805333e+01 2.6839214383459367e+01 0 0 0
772 2 9.8440000000000012e+00 8.5251540748539956e+00 2.6839214383459367e+01 0 0 0
774 2 1.1074500000000002e+01 9.2355835810918343e+00 2.6839214383459367e+01 0 0 0
815 2 1.1074500000000002e+01 1.0656442593567498e+01 2.6839214383459367e+01 0 0 0
817 2 1.2304999999999998e+01 1.1366872099805333e+01 2.6839214383459367e+01 0 0 0
633 2 0.0000000000000000e+00 1.5629449137232333e+01 2.6839214383459367e+01 0 0 0
635 2 0.0000000000000000e+00 1.2787731112280996e+01 2.6839214383459367e+01 0 0 0
637 2 1.2305000000000001e+00 1.3498160618518829e+01 2.6839214383459367e+01 0 0 0
668 2 1.2305000000000001e+00 1.4919019630994494e+01 2.6839214383459367e+01 0 0 0
670 2 2.4610000000000003e+00 1.5629449137232328e+01 2.6839214383459367e+01 0 0 0
672 2 2.4610000000000003e+00 1.2787731112280996e+01 2.6839214383459367e+01 0 0 0
674 2 3.6915000000000004e+00 1.3498160618518829e+01 2.6839214383459367e+01 0 0 0
713 2 3.6915000000000004e+00 1.4919019630994494e+01 2.6839214383459367e+01 0 0 0
848 2 1.1074500000000002e+01 1.6339878643470161e+01 3.0030999999999700e+01 0 0 0
715 2 4.9220000000000006e+00 1.5629449137232333e+01 2.6839214383459367e+01 0 0 0
717 2 4.9220000000000006e+00 1.2787731112280996e+01 2.6839214383459367e+01 0 0 0
719 2 6.1524999999999990e+00 1.3498160618518829e+01 2.6839214383459367e+01 0 0 0
760 2 6.1524999999999990e+00 1.4919019630994494e+01 2.6839214383459367e+01 0 0 0
762 2 7.3829999999999991e+00 1.5629449137232333e+01 2.6839214383459367e+01 0 0 0
764 2 7.3829999999999991e+00 1.2787731112280996e+01 2.6839214383459367e+01 0 0 0
766 2 8.6135000000000002e+00 1.3498160618518835e+01 2.6839214383459367e+01 0 0 0
807 2 8.6135000000000002e+00 1.4919019630994494e+01 2.6839214383459367e+01 0 0 0
809 2 9.8440000000000012e+00 1.5629449137232328e+01 2.6839214383459367e+01 0 0 0
811 2 9.8440000000000012e+00 1.2787731112280996e+01 2.6839214383459367e+01 0 0 0
813 2 1.1074500000000002e+01 1.3498160618518829e+01 2.6839214383459367e+01 0 0 0
849 2 1.1074500000000002e+01 1.4919019630994494e+01 2.6839214383459367e+01 0 0 0
595 2 0.0000000000000000e+00 1.4208590124756650e+00 3.0030999999999700e+01 0 0 0
597 2 0.0000000000000000e+00 0.0000000000000000e+00 3.0030999999999700e+01 0 0 0
604 2 1.2305000000000001e+00 3.5521475311891644e+00 3.0030999999999700e+01 0 0 0
606 2 1.2305000000000001e+00 2.1312885187134998e+00 3.0030999999999700e+01 0 0 0
608 2 2.4610000000000003e+00 1.4208590124756650e+00 3.0030999999999700e+01 0 0 0
610 2 2.4610000000000003e+00 0.0000000000000000e+00 3.0030999999999700e+01 0 0 0
625 2 3.6914999999999996e+00 3.5521475311891644e+00 3.0030999999999700e+01 0 0 0
627 2 3.6914999999999996e+00 2.1312885187134998e+00 3.0030999999999700e+01 0 0 0
923 2 0.0000000000000000e+00 2.8417180249513345e+00 3.3222785616541664e+01 0 0 0
924 2 0.0000000000000000e+00 0.0000000000000000e+00 3.3222785616541664e+01 0 0 0
925 2 1.2305000000000001e+00 7.1042950623783474e-01 3.3222785616541664e+01 0 0 0
929 2 1.2305000000000001e+00 2.1312885187134998e+00 3.3222785616541664e+01 0 0 0
930 2 2.4610000000000003e+00 2.8417180249513345e+00 3.3222785616541664e+01 0 0 0
931 2 2.4610000000000003e+00 0.0000000000000000e+00 3.3222785616541664e+01 0 0 0
932 2 3.6915000000000004e+00 7.1042950623783474e-01 3.3222785616541664e+01 0 0 0
940 2 3.6914999999999996e+00 2.1312885187134998e+00 3.3222785616541664e+01 0 0 0
850 2 1.1074500000000002e+01 1.4919019630994494e+01 3.0030999999999700e+01 0 0 0
629 2 4.9220000000000006e+00 1.4208590124756650e+00 3.0030999999999700e+01 0 0 0
631 2 4.9220000000000006e+00 0.0000000000000000e+00 3.0030999999999700e+01 0 0 0
654 2 6.1524999999999999e+00 3.5521475311891644e+00 3.0030999999999700e+01 0 0 0
656 2 6.1524999999999999e+00 2.1312885187134989e+00 3.0030999999999700e+01 0 0 0
658 2 7.3829999999999991e+00 1.4208590124756659e+00 3.0030999999999700e+01 0 0 0
660 2 7.3829999999999991e+00 0.0000000000000000e+00 3.0030999999999700e+01 0 0 0
941 2 4.9220000000000006e+00 2.8417180249513332e+00 3.3222785616541664e+01 0 0 0
942 2 4.9220000000000006e+00 0.0000000000000000e+00 3.3222785616541664e+01 0 0 0
943 2 6.1524999999999999e+00 7.1042950623783407e-01 3.3222785616541664e+01 0 0 0
955 2 6.1524999999999999e+00 2.1312885187134989e+00 3.3222785616541664e+01 0 0 0
956 2 7.3829999999999991e+00 2.8417180249513345e+00 3.3222785616541664e+01 0 0 0
957 2 7.3829999999999991e+00 0.0000000000000000e+00 3.3222785616541664e+01 0 0 0
691 2 8.6134999999999984e+00 3.5521475311891657e+00 3.0030999999999700e+01 0 0 0
693 2 8.6134999999999984e+00 2.1312885187135002e+00 3.0030999999999700e+01 0 0 0
695 2 9.8440000000000012e+00 1.4208590124756659e+00 3.0030999999999700e+01 0 0 0
697 2 9.8440000000000012e+00 0.0000000000000000e+00 3.0030999999999700e+01 0 0 0
736 2 1.1074500000000002e+01 3.5521475311891644e+00 3.0030999999999700e+01 0 0 0
738 2 1.1074500000000002e+01 2.1312885187135002e+00 3.0030999999999700e+01 0 0 0
958 2 8.6134999999999984e+00 7.1042950623783407e-01 3.3222785616541664e+01 0 0 0
974 2 8.6134999999999984e+00 2.1312885187135002e+00 3.3222785616541664e+01 0 0 0
975 2 9.8440000000000012e+00 2.8417180249513332e+00 3.3222785616541664e+01 0 0 0
976 2 9.8440000000000012e+00 0.0000000000000000e+00 3.3222785616541664e+01 0 0 0
977 2 1.1074500000000002e+01 7.1042950623783330e-01 3.3222785616541664e+01 0 0 0
997 2 1.1074500000000002e+01 2.1312885187135002e+00 3.3222785616541664e+01 0 0 0
600 2 0.0000000000000000e+00 5.6834360499026637e+00 3.0030999999999700e+01 0 0 0
602 2 0.0000000000000000e+00 4.2625770374269996e+00 3.0030999999999700e+01 0 0 0
617 2 1.2305000000000001e+00 7.8147245686161639e+00 3.0030999999999700e+01 0 0 0
619 2 1.2305000000000001e+00 6.3938655561404980e+00 3.0030999999999700e+01 0 0 0
621 2 2.4610000000000003e+00 5.6834360499026637e+00 3.0030999999999700e+01 0 0 0
623 2 2.4610000000000003e+00 4.2625770374269996e+00 3.0030999999999700e+01 0 0 0
646 2 3.6914999999999996e+00 7.8147245686161639e+00 3.0030999999999700e+01 0 0 0
648 2 3.6914999999999996e+00 6.3938655561404980e+00 3.0030999999999700e+01 0 0 0
926 2 0.0000000000000000e+00 7.1042950623783341e+00 3.3222785616541664e+01 0 0 0
927 2 0.0000000000000000e+00 4.2625770374269996e+00 3.3222785616541664e+01 0 0 0
928 2 1.2305000000000001e+00 4.9730065436648339e+00 3.3222785616541664e+01 0 0 0
936 2 1.2305000000000001e+00 6.3938655561404980e+00 3.3222785616541664e+01 0 0 0
937 2 2.4610000000000003e+00 7.1042950623783341e+00 3.3222785616541664e+01 0 0 0
938 2 2.4610000000000003e+00 4.2625770374269996e+00 3.3222785616541664e+01 0 0 0
939 2 3.6914999999999996e+00 4.9730065436648339e+00 3.3222785616541664e+01 0 0 0
951 2 3.6914999999999996e+00 6.3938655561404980e+00 3.3222785616541664e+01 0 0 0
650 2 4.9220000000000006e+00 5.6834360499026637e+00 3.0030999999999700e+01 0 0 0
652 2 4.9220000000000006e+00 4.2625770374269978e+00 3.0030999999999700e+01 0 0 0
683 2 6.1524999999999999e+00 7.8147245686161639e+00 3.0030999999999700e+01 0 0 0
685 2 6.1524999999999999e+00 6.3938655561404980e+00 3.0030999999999700e+01 0 0 0
687 2 7.3829999999999991e+00 5.6834360499026637e+00 3.0030999999999700e+01 0 0 0
689 2 7.3829999999999991e+00 4.2625770374269996e+00 3.0030999999999700e+01 0 0 0
952 2 4.9220000000000006e+00 7.1042950623783341e+00 3.3222785616541664e+01 0 0 0
953 2 4.9220000000000006e+00 4.2625770374269978e+00 3.3222785616541664e+01 0 0 0
954 2 6.1524999999999999e+00 4.9730065436648339e+00 3.3222785616541664e+01 0 0 0
970 2 6.1524999999999999e+00 6.3938655561404980e+00 3.3222785616541664e+01 0 0 0
971 2 7.3830000000000009e+00 7.1042950623783341e+00 3.3222785616541664e+01 0 0 0
972 2 7.3829999999999991e+00 4.2625770374269996e+00 3.3222785616541664e+01 0 0 0
1033 2 8.6135000000000002e+00 1.4919019630994494e+01 3.3222785616541664e+01 0 0 0
728 2 8.6135000000000002e+00 7.8147245686161639e+00 3.0030999999999700e+01 0 0 0
730 2 8.6135000000000002e+00 6.3938655561404980e+00 3.0030999999999700e+01 0 0 0
732 2 9.8440000000000012e+00 5.6834360499026637e+00 3.0030999999999700e+01 0 0 0
734 2 9.8440000000000012e+00 4.2625770374270004e+00 3.0030999999999700e+01 0 0 0
775 2 1.1074500000000002e+01 7.8147245686161639e+00 3.0030999999999700e+01 0 0 0
777 2 1.1074500000000002e+01 6.3938655561404980e+00 3.0030999999999700e+01 0 0 0
973 2 8.6135000000000002e+00 4.9730065436648339e+00 3.3222785616541664e+01 0 0 0
993 2 8.6135000000000002e+00 6.3938655561404980e+00 3.3222785616541664e+01 0 0 0
994 2 9.8440000000000012e+00 7.1042950623783341e+00 3.3222785616541664e+01 0 0 0
995 2 9.8440000000000012e+00 4.2625770374270004e+00 3.3222785616541664e+01 0 0 0
996 2 1.1074500000000002e+01 4.9730065436648339e+00 3.3222785616541664e+01 0 0 0
1017 2 1.1074500000000002e+01 6.3938655561404980e+00 3.3222785616541664e+01 0 0 0
6259 1 1.1723074272642519e+01 6.9451684434425074e+00 2.4526584149051111e+01 1 0 1
613 2 0.0000000000000000e+00 9.9460130873296642e+00 3.0030999999999700e+01 0 0 0
615 2 0.0000000000000000e+00 8.5251540748539991e+00 3.0030999999999700e+01 0 0 0
638 2 1.2305000000000001e+00 1.2077301606043163e+01 3.0030999999999700e+01 0 0 0
640 2 1.2305000000000001e+00 1.0656442593567498e+01 3.0030999999999700e+01 0 0 0
642 2 2.4610000000000003e+00 9.9460130873296642e+00 3.0030999999999700e+01 0 0 0
644 2 2.4610000000000003e+00 8.5251540748539991e+00 3.0030999999999700e+01 0 0 0
675 2 3.6914999999999996e+00 1.2077301606043163e+01 3.0030999999999700e+01 0 0 0
677 2 3.6914999999999996e+00 1.0656442593567499e+01 3.0030999999999700e+01 0 0 0
933 2 0.0000000000000000e+00 1.1366872099805333e+01 3.3222785616541664e+01 0 0 0
934 2 0.0000000000000000e+00 8.5251540748539991e+00 3.3222785616541664e+01 0 0 0
935 2 1.2305000000000001e+00 9.2355835810918343e+00 3.3222785616541664e+01 0 0 0
947 2 1.2305000000000001e+00 1.0656442593567498e+01 3.3222785616541664e+01 0 0 0
948 2 2.4610000000000003e+00 1.1366872099805333e+01 3.3222785616541664e+01 0 0 0
949 2 2.4610000000000003e+00 8.5251540748539991e+00 3.3222785616541664e+01 0 0 0
950 2 3.6915000000000004e+00 9.2355835810918343e+00 3.3222785616541664e+01 0 0 0
966 2 3.6914999999999996e+00 1.0656442593567499e+01 3.3222785616541664e+01 0 0 0
679 2 4.9220000000000006e+00 9.9460130873296642e+00 3.0030999999999700e+01 0 0 0
681 2 4.9220000000000006e+00 8.5251540748539991e+00 3.0030999999999700e+01 0 0 0
720 2 6.1524999999999999e+00 1.2077301606043163e+01 3.0030999999999700e+01 0 0 0
722 2 6.1524999999999999e+00 1.0656442593567499e+01 3.0030999999999700e+01 0 0 0
724 2 7.3830000000000009e+00 9.9460130873296642e+00 3.0030999999999700e+01 0 0 0
726 2 7.3830000000000009e+00 8.5251540748539991e+00 3.0030999999999700e+01 0 0 0
967 2 4.9220000000000006e+00 1.1366872099805333e+01 3.3222785616541664e+01 0 0 0
968 2 4.9220000000000006e+00 8.5251540748539991e+00 3.3222785616541664e+01 0 0 0
969 2 6.1524999999999999e+00 9.2355835810918343e+00 3.3222785616541664e+01 0 0 0
989 2 6.1524999999999999e+00 1.0656442593567499e+01 3.3222785616541664e+01 0 0 0
990 2 7.3829999999999991e+00 1.1366872099805333e+01 3.3222785616541664e+01 0 0 0
991 2 7.3830000000000009e+00 8.5251540748539991e+00 3.3222785616541664e+01 0 0 0
767 2 8.6135000000000002e+00 1.2077301606043163e+01 3.0030999999999700e+01 0 0 0
769 2 8.6134999999999984e+00 1.0656442593567498e+01 3.0030999999999700e+01 0 0 0
771 2 9.8440000000000012e+00 9.9460130873296642e+00 3.0030999999999700e+01 0 0 0
773 2 9.8440000000000012e+00 8.5251540748539956e+00 3.0030999999999700e+01 0 0 0
814 2 1.1074500000000002e+01 1.2077301606043163e+01 3.0030999999999700e+01 0 0 0
816 2 1.1074500000000002e+01 1.0656442593567498e+01 3.0030999999999700e+01 0 0 0
992 2 8.6134999999999984e+00 9.2355835810918343e+00 3.3222785616541664e+01 0 0 0
1013 2 8.6134999999999984e+00 1.0656442593567498e+01 3.3222785616541664e+01 0 0 0
1014 2 9.8440000000000012e+00 1.1366872099805333e+01 3.3222785616541664e+01 0 0 0
1015 2 9.8440000000000012e+00 8.5251540748539956e+00 3.3222785616541664e+01 0 0 0
1016 2 1.1074500000000002e+01 9.2355835810918343e+00 3.3222785616541664e+01 0 0 0
1037 2 1.1074500000000002e+01 1.0656442593567498e+01 3.3222785616541664e+01 0 0 0
1038 2 1.2304999999999998e+01 1.1366872099805333e+01 3.3222785616541664e+01 0 0 0
634 2 0.0000000000000000e+00 1.4208590124756663e+01 3.0030999999999700e+01 0 0 0
636 2 0.0000000000000000e+00 1.2787731112280996e+01 3.0030999999999700e+01 0 0 0
669 2 1.2305000000000001e+00 1.4919019630994494e+01 3.0030999999999700e+01 0 0 0
671 2 2.4610000000000003e+00 1.4208590124756663e+01 3.0030999999999700e+01 0 0 0