LAMMPS data file via write_data, version 16 Mar 2018, timestep = 6000000

6589 atoms
2 atom types

0.0000000000000000e+00 4.9219999999999999e+01 xlo xhi
0.0000000000000000e+00 4.9019635930410494e+01 ylo yhi
-6.3233939329268907e-02 6.0125233939326819e+01 zlo zhi

Masses

1 18.015
2 12.01

Atoms # atomic

5145 1 1.3571551561379342e+00 1.3975821963473174e+00 1.3989156077237650e+00 -3 1 1
266 1 3.6327974317223477e+00 3.0342190102888109e+00 2.2914837795801590e+00 1 0 0
4636 1 5.9734273364840202e+00 2.1051722190444102e+00 1.0970071045221164e+00 2 0 1
128 1 1.0292078931349122e+01 3.0199411769743021e+00 1.4009743027817814e+00 -1 1 1
4669 1 1.0415562812299989e+01 4.2277067538029406e-01 2.3269172178811952e+00 1 -1 1
5494 1 2.8388258009122165e+00 5.5788066092354338e+00 1.3245137076396007e+00 1 -1 1
2034 1 8.4583666013360315e+00 1.3872655994296302e+01 8.3962579516674474e+00 -1 0 0
1697 1 7.7693349479981055e+00 4.0251013626441017e+00 2.1519711885653292e+00 4 1 1
1991 1 7.3765293272047705e+00 6.6348032977865081e+00 1.4472555104520106e+00 -1 -1 0
3712 1 4.8099863388618038e+00 7.4242363991834655e+00 2.1052912900994611e+00 0 0 1
138 1 1.1379525521022092e+01 7.7280235314739967e+00 1.5014176926646505e+00 0 2 0
3348 1 1.1917215120256493e+01 4.4833554611094790e+00 4.9445041446067819e+00 2 -1 0
1402 1 1.8219499972533524e+00 1.1032360964445481e+01 2.2347880396500339e+00 -1 2 1
5089 1 4.2770779344859209e+00 1.0178708995202834e+01 1.3336332600271468e+00 -2 -2 1
4679 1 5.8089230969025554e+00 1.2081515338615235e+01 2.3657048049096669e+00 2 3 0
3828 1 8.3990303528416401e+00 1.1027151057552027e+01 1.4806974325495703e+00 1 -1 1
5504 1 8.9724139468948678e+00 8.5327391259319203e+00 2.5617388897619882e+00 1 -1 1
3503 1 3.3715347497341681e+00 1.5739006578384727e+01 2.2523915710871001e+00 1 3 0
282 1 1.5445344163234582e+00 1.3594240090292493e+01 1.4562440605179243e+00 3 -2 0
3332 1 5.6423692527593641e+00 1.4783660741354733e+01 1.0674491118342599e+00 0 1 0
6537 1 7.5095667093811835e+00 1.6275515284661747e+01 9.5796826901986343e+00 -1 1 1
3421 1 1.0517272128908411e+01 1.2789843801523654e+01 1.9950409718316555e+00 -2 1 0
3635 1 9.8673715725512920e+00 1.5467956622131027e+01 1.1801308606080090e+00 0 -3 0
1902 1 3.9043303844562933e+00 8.3037430696451275e-01 5.7748391711267679e+00 -2 -1 0
3005 1 3.2001912033129734e+00 3.2828474530093170e+00 4.9975424430072017e+00 2 4 1
4628 1 7.5580547726763321e+00 3.9763718307200522e+00 4.9175783731881184e+00 0 -1 1
4784 1 8.0655995430988714e+00 1.5323439879444158e+00 5.9775406052466602e+00 2 1 1
134 1 1.0531754900501353e+01 6.5696250306508930e-01 5.0411645299548562e+00 0 1 0
555 1 1.0653129679424895e+01 1.2673654346656649e+01 9.6515363288918881e+00 0 0 1
6514 1 1.0085988410173570e+00 4.2107903162893194e+00 5.8471251657337646e+00 -1 1 1
1443 1 4.7359247714165589e+00 7.9408425407385952e+00 4.7644509615706712e+00 -1 0 1
3155 1 5.2260502169772769e+00 5.1108306438661746e+00 5.5843615028260167e+00 3 0 0
4891 1 1.0319538699897009e+01 6.4362311404944339e-01 9.6905331691204672e+00 -2 2 1
4763 1 9.4576234313088108e+00 5.8660326764288380e+00 5.5217473205287551e+00 0 1 1
3115 1 2.3573248336307877e+00 8.7778176322537771e+00 5.6246919098387407e+00 0 -1 0
508 1 1.7957532069460966e+00 1.1456205460889738e+01 4.8783343004644042e+00 0 1 1
4592 1 6.4632935124991802e+00 9.6282546335978516e+00 6.0549495794475732e+00 -1 -1 1
1393 1 6.3211984036395608e+00 1.2208016334891473e+01 5.0340349986339357e+00 3 2 1
53 1 8.9096290363561010e+00 8.6047946268327582e+00 5.1728788360268068e+00 1 -2 1
3002 1 1.0957441344682216e+01 1.0418921015084896e+01 5.8374134669817899e+00 2 -4 1
5544 1 3.3508668891981417e+00 1.5690290665943753e+01 5.0962258197052774e+00 -4 2 1
4931 1 3.7825143126904575e+00 1.3029004299230436e+01 6.0175171958940714e+00 2 0 1
2153 1 8.4538454469947713e+00 1.3898888740146555e+01 5.7955139810403793e+00 0 0 0
1488 1 1.0805537102038192e+01 1.2890129305002654e+01 4.7897194722096428e+00 1 -3 1
3304 1 3.8119627123464044e+00 7.2797308598753230e-01 8.6820701476494442e+00 4 -1 1
1928 1 2.9515635102338278e+00 3.3880717108856016e+00 9.1901980180462726e+00 0 0 0
6516 1 7.5652386793645361e+00 4.2169674985402894e+00 9.4336491181108713e+00 3 0 1
3554 1 8.0020468350967171e+00 1.6914078007252475e+00 8.8524288042849193e+00 0 1 0
2105 1 1.2200774035588230e+01 4.7801084731766501e+00 1.9983772538554829e+00 1 1 1
3354 1 4.9430806025612223e-01 6.7935010652577015e+00 9.6125961324537936e+00 0 0 0
1632 1 7.2072704592724823e-01 4.1976600109328368e+00 8.5750659895308754e+00 1 -2 1
3122 1 4.8902579573378846e+00 7.4493306369704246e+00 9.5557196580981341e+00 -2 1 0
3330 1 5.2485992013174760e+00 4.8565388116437331e+00 8.2982124770845846e+00 0 -1 1
4859 1 1.1898368504028889e+01 4.5676074872809007e+00 9.2180803122754860e+00 1 0 0
2951 1 9.0652828511094476e+00 8.7284411904032506e+00 8.9496750655026656e+00 -3 -2 1
5029 1 9.5231408447260808e+00 5.8016458805696436e+00 8.2249204164237693e+00 1 1 0
4602 1 2.3705983684709810e+00 8.6499579768720984e+00 8.4972353515645853e+00 1 -2 1
3094 1 1.9205632268089161e+00 1.1045220808455511e+01 9.4466203421108315e+00 1 -1 1
3062 1 6.4443583454836109e+00 9.5888037174674299e+00 8.7119334819842216e+00 0 2 1
4920 1 6.2618221801726843e+00 1.2188559314383214e+01 9.5686653858334410e+00 1 1 1
4864 1 1.1387347605939587e+01 1.0271735183372023e+01 8.5549392063240663e+00 -1 1 0
6313 1 3.2295885709016097e+00 1.5396182495086514e+01 9.4975290761789957e+00 0 -1 1
2191 1 3.6711773880834957e+00 1.2956570477144590e+01 8.8386494835158835e+00 4 1 1
1871 1 5.1990477713467342e-01 6.8474162034359756e+00 4.9843383382822815e+00 -1 0 0
4982 1 4.9763985445347353e-01 7.0439605112780601e+00 2.3432438086802647e+00 -1 0 1
5173 1 8.9627838274521974e+00 8.1528859864593617e+00 1.1919923815092087e+01 2 2 0
1624 1 1.1361198713676524e+01 4.7369825046612597e+00 1.1830193613842578e+01 3 -2 0
569 1 1.0393158337681236e+00 1.4429655935523902e+00 1.2977929723864658e+01 1 0 1
6498 1 3.3448747617217851e+00 3.0542750016508795e+00 2.3932467790202953e+01 2 1 1
1396 1 5.3523387980391588e+00 2.2168604602685891e+00 1.3221438261325192e+01 -2 1 1
3766 1 7.1977104631564277e+00 4.2440061282677801e+00 1.2176590568211239e+01 -1 2 0
1890 1 9.5652097164213821e+00 3.1528824999157337e+00 1.3128931721926708e+01 2 0 0
6247 1 7.6331569472902734e+00 1.6169637786555928e+01 1.2182698971055892e+01 1 0 0
3640 1 3.9482625144847399e+00 1.2961567464105915e+01 2.3544991564032276e+01 1 2 0
4721 1 2.7705204202814144e+00 5.7516705245061637e+00 1.3018871183013522e+01 0 -1 0
40 1 7.1141336347087121e+00 6.4826732134678773e+00 1.3513511523358936e+01 0 1 1
4671 1 1.1162114851375502e+01 9.8744231018994757e+00 2.0390332386460237e+01 2 0 1
6336 1 1.1200086370611249e+01 7.1652273846137682e+00 1.2913665950734336e+01 -2 4 1
34 1 7.7713377561644750e+00 1.6060376789783831e+01 1.6978656383027776e+01 -1 1 0
3559 1 1.1482686385702557e+01 7.2539397848564393e+00 1.5665957373972550e+01 -1 0 0
181 1 4.7494502247116772e+00 7.3813814560491462e+00 1.2314414425519495e+01 0 1 1
3351 1 8.3059020443564151e+00 1.3236885861529464e+01 2.3497092573702115e+01 0 -1 1
580 1 4.2491748573885486e+00 1.0017586733739856e+01 1.3429882582621827e+01 1 0 0
4683 1 8.9813031634041671e+00 1.0648619431910559e+01 1.2963156981186270e+01 -2 2 1
6423 1 8.6401275041121401e+00 1.0950492464516824e+01 1.5751751394144568e+01 4 1 1
1457 1 1.1104615771239200e+01 9.9024075611495359e+00 2.3219100557473837e+01 3 0 1
3728 1 1.4290085707527604e+00 1.3633597544477974e+01 1.3290448921477582e+01 1 1 0
1320 1 1.0820488642737018e+01 1.1153306615016610e-01 1.6755302739289757e+01 -1 3 1
1280 1 5.8909711073093645e+00 1.4240986275871153e+01 1.3132168842206012e+01 1 0 1
574 1 3.6752795237142610e+00 7.9696201386447019e-01 2.0314415244225252e+01 0 -1 1
6359 1 9.8503283749462902e+00 1.5149124885095034e+01 1.3102182339319963e+01 0 0 0
5097 1 1.0762708026660809e+01 1.2656521159434902e+01 1.2252297782028839e+01 -2 1 0
2991 1 9.9453011231144528e-01 1.4862995239913674e+00 1.5644617471944546e+01 1 1 1
1399 1 3.0671085981894164e+00 3.1898425861422965e+00 1.6556641414946487e+01 -1 2 1
3799 1 3.3639570616628141e+00 3.3100048482849029e+00 1.9268747314888433e+01 1 4 1
3844 1 5.6338649895533619e+00 2.2452855447525844e+00 1.5774921489029131e+01 0 5 1
4737 1 7.8397250888673398e+00 3.8830243090077827e+00 1.9405025123269436e+01 1 0 0
5146 1 7.9571209976460606e+00 1.5886777429359938e+01 1.9551555043783193e+01 -1 0 0
493 1 1.0321524785023751e+01 2.7216164433394554e+00 1.5986978034982052e+01 2 2 1
1481 1 1.0395010613705324e+01 5.3578415603920415e-01 1.2451424263644890e+01 2 1 1
6206 1 4.8824241341033092e-01 6.7213105195892986e+00 1.9605175356927674e+01 -1 0 0
5426 1 2.8388218619707972e+00 5.7825764338109824e+00 1.5865689127543634e+01 3 2 0
4768 1 1.0585171853400810e+01 3.3920728643379822e-01 1.9367598234234119e+01 1 -2 1
3695 1 7.8808313347724832e+00 3.7801011067385546e+00 1.6707713531920408e+01 -2 -2 0
2157 1 7.2168848055338559e+00 6.4847297052001753e+00 1.6232536799989866e+01 1 0 1
429 1 4.8454676053269274e+00 7.7130053333107762e+00 1.6654374928410775e+01 2 0 0
5191 1 4.7293158499707362e+00 7.5645856052974487e+00 1.9386584360805287e+01 1 -2 0
4651 1 9.4857591122908466e-02 6.6800481511775525e+00 1.2215641857374017e+01 -1 -2 1
5019 1 1.1937089610867645e+01 4.6748087916055638e+00 1.6653044686904952e+01 2 2 1
1574 1 4.4463525781470787e+00 1.0395036574122624e+01 1.6148758590464059e+01 0 1 1
1662 1 1.7536672456779048e+00 1.0869271149687190e+01 1.6823338872040516e+01 0 0 1
4773 1 2.0688532046447841e+00 1.0995704168077806e+01 1.9629758260184644e+01 -1 -1 1
258 1 8.3608585960763957e+00 1.3318463845687749e+01 2.0581350865894045e+01 0 -2 1
3690 1 6.3217434592917972e+00 1.1853420969245244e+01 1.9604915147655529e+01 4 1 0
4989 1 6.3575624328801794e+00 1.1840236099607720e+01 1.6644194960380020e+01 0 2 0
3615 1 9.2173907792553287e+00 8.3082235294684477e+00 1.6976858349258251e+01 0 0 0
1476 1 9.1234297218440776e+00 7.9034966348814892e+00 1.9719642671943507e+01 1 1 0
3461 1 1.7939158409693283e+00 1.3514313165212819e+01 1.5942748890788057e+01 0 2 0
4584 1 3.2692170721804756e+00 1.5637483048748344e+01 1.9572243006460671e+01 0 -2 1
2009 1 3.7252369283232349e+00 1.5413843006900640e+01 1.6945588375677037e+01 2 -1 0
5321 1 6.0117819924771059e+00 1.4271906488269739e+01 1.5990720288830900e+01 2 1 0
4890 1 1.0786968179503205e+01 1.2265004447768840e+01 1.9460485425143652e+01 -1 -1 1
6358 1 1.0093005762605813e+01 1.5190853719202591e+01 1.5851944135976222e+01 4 -1 0
144 1 1.0477321660892651e+01 1.2550759890026743e+01 1.6704305138372288e+01 1 1 0
3091 1 3.8675055704924022e+00 5.8656193493111075e-01 2.2958485661112196e+01 1 -1 1
336 1 6.3370822718302273e+00 1.1687605853437095e+01 1.2454231927056144e+01 3 0 0
3435 1 8.2096398509675605e+00 1.4919968068665259e+00 2.0181443645850045e+01 -2 -2 0
197 1 8.4671195386015050e+00 1.7193600283723467e+00 2.2856394005495790e+01 -1 1 0
6393 1 6.7508740260709379e+00 9.1340368096977436e+00 2.0398358618541724e+01 0 2 0
3230 1 1.2065070697099872e+01 4.4410167235821802e+00 1.9402584562833862e+01 0 0 1
5123 1 1.0571537525190131e+00 4.2025372197785043e+00 2.3255277069517732e+01 0 -1 0
5067 1 1.1138960515480103e+00 4.0772090422796783e+00 2.0397347825334247e+01 4 1 0
3557 1 1.9633218184145358e+00 1.1026990257606382e+01 1.2558251222710323e+01 0 0 0
3132 1 5.4213837629367978e+00 4.9211722181261868e+00 2.0341771556651377e+01 1 1 1
4871 1 5.1460898918808367e+00 4.8761605851891865e+00 2.3023684104559951e+01 2 2 1
5233 1 9.6477886752048310e+00 5.7494523218981426e+00 2.3246200224198756e+01 0 0 0
1836 1 9.8071165785629724e+00 5.4280672073981044e+00 2.0621755429794632e+01 0 2 0
3050 1 2.4413127957882805e+00 8.2892081024797033e+00 2.0483049707788226e+01 1 1 0
2019 1 2.3137449687055454e+00 8.2456249818630365e+00 2.3109038754046601e+01 -2 0 0
1282 1 3.9193023882961846e+00 1.3043351174808061e+01 2.0694759411041119e+01 0 -2 1
5374 1 6.6056964174776027e+00 9.1504922363119565e+00 2.3210866930437849e+01 -1 2 1
6564 1 3.6402963773326080e-01 6.8598716630895655e+00 1.6853709098850114e+01 2 2 0
6548 1 3.3890064922225442e+00 1.5438796491121446e+01 1.2436559229601629e+01 4 1 0
4934 1 1.2023266153491202e+01 4.4137914940132967e+00 2.3901532159639800e+01 -1 0 0
2133 1 1.0724982637716394e+01 1.2437690249267037e+01 2.3943095494708256e+01 -1 0 0
1566 1 1.0553120618215862e+01 6.6024235739331794e-01 2.4009418133063633e+01 0 0 1
3391 1 3.0424513425007920e+00 3.1953767503115622e+00 1.1988557835040911e+01 1 -1 1
594 2 0.0000000000000000e+00 2.8417180249513345e+00 2.6653103721316679e+01 0 0 0
596 2 0.0000000000000000e+00 0.0000000000000000e+00 2.6653103721316679e+01 0 0 0
598 2 1.2305000000000001e+00 7.1042950623783474e-01 2.6653103721316679e+01 0 0 0
605 2 1.2305000000000001e+00 2.1312885187134998e+00 2.6653103721316679e+01 0 0 0
607 2 2.4610000000000003e+00 2.8417180249513345e+00 2.6653103721316679e+01 0 0 0
609 2 2.4610000000000003e+00 0.0000000000000000e+00 2.6653103721316679e+01 0 0 0
611 2 3.6915000000000004e+00 7.1042950623783474e-01 2.6653103721316679e+01 0 0 0
626 2 3.6914999999999996e+00 2.1312885187134998e+00 2.6653103721316679e+01 0 0 0
4791 1 7.5881363413383855e+00 4.2870101868444870e+00 2.4099987278029154e+01 -1 2 0
628 2 4.9220000000000006e+00 2.8417180249513332e+00 2.6653103721316679e+01 0 0 0
630 2 4.9220000000000006e+00 0.0000000000000000e+00 2.6653103721316679e+01 0 0 0
632 2 6.1524999999999999e+00 7.1042950623783407e-01 2.6653103721316679e+01 0 0 0
655 2 6.1524999999999999e+00 2.1312885187134989e+00 2.6653103721316679e+01 0 0 0
657 2 7.3829999999999991e+00 2.8417180249513345e+00 2.6653103721316679e+01 0 0 0
659 2 7.3829999999999991e+00 0.0000000000000000e+00 2.6653103721316679e+01 0 0 0
3540 1 9.0436992346004228e+00 8.3772943657421504e+00 2.4088133488155101e+01 0 2 0
661 2 8.6134999999999984e+00 7.1042950623783407e-01 2.6653103721316679e+01 0 0 0
692 2 8.6134999999999984e+00 2.1312885187135002e+00 2.6653103721316679e+01 0 0 0
694 2 9.8440000000000012e+00 2.8417180249513332e+00 2.6653103721316679e+01 0 0 0
696 2 9.8440000000000012e+00 0.0000000000000000e+00 2.6653103721316679e+01 0 0 0
698 2 1.1074500000000002e+01 7.1042950623783330e-01 2.6653103721316679e+01 0 0 0
737 2 1.1074500000000002e+01 2.1312885187135002e+00 2.6653103721316679e+01 0 0 0
1009 2 6.1524999999999990e+00 1.4919019630994494e+01 3.3408896278687180e+01 0 0 0
599 2 0.0000000000000000e+00 7.1042950623783341e+00 2.6653103721316679e+01 0 0 0
601 2 0.0000000000000000e+00 4.2625770374269996e+00 2.6653103721316679e+01 0 0 0
603 2 1.2305000000000001e+00 4.9730065436648339e+00 2.6653103721316679e+01 0 0 0
618 2 1.2305000000000001e+00 6.3938655561404980e+00 2.6653103721316679e+01 0 0 0
620 2 2.4610000000000003e+00 7.1042950623783341e+00 2.6653103721316679e+01 0 0 0
622 2 2.4610000000000003e+00 4.2625770374269996e+00 2.6653103721316679e+01 0 0 0
624 2 3.6914999999999996e+00 4.9730065436648339e+00 2.6653103721316679e+01 0 0 0
647 2 3.6914999999999996e+00 6.3938655561404980e+00 2.6653103721316679e+01 0 0 0
649 2 4.9220000000000006e+00 7.1042950623783341e+00 2.6653103721316679e+01 0 0 0
651 2 4.9220000000000006e+00 4.2625770374269978e+00 2.6653103721316679e+01 0 0 0
653 2 6.1524999999999999e+00 4.9730065436648339e+00 2.6653103721316679e+01 0 0 0
684 2 6.1524999999999999e+00 6.3938655561404980e+00 2.6653103721316679e+01 0 0 0
686 2 7.3830000000000009e+00 7.1042950623783341e+00 2.6653103721316679e+01 0 0 0
688 2 7.3829999999999991e+00 4.2625770374269996e+00 2.6653103721316679e+01 0 0 0
1054 2 1.1074500000000002e+01 1.4919019630994494e+01 3.3408896278687180e+01 0 0 0
690 2 8.6135000000000002e+00 4.9730065436648339e+00 2.6653103721316679e+01 0 0 0
729 2 8.6135000000000002e+00 6.3938655561404980e+00 2.6653103721316679e+01 0 0 0
731 2 9.8440000000000012e+00 7.1042950623783341e+00 2.6653103721316679e+01 0 0 0
733 2 9.8440000000000012e+00 4.2625770374270004e+00 2.6653103721316679e+01 0 0 0
735 2 1.1074500000000002e+01 4.9730065436648339e+00 2.6653103721316679e+01 0 0 0
776 2 1.1074500000000002e+01 6.3938655561404980e+00 2.6653103721316679e+01 0 0 0
1010 2 7.3829999999999991e+00 1.5629449137232333e+01 3.3408896278687180e+01 0 0 0
612 2 0.0000000000000000e+00 1.1366872099805333e+01 2.6653103721316679e+01 0 0 0
614 2 0.0000000000000000e+00 8.5251540748539991e+00 2.6653103721316679e+01 0 0 0
616 2 1.2305000000000001e+00 9.2355835810918343e+00 2.6653103721316679e+01 0 0 0
639 2 1.2305000000000001e+00 1.0656442593567498e+01 2.6653103721316679e+01 0 0 0
641 2 2.4610000000000003e+00 1.1366872099805333e+01 2.6653103721316679e+01 0 0 0
643 2 2.4610000000000003e+00 8.5251540748539991e+00 2.6653103721316679e+01 0 0 0
645 2 3.6915000000000004e+00 9.2355835810918343e+00 2.6653103721316679e+01 0 0 0
676 2 3.6914999999999996e+00 1.0656442593567499e+01 2.6653103721316679e+01 0 0 0
3137 1 1.9567926452260314e+00 1.0874100218987563e+01 2.4048477437649240e+01 0 0 1
678 2 4.9220000000000006e+00 1.1366872099805333e+01 2.6653103721316679e+01 0 0 0
680 2 4.9220000000000006e+00 8.5251540748539991e+00 2.6653103721316679e+01 0 0 0
682 2 6.1524999999999999e+00 9.2355835810918343e+00 2.6653103721316679e+01 0 0 0
721 2 6.1524999999999999e+00 1.0656442593567499e+01 2.6653103721316679e+01 0 0 0
723 2 7.3829999999999991e+00 1.1366872099805333e+01 2.6653103721316679e+01 0 0 0
725 2 7.3830000000000009e+00 8.5251540748539991e+00 2.6653103721316679e+01 0 0 0
727 2 8.6134999999999984e+00 9.2355835810918343e+00 2.6653103721316679e+01 0 0 0
768 2 8.6134999999999984e+00 1.0656442593567498e+01 2.6653103721316679e+01 0 0 0
770 2 9.8440000000000012e+00 1.1366872099805333e+01 2.6653103721316679e+01 0 0 0
772 2 9.8440000000000012e+00 8.5251540748539956e+00 2.6653103721316679e+01 0 0 0
774 2 1.1074500000000002e+01 9.2355835810918343e+00 2.6653103721316679e+01 0 0 0
815 2 1.1074500000000002e+01 1.0656442593567498e+01 2.6653103721316679e+01 0 0 0
817 2 1.2304999999999998e+01 1.1366872099805333e+01 2.6653103721316679e+01 0 0 0
986 2 4.9220000000000006e+00 1.5629449137232333e+01 3.3408896278687180e+01 0 0 0
1035 2 9.8440000000000012e+00 1.2787731112280996e+01 3.3408896278687180e+01 0 0 0
633 2 0.0000000000000000e+00 1.5629449137232333e+01 2.6653103721316679e+01 0 0 0
635 2 0.0000000000000000e+00 1.2787731112280996e+01 2.6653103721316679e+01 0 0 0
637 2 1.2305000000000001e+00 1.3498160618518829e+01 2.6653103721316679e+01 0 0 0
668 2 1.2305000000000001e+00 1.4919019630994494e+01 2.6653103721316679e+01 0 0 0
670 2 2.4610000000000003e+00 1.5629449137232328e+01 2.6653103721316679e+01 0 0 0
672 2 2.4610000000000003e+00 1.2787731112280996e+01 2.6653103721316679e+01 0 0 0
674 2 3.6915000000000004e+00 1.3498160618518829e+01 2.6653103721316679e+01 0 0 0
713 2 3.6915000000000004e+00 1.4919019630994494e+01 2.6653103721316679e+01 0 0 0
715 2 4.9220000000000006e+00 1.5629449137232333e+01 2.6653103721316679e+01 0 0 0
717 2 4.9220000000000006e+00 1.2787731112280996e+01 2.6653103721316679e+01 0 0 0
719 2 6.1524999999999990e+00 1.3498160618518829e+01 2.6653103721316679e+01 0 0 0
760 2 6.1524999999999990e+00 1.4919019630994494e+01 2.6653103721316679e+01 0 0 0
762 2 7.3829999999999991e+00 1.5629449137232333e+01 2.6653103721316679e+01 0 0 0
764 2 7.3829999999999991e+00 1.2787731112280996e+01 2.6653103721316679e+01 0 0 0
1011 2 7.3829999999999991e+00 1.2787731112280996e+01 3.3408896278687180e+01 0 0 0
766 2 8.6135000000000002e+00 1.3498160618518835e+01 2.6653103721316679e+01 0 0 0
807 2 8.6135000000000002e+00 1.4919019630994494e+01 2.6653103721316679e+01 0 0 0
809 2 9.8440000000000012e+00 1.5629449137232328e+01 2.6653103721316679e+01 0 0 0
811 2 9.8440000000000012e+00 1.2787731112280996e+01 2.6653103721316679e+01 0 0 0
813 2 1.1074500000000002e+01 1.3498160618518829e+01 2.6653103721316679e+01 0 0 0
849 2 1.1074500000000002e+01 1.4919019630994494e+01 2.6653103721316679e+01 0 0 0
595 2 0.0000000000000000e+00 1.4208590124756650e+00 3.0030999999998805e+01 0 0 0
597 2 0.0000000000000000e+00 0.0000000000000000e+00 3.0030999999998805e+01 0 0 0
604 2 1.2305000000000001e+00 3.5521475311891644e+00 3.0030999999998805e+01 0 0 0
606 2 1.2305000000000001e+00 2.1312885187134998e+00 3.0030999999998805e+01 0 0 0
608 2 2.4610000000000003e+00 1.4208590124756650e+00 3.0030999999998805e+01 0 0 0
610 2 2.4610000000000003e+00 0.0000000000000000e+00 3.0030999999998805e+01 0 0 0
625 2 3.6914999999999996e+00 3.5521475311891644e+00 3.0030999999998805e+01 0 0 0
627 2 3.6914999999999996e+00 2.1312885187134998e+00 3.0030999999998805e+01 0 0 0
629 2 4.9220000000000006e+00 1.4208590124756650e+00 3.0030999999998805e+01 0 0 0
631 2 4.9220000000000006e+00 0.0000000000000000e+00 3.0030999999998805e+01 0 0 0
654 2 6.1524999999999999e+00 3.5521475311891644e+00 3.0030999999998805e+01 0 0 0
656 2 6.1524999999999999e+00 2.1312885187134989e+00 3.0030999999998805e+01 0 0 0
658 2 7.3829999999999991e+00 1.4208590124756659e+00 3.0030999999998805e+01 0 0 0
660 2 7.3829999999999991e+00 0.0000000000000000e+00 3.0030999999998805e+01 0 0 0
691 2 8.6134999999999984e+00 3.5521475311891657e+00 3.0030999999998805e+01 0 0 0
693 2 8.6134999999999984e+00 2.1312885187135002e+00 3.0030999999998805e+01 0 0 0
695 2 9.8440000000000012e+00 1.4208590124756659e+00 3.0030999999998805e+01 0 0 0
697 2 9.8440000000000012e+00 0.0000000000000000e+00 3.0030999999998805e+01 0 0 0
736 2 1.1074500000000002e+01 3.5521475311891644e+00 3.0030999999998805e+01 0 0 0
738 2 1.1074500000000002e+01 2.1312885187135002e+00 3.0030999999998805e+01 0 0 0
600 2 0.0000000000000000e+00 5.6834360499026637e+00 3.0030999999998805e+01 0 0 0
602 2 0.0000000000000000e+00 4.2625770374269996e+00 3.0030999999998805e+01 0 0 0
617 2 1.2305000000000001e+00 7.8147245686161639e+00 3.0030999999998805e+01 0 0 0
619 2 1.2305000000000001e+00 6.3938655561404980e+00 3.0030999999998805e+01 0 0 0
621 2 2.4610000000000003e+00 5.6834360499026637e+00 3.0030999999998805e+01 0 0 0
623 2 2.4610000000000003e+00 4.2625770374269996e+00 3.0030999999998805e+01 0 0 0
646 2 3.6914999999999996e+00 7.8147245686161639e+00 3.0030999999998805e+01 0 0 0
648 2 3.6914999999999996e+00 6.3938655561404980e+00 3.0030999999998805e+01 0 0 0
650 2 4.9220000000000006e+00 5.6834360499026637e+00 3.0030999999998805e+01 0 0 0
652 2 4.9220000000000006e+00 4.2625770374269978e+00 3.0030999999998805e+01 0 0 0
683 2 6.1524999999999999e+00 7.8147245686161639e+00 3.0030999999998805e+01 0 0 0
685 2 6.1524999999999999e+00 6.3938655561404980e+00 3.0030999999998805e+01 0 0 0
687 2 7.3829999999999991e+00 5.6834360499026637e+00 3.0030999999998805e+01 0 0 0
689 2 7.3829999999999991e+00 4.2625770374269996e+00 3.0030999999998805e+01 0 0 0
728 2 8.6135000000000002e+00 7.8147245686161639e+00 3.0030999999998805e+01 0 0 0
730 2 8.6135000000000002e+00 6.3938655561404980e+00 3.0030999999998805e+01 0 0 0
732 2 9.8440000000000012e+00 5.6834360499026637e+00 3.0030999999998805e+01 0 0 0
734 2 9.8440000000000012e+00 4.2625770374270004e+00 3.0030999999998805e+01 0 0 0
775 2 1.1074500000000002e+01 7.8147245686161639e+00 3.0030999999998805e+01 0 0 0
777 2 1.1074500000000002e+01 6.3938655561404980e+00 3.0030999999998805e+01 0 0 0
613 2 0.0000000000000000e+00 9.9460130873296642e+00 3.0030999999998805e+01 0 0 0
615 2 0.0000000000000000e+00 8.5251540748539991e+00 3.0030999999998805e+01 0 0 0
638 2 1.2305000000000001e+00 1.2077301606043163e+01 3.0030999999998805e+01 0 0 0
640 2 1.2305000000000001e+00 1.0656442593567498e+01 3.0030999999998805e+01 0 0 0
642 2 2.4610000000000003e+00 9.9460130873296642e+00 3.0030999999998805e+01 0 0 0
644 2 2.4610000000000003e+00 8.5251540748539991e+00 3.0030999999998805e+01 0 0 0
675 2 3.6914999999999996e+00 1.2077301606043163e+01 3.0030999999998805e+01 0 0 0
677 2 3.6914999999999996e+00 1.0656442593567499e+01 3.0030999999998805e+01 0 0 0
679 2 4.9220000000000006e+00 9.9460130873296642e+00 3.0030999999998805e+01 0 0 0
681 2 4.9220000000000006e+00 8.5251540748539991e+00 3.0030999999998805e+01 0 0 0
720 2 6.1524999999999999e+00 1.2077301606043163e+01 3.0030999999998805e+01 0 0 0
722 2 6.1524999999999999e+00 1.0656442593567499e+01 3.0030999999998805e+01 0 0 0
724 2 7.3830000000000009e+00 9.9460130873296642e+00 3.0030999999998805e+01 0 0 0
726 2 7.3830000000000009e+00 8.5251540748539991e+00 3.0030999999998805e+01 0 0 0
767 2 8.6135000000000002e+00 1.2077301606043163e+01 3.0030999999998805e+01 0 0 0
769 2 8.6134999999999984e+00 1.0656442593567498e+01 3.0030999999998805e+01 0 0 0
771 2 9.8440000000000012e+00 9.9460130873296642e+00 3.0030999999998805e+01 0 0 0
773 2 9.8440000000000012e+00 8.5251540748539956e+00 3.0030999999998805e+01 0 0 0
814 2 1.1074500000000002e+01 1.2077301606043163e+01 3.0030999999998805e+01 0 0 0
816 2 1.1074500000000002e+01 1.0656442593567498e+01 3.0030999999998805e+01 0 0 0
634 2 0.0000000000000000e+00 1.4208590124756663e+01 3.0030999999998805e+01 0 0 0
636 2 0.0000000000000000e+00 1.2787731112280996e+01 3.0030999999998805e+01 0 0 0
669 2 1.2305000000000001e+00 1.4919019630994494e+01 3.0030999999998805e+01 0 0 0
671 2 2.4610000000000003e+00 1.4208590124756663e+01 3.0030999999998805e+01 0 0 0
673 2 2.4610000000000003e+00 1.2787731112280996e+01 3.0030999999998805e+01 0 0 0
714 2 3.6915000000000004e+00 1.4919019630994494e+01 3.0030999999998805e+01 0 0 0
765 2 7.3829999999999991e+00 1.2787731112280996e+01 3.0030999999998805e+01 0 0 0
763 2 7.3830000000000009e+00 1.4208590124756663e+01 3.0030999999998805e+01 0 0 0
716 2 4.9220000000000006e+00 1.4208590124756663e+01 3.0030999999998805e+01 0 0 0
718 2 4.9220000000000006e+00 1.2787731112280996e+01 3.0030999999998805e+01 0 0 0
761 2 6.1524999999999990e+00 1.4919019630994494e+01 3.0030999999998805e+01 0 0 0
852 2 1.2304999999999998e+01 1.4208590124756658e+01 3.0030999999998805e+01 0 0 0
848 2 1.1074500000000002e+01 1.6339878643470161e+01 3.0030999999998805e+01 0 0 0
812 2 9.8440000000000012e+00 1.2787731112280996e+01 3.0030999999998805e+01 0 0 0
810 2 9.8440000000000012e+00 1.4208590124756663e+01 3.0030999999998805e+01 0 0 0
808 2 8.6135000000000002e+00 1.4919019630994494e+01 3.0030999999998805e+01 0 0 0
850 2 1.1074500000000002e+01 1.4919019630994494e+01 3.0030999999998805e+01 0 0 0
923 2 0.0000000000000000e+00 2.8417180249513345e+00 3.3408896278687180e+01 0 0 0
924 2 0.0000000000000000e+00 0.0000000000000000e+00 3.3408896278687180e+01 0 0 0
925 2 1.2305000000000001e+00 7.1042950623783474e-01 3.3408896278687180e+01 0 0 0
929 2 1.2305000000000001e+00 2.1312885187134998e+00 3.3408896278687180e+01 0 0 0
930 2 2.4610000000000003e+00 2.8417180249513345e+00 3.3408896278687180e+01 0 0 0
931 2 2.4610000000000003e+00 0.0000000000000000e+00 3.3408896278687180e+01 0 0 0
932 2 3.6915000000000004e+00 7.1042950623783474e-01 3.3408896278687180e+01 0 0 0
940 2 3.6914999999999996e+00 2.1312885187134998e+00 3.3408896278687180e+01 0 0 0
1033 2 8.6135000000000002e+00 1.4919019630994494e+01 3.3408896278687180e+01 0 0 0
941 2 4.9220000000000006e+00 2.8417180249513332e+00 3.3408896278687180e+01 0 0 0
942 2 4.9220000000000006e+00 0.0000000000000000e+00 3.3408896278687180e+01 0 0 0
943 2 6.1524999999999999e+00 7.1042950623783407e-01 3.3408896278687180e+01 0 0 0
955 2 6.1524999999999999e+00 2.1312885187134989e+00 3.3408896278687180e+01 0 0 0
956 2 7.3829999999999991e+00 2.8417180249513345e+00 3.3408896278687180e+01 0 0 0
957 2 7.3829999999999991e+00 0.0000000000000000e+00 3.3408896278687180e+01 0 0 0
1036 2 1.1074500000000002e+01 1.3498160618518829e+01 3.3408896278687180e+01 0 0 0
958 2 8.6134999999999984e+00 7.1042950623783407e-01 3.3408896278687180e+01 0 0 0
974 2 8.6134999999999984e+00 2.1312885187135002e+00 3.3408896278687180e+01 0 0 0
975 2 9.8440000000000012e+00 2.8417180249513332e+00 3.3408896278687180e+01 0 0 0
976 2 9.8440000000000012e+00 0.0000000000000000e+00 3.3408896278687180e+01 0 0 0
977 2 1.1074500000000002e+01 7.1042950623783330e-01 3.3408896278687180e+01 0 0 0
997 2 1.1074500000000002e+01 2.1312885187135002e+00 3.3408896278687180e+01 0 0 0
1012 2 8.6135000000000002e+00 1.3498160618518835e+01 3.3408896278687180e+01 0 0 0
926 2 0.0000000000000000e+00 7.1042950623783341e+00 3.3408896278687180e+01 0 0 0
927 2 0.0000000000000000e+00 4.2625770374269996e+00 3.3408896278687180e+01 0 0 0
928 2 1.2305000000000001e+00 4.9730065436648339e+00 3.3408896278687180e+01 0 0 0
936 2 1.2305000000000001e+00 6.3938655561404980e+00 3.3408896278687180e+01 0 0 0
937 2 2.4610000000000003e+00 7.1042950623783341e+00 3.3408896278687180e+01 0 0 0
938 2 2.4610000000000003e+00 4.2625770374269996e+00 3.3408896278687180e+01 0 0 0
939 2 3.6914999999999996e+00 4.9730065436648339e+00 3.3408896278687180e+01 0 0 0
951 2 3.6914999999999996e+00 6.3938655561404980e+00 3.3408896278687180e+01 0 0 0
952 2 4.9220000000000006e+00 7.1042950623783341e+00 3.3408896278687180e+01 0 0 0
953 2 4.9220000000000006e+00 4.2625770374269978e+00 3.3408896278687180e+01 0 0 0
954 2 6.1524999999999999e+00 4.9730065436648339e+00 3.3408896278687180e+01 0 0 0
970 2 6.1524999999999999e+00 6.3938655561404980e+00 3.3408896278687180e+01 0 0 0
971 2 7.3830000000000009e+00 7.1042950623783341e+00 3.3408896278687180e+01 0 0 0
972 2 7.3829999999999991e+00 4.2625770374269996e+00 3.3408896278687180e+01 0 0 0
973 2 8.6135000000000002e+00 4.9730065436648339e+00 3.3408896278687180e+01 0 0 0
993 2 8.6135000000000002e+00 6.3938655561404980e+00 3.3408896278687180e+01 0 0 0
994 2 9.8440000000000012e+00 7.1042950623783341e+00 3.3408896278687180e+01 0 0 0
995 2 9.8440000000000012e+00 4.2625770374270004e+00 3.3408896278687180e+01 0 0 0
996 2 1.1074500000000002e+01 4.9730065436648339e+00 3.3408896278687180e+01 0 0 0
1017 2 1.1074500000000002e+01 6.3938655561404980e+00 3.3408896278687180e+01 0 0 0
933 2 0.0000000000000000e+00 1.1366872099805333e+01 3.3408896278687180e+01 0 0 0
934 2 0.0000000000000000e+00 8.5251540748539991e+00 3.3408896278687180e+01 0 0 0
935 2 1.2305000000000001e+00 9.2355835810918343e+00 3.3408896278687180e+01 0 0 0
947 2 1.2305000000000001e+00 1.0656442593567498e+01 3.3408896278687180e+01 0 0 0
948 2 2.4610000000000003e+00 1.1366872099805333e+01 3.3408896278687180e+01 0 0 0
949 2 2.4610000000000003e+00 8.5251540748539991e+00 3.3408896278687180e+01 0 0 0