
# Create simulation box and atoms

read_data data.graphite_ML_1atm_e
  orthogonal box = (0 0 0.848635) to (49.22 49.0196 59.2134)
  4 by 3 by 5 MPI processor grid
  reading atoms ...
  6589 atoms
  reading velocities ...
  6589 velocities
group water type 1
3829 atoms in group water
group graphite type 2
2760 atoms in group graphite

# Define potential

pair_style sw
pair_coeff * * MLC_e.sw mW C


# Fix graphite atoms in place

fix 5 graphite setforce 0.0 0.0 0.0
velocity graphite set 0.0 0.0 0.0


# Equilibration of molecular water

# Add velocity/set timestep

velocity	    water create ${TEMP} ${SEED} rot yes dist gaussian
velocity	    water create 230 ${SEED} rot yes dist gaussian
velocity	    water create 230 6509 rot yes dist gaussian
timestep	    5.0

# Define output

compute			1 water msd
compute			3 water temp
thermo	    	50
thermo_style	custom step temp press vol etotal ke pe c_1[4] c_3

# Neighbor lists

neigh_modify    delay 0 every 1 check yes

# Set fixes

fix             1 water momentum 10 linear 1 1 1 rescale
fix             2 water nve
fix             3 water temp/csvr ${TEMP} ${TEMP} 500.0 ${SEED}
fix             3 water temp/csvr 230 ${TEMP} 500.0 ${SEED}
fix             3 water temp/csvr 230 230 500.0 ${SEED}
fix             3 water temp/csvr 230 230 500.0 6509
fix             4 water press/berendsen z ${PRES} ${PRES} 1000.0 modulus 20000
fix             4 water press/berendsen z 1 ${PRES} 1000.0 modulus 20000
fix             4 water press/berendsen z 1 1 1000.0 modulus 20000

# Run 0.5 ns equilibration

dump		    1 all atom 2000 ${DIR}/eq.${NAME}-${TEMP}.dump
dump		    1 all atom 2000 run_2/eq.${NAME}-${TEMP}.dump
dump		    1 all atom 2000 run_2/eq.het_freeze_2-${TEMP}.dump
dump		    1 all atom 2000 run_2/eq.het_freeze_2-230.dump

reset_timestep  0

run	            100000
Neighbor list info ...
  update every 1 steps, delay 0 steps, check yes
  max neighbors/atom: 2000, page size: 100000
  master list distance cutoff = 7.76
  ghost atom cutoff = 7.76
  binsize = 3.88, bins = 13 13 16
  1 neighbor lists, perpetual/occasional/extra = 1 0 0
  (1) pair sw, perpetual
      attributes: full, newton on
      pair build: full/bin/atomonly
      stencil: full/bin/3d
      bin: standard
Per MPI rank memory allocation (min/avg/max) = 4.091 | 4.192 | 4.513 Mbytes
Step Temp Press Volume TotEng KinEng PotEng c_1[4] c_3 
       0    133.64299   -536.31266     140819.3   -33204.401    2624.4244   -35828.825            0          230 
      50    180.82863   -892.65909    140392.92   -33641.797    3551.0361   -37192.833   0.80330445    311.20664 
     100    175.08332      -871.17    139988.81   -34040.671    3438.2121   -37478.883     1.758872    301.31894 
     150    165.58933   -896.22729    139483.11   -34412.956    3251.7731    -37664.73    2.5956807    284.97975 
     200    161.77532   -1037.2833    139042.92    -34689.73    3176.8752   -37866.606    3.3372129    278.41583 
     250     158.7525   -936.84343    138681.91   -34945.149    3117.5143   -38062.664    4.1063277    273.21354 
     300    157.80092   -912.14853    138267.97   -35172.712    3098.8276   -38271.539    4.8207932    271.57587 
     350     153.8809    -664.7579    137926.74   -35381.135     3021.848   -38402.983    5.3852403    264.82952 
     400    151.47093   -778.50224    137606.17   -35570.116     2974.522   -38544.638    5.8762197    260.68195 
     450    147.12875    -287.1846    137443.55   -35734.355    2889.2521   -38623.607    6.4130369    253.20904 
     500    147.66158   -525.13488    137386.46   -35860.264    2899.7155   -38759.979    6.7988344    254.12604 
     550    146.18154   -575.73458     137228.5   -35974.758    2870.6512   -38845.409    7.1773431    251.57889 
     600    144.03861    -556.0365     137144.1   -36102.206    2828.5693   -38930.775    7.5055176     247.8909 
     650    145.00137   -325.10311    137023.33    -36195.56    2847.4754   -39043.035     7.867812    249.54781 
     700    142.52429   -725.20943    136988.55   -36232.622    2798.8316   -39031.454    8.2568929    245.28474 
     750    142.26964   -589.68341    136797.35   -36334.971    2793.8309   -39128.802    8.7817508    244.84649 
     800    140.16578   -300.07369    136565.36   -36425.846    2752.5163   -39178.362    9.3276517    241.22575 
     850    136.39757   -483.69271    136437.39   -36479.538    2678.5178   -39158.056    9.7288718    234.74065 
     900    136.74309   -358.35731    136389.26   -36513.399    2685.3029   -39198.701    9.9892616    235.33528 
     950    138.99496   -506.03057    136240.82   -36488.899    2729.5242   -39218.423    10.250206    239.21076 
    1000     134.5163    -470.5028    136274.17   -36591.538    2641.5741   -39233.112    10.455435    231.50297 
    1050    139.48488   -287.84614    136205.52   -36624.678     2739.145   -39363.823    10.785643    240.05391 
    1100    135.41587   -373.65191    136160.98   -36641.697    2659.2395   -39300.936    11.129926    233.05113 
    1150    133.89186    -361.0171    136106.88   -36696.285    2629.3116   -39325.597     11.39016    230.42831 
    1200    135.55777    -530.2377    136054.25   -36681.671    2662.0261   -39343.697    11.658327    233.29535 
    1250    137.18242   -97.459205    136093.16   -36688.492    2693.9303   -39382.422    11.909039    236.09138 
    1300    136.36568   -87.781431    136093.61   -36656.348    2677.8915   -39334.239    12.260443    234.68576 
    1350    136.23256   -397.73471    135999.62   -36725.295    2675.2772   -39400.572    12.501664    234.45665 
    1400     134.0626   -133.45179    136002.79   -36778.024    2632.6646   -39410.688    12.760782    230.72215 
    1450    135.06794   -265.89764    135936.61   -36817.858    2652.4071   -39470.265    13.147081    232.45235 
    1500    134.74466   -469.96087    135866.15   -36822.309    2646.0586   -39468.368    13.389597    231.89598 
    1550    134.29418   -270.15869    135835.77   -36802.051    2637.2122   -39439.263    13.727452     231.1207 
    1600    134.98196   -200.65803    135859.43   -36858.576    2650.7185   -39509.295    13.853451    232.30437 
    1650    133.48929   -174.32551    135883.87   -36902.307    2621.4061   -39523.713      13.9879    229.73548 
    1700    137.46558   -432.98342    135905.92   -36899.289    2699.4908   -39598.779    14.181892    236.57869 
    1750    132.66045   -266.54799    135893.08   -36991.667    2605.1297   -39596.797    14.424262    228.30905 
    1800    130.38137   -99.316621    135884.02   -36995.066    2560.3741    -39555.44    14.582241    224.38674 
    1850    133.35543   -355.34251    135932.01   -37027.203    2618.7774    -39645.98     14.70532     229.5051 
    1900     133.7417   -69.870685    135992.05   -37025.391    2626.3629   -39651.754     14.96334    230.16989 
    1950    130.19489   -255.14079    135976.29   -37062.348    2556.7122    -39619.06    15.125221    224.06582 
    2000    133.51117   -79.683085    136042.45   -37025.682    2621.8359   -39647.518    15.295779    229.77315 
    2050    130.89484   -262.42032    136008.45    -37014.12    2570.4574   -39584.577    15.494217    225.27043 
    2100    132.47743    12.088534    136097.82   -37036.411    2601.5358   -39637.947    15.648351    227.99408 
    2150    132.46183   -288.60048    136168.08   -37004.276    2601.2294   -39605.505    15.744979    227.96723 
    2200    134.08961   -76.271592     136060.3    -36968.06    2633.1951   -39601.255    16.021143    230.76864 
    2250    135.44798   -189.46004     136093.5   -36910.781    2659.8701   -39570.651    16.165171     233.1064 
    2300    134.92228   -64.209822    136151.41   -36956.114    2649.5465    -39605.66    16.227716    232.20166 
    2350    134.04974   -219.10908    136074.85   -36946.475    2632.4121   -39578.887    16.444484    230.70003 
    2400    135.59038   -324.88386    136137.43   -36936.088    2662.6665   -39598.754    16.581285    233.35147 
    2450    134.20529    36.857164    136133.45   -36938.512    2635.4667   -39573.979    16.846413    230.96773 
    2500    132.20682    14.623171    136240.15   -36926.337    2596.2215   -39522.558    17.028025    227.52835 
    2550    132.80108    -206.4284    136307.65   -36981.308    2607.8915     -39589.2    17.188996    228.55108 
    2600     134.5445   -196.91295    136396.64   -37031.538     2642.128   -39673.666    17.341858    231.55151 
    2650    133.08309    -39.70697    136515.04   -37056.682    2613.4294   -39670.111     17.54792    229.03642 
    2700    131.43051   -391.75985    136587.62   -37034.822    2580.9768   -39615.799     17.86727    226.19233 
    2750    133.16184   -148.10521    136588.44   -36998.612    2614.9759   -39613.588    17.994019    229.17195 
    2800    132.20897    -282.2047     136577.4   -37010.049    2596.2638   -39606.312    18.161049    227.53205 
    2850    132.29645   -161.35437    136520.17   -37010.418    2597.9818     -39608.4    18.600589    227.68261 
    2900    133.41248   -283.36273    136506.37   -37000.665    2619.8978   -39620.563    18.829552     229.6033 
    2950    132.66541   -10.999723    136556.35    -37043.41    2605.2272   -39648.637    18.902908    228.31759 
    3000    134.70448   -148.40301    136566.47   -37075.613    2645.2695   -39720.883    19.053393    231.82683 
    3050     134.7595   -58.112158    136651.48   -37073.353    2646.3499   -39719.703    19.252582    231.92152 
    3100    133.61309    75.644905    136700.96   -37047.733    2623.8373    -39671.57    19.395496    229.94855 
    3150    133.69601   -491.32258    136728.66   -37033.116    2625.4657   -39658.581    19.490516    230.09126 
    3200    133.36059   -215.31717    136676.87   -37083.324    2618.8787   -39702.203    19.570692    229.51399 
    3250    134.93281   -229.12537    136693.07   -37097.667    2649.7533    -39747.42    19.683923    232.21978 
    3300    132.86106    -156.4792     136655.1   -37074.509    2609.0692   -39683.579    19.856767     228.6543 
    3350    135.30174   -301.02817    136651.43   -37074.361    2656.9983    -39731.36    20.036688    232.85472 
    3400     132.5525   -106.94059    136563.55   -37076.996    2603.0099   -39680.006    20.247592    228.12327 
    3450    132.01926   -339.33128    136569.34   -37142.626    2592.5384   -39735.164    20.606222    227.20556 
    3500    137.13577   -304.46464    136573.53   -37135.071    2693.0143   -39828.085    20.772522     236.0111 
    3550    132.81528   -243.60579    136559.23   -37110.011    2608.1702   -39718.181    20.939288    228.57551 
    3600    133.89898   -265.53153    136590.86   -37107.318    2629.4515   -39736.769    21.038813    230.44056 
    3650     130.6236    2.9600784    136590.67   -37087.692    2565.1309   -39652.823     21.19818    224.80362 
    3700    133.78358   -73.829929    136614.58   -37063.838    2627.1853   -39691.023    21.407791    230.24196 
    3750    134.74318   -143.65659    136651.69   -37056.306    2646.0296   -39702.335    21.553798    231.89344 
    3800    134.15817   -232.54578    136653.73   -37062.453    2634.5414   -39696.994    21.860262    230.88664 
    3850    132.79441    -27.74011    136645.27   -37071.656    2607.7605   -39679.417    22.234799     228.5396 
    3900    133.63433     -96.3562    136666.28   -37063.005    2624.2544   -39687.259    22.391484     229.9851 
    3950    135.33663   -182.04195    136685.42   -37025.339    2657.6834   -39683.022    22.676191    232.91476 
    4000    133.61832    68.608788    136714.73   -37041.325    2623.9399   -39665.265    22.950567    229.95754 
    4050    132.12625   -113.14127    136771.84   -37093.579    2594.6393   -39688.218    22.949929    227.38969 
    4100    133.25275   -122.69488    136684.95   -37104.792     2616.761   -39721.553    23.154183     229.3284 
    4150    131.88617   -113.54621    136661.89   -37104.623    2589.9249   -39694.548    23.328256    226.97652 
    4200     132.7961   -313.27728    136658.02   -37103.378    2607.7935   -39711.172    23.393231     228.5425 
    4250    132.59774   -155.31607    136559.05   -37081.792    2603.8983    -39685.69    23.441634    228.20113 
    4300    131.26657   -187.82156    136507.61   -37130.962    2577.7573    -39708.72    23.515627    225.91018 
    4350    132.48183    97.715094    136515.53   -37147.409    2601.6221   -39749.032    23.587246    228.00165 
    4400    135.65279   -4.5680122    136543.31   -37069.216    2663.8921   -39733.108    23.724504    233.45888 
    4450    133.36784   -174.58799    136492.37   -37074.206    2619.0212   -39693.227    23.854185    229.52648 
    4500    132.20114   -113.50333    136488.84   -37075.445    2596.1101   -39671.555     23.99775    227.51858 
    4550    133.36924    -46.33834    136501.03   -37040.779    2619.0487   -39659.828    24.194919    229.52888 
    4600     132.1935   -12.263976    136547.53   -37017.927    2595.9599   -39613.887    24.259569    227.50542 
    4650     134.2858   -195.10726    136579.86   -37015.565    2637.0476   -39652.613    24.460123    231.10628 
    4700    134.98591   -153.82494     136621.5   -36971.037    2650.7962   -39621.833     24.53782    232.31118 
    4750    135.58274    -31.95593     136782.9   -36989.665    2662.5165   -39652.182     24.68169    233.33832 
    4800    131.42234   -129.65827    136888.06   -37018.008    2580.8163   -39598.824    24.933417    226.17826 
    4850    130.82106   -73.788202    136920.36   -36988.164    2569.0085   -39557.172    25.044185    225.14345 
    4900    133.20843   -180.67963    136949.67   -37027.069    2615.8907   -39642.959    25.109769    229.25212 
    4950    132.46673    -316.3369    136924.56   -37010.712    2601.3255   -39612.037    25.288248    227.97565 
    5000    129.74883   -407.97588     136961.8   -37065.449    2547.9526   -39613.401    25.366621    223.29815 
    5050    133.36806   -55.948624    137026.38   -37068.109    2619.0256   -39687.134    25.458817    229.52686 
    5100    132.95078   -197.25481    137097.66   -37058.553    2610.8311   -39669.385    25.548392     228.8087 
    5150    134.46312   -184.81998    137158.58    -37021.39    2640.5299    -39661.92    25.766296    231.41146 
    5200    132.99199   -357.93898    137166.31   -36999.077    2611.6405   -39610.718    26.011813    228.87964 
    5250    134.99102   -169.32876    137246.81   -37017.667    2650.8964   -39668.564    26.261949    232.31996 
    5300    133.85828   -93.209856    137300.33   -37009.358    2628.6522    -39638.01    26.435356    230.37052 
    5350     134.1955   -99.384252    137260.75   -37037.248    2635.2744   -39672.523    26.748858    230.95087 
    5400    131.91757    10.364568    137374.34   -37067.879    2590.5415    -39658.42    26.848004    227.03056 
    5450    133.58502   -188.93492    137430.12   -37062.229    2623.2861   -39685.515    26.873507    229.90024 
    5500    133.82596   -290.47326    137478.22   -37038.312    2628.0175   -39666.329    27.019856     230.3149 
    5550    132.52374   -269.74274    137540.35   -37144.834     2602.445   -39747.279    27.285356    228.07377 
    5600    131.35714   -462.87134    137467.35   -37185.772    2579.5359   -39765.308    27.534128    226.06605 
    5650    132.29263   -386.50657    137451.19   -37167.173    2597.9066    -39765.08    27.797247    227.67603 
    5700    130.52667   -276.22443    137548.07   -37158.966    2563.2275   -39722.193    27.997438    224.63681 
    5750     130.8936   -97.241644    137502.55   -37144.937     2570.433    -39715.37    28.203223    225.26829 
    5800    131.62713   -279.62393    137449.53   -37129.803    2584.8379   -39714.641    28.397482    226.53071 
    5850     132.1514   -287.95889    137289.96   -37078.669    2595.1332   -39673.802    28.644636    227.43297 
    5900    131.99143   -182.04553    137257.47   -37086.197    2591.9918   -39678.188      28.9408    227.15767 
    5950    133.20767   -402.14838    137228.37   -37112.592    2615.8759   -39728.468    29.136748    229.25082 
    6000    133.21688   -275.62025    137180.66   -37111.194    2616.0568    -39727.25    29.225892    229.26667 
    6050    136.12053   -118.74507    137178.51   -37074.675    2673.0774   -39747.752    29.290088    234.26387 
    6100    131.54391   -239.24012    137113.71   -37082.937    2583.2035   -39666.141    29.489114    226.38747 
    6150    134.39102   -110.03546    137052.35   -37062.474     2639.114   -39701.588    29.641184    231.28737 
    6200    133.39889   -287.83368    137054.09   -37065.998    2619.6309   -39685.629    29.646573     229.5799 
    6250    134.06103   -551.01961    137043.68   -37101.739    2632.6337   -39734.373    29.701143    230.71945 
    6300     133.0863    -423.2915    136975.99   -37074.165    2613.4923   -39687.658    29.905162    229.04193 
    6350    131.72129   -308.12567    136971.65   -37070.827    2586.6869   -39657.514    30.095599    226.69275 
    6400    133.12631   -350.40832    137032.27   -37062.668    2614.2781   -39676.946     30.18068     229.1108 
    6450    132.40111   -376.06725    137005.88    -37113.73     2600.037   -39713.767    30.347189    227.86273 
    6500    133.37531   -223.29284    136972.44   -37115.182    2619.1679    -39734.35    30.522861    229.53933 
    6550    132.19756   -275.99216    136876.94   -37100.555    2596.0397   -39696.595    30.708006    227.51242 
    6600    131.43062   -308.91329    136854.69   -37100.726    2580.9789   -39681.705    30.811858    226.19251 
    6650    134.63777   -107.80782    136784.51   -37097.467    2643.9595   -39741.427    30.807604    231.71202 
    6700     132.6917   -291.08973    136770.23   -37128.483    2605.7434   -39734.226    30.806846    228.36283 
    6750    134.32795   -186.07457    136655.26   -37099.743    2637.8753   -39737.618    30.895762    231.17882 
    6800    132.81814   -312.46458    136652.04   -37096.218    2608.2264   -39704.444    30.981351    228.58044 
    6850    130.06958   -178.15398    136630.44   -37110.461    2554.2512   -39664.712    31.093377    223.85015 
    6900    131.83106   -63.255836    136581.04   -37145.576    2588.8425   -39734.418      31.1629    226.88166 
    6950    130.33917   -152.55081    136566.52   -37157.783    2559.5453   -39717.328    31.366118    224.31411 
    7000    130.25147    17.275303    136566.44   -37136.455    2557.8233   -39694.279    31.563106    224.16319 
    7050    131.98158   -189.89455    136528.88   -37130.861    2591.7983   -39722.659    31.725065    227.14071 
    7100    133.10701   -199.87369     136500.5   -37109.526    2613.8991   -39723.425    31.969123    229.07758 
    7150    132.76369    -264.1489    136443.76   -37119.787    2607.1572   -39726.944    32.214963    228.48673 
    7200    138.99518   -243.19555    136452.59   -37027.013    2729.5285   -39756.542    32.333604    239.21115 
    7250     137.7926    12.370638    136514.78   -36981.013    2705.9128   -39686.926    32.590948     237.1415 
    7300    135.39511    63.252222    136584.94    -37017.94    2658.8318   -39676.772    32.701255     233.0154 
    7350    133.68043   -68.117032    136645.67   -37053.388    2625.1596   -39678.548    32.898763    230.06443 
    7400    132.43603   -330.32898    136661.51   -37139.622    2600.7227   -39740.345    32.978563    227.92282 
    7450    131.37606   -114.81255    136603.38   -37081.114    2579.9075   -39661.022    33.009232    226.09861 
    7500    132.36241   -197.68705    136619.85   -37077.768    2599.2769   -39677.045    33.021119    227.79612 
    7550    132.48874   -104.22917    136640.35     -37051.5    2601.7577   -39653.258    33.203559    228.01353 
    7600    134.56887   -400.06044    136583.22   -37013.223    2642.6065   -39655.829    33.468464    231.59345 
    7650    132.68078   -189.06584    136542.27    -37042.37    2605.5289   -39647.899    33.525875    228.34403 
    7700     132.1963   -287.17429    136491.09   -37071.094    2596.0149   -39667.109    33.666712    227.51024 
    7750     131.9071   -29.585849    136547.96   -37028.995    2590.3358   -39619.331    33.826862    227.01253 
    7800    131.16317   -306.69278    136619.58   -37060.666    2575.7268   -39636.393    33.913415    225.73223 
    7850    134.20458   -80.528147    136602.82    -37049.23    2635.4527   -39684.682    34.159772     230.9665 
    7900    130.95783   -35.012903    136608.18   -37060.641    2571.6944   -39632.336    34.408364    225.37883 
    7950    134.01118   -227.02305    136642.46   -37055.647    2631.6548   -39687.301    34.605306    230.63366 
    8000     134.5333    131.83755    136683.27   -37017.427     2641.908   -39659.335    34.619116    231.53223 
    8050    133.75303   -121.79934    136758.71   -37004.662    2626.5854   -39631.248    34.869299    230.18939 
    8100    134.98102   -49.172763    136819.02   -37038.998    2650.7001   -39689.698    34.914884    232.30276 
    8150    134.93773    56.475128    136871.36   -37036.423      2649.85   -39686.273    34.963294    232.22825 
    8200    135.09331    11.722261    136875.63   -37009.273    2652.9052   -39662.178    35.071417    232.49601 
    8250    134.29238    105.87993    136950.57    -36995.38     2637.177   -39632.557    35.240947    231.11761 
    8300    133.91285   -131.89593     136974.5   -36985.739    2629.7239   -39615.463    35.399122    230.46444 
    8350    133.06847   -340.33749     136914.4   -36991.375    2613.1422   -39604.517    35.485687    229.01125 
    8400    135.79385   -393.31471    136862.56   -36988.409    2666.6622   -39655.071     35.79041    233.70164 
    8450     133.0567   -279.02409    136860.12   -36989.857    2612.9111   -39602.769    35.865751      228.991 
    8500    137.12305   -167.74923    136840.74    -36939.09    2692.7645   -39631.855     36.07977    235.98921 
    8550    136.25137      -298.29    136869.76   -36916.881    2675.6468   -39592.527    36.195529    234.48904 
    8600    137.89291   -186.57676    136789.15   -36988.066    2707.8826   -39695.948    36.405744    237.31413 
    8650    137.28345    -152.8367    136810.96   -36956.181    2695.9142   -39652.095    36.476817    236.26524 
    8700    135.37061   -214.48441     136765.5   -36988.509    2658.3507    -39646.86    36.483041    232.97324 
    8750    133.37639    13.833578    136784.76   -37017.609    2619.1892   -39636.798    36.503516    229.54119 
    8800    136.70413    -154.7614    136772.26   -37018.371    2684.5377   -39702.908    36.730201    235.26823 
    8850    133.91309   -192.74393    136776.08   -37044.815    2629.7285   -39674.544     36.83982    230.46484 
    8900    133.89531   -226.25356    136785.04   -37060.419    2629.3793   -39689.798    37.060213    230.43424 
    8950    134.16304   -299.96544    136793.78   -37096.029    2634.6371   -39730.666    37.326248    230.89502 
    9000    134.66685   -173.12969    136863.43    -37061.64    2644.5307    -39706.17    37.298276    231.76208 
    9050    134.91974   -325.36281    136878.09   -37049.091    2649.4968   -39698.588    37.468027     232.1973 
    9100    135.34761   -453.40102    136901.32    -37039.74     2657.899   -39697.639    37.671177    232.93365 
    9150     133.6483   -290.30208    136828.53   -37029.668    2624.5288   -39654.196    38.040546    230.00915 
    9200    134.96266   -368.93671    136818.07   -37083.046    2650.3397   -39733.386    38.293767    232.27117 
    9250    133.38173   -208.88899     136859.5   -37104.815    2619.2939   -39724.109    38.590129    229.55037 
    9300    133.35827    -314.4508    136820.26   -37119.267    2618.8332   -39738.101    38.879368    229.50999 
    9350    135.25188   -385.33181    136795.07   -37091.599    2656.0192   -39747.618    39.081407    232.76892 
    9400    132.92733   -294.25069    136748.62   -37107.862    2610.3705   -39718.232    39.190507    228.76834 
    9450    134.14987   -180.13623    136778.74   -37116.911    2634.3783   -39751.289    39.301446    230.87234 
    9500    133.67031    54.912719    136836.13   -37098.385     2624.961   -39723.346    39.295838    230.04702 
    9550    134.64075    20.066568     136896.1   -37062.099     2644.018   -39706.117    39.366657    231.71715 
    9600    133.48654    117.71206    136984.91   -37085.053    2621.3521   -39706.405    39.487393    229.73075 
    9650    132.59942   -411.17085    137063.99   -37080.553    2603.9312   -39684.485    39.668731    228.20402 
    9700    132.30764   -44.934883    137031.17   -37088.676    2598.2013   -39686.878    39.939962    227.70186 
    9750    130.98675   -29.333639    137119.84   -37145.159    2572.2623   -39717.421     40.20846    225.42861 
    9800    133.58729     -219.122    137179.85   -37109.583    2623.3307   -39732.914    40.316795    229.90415 
    9850    136.27965   -500.56141    137117.67   -37089.932    2676.2021   -39766.134    40.592683    234.53771 
    9900    132.56274   -101.14601    137008.58   -37110.228    2603.2109   -39713.439    40.900805    228.14089 
    9950    130.70107   -353.44803    137034.25    -37139.06    2566.6523   -39705.712    41.076238    224.93695 
   10000    129.89081    -196.4348    137019.27   -37188.432    2550.7407   -39739.173    41.209237    223.54249 
   10050    132.14798   -412.78922    136968.47   -37180.151    2595.0661   -39775.217     41.46104    227.42709 
   10100    130.43931   -464.09014     136941.8   -37129.518    2561.5119    -39691.03    41.398677    224.48646 
   10150    131.62258   -74.830323    136960.45   -37155.163    2584.7485   -39739.912    41.467775    226.52288 
   10200    135.52911   -125.82015    137000.48   -37094.198    2661.4633   -39755.661    41.535181    233.24602 
   10250    134.65353   -12.404097    136989.39   -37117.467     2644.269   -39761.736    41.597592    231.73914 
   10300    133.80605   -62.440185    136941.19    -37107.46    2627.6265   -39735.087    41.709527    230.28063 
   10350    133.12728   -169.33749    136995.26   -37038.964    2614.2971   -39653.261    41.865273    229.11246 
   10400    133.38466   -58.812616    137042.69   -37040.491    2619.3514   -39659.843    42.055717    229.55541 
   10450    134.05344   -145.52739    137113.86   -37047.807    2632.4846   -39680.292    42.149686    230.70638 
   10500    134.72007   -312.37937    137191.58   -37028.171    2645.5757   -39673.747    42.164342    231.85367 
   10550    134.06425   -346.97898    137187.12   -37011.221    2632.6971   -39643.918    42.289032      230.725 
   10600    133.53642   -379.24373    137142.16   -37066.042    2622.3316   -39688.373    42.546675    229.81659 
   10650    132.56279   -253.74176    137182.51   -37092.648     2603.212    -39695.86    42.740865    228.14098 
   10700    134.55547   -345.87351    137115.66   -37079.373    2642.3433   -39721.716    42.988942    231.57038 
   10750    133.86285   -105.44059    137068.27   -37051.473    2628.7419   -39680.215    43.202345    230.37838 
   10800    133.64504   -104.51469    137064.46   -37054.344    2624.4647   -39678.808    43.291426    230.00353 
   10850    135.02191   -343.41667    137076.45   -37070.682     2651.503   -39722.185    43.574255    232.37313 
   10900    134.38085   -343.48471    137063.19   -37099.338    2638.9142   -39738.252     43.71516    231.26986 
   10950    133.70398   -335.85823    137012.94   -37063.277    2625.6222   -39688.899    43.948487    230.10498 
   11000    132.78029   -324.93105    137030.88   -37066.213    2607.4831   -39673.696    44.026589    228.51529 
   11050    133.33838   -208.17413    136940.91   -37086.821    2618.4427   -39705.264    44.173818    229.47578 
   11100    131.89003   -55.720407    136920.93   -37098.171    2590.0005   -39688.172     44.49609    226.98315 
   11150    132.71507   -21.217175    136967.55   -37045.427    2606.2023   -39651.629    44.764627    228.40305 
   11200    135.63279   -81.725693    136916.13   -36989.815    2663.4993   -39653.314    45.123145    233.42445 
   11250    135.17686   -232.51575    136929.84   -36953.089    2654.5459   -39607.635    45.265147    232.63979 
   11300    135.26162   -193.85596    136991.24   -36994.923    2656.2104   -39651.133    45.345527    232.78567 
   11350    133.73484   -175.20857    137065.74   -37005.452    2626.2282    -39631.68    45.315363    230.15808 
   11400    137.30048   -469.30737    136989.41   -36978.454    2696.2487   -39674.703    45.503512    236.29456 
   11450    136.33843   -36.418508    136957.11   -36948.179    2677.3564   -39625.536    45.688878    234.63886 
   11500    133.65219   -87.463492    136950.53    -36990.65    2624.6051   -39615.256    45.819596    230.01584 
   11550    131.16469    14.930793    137023.61   -37051.922    2575.7566   -39627.679    46.009588    225.73484 
   11600    135.36241    103.24338    137111.32   -37026.043    2658.1897   -39684.232    46.072586    232.95913 
   11650    133.72741   -318.17029    137167.26   -37020.074    2626.0822   -39646.156    46.299854    230.14529 
   11700    131.94986   -30.957679    137209.14   -37025.072    2591.1755   -39616.248    46.462041    227.08613 
   11750    134.48743   -59.962058    137193.82   -37035.937    2641.0071   -39676.944    46.765767    231.45328 
   11800    132.88909   -29.953934    137213.33   -37074.025    2609.6198   -39683.645    46.884237    228.70255 
   11850    134.02699   -321.20713    137218.58   -37093.341    2631.9652   -39725.307    47.065125    230.66087 
   11900    134.06184   -214.83426    137151.88   -37052.466    2632.6497   -39685.115    47.475085    230.72085 
   11950    133.86737    69.521399    137087.09    -37064.07    2628.8308   -39692.901    47.638799    230.38616 
   12000    136.44495   -386.53523    137144.94   -37022.132    2679.4481    -39701.58    47.817142    234.82219 
   12050    132.34314   -140.11673    137099.68   -37099.694    2598.8986   -39698.592    47.997225    227.76296 
   12100    134.75621    -314.0782    137092.83   -37070.615    2646.2854     -39716.9    48.120041    231.91586 
   12150    133.04199   -158.31553    136967.08   -37093.138    2612.6222    -39705.76     48.13445    228.96568 
   12200    132.68926   -116.09618    136970.55   -37086.856    2605.6955   -39692.552    48.132002    228.35863 
   12250    131.53493    -102.9822     136998.8   -37123.719    2583.0273   -39706.747    48.114063    226.37203 
   12300    134.18232   -240.93453    137057.96   -37128.998    2635.0156   -39764.013    48.298389     230.9282 
   12350    133.59868   -263.99693    137077.19   -37096.528    2623.5544   -39720.082     48.68109    229.92375 
   12400    131.89815    27.810684    137039.56   -37074.465      2590.16   -39664.625    48.799206    226.99713 
   12450    131.38268   -162.38657    137118.25   -37120.409    2580.0375   -39700.446    48.717731    226.11001 
   12500    131.86483   -188.95808    137162.09   -37104.993    2589.5057   -39694.499    48.911789    226.93979 
   12550    134.10475   -151.73897    137172.31   -37064.177    2633.4924   -39697.669    49.167076     230.7947 
   12600    134.73049   -318.09635    137191.57   -37049.258    2645.7803   -39695.038    49.398891    231.87159 
   12650    133.61402    27.297887    137166.72   -37082.465    2623.8555    -39706.32    49.477596    229.95015 
   12700    134.50921   -45.667272    137176.65   -37135.115    2641.4348    -39776.55    49.646883    231.49077 
   12750    132.61771   -132.03532    137234.75   -37098.043    2604.2905   -39702.333    49.689661     228.2355 
   12800    133.58864   -277.91051    137301.63   -37077.267    2623.3572   -39700.624    49.936566    229.90647 
   12850    131.61517   -270.59975     137287.6   -37092.245     2584.603   -39676.848    50.102996    226.51012 
   12900    130.69848     -263.638    137279.15   -37132.764    2566.6014   -39699.366    50.307711     224.9325 
   12950    130.88704   -449.41248    137310.04   -37150.375    2570.3042   -39720.679    50.412449      225.257 
   13000    133.14155   -360.84754     137337.3    -37118.56    2614.5773   -39733.138    50.474952    229.13702 
   13050    136.56901    -325.7592    137283.12       -37117    2681.8844   -39798.884    50.647873     235.0357 
   13100    131.97599    -201.9188    137314.66   -37139.186    2591.6885   -39730.874    50.713504    227.13109 
   13150    131.86813   -193.93351    137347.43   -37117.094    2589.5705   -39706.664     50.99912    226.94546 
   13200    132.43596   -123.09643    137356.87   -37070.061    2600.7214   -39670.782    51.095897    227.92271 
   13250    134.54238   -344.03571    137377.15   -37083.041    2642.0863   -39725.127      51.1814    231.54786 
   13300    132.52708   -454.75175    137331.21   -37074.384    2602.5107   -39676.895    51.158116    228.07953 
   13350    132.20851   -234.32686    137341.93   -37040.538    2596.2547   -39636.793    51.331519    227.53126 
   13400    134.34397    22.834496    137379.74   -37064.338      2638.19   -39702.528    51.481817    231.20639 
   13450    130.04942    -228.2491    137270.43   -37071.211    2553.8554   -39625.067    51.906145    223.81546 
   13500    136.78787    4.0563666    137249.18   -37085.681    2686.1823   -39771.863    51.990171    235.41236 
   13550    133.98812   -311.38399     137223.7   -37091.622    2631.2019   -39722.824    52.217326    230.59397 
   13600    134.26148   -118.27386    137175.18   -37061.877      2636.57   -39698.447    52.299498    231.06442 
   13650    132.35628   -408.96085    137168.49   -37052.968    2599.1566   -39652.124    52.499694    227.78557 
   13700    136.76312    61.549114    137183.59   -37041.284    2685.6963   -39726.981    52.521678    235.36976 
   13750    132.00792   -79.693888    137154.42   -37051.071    2592.3156   -39643.387    52.610201    227.18604 
   13800     132.3904   -121.39667    137132.64   -37068.918    2599.8267   -39668.745    52.780834     227.8443 
   13850     136.1135   -128.29241    137102.21   -37035.089    2672.9393   -39708.028     52.77324    234.25176 
   13900    132.71792      10.4357    137173.22    -37067.82    2606.2584   -39674.078    52.833084    228.40796 
   13950    132.45648   -341.99048    137306.35   -37073.617    2601.1242   -39674.741    52.980711    227.95801 
   14000    131.36609   -280.47939    137276.97   -37109.208    2579.7117    -39688.92    53.287916    226.08145 
   14050    134.51827   -363.38698    137158.14   -37092.273    2641.6129   -39733.885    53.553511    231.50637 
   14100    135.44317   -147.01172    137105.69   -37023.137    2659.7756   -39682.913    53.734931    233.09812 
   14150    133.71414   -98.139556    137166.08   -37081.447    2625.8217   -39707.269      53.9683    230.12246 
   14200    133.33246   -85.968316    137170.24    -37079.55    2618.3264   -39697.876    54.017453    229.46558 
   14250    131.95798   -187.04767    137244.68   -37053.929    2591.3349   -39645.264    54.035919    227.10009 
   14300    134.43499   -217.84294    137299.06   -37085.919    2639.9773   -39725.897    54.184565    231.36303 
   14350    133.35224   -200.82912    137298.93   -37124.249    2618.7148   -39742.964     54.33237    229.49962 
   14400    131.92015   -81.808909    137330.26   -37149.838    2590.5921    -39740.43    54.484459      227.035 
   14450    133.75336   -15.114249    137361.02   -37114.272    2626.5919   -39740.864    54.653318    230.18996 
   14500    134.91816   -217.85682    137409.39   -37105.145    2649.4657   -39754.611    54.591853    232.19457 
   14550     133.3473   -53.770068    137491.65   -37122.555    2618.6178   -39741.173    54.557304    229.49112 
   14600    133.09217   -431.96322    137473.26   -37090.102    2613.6076   -39703.709    54.756845    229.05204 
   14650    133.24352   -293.95102     137416.8    -37140.72    2616.5799     -39757.3    55.118959    229.31252 
   14700     133.0252   -425.44376    137382.55   -37145.475    2612.2925   -39757.767    55.172589    228.93678 
   14750    134.89593   -8.9920752     137284.8   -37086.518    2649.0291   -39735.547    55.565654    232.15631 
   14800    133.02282   -69.752065    137366.31   -37109.324    2612.2458    -39721.57    55.833642    228.93269 
   14850    134.90685   -76.483598    137459.24   -37169.604    2649.2435   -39818.848    56.082636    232.17511 
   14900    135.36425   -85.324822    137472.94   -37184.387    2658.2258   -39842.613     56.42591    232.96229 
   14950    132.04445   -17.581533    137612.12   -37206.399    2593.0329   -39799.432    56.504797     227.2489 
   15000    132.99164   -179.49035    137707.92   -37218.287    2611.6336   -39829.921    56.320012    228.87903 
   15050    132.45797   -279.94946     137739.9   -37217.412    2601.1536   -39818.566    56.448997    227.96059 
   15100    130.25545   -101.61507     137769.2   -37199.812    2557.9014   -39757.713     56.48586    224.17004 
   15150    130.72802   -291.58877    137790.93   -37257.441    2567.1815   -39824.622    56.652351    224.98333 
   15200    132.59953   -126.27076    137761.64   -37272.007    2603.9334    -39875.94     56.72634     228.2042 
   15250    132.06428   -188.15027     137868.2   -37285.336    2593.4224   -39878.758    56.926534    227.28304 
   15300    130.71736    -412.6491    137892.64   -37273.769    2566.9722   -39840.741     57.03589    224.96499 
   15350    131.90775   -149.13729    137869.11   -37290.299    2590.3486   -39880.648    57.162408    227.01365 
   15400    133.51328   -435.84969    137813.37   -37293.025    2621.8772   -39914.902    57.238924    229.77677 
   15450    132.34541   -342.01518    137816.58    -37235.28    2598.9431   -39834.223    57.443419    227.76687 
   15500    131.50173   -164.52973    137780.64   -37217.352    2582.3752   -39799.728    57.607902    226.31489 
   15550    131.39524   -322.12798    137816.96   -37214.575     2580.284   -39794.859    57.847134    226.13161 
   15600    132.81008   -148.11639    137754.61    -37212.82    2608.0681   -39820.888    58.121843    228.56656 
   15650    132.22852   -297.08147    137764.33   -37177.534    2596.6477   -39774.182    58.210929     227.5657 
   15700    130.99799    -246.6197       137672   -37201.352    2572.4831   -39773.835    58.272316    225.44796 
   15750     131.4035   -390.01918       137572   -37203.149    2580.4462   -39783.595    58.588084    226.14583 
   15800    134.10917   -107.61929    137579.43   -37160.643    2633.5792   -39794.222    58.583291    230.80231 
   15850    132.60742   -78.321709    137652.71   -37146.684    2604.0883   -39750.772    58.894257    228.21778 
   15900    136.48688    11.686309    137697.39   -37176.226    2680.2716   -39856.497    59.249087    234.89436 
   15950    134.24702   -180.75071    137773.72   -37170.029    2636.2861   -39806.316    59.363676    231.03954 
   16000    135.85721   -133.30703     137735.1   -37184.785    2667.9063   -39852.692    59.480337    233.81068 
   16050    131.56651    -239.8743    137753.32   -37222.708    2583.6475   -39806.355     59.65995    226.42638 
   16100    131.80415   -264.75628    137744.38   -37299.196    2588.3141    -39887.51    59.749794    226.83535 
   16150    134.43505    -262.8006    137809.55   -37262.962    2639.9786    -39902.94     59.95967    231.36315 
   16200    131.72872   -175.11805    137772.79   -37264.574    2586.8329   -39851.407    60.008019    226.70555 
   16250    131.37709   -374.68739    137707.67   -37281.671    2579.9277   -39861.599    60.068555    226.10039 
   16300    129.96856    47.466302     137658.6   -37245.803    2552.2675   -39798.071     60.00359    223.67629 
   16350    131.64394    -269.1809    137671.03   -37194.852    2585.1679   -39780.019     60.25198    226.55962 
   16400    132.19737   -148.95315    137717.42   -37193.129     2596.036   -39789.165    60.335061    227.51209 
   16450    132.51002   -289.05178    137715.19   -37215.945    2602.1757   -39818.121    60.267539    228.05016 
   16500    132.37605   -207.76184    137770.69   -37207.839    2599.5449   -39807.384    60.251217     227.8196 
   16550    131.38941   -198.19373    137849.12   -37191.207    2580.1697   -39771.377    60.219743    226.12159 
   16600     129.6589   -194.10965    137827.27   -37248.565    2546.1865   -39794.751    60.249078    223.14336 
   16650    132.29948   -310.55384    137822.34   -37241.218    2598.0411   -39839.259    60.291948    227.68781 
   16700    135.59749   -86.678538    137784.17   -37220.436    2662.8061   -39883.243    60.622702    233.36371 
   16750    133.82987   -153.69024    137753.26   -37204.401    2628.0943   -39832.496    60.889629    230.32163 
   16800    132.97117   -396.82037     137699.8   -37176.216    2611.2315   -39787.448    61.090463     228.8438 
   16850    135.03062   -182.24489    137694.68   -37192.944    2651.6742   -39844.618    61.338291    232.38813 
   16900    132.22919   -256.62626    137601.49   -37193.065    2596.6608   -39789.726    61.539723    227.56684 
   16950    132.98032   -303.06831    137612.85   -37177.031    2611.4112   -39788.442    61.635955    228.85954 
   17000    134.19446   -227.48841    137581.43   -37221.296     2635.254    -39856.55    61.664925    230.94909 
   17050    132.58162   -83.085225    137631.51   -37194.354    2603.5818   -39797.936    61.796875    228.17339 
   17100    134.73849   -383.37036    137736.96   -37182.808    2645.9374   -39828.745    61.763889    231.88536 
   17150    135.01308   -323.71088    137782.96   -37181.182    2651.3297   -39832.511    61.880347    232.35793 
   17200    132.40866   -82.137253    137775.98   -37168.101    2600.1852   -39768.286    62.098349    227.87572 
   17250    135.20536   -293.71156    137818.62   -37191.946    2655.1057   -39847.052    62.334882    232.68885 
   17300    136.22793   -194.24709    137763.77   -37146.272    2675.1865   -39821.459    62.649889     234.4487 
   17350    138.11023   -246.74299    137782.02   -37125.886    2712.1502   -39838.036    62.753585    237.68814 
   17400    131.90467    150.34829    137793.13   -37161.182     2590.288    -39751.47    62.663914    227.00834 
   17450    132.02856   -298.75923    137824.53   -37159.377    2592.7209   -39752.098    62.891233    227.22156 
   17500    133.14843   -264.14395    137806.33   -37160.869    2614.7125   -39775.581    63.012149    229.14887 
   17550    130.45868   -334.80078    137762.58   -37156.893    2561.8923   -39718.785    63.225137     224.5198 
   17600    134.20334   -171.26183    137640.18   -37140.952    2635.4284    -39776.38    63.467326    230.96437 
   17650    132.94446   -96.425978     137627.3    -37177.02     2610.707   -39787.727    63.731461    228.79783 
   17700    132.40572   -143.75891    137639.29   -37179.666    2600.1274   -39779.794    63.995061    227.87065 
   17750    130.93374   -288.53932    137600.51   -37209.043    2571.2214   -39780.264    64.287194    225.33738 
   17800    132.03603   -314.44841    137607.27   -37251.428    2592.8677   -39844.296    64.455381    227.23443 
   17850    129.18799   -359.66809    137576.46   -37226.352     2536.939   -39763.291    64.693295    222.33293 
   17900    130.73246    -451.7274    137553.27   -37205.518    2567.2687   -39772.787      64.7889    224.99098 
   17950    134.60252   -425.99424    137575.59    -37135.33    2643.2673   -39778.597    64.786858    231.65136 
   18000    135.37213    -244.2073    137535.35   -37130.696    2658.3806   -39789.077    64.748952    232.97586 
   18050    134.80447   -297.57275    137597.84   -37130.105    2647.2331   -39777.338    64.851551    231.99892 
   18100    134.23161   -488.99862    137544.77   -37120.536    2635.9835   -39756.519    65.082671    231.01302 
   18150    135.16932   -135.97114    137527.73   -37107.781    2654.3979   -39762.179    65.211681    232.62683 
   18200    133.40274   -344.70287    137553.34   -37112.295    2619.7065   -39732.002    65.491508    229.58653 
   18250    134.07268   -276.13636    137515.37   -37135.776    2632.8624   -39768.639    65.624338     230.7395 
   18300    133.22631   -219.52501    137543.72   -37147.049    2616.2419   -39763.291    65.843217     229.2829 
   18350    133.48967   -396.76636    137559.86   -37151.608    2621.4136   -39773.021    65.840081    229.73614 
   18400    135.49159   -192.86717    137551.91   -37147.105    2660.7266   -39807.832    65.918429    233.18146 
   18450     132.3516   -274.26993    137520.55   -37138.941    2599.0648   -39738.005    65.749055    227.77752 
   18500    132.91923   -320.00674    137461.01   -37144.379    2610.2115   -39754.591    65.782262    228.75441 
   18550    135.52223   -389.08804    137438.52   -37140.672    2661.3282       -39802    66.067954    233.23418 
   18600    132.55432   -187.00576    137447.16   -37208.624    2603.0457   -39811.669    66.244331     228.1264 
   18650    132.88508   -221.13654    137415.18   -37191.497    2609.5409   -39801.038    66.444911    228.69564 
   18700    131.92535    -240.7962    137507.34   -37208.882    2590.6942   -39799.576    66.545271    227.04394 
   18750    132.57555    -131.3237    137534.29    -37206.72    2603.4624   -39810.182    66.563102    228.16293 
   18800    130.92788   -16.844556    137605.51   -37232.302    2571.1063   -39803.408    66.563016    225.32729 
   18850     130.3889   -197.91446    137707.19    -37209.73     2560.522   -39770.252    66.729651     224.3997 
   18900    132.38803    -78.11874    137787.57   -37209.584    2599.7801   -39809.364    66.907841    227.84021 
   18950    135.72917   -112.64645    137841.75   -37184.094    2665.3919   -39849.486    66.902857    233.59032 
   19000    131.97804   -174.17205    137894.68    -37124.64    2591.7288   -39716.369    67.371648    227.13462 
   19050    133.05876   -57.212071    137854.83   -37178.065    2612.9516   -39791.017    67.343333    228.99454 
   19100    133.46773   -167.32473    137837.46   -37161.838    2620.9827   -39782.821    67.322491    229.69838 
   19150    136.20294   -378.97643    137901.03   -37147.957    2674.6957   -39822.653    67.651004    234.40569 
   19200    137.61995   -29.613249    137934.64   -37115.349    2702.5223   -39817.871    67.882408    236.84436 
   19250    136.37579   -171.97586    137868.37   -37088.696      2678.09   -39766.786    67.861403    234.70316 
   19300    137.15211   -228.04866    137869.17   -37050.402     2693.335   -39743.737    67.809744    236.03921 
   19350    136.13283   -374.43127    137743.29   -37027.793    2673.3189   -39701.112    67.815267    234.28503 
   19400    134.21064   -249.12484    137709.23   -37050.614    2635.5717   -39686.185    68.107493    230.97693 
   19450    136.89525   -307.04125    137579.33   -37014.969    2688.2909    -39703.26    68.418013    235.59715 
   19500    135.65564   -85.521353    137530.08   -37034.793     2663.948   -39698.741    68.303667    233.46378 
   19550    136.65459   -191.78852     137440.9    -36999.95    2683.5649   -39683.515     68.28281    235.18297 
   19600    134.84692   -151.66409    137375.89   -37036.817    2648.0667   -39684.883    68.363587    232.07197 
   19650      133.711     -180.601    137438.03   -37007.872      2625.76   -39633.632    68.459551    230.11705 
   19700    134.88934   -162.62617    137500.15   -36990.577    2648.8997   -39639.476     68.52565    232.14497 
   19750    131.98636   -190.35878    137518.29   -36981.996    2591.8922   -39573.888    68.831266    227.14893 
   19800    136.26762   -249.54112    137477.32   -36958.924    2675.9658   -39634.889    68.822274      234.517 
   19850    134.21031   -257.61244     137443.6   -36988.714    2635.5653   -39624.279    68.942405    230.97637 
   19900    134.48153   -71.397192    137371.83   -37032.001    2640.8914   -39672.893    69.199692    231.44314 
   19950    133.48609    -21.45282    137331.15   -37054.799    2621.3433   -39676.142    69.635674    229.72998 
   20000    136.13838   -208.23439    137360.82    -37028.26    2673.4279   -39701.688    69.685439    234.29458 
   20050    135.87044   -495.02138    137325.29   -37010.337    2668.1663   -39678.503    69.830305    233.83346 
   20100    134.65127   -299.22669    137186.39   -37030.829    2644.2245   -39675.054    69.919688    231.73525 
   20150    135.84471   -204.39594    137158.14   -36987.754    2667.6608   -39655.415    70.019233    233.78916 
   20200    134.54942     53.37253    137170.06   -37035.135    2642.2245   -39677.359    70.343782    231.55997 
   20250    134.03599   -187.10961    137237.76   -37072.877    2632.1421   -39705.019    70.377601    230.67636 
   20300     135.0877   -240.08313    137277.85   -37090.711     2652.795   -39743.506    70.512099    232.48635 
   20350    134.15839   -147.15666    137259.58    -37062.03    2634.5458   -39696.576    70.831394    230.88702 
   20400    132.80069   -379.93246    137231.87   -37056.339    2607.8837   -39664.223    71.092396     228.5504 
   20450    133.60468   -223.64939    137210.39   -37046.396    2623.6722   -39670.068    71.187452    229.93408 
   20500    133.41411   -147.77508    137201.62   -37055.357    2619.9299   -39675.286    71.433253    229.60611 
   20550    133.58345   -123.62415    137231.66   -37080.196    2623.2551   -39703.452    71.839615    229.89753 
   20600    137.56901   -2.1920839    137280.76   -37058.108     2701.522    -39759.63    71.965097     236.7567 
   20650    133.13307   -138.86035    137327.18   -37069.302    2614.4109   -39683.713    72.265585    229.12244 
   20700    134.68195   -489.02258     137197.4   -37056.036    2644.8272   -39700.863     72.58311    231.78806 
   20750    132.22867    4.1382572    137220.71   -37114.262    2596.6507   -39710.913    72.723853    227.56596 
   20800    134.49587    26.473054    137312.62   -37110.986     2641.173   -39752.159    72.836365    231.46782 
   20850    132.77869   -231.13178    137325.81   -37093.442    2607.4516   -39700.893    72.826916    228.51253 
   20900      134.836   -270.81037    137315.88   -37041.528    2647.8522    -39689.38    72.995603    232.05317 
   20950    135.45543   -233.07418    137280.09   -37063.534    2660.0163    -39723.55    73.267116    233.11921 
   21000    134.69866   -157.93214    137220.84   -37034.271    2645.1552   -39679.426    73.355908    231.81681 
   21050    132.37284   -609.32413    137165.35   -37098.181    2599.4818   -39697.663    73.708661    227.81407 
   21100    134.27852   -159.57294    137121.59   -37141.368    2636.9047   -39778.273    73.750177    231.09375 
   21150    131.71137   -474.67689    137026.18    -37161.38    2586.4921   -39747.873    73.669766    226.67568 
   21200    130.91732   -414.63502    136980.23    -37140.18    2570.8989   -39711.079    73.896219    225.30912 
   21250    132.76176   -244.81452    136895.19   -37175.979    2607.1193   -39783.098    73.895203    228.48341 
   21300    130.63685   -88.349093    136961.05    -37184.53    2565.3912   -39749.922    73.826192    224.82643 
   21350    133.09977   -183.32379     136943.4   -37131.708    2613.7569   -39745.465    74.068344    229.06512 
   21400    130.57706     -140.349    136925.84   -37188.451    2564.2171   -39752.668    74.208642    224.72353 
   21450    132.03409    76.963622    137028.92   -37120.906    2592.8295   -39713.735    74.167927    227.23108 
   21500    132.91451   -72.317016    137117.13   -37139.499    2610.1189   -39749.618    74.297829    228.74629 
   21550    134.02177   -141.44526    137119.18   -37123.066    2631.8627   -39754.929    74.474506    230.65188 
   21600     130.9988   -133.21371    137144.83    -37128.04     2572.499   -39700.539    74.274808    225.44935 
   21650    133.04736   -105.66886    137166.38   -37031.247    2612.7277   -39643.975    74.261626    228.97492 
   21700    135.27915   -159.79304    137270.85    -37037.65    2656.5547   -39694.205     74.27738    232.81584 
   21750    133.38248    -211.2735    137253.76   -37062.357    2619.3087   -39681.666    74.244507    229.55167 
   21800    134.18518   -180.08237    137156.45   -37071.905    2635.0718   -39706.976    74.489497    230.93312 
   21850     132.3224   -154.57378    137181.18   -37089.843    2598.4912   -39688.334    74.339472    227.72726 
   21900    134.88384    75.686199    137329.27   -37051.257    2648.7918   -39700.049    74.360774    232.13552 
   21950    136.54914    -74.33017    137461.57   -37038.423    2681.4943   -39719.918    74.482834     235.0015 
   22000    134.16992   -506.91236    137350.56   -37093.992    2634.7721   -39728.764    74.569268    230.90685 
   22050    132.06684   -187.44288    137407.41   -37122.786    2593.4728   -39716.259    74.770835    227.28745 
   22100    133.32181   -442.12102    137439.84    -37085.26    2618.1173   -39703.378     75.08778    229.44726 
   22150    132.39788   -349.72579    137418.65   -37064.176    2599.9736   -39664.149     75.33525    227.85717 
   22200    135.90224   -242.57217    137361.66   -37060.889    2668.7907    -39729.68    75.646688    233.88819 
   22250    135.88202   -325.32487    137322.52   -37060.622    2668.3936   -39729.016     75.85815    233.85338 
   22300    135.58834   -232.01322    137317.63   -37061.236    2662.6265   -39723.862    76.117561    233.34796 
   22350    134.70325   -416.65143    137270.42   -37037.036    2645.2455   -39682.282    76.357701    231.82472 
   22400    132.42438   -309.08629    137153.38   -37010.899     2600.494   -39611.393    76.669111    227.90278 
   22450    135.51798   -76.723768    137143.56   -37027.472    2661.2448   -39688.717    76.814672    233.22688 
   22500     133.5973   -383.91358    137146.97   -37013.431    2623.5272   -39636.958    77.231299    229.92137 
   22550    136.43455   -309.71776     137015.7   -36980.514     2679.244   -39659.758    77.355548    234.80429 
   22600    135.67469   -116.35167    136955.69    -36985.64    2664.3221   -39649.962    77.654326    233.49656 
   22650     134.6931   -487.49518    136883.13   -37011.878    2645.0461   -39656.925    77.929665    231.80725 
   22700    134.41794   -249.57919    136833.39   -37004.283    2639.6427   -39643.926    78.071444     231.3337 
   22750     133.1599   -459.05131    136789.25   -37040.276    2614.9377   -39655.214    78.104548    229.16861 
   22800    132.84576   -359.16548    136772.78   -37049.045    2608.7689   -39657.814    78.337795    228.62798 
   22850    132.40098    -124.5492    136834.51   -37051.966    2600.0343       -39652      78.4465    227.86249 
   22900    135.33955   -431.83041    136817.63   -37094.023    2657.7409   -39751.764    78.701118     232.9198 
   22950    133.61106   -209.56591    136759.78   -37079.454    2623.7973   -39703.251    78.656843    229.94505 
   23000    136.89543   -366.52945    136705.91   -37028.356    2688.2944    -39716.65    78.774854    235.59746 
   23050    133.79767   -178.38796    136724.54   -37045.517    2627.4621   -39672.979    79.107465    230.26622 
   23100    130.68857   -389.29709    136739.96   -37083.635    2566.4068   -39650.042    79.210202    224.91544 
   23150    133.88615   -418.49377     136693.2   -37074.344    2629.1995   -39703.544     79.40912    230.41848 
   23200     135.1161   -285.00804    136714.71   -37094.077    2653.3527   -39747.429    79.650418    232.53522 
   23250    132.94185   -337.29056    136726.21   -37043.466    2610.6558   -39654.122    80.016394    228.79334 
   23300    131.90914   -270.35262    136633.05    -37035.13    2590.3758   -39625.506    79.914531    227.01604 
   23350    136.01014   -90.442091    136660.76   -36978.553    2670.9095   -39649.462    79.804303    234.07387 
   23400    136.15177   -230.52051     136680.3   -36994.851    2673.6907   -39668.541     80.01273    234.31762 
   23450    134.43436   -213.31088    136596.57   -37045.851     2639.965   -39685.816    79.951197    231.36195 
   23500     133.5976   -277.35292    136554.28   -37098.466    2623.5331   -39721.999    80.214503    229.92189 
   23550     132.9608   -49.816263    136535.94   -37121.059    2611.0279   -39732.087     80.27914    228.82595 
   23600    132.15892   -247.34273    136533.95   -37132.719    2595.2809       -39728     80.39227    227.44591 
   23650    132.64434    -325.4462    136465.79   -37142.663    2604.8133   -39747.476    80.370124    228.28132 
   23700    132.28889   -24.590684    136514.51   -37117.941    2597.8332   -39715.774    80.744863    227.66959 
   23750    132.22036    -241.0554    136507.64    -37101.04    2596.4875   -39697.528    81.070508    227.55166 
   23800    131.60831   -95.705478    136441.77   -37051.192    2584.4683    -39635.66    81.084007    226.49831 
   23850    132.85941   -244.75249    136438.96   -37051.493    2609.0368    -39660.53    81.370963    228.65146 
   23900    133.44783   -278.17268    136423.02   -37070.584    2620.5919   -39691.176    81.485289    229.66413 
   23950    131.81798   -77.873705    136418.48   -37080.207    2588.5857   -39668.793    81.659466    226.85916 
   24000    128.69913   -246.29758    136462.48   -37089.464     2527.339   -39616.803     81.75987    221.49161 
   24050    134.49733   -265.31741    136496.51   -37082.654    2641.2016   -39723.855    81.916219    231.47032 
   24100    132.80569   -292.02324     136506.5   -37059.724    2607.9819   -39667.706    82.013327    228.55901 
   24150    135.63454   -449.80926    136402.94   -37015.851    2663.5336   -39679.384     82.17076    233.42746 
   24200    134.18333   -170.98603    136391.81   -37070.994    2635.0355   -39706.029     82.37304    230.92993 
   24250    136.09451   -138.72329       136446    -37059.94    2672.5663   -39732.506     82.71921    234.21907 
   24300    135.66366   -295.10568       136418   -37027.869    2664.1056   -39691.974    82.901852    233.47759 
   24350    134.31368   -361.41472    136394.01   -37026.529    2637.5952   -39664.125    83.333624    231.15427 
   24400    133.73134   -186.79724    136367.97   -37059.362    2626.1594   -39685.521    83.590582    230.15205 
   24450    134.83174   -233.27522    136450.32   -37009.823    2647.7685   -39657.592    83.796154    232.04584 
   24500    133.17595   -186.55634    136463.19   -37044.121    2615.2529   -39659.374    84.143337    229.19622 
   24550    135.78076   -252.33904    136475.26   -37011.428     2666.405   -39677.833    84.148315    233.67911 
   24600    133.60028   -394.18391    136490.55    -37065.73    2623.5858   -39689.316    84.177699    229.92651 
   24650    131.05406   -229.67456    136527.12   -37173.098     2573.584   -39746.682     84.15297    225.54444 
   24700    129.94881   -245.10231    136523.24   -37119.441    2551.8797   -39671.321    84.318093    223.64231 
   24750    133.14971   -252.15847    136518.05   -37121.906    2614.7376   -39736.644    84.481951    229.15106 
   24800    133.26911   -117.34672    136504.25   -37101.336    2617.0823   -39718.418    84.711573    229.35655 
   24850      131.353   -170.98997     136514.8   -37106.384    2579.4547   -39685.838    85.055146    226.05893 
   24900    133.44474   -151.27708    136593.36   -37068.547    2620.5314   -39689.079    85.317489    229.65882 
   24950    135.87412   -489.63182    136528.06   -37103.454    2668.2384   -39771.692    85.679693    233.83979 
   25000    131.73281   -221.31203    136508.41   -37115.067    2586.9131    -39701.98    85.914083    226.71258 
   25050    132.41632   -104.09736    136530.15   -37105.972    2600.3356   -39706.308    86.217084     227.8889 
   25100    133.72341   -160.15445    136553.39   -37096.925    2626.0036   -39722.928    86.215906     230.1384 
   25150    131.39046   -168.91599    136657.97   -37150.247    2580.1902   -39730.437    86.355237    226.12339 
   25200    132.66324   -48.121296     136667.2   -37058.844    2605.1846   -39664.029    86.497537    228.31386 
   25250    134.82196   -216.21407    136719.88   -37061.044    2647.5766   -39708.621    86.496105    232.02902 
   25300    133.28207   -296.68275    136713.54   -37028.059    2617.3369   -39645.396    86.641135    229.37886 
   25350    135.97693   -115.18137    136639.34   -37000.427    2670.2574   -39670.685    86.756321    234.01672 
   25400    135.29506   -234.83873    136552.84    -37015.55    2656.8671   -39672.417    86.984091    232.84322 
   25450    134.95489   -191.51184    136537.44   -37017.713    2650.1869   -39667.899     87.31725    232.25778 
   25500    132.23082   -350.71761    136418.77   -37078.407    2596.6929     -39675.1    87.653916    227.56966 
   25550    133.22185   -107.55715    136426.45   -37038.743    2616.1543   -39654.898     87.90662    229.27523 
   25600    132.49359   -103.59038    136380.79   -37064.032     2601.853   -39665.885    87.877283    228.02188 
   25650     133.1092   -217.42625    136372.14   -37033.208     2613.942    -39647.15    87.936946    229.08134 
   25700    134.46516   -249.77706    136369.06   -37060.612    2640.5699   -39701.182     88.08024    231.41496 
   25750    133.95929   -153.80093    136398.37   -37011.513    2630.6359   -39642.149    88.359545    230.54437 
   25800    131.68096    -293.6345    136390.94   -37035.464     2585.895   -39621.359    88.528164    226.62335 
   25850    131.92783   -290.57412    136304.83    -37063.52    2590.7429   -39654.263    88.779153    227.04821 
   25900    132.69508    -428.1338    136227.36   -37060.323    2605.8099   -39666.133    88.865792    228.36866 
   25950    131.40676   -224.28694    136192.33    -37071.43    2580.5102   -39651.941     89.11497    226.15144 
   26000    133.76739   -369.91412    136210.35   -37064.312    2626.8673   -39691.179    89.309845    230.21409 
   26050    131.61365   -319.12937    136151.51   -37060.329    2584.5732   -39644.902    89.311623    226.50751 
   26100    131.96377   -304.49838     136104.1   -37070.618    2591.4486   -39662.067     89.65602    227.11006 
   26150    135.08471   -185.38211    136130.34   -37061.032    2652.7364   -39713.768    89.844618    232.48121 
   26200    133.44774   -238.68876    136101.08   -37099.601    2620.5902   -39720.191    90.114981    229.66398 
   26250    132.92314   -192.17892    136141.21   -37122.004    2610.2884   -39732.292    90.480215    228.76114 
   26300    132.97271   -295.55044    136192.44   -37125.617    2611.2618   -39736.879    90.697539    228.84645 
   26350     130.8899   -174.12667     136219.5   -37124.327    2570.3604   -39694.687    90.782115    225.26192 
   26400    131.14784   -140.36892    136245.79   -37086.763    2575.4258   -39662.189    90.986489    225.70585 
   26450    132.16153   -190.99114    136250.47   -37118.683    2595.3321   -39714.015    90.861691     227.4504 
   26500    130.50821   -293.05323    136337.96   -37135.282     2562.865   -39698.147     90.93094    224.60504 
   26550    134.05544   -407.24541     136343.4   -37063.583    2632.5239   -39696.107    90.971077    230.70983 
   26600    137.24657   -165.23051    136356.98   -37009.936    2695.1901   -39705.127    91.021804    236.20178 
   26650    133.62413   -269.69803    136328.29   -36976.215     2624.054   -39600.269    91.323585    229.96754 
   26700     134.5622   -113.55224     136336.9   -36987.043    2642.4755   -39629.518    91.648646    231.58197 
   26750     131.8978   -28.042733    136460.84   -36973.535    2590.1532   -39563.688    92.092458    226.99653 
   26800     133.5074   -545.57674    136479.69   -36965.944    2621.7617   -39587.706    92.074972    229.76665 
   26850    135.91322   -372.42634    136355.43   -36947.057    2669.0062   -39616.063    92.119923    233.90707 
   26900    134.57052   -481.93531    136372.29     -36912.6    2642.6388   -39555.239    92.403618    231.59628 
   26950    134.87408    -344.4058    136435.53   -36881.303    2648.6002   -39529.903    92.445555    232.11872 
   27000    132.73329   -311.38646    136426.13   -36894.805    2606.5601   -39501.365    92.737325    228.43441 
   27050    134.36114   -86.330864     136399.4   -36887.493    2638.5272    -39526.02    92.598301    231.23595 
   27100     135.8009   -390.55897    136364.54   -36913.992    2666.8005   -39580.793    92.618469    233.71377 
   27150     136.2402   -239.46765    136403.97   -36898.254    2675.4273   -39573.681    92.712735    234.46981 
   27200    132.11024   -175.73262    136412.64   -36958.691     2594.325   -39553.016    92.812938    227.36214 
   27250    135.02441   -240.26495    136353.61   -36937.873    2651.5522   -39589.425    92.986705    232.37743 
   27300    135.01415   -380.83845    136315.38   -36925.317    2651.3508   -39576.668    93.130891    232.35978 
   27350    134.26626   -313.90892    136424.97   -36922.954    2636.6641   -39559.618    93.020247    231.07266 
   27400    135.30704   -109.10988    136455.29   -36869.991    2657.1024   -39527.093    93.179539    232.86385 
   27450     136.5432   -490.03097    136427.47   -36915.368    2681.3775   -39596.746    93.335534    234.99127 
   27500    134.21631   -93.541751     136395.7   -36935.585     2635.683   -39571.268     93.41662    230.98668 
   27550    134.69623   -333.68824    136443.56   -37005.251    2645.1075   -39650.359    93.463186    231.81263 
   27600    134.87814   -190.67522    136371.24   -37047.526    2648.6797   -39696.205    93.616067    232.12569 
   27650    130.53284   -146.02225    136373.31   -37071.947    2563.3486   -39635.296    93.851273    224.64742 
   27700    133.24953   -250.80751    136340.19   -37087.497    2616.6979   -39704.195    94.026896    229.32286 
   27750    131.06739   -241.67012    136338.07   -37048.268    2573.8459   -39622.114     94.19517    225.56739 
   27800    132.83895    -187.4966    136304.02    -37048.98     2608.635   -39657.615    94.256571    228.61624 
   27850    133.16639   -107.29823    136357.35   -37025.297    2615.0652   -39640.363    94.502193    229.17977 
   27900    132.53898   -215.90983    136465.66   -37014.323    2602.7443   -39617.067    95.036268    228.09999 
   27950    135.62028   -169.32527    136503.33   -37015.313    2663.2536   -39678.567    95.299305    233.40293 
   28000    133.36618   -565.03107     136518.7   -37017.467    2618.9886   -39636.456    95.584034    229.52361 
   28050    132.88489   -197.74824    136444.73   -37025.727    2609.5373   -39635.264    95.699403    228.69532 
   28100    132.79626   -49.399307     136446.5   -37037.379    2607.7967   -39645.176    95.881176    228.54277 
   28150    132.54357   -200.55611    136436.63   -37033.321    2602.8345   -39636.155    96.039115     228.1079 
   28200    132.18899   -195.84432    136357.07   -37030.125    2595.8715   -39625.996    96.296487    227.49767 
   28250    134.24432   -197.29353    136315.39   -37016.785    2636.2332   -39653.019     96.20041     231.0349 
   28300    131.85389   -183.14665    136355.73   -37010.331    2589.2909   -39599.622    96.429249    226.92096 
   28350    135.10323   -116.32794    136308.51   -37030.878    2653.1001   -39683.978     96.39404    232.51308 
   28400    133.99557   -166.92031    136267.24   -37028.174    2631.3483   -39659.522    96.621917     230.6068 
   28450    133.68225   -12.920401    136302.57   -37012.765    2625.1954    -39637.96    96.665921    230.06757 
   28500    133.81426   -60.316508    136382.58   -37005.007    2627.7878   -39632.795    96.958905    230.29476 
   28550    132.49993   -12.771896    136397.22   -37021.725    2601.9774   -39623.703    97.049091    228.03279 
   28600    136.01224   -88.961993    136487.07   -36962.954    2670.9508   -39633.904    97.005842    234.07749 
   28650    134.04435   -156.22292    136503.77   -37009.213    2632.3063    -39641.52    97.087052    230.69075 
   28700    136.75664   -197.96878    136592.35   -36997.163    2685.5689   -39682.732    97.435259     235.3586 
   28750    134.17273   -137.29821    136589.84    -37007.45    2634.8272   -39642.277    97.541375    230.91168 
   28800    133.23562   -11.712491    136606.21   -37042.272    2616.4247   -39658.696    97.985597    229.29892 
   28850    136.55027   -64.377216    136721.29   -37019.028    2681.5164   -39700.545    98.076495    235.00345 
   28900    134.12503   -92.457168    136732.02   -37015.828    2633.8906   -39649.718    98.058183     230.8296 
   28950    135.83712   -29.077564    136738.03   -36998.742    2667.5119   -39666.254    98.189458    233.77612 
   29000    135.52463   -202.33057    136636.88    -37007.44    2661.3752   -39668.815    98.304556    233.23831 
   29050     134.3501    57.458952    136679.29   -37019.622    2638.3104   -39657.932    98.411193    231.21694 
   29100    134.11144   -73.468313    136597.05   -37064.434    2633.6236   -39698.058    98.690973     230.8062 
   29150    134.72588   -36.643062    136632.95    -37074.33    2645.6898   -39720.019    98.849058    231.86366 
   29200    135.48456   -246.58992    136606.07    -37062.58    2660.5885   -39723.168    99.037945    233.16936 
   29250    133.50065   -339.46039    136652.74   -37086.904    2621.6293   -39708.533    99.365804    229.75504 
   29300    134.07321   -196.36759    136647.25   -37027.259    2632.8729   -39660.132    99.419365    230.74041 
   29350    137.67949   -281.73509    136693.82   -37036.563    2703.6914   -39740.254     99.28893    236.94683 
   29400     130.0423    47.744395    136733.58   -37099.522    2553.7155   -39653.238     99.39514     223.8032 
   29450    133.36683   -206.85112    136712.14   -37094.753    2619.0014   -39713.754    99.735967    229.52474 
   29500    132.53686   -112.09328    136783.67    -37058.48    2602.7027   -39661.183    99.946402    228.09635 
   29550    136.42284   -80.853588    136803.31   -37040.069    2679.0139   -39719.083    100.20795    234.78413 
   29600    132.99384    62.151034    136854.89   -37048.165    2611.6767   -39659.842    100.46129    228.88281 
   29650    136.04635   -20.714728    136928.28   -37054.529    2671.6205   -39726.149    100.60092    234.13619 
   29700    135.09994   -229.15498    136902.08   -37052.698    2653.0353   -39705.733    100.68037    232.50741 
   29750    134.71569   -343.85301    136817.97   -37053.611    2645.4897   -39699.101    101.24271    231.84612 
   29800    132.92928   -35.016797     136852.3   -37080.807    2610.4089   -39691.216    101.34386    228.77171 
   29850     130.3582   -77.712037    136885.72   -37156.524    2559.9192   -39716.444    101.57519    224.34688 
   29900    134.33485   -127.17748    136915.75   -37150.051    2638.0109   -39788.062     101.6328     231.1907 
   29950    132.36234   -62.382642    136963.32   -37128.208    2599.2756   -39727.484    101.78215      227.796 
   30000    134.53944    21.975157     137038.8   -37103.054    2642.0285   -39745.083    101.90684    231.54279 
   30050    134.39835   -368.58807    137033.22   -37057.637    2639.2578   -39696.894    101.97812    231.29997 
   30100    135.01655    -117.1025     137051.5   -37043.593    2651.3979   -39694.991    102.07948    232.36391 
   30150    134.30793   -98.938458     136982.6   -37052.849    2637.4823   -39690.331    102.35393    231.14438 
   30200    133.68212   -232.61132       136897   -37085.171    2625.1929   -39710.364    102.64875    230.06735 
   30250    131.85389   -223.78239    136959.67    -37153.32    2589.2908    -39742.61    102.77998    226.92095 
   30300    131.29712   -247.83679    136963.91   -37142.649    2578.3572   -39721.006    102.83856    225.96275 
   30350    132.34358    -196.5122    136873.94   -37068.226    2598.9073   -39667.133    103.05105    227.76372 
   30400    134.25154   -190.17624    136847.34   -37083.512    2636.3749   -39719.887    103.36812    231.04732 
   30450    135.00725   -280.85388    136837.62    -37019.12    2651.2151   -39670.335    103.78212    232.34789 
   30500    136.04433   -187.46985    136824.37   -37009.923    2671.5809   -39681.504     103.8142    234.13272 
   30550    133.30185   -299.28809    136839.07   -37019.189    2617.7253   -39636.914    104.14368     229.4129 
   30600    136.29546   -158.44788    136778.13   -37009.473    2676.5126   -39685.985     104.4159    234.56492 
   30650    135.37531   -135.55878    136855.91   -37056.631     2658.443   -39715.074    104.74323    232.98134 
   30700     131.2301   -411.87382    136856.74   -37071.686    2577.0412   -39648.727    104.87758    225.84742 
   30750    132.45607   -95.682306     136802.6   -37138.766    2601.1161   -39739.882    105.00959     227.9573 
   30800    132.66075   -231.08389    136777.67   -37118.865    2605.1357   -39724.001    105.03823    228.30957 
   30850    133.56705   -96.235984    136893.28   -37162.099    2622.9332   -39785.032     105.3197    229.86932 
   30900    130.53502   -284.81155    136898.99   -37198.286    2563.3915   -39761.678    105.39849    224.65118 
   30950    129.69826   -246.26877    136821.12   -37228.992    2546.9596   -39775.951    105.40777    223.21112 
   31000    131.76205   -68.379176    136890.76   -37203.254    2587.4873   -39790.741    105.55051     226.7629 
   31050     130.0769   -337.20629    136955.29   -37161.236    2554.3951   -39715.631    105.84718    223.86276 
   31100    132.90996   -148.33835    136996.77   -37070.993    2610.0295   -39681.023    106.23685    228.73846 
   31150    133.69217   -95.881193     136996.8    -37011.81    2625.3902     -39637.2    106.49336    230.08464 
   31200    134.24425   -349.11851    136992.01   -37039.573    2636.2318   -39675.805     106.6397    231.03478 
   31250    133.91133   -2.4784383    136991.52   -37016.004    2629.6941   -39645.698    106.80281    230.46182 
   31300    135.81983   -403.32622    137032.03   -36998.176    2667.1724   -39665.348    106.78668    233.74636 
   31350    132.97446   -375.87208    137005.17   -36996.151    2611.2961   -39607.447    106.94506    228.84946 
   31400    135.62691   -359.63111    136944.87   -36988.053    2663.3838   -39651.437    106.96096    233.41433 
   31450    136.19534   -188.38106    136893.77   -37007.342    2674.5464   -39681.889    107.06665    234.39261 
   31500    133.85618    -220.2927    136861.03   -37016.483    2628.6109   -39645.094    107.33583     230.3669 
   31550    135.87644   -243.69745    136925.36   -36968.806     2668.284    -39637.09    107.43278    233.84378 
   31600    135.91595   -205.91359    136940.76   -36949.527    2669.0599   -39618.587    107.54441    233.91178 
   31650    134.20798   -195.88231    136866.96   -36987.031    2635.5195    -39622.55     107.8934    230.97235 
   31700    133.77981   -81.690614    136869.51   -37040.756    2627.1113   -39667.867    107.73497    230.23548 
   31750    132.43466   -71.561485    136953.61   -37024.589    2600.6959   -39625.285    108.13622    227.92047 
   31800    132.60277   -392.21962    136896.02   -36990.589    2603.9971   -39594.586    108.21611    228.20979 
   31850    135.66661   -287.39539    136844.29   -37018.724    2664.1635   -39682.888    108.36747    233.48267 
   31900    133.64436   -254.37175     136789.1   -37025.179    2624.4514   -39649.631     108.7439    230.00237 
   31950    133.98693   -360.18618     136736.7   -37026.946    2631.1787   -39658.125    108.91256    230.59193 
   32000    133.25294   -291.37803    136673.48   -37016.954    2616.7649   -39633.719    109.16482    229.32873 
   32050    134.30723   -168.54223    136700.02   -37010.609    2637.4685   -39648.077    109.49224    231.14317 
   32100     135.3098   -33.360198    136725.14   -37033.043    2657.1566   -39690.199    109.52817    232.86859 
   32150    135.49588   -282.68836    136755.46   -36999.264    2660.8107   -39660.075    109.86259    233.18883 
   32200    136.36987    -639.3479    136704.81   -36956.078    2677.9737   -39634.052    109.92131    234.69297 
   32250    133.43595   -342.35091    136629.22   -36947.632    2620.3587   -39567.991    109.94963    229.64369 
   32300    132.81352   -256.57077    136558.55   -36961.199    2608.1356   -39569.335    110.11461    228.57248 
   32350    133.33553   -57.626102    136569.29   -36964.436    2618.3867   -39582.823    110.26355    229.47086 
   32400     132.1934     3.018295    136592.66   -37046.065    2595.9581   -39642.023    110.53639    227.50526 
   32450    132.71173   -193.43587    136623.99   -37045.252    2606.1367   -39651.389    110.53349     228.3973 
   32500    133.54326     127.4068    136621.01   -37042.295    2622.4661   -39664.761    110.57971    229.82837 
   32550    136.31217   -8.5549907    136670.07   -37049.441    2676.8407   -39726.281     110.7234    234.59367 
   32600    133.80524   -23.427409    136747.16   -37075.351    2627.6107   -39702.962     110.7382    230.27924 
   32650    132.24913   -116.48423    136767.44   -37058.893    2597.0525   -39655.946    110.75019    227.60117 
   32700    133.12886   -194.48767    136859.98   -37082.096    2614.3282   -39696.424    110.74919    229.11519 
   32750     133.7103   -212.19231     136874.8   -37093.148    2625.7462   -39718.894    110.96341    230.11584 
   32800    133.04634   -68.231783    136823.85   -37097.615    2612.7076   -39710.322    110.76852    228.97316 
   32850    134.25246   -49.270802    136826.92   -37108.447     2636.393    -39744.84    110.78689     231.0489 
   32900    130.44072   -99.618757    136922.48   -37115.801    2561.5396   -39677.341    110.74367    224.48888 
   32950    130.55714   -141.45671    136897.56     -37134.2    2563.8259   -39698.026    110.79704    224.68926 
   33000    131.19086    -34.56983    136955.58   -37135.405    2576.2705   -39711.676     110.5981    225.77988 
   33050    131.24164    86.927529    137042.99   -37147.976    2577.2677   -39725.244    110.52161    225.86727 
   33100    130.95882   -122.36403    137149.82   -37125.355    2571.7139   -39697.069    110.50254    225.38054 
   33150    132.26004   -123.06396    137148.26   -37087.936    2597.2667   -39685.203    110.48975    227.61995 
   33200    132.64933   -179.15504    137144.51   -37096.058    2604.9114   -39700.969    110.82445    228.28992 
   33250    133.33331   -120.56987    137170.96   -37079.411    2618.3431   -39697.754    110.80301    229.46704 
   33300    133.69754   -388.24604    137314.22   -37066.391    2625.4957   -39691.887    110.60881    230.09389 
   33350    134.74803   -292.78479    137257.58   -37038.289    2646.1247   -39684.414      110.661    231.90177 
   33400    131.28182   -202.09595    137186.62   -37120.721    2578.0568   -39698.777    110.85024    225.93643 
   33450    134.93386   -184.56827    137183.33   -37129.936    2649.7741    -39779.71    111.07073     232.2216 
   33500    132.18328   -392.04038    137238.97   -37114.638    2595.7593   -39710.397    111.10189    227.48784 
   33550     134.2328   -468.81716    137149.41   -37125.831    2636.0068   -39761.838    111.28704    231.01506 
   33600    133.74448   -154.88872    137130.87   -37099.351    2626.4176   -39725.768    111.45207    230.17468 
   33650     134.0223   -289.55058    137074.29   -37031.887    2631.8731    -39663.76    111.42329    230.65279 
   33700    135.02047   -448.69498    137073.02    -37034.18    2651.4748   -39685.655    111.22809    232.37065 
   33750    132.74573   -105.06535    137087.83    -37045.09    2606.8044   -39651.895    111.28934    228.45581 
   33800    135.62488   -392.13386    137055.69   -36966.937     2663.344   -39630.281    111.39398    233.41084 
   33850    134.65529   -241.40025    137026.14   -36986.077    2644.3035    -39630.38    111.64585    231.74217 
   33900    136.43643   -342.75976    136957.18   -36986.295    2679.2808   -39665.576    111.65449    234.80752 
   33950    135.25745   -489.21512    136937.71   -36998.477    2656.1285   -39654.605    111.84859    232.77849 
[...]
   92000    132.78017   -252.58516    137173.56   -37163.063    2607.4808   -39770.544    284.50175    228.51509 
   92050    132.37487   -267.79299     137119.4   -37153.546    2599.5217   -39753.068    284.38797    227.81757 
   92100    131.41774   -270.58647    137087.69    -37161.84    2580.7259   -39742.566     284.3953    226.17034 
   92150    132.69058   -226.92787    136986.91   -37149.889    2605.7215   -39755.611    284.52394    228.36091 
   92200    133.86822   -89.637812    137047.97   -37126.139    2628.8474   -39754.986    285.12831    230.38762 
   92250    133.83804   -624.86318    137052.84   -37157.602    2628.2547   -39785.857    284.92097    230.33568 
   92300    133.12272    -100.7741    137105.34   -37184.465    2614.2075   -39798.673    284.86409    229.10461 
   92350    128.51677   -425.77917     137176.5   -37208.769    2523.7579   -39732.527    285.13155    221.17777 
   92400    129.34604    -212.3045    137148.16   -37210.825    2540.0428   -39750.868    285.14679    222.60495 
   92450    131.49106   -116.27574    137159.48   -37158.588    2582.1658   -39740.754    285.05578    226.29653 
   92500     133.0103   -314.44381    137170.02   -37089.466         2612   -39701.466    285.20015    228.91114 
   92550    131.97419   -151.14078    137209.73   -37042.909    2591.6532   -39634.562    285.22975    227.12799 
   92600    132.01448   -426.77743     137130.3   -37088.267    2592.4444   -39680.711     285.0157    227.19733 
   92650    133.26017   -401.04832    137132.54   -37025.022    2616.9069   -39641.929    285.27768    229.34118 
   92700    131.81668   -467.88071    137157.96   -37079.238    2588.5602   -39667.799    285.72796    226.85693 
   92750    132.23798   -108.98557    137115.26   -37078.824    2596.8335   -39675.657    285.74446    227.58198 
   92800    132.61093   -92.093327    137208.58   -37032.967    2604.1573   -39637.125    285.78807    228.22383 
   92850    134.20646   -190.85611    137172.33   -37018.768    2635.4896   -39654.258     285.8963    230.96974 
   92900    135.03339   -243.27815    137119.58   -37057.147    2651.7286   -39708.876    285.96489    232.39289 
   92950    130.47763   -180.02839       137125   -37082.148    2562.2645   -39644.413    286.55024    224.55241 
   93000    131.44554   -40.733515    137125.68   -37148.466    2581.2718   -39729.738    286.31333    226.21818 
   93050    132.45945    18.488568    137150.72   -37148.321    2601.1825   -39749.503    286.36111    227.96312 
   93100    133.97341   -313.04232    137130.45    -37123.29    2630.9131   -39754.203    285.90251    230.56866 
   93150    132.38957   -405.57156    137116.04   -37163.631    2599.8103   -39763.442    285.95582    227.84287 
   93200    132.18664   -240.44021    137080.01   -37138.546    2595.8252   -39734.371    286.34128    227.49362 
   93250    133.66543   -95.706269    137032.24   -37123.731    2624.8652   -39748.596    286.35287    230.03863 
   93300    132.61328   -250.74403    137110.17   -37136.907    2604.2035    -39741.11    286.42693    228.22788 
   93350    132.59012   -363.71165    137139.16   -37131.224    2603.7486   -39734.973    286.51073    228.18801 
   93400    131.82744   -111.66626    137150.32   -37129.365    2588.7714   -39718.136    286.54353    226.87543 
   93450    133.00575     -302.357    137193.16   -37091.897    2611.9105   -39703.807    286.87812    228.90331 
   93500    135.56236    -156.6218     137237.4   -37101.238    2662.1162   -39763.355    286.92911    233.30325 
   93550    132.74688   -334.89427    137236.69   -37094.857     2606.827   -39701.684    287.02542    228.45779 
   93600    132.87087   -640.66742    137156.35   -37088.595     2609.262   -39697.857    287.45564    228.67119 
   93650    131.53056   -611.20232     137053.1   -37131.848    2582.9414    -39714.79    287.40726    226.36451 
   93700    132.76907   -309.52963    136939.41   -37065.285    2607.2627   -39672.548    286.99402    228.49598 
   93750    135.58835   -37.289573    137084.27   -37006.584    2662.6267   -39669.211    287.11813    233.34798 
   93800    132.29881   -262.82832    137122.52   -37033.447    2598.0281   -39631.475    287.33997    227.68667 
   93850    135.15905   -249.94317     137092.8   -37019.323    2654.1962   -39673.519    287.40382    232.60915 
   93900    134.95682   -399.57697    137117.43   -37056.373    2650.2249   -39706.598    287.72459    232.26111 
   93950    135.06134   -175.29897    137029.92    -37028.52    2652.2774   -39680.797    287.85596    232.44099 
   94000    131.78773    -307.3392    136966.49   -37083.347    2587.9917   -39671.339    288.28386     226.8071 
   94050    133.21633   -108.82528    136911.63   -37109.593    2616.0459   -39725.639    288.51227    229.26572 
   94100    130.84438    -357.2016    136901.66   -37155.839    2569.4664   -39725.305    288.26808    225.18358 
   94150    133.36816    25.303066    136960.43   -37122.447    2619.0275   -39741.474      288.123    229.52703 
   94200    133.79204   -440.73604     137022.5   -37142.332    2627.3514   -39769.683    288.29925    230.25651 
   94250    132.82873   -155.19782     137104.6   -37150.095    2608.4343   -39758.529    288.50969    228.59866 
   94300    132.49318   -137.54192    137172.41   -37178.264     2601.845   -39780.109     288.4518    228.02118 
   94350    132.52982   -523.27851    137174.84   -37118.949    2602.5646   -39721.514    288.13193    228.08424 
   94400    131.80635    -227.5328    137122.11   -37088.229    2588.3573   -39676.587    288.51598    226.83914 
   94450    135.27444   -518.29265    137107.71   -37057.982    2656.4622   -39714.444    288.79344    232.80774 
   94500     134.0306   -192.56831    137035.44   -37065.767    2632.0362   -39697.803    288.94836    230.66709 
   94550     133.6227   -252.62842    137061.25   -37023.466    2624.0261   -39647.492    289.16346    229.96509 
   94600    138.17934   -412.52599    137026.13   -37019.843    2713.5075    -39733.35    289.19911    237.80708 
   94650    136.58249   -368.23176    136923.32   -36984.938    2682.1491   -39667.087    289.26995    235.05889 
   94700    136.68505   -201.28206    136860.94   -36978.212    2684.1631   -39662.375    289.75515    235.23539 
   94750     134.3971   -165.27505    136765.92   -36992.897    2639.2334    -39632.13    289.83547    231.29784 
   94800    135.37144   -38.722401    136660.08   -36978.343     2658.367    -39636.71    290.04893    232.97467 
   94850    136.09632   -292.31913    136592.19     -36988.1    2672.6019   -39660.702    290.10984     234.2222 
   94900    131.06869   -104.67261    136568.61   -37033.239    2573.8715   -39607.111     290.3547    225.56963 
   94950    132.59718   -348.81749    136507.02   -37078.132    2603.8872    -39682.02    290.50398    228.20016 
   95000    131.99499    56.992244    136452.59   -37061.283    2592.0617   -39653.344    290.76336    227.16379 
   95050    137.04592   -171.78107    136431.21   -37032.107    2691.2497   -39723.357    290.79022    235.85646 
   95100    134.55455   -320.87788    136517.62   -36977.897    2642.3253   -39620.222     290.7912     231.5688 
   95150    133.71218   -304.69542    136503.23   -37037.721    2625.7832   -39663.504    290.62633    230.11909 
   95200    133.40804   -162.36629    136454.85   -37025.979    2619.8106    -39645.79    290.57084    229.59566 
   95250    134.56172   -61.033244    136426.82   -37033.759    2642.4662   -39676.225    291.15118    231.58115 
   95300    133.54963    122.22175    136527.06   -37037.137     2622.591   -39659.728     291.5161    229.83933 
   95350    133.60364   -288.88048    136590.05   -37065.532    2623.6518   -39689.184    291.89066    229.93229 
   95400    133.91213   -332.51775    136544.38   -37007.235    2629.7098   -39636.945    291.70161     230.4632 
   95450    134.38185   -133.64818    136523.66   -36955.376    2638.9339    -39594.31    291.61866    231.27159 
   95500    133.90746   -4.5867347    136520.89   -36974.615    2629.6181   -39604.233    292.13725    230.45516 
   95550     133.5909   -286.06518       136563   -37041.679    2623.4015   -39665.081    292.18045    229.91036 
   95600    131.83161   -327.80672    136561.32     -37060.8    2588.8533   -39649.653    292.29021    226.88261 
   95650    132.19572   -350.47253     136542.6   -37071.679    2596.0037   -39667.682    292.01328    227.50926 
   95700    133.90331   -498.86202    136470.69   -37006.797    2629.5366   -39636.333    292.24179    230.44802 
   95750    134.27436   -508.45651    136387.18   -37034.409    2636.8229   -39671.231    292.48116    231.08659 
   95800     133.3615   -268.32757    136334.34   -37051.607    2618.8967   -39670.503    292.77646    229.51556 
   95850    132.40223   -215.55053    136361.15   -37013.756    2600.0589   -39613.815    292.79968    227.86465 
   95900    133.61694   -423.90635    136304.46   -37015.069    2623.9129   -39638.982    292.77229    229.95517 
   95950    131.24669   -111.81646     136150.4   -37027.412    2577.3669   -39604.779    293.32233    225.87596 
   96000     133.0593   -103.28188    136031.81   -37028.214    2612.9623   -39641.176    293.32781    228.99548 
   96050    133.17344   -125.40833     136072.4   -37033.418    2615.2037   -39648.621    293.53556    229.19192 
   96100    133.46429    -336.6564    136020.98   -37014.563    2620.9152   -39635.479    293.64505    229.69246 
   96150    134.69442   -95.816963    135956.77   -37022.116    2645.0721   -39667.188    293.60374    231.80952 
   96200    132.85036   -103.48935    135992.62   -37044.516    2608.8592   -39653.375    293.86616    228.63589 
   96250    132.59283   -165.98756    135964.21    -37062.26    2603.8018   -39666.062    294.13532    228.19267 
   96300    133.76935   -10.865767     135958.1   -37025.683    2626.9059   -39652.589    294.51472    230.21747 
   96350      131.723   -313.79584    136027.95   -37001.873    2586.7205   -39588.594     295.1604    226.69569 
   96400    132.89558   -358.50946    136075.86   -37039.435    2609.7471   -39649.182     295.4876    228.71371 
   96450    133.48296   -322.38631    136020.83   -37030.761    2621.2818   -39652.043    295.47245    229.72459 
   96500    135.98018   -426.56008    135956.46   -36993.091    2670.3211   -39663.413     295.7972    234.02231 
   96550    135.73164   -322.14744    135946.59   -37049.347    2665.4405   -39714.787    296.42819    233.59458 
   96600    134.55992   -254.53893    135972.62   -37095.494    2642.4307   -39737.925    296.64468    231.57804 
   96650    133.07051   -289.91446    135974.59   -37119.951    2613.1824   -39733.134    297.20964    229.01477 
   96700    130.85608    26.852409    136061.15   -37089.577    2569.6963   -39659.273    297.13477    225.20372 
   96750     134.7385   -289.60133    136068.19   -37067.925    2645.9376   -39713.862    297.19238    231.88538 
   96800    133.89301   -228.12752    136124.08   -37067.994    2629.3343   -39697.328    297.51731    230.43029 
   96850    134.04832    138.43458    136171.29   -37019.326    2632.3841    -39651.71    297.41497    230.69758 
   96900    138.11866   -58.157785    136262.08   -37022.656    2712.3159   -39734.972    297.55726    237.70266 
   96950    135.66039   -300.88849    136264.39   -37022.599    2664.0414    -39686.64     297.5013    233.47196 
   97000    134.41878    68.147139    136244.39   -37056.539    2639.6591   -39696.198    297.47794    231.33514 
   97050    130.87223   -118.56101    136338.69   -37150.675    2570.0135   -39720.688    298.10828    225.23152 
   97100    129.68129   -455.61764    136341.53   -37167.758    2546.6263   -39714.385    298.53454    223.18191 
   97150    130.68651   -186.66709    136369.75   -37117.567    2566.3663   -39683.933    298.53843    224.91189 
   97200    136.82573   -50.069338    136361.76   -37075.273    2686.9257   -39762.199    298.39325    235.47751 
   97250    133.71624   -68.865583    136359.31    -37079.81     2625.863   -39705.673    298.19797    230.12607 
   97300    132.11288   -204.87846    136321.34   -37041.637    2594.3768   -39636.014    298.35614    227.36668 
   97350    133.65625   -195.83892    136301.03   -37064.601    2624.6848   -39689.285    298.42579    230.02282 
   97400    130.36971   -416.25592     136269.6   -37115.502    2560.1452   -39675.647    298.52177    224.36668 
   97450    132.65627    63.271142     136298.6   -37109.224    2605.0476   -39714.271     298.4478    228.30185 
   97500    134.42675   -98.875348    136395.31   -37108.885    2639.8156   -39748.701    298.61957    231.34886 
   97550    133.32732   -238.28994    136392.04   -37048.709    2618.2255   -39666.935    298.96245    229.45674 
   97600    133.08526   -456.95614    136379.57   -37028.763    2613.4719   -39642.235    298.46176    229.04014 
   97650    132.40294   -281.15181    136287.16   -36977.628    2600.0729   -39577.701     298.3742    227.86588 
   97700    132.12577    -163.4081    136313.62   -36973.542      2594.63   -39568.172    298.46357    227.38887 
   97750    136.31981    -272.5285    136386.49   -36951.264    2676.9908   -39628.255    298.61596    234.60683 
   97800    136.02722   -117.26148    136390.91   -36900.601    2671.2449   -39571.846    298.60194    234.10327 
   97850    135.02514   -112.89359    136503.91    -36922.87    2651.5666   -39574.437    298.25818    232.37869 
   97900    131.81366    11.181338     136536.4   -37006.907    2588.5009   -39595.408    298.68894    226.85173 
   97950    134.09521   -147.70876    136515.62   -37013.531     2633.305   -39646.835    298.83837    230.77828 
   98000    134.00016   -190.15096    136582.73   -37005.213    2631.4384   -39636.652     299.0668    230.61469 
   98050    134.04624   -23.433704    136619.23   -37053.877    2632.3434    -39686.22    299.33519    230.69401 
   98100    133.03456   -218.80903     136731.2   -37006.751    2612.4763   -39619.227     299.4244    228.95289 
   98150      133.358    -209.2577    136790.43   -37054.936     2618.828   -39673.764    299.87323    229.50954 
   98200    131.80352   -32.813857    136814.92   -37050.181    2588.3017   -39638.483    300.12187    226.83427 
   98250    134.99704   -200.98961    136846.25   -37043.666    2651.0148   -39694.681    300.75998    232.33033 
   98300     133.7205   -187.52421    136865.39   -37000.424    2625.9466   -39626.371    301.16768    230.13341 
   98350    132.25575   -4.9135315    136901.87   -37023.286    2597.1824   -39620.469    301.18667    227.61256 
   98400    135.18584   -107.95283    136893.41   -37044.821    2654.7222   -39699.544    301.41947    232.65525 
   98450    134.32414   -309.24497    136934.85   -36980.809    2637.8006   -39618.609    301.50516    231.17227 
   98500    131.48808   -72.955443    136993.68    -37012.46    2582.1073   -39594.567    301.37492    226.29141 
   98550    131.11881   -138.82409    136940.36   -37055.935    2574.8557   -39630.791    301.89927    225.65589 
   98600    132.70278   -402.88341    136975.14   -37035.153     2605.961   -39641.114    302.11898     228.3819 
   98650    132.47656    -165.7641    136966.95   -37036.636    2601.5186   -39638.154    302.17467    227.99258 
   98700    134.87536   -242.30226    136812.49   -37060.026    2648.6251   -39708.651     302.3306    232.12091 
   98750      132.524   -229.84551     136871.1   -37042.741    2602.4503   -39645.192    302.95851    228.07422 
   98800    130.16822   -73.538068    136832.67   -37069.031    2556.1885   -39625.219    303.52341    224.01992 
   98850     132.5657   -237.30386    136836.83   -37071.987     2603.269   -39675.256    303.86543    228.14598 
   98900    132.90785   -141.13147    136844.36   -37037.849    2609.9881   -39647.838     304.4002    228.73483 
   98950    135.15043   -167.15317    136802.98   -37006.154     2654.027   -39660.181    304.40943    232.59432 
   99000     134.2696   -190.93554    136846.98   -37030.774    2636.7295   -39667.503     304.4174     231.0784 
   99050    132.58389   -129.72407    136807.23    -37056.55    2603.6262   -39660.177    304.20956    228.17728 
   99100    134.18744   -226.32529     136903.8   -37047.399    2635.1162   -39682.515    304.42553    230.93701 
   99150    135.56823   -133.75453    136918.51   -37011.009    2662.2316    -39673.24     304.6493    233.31335 
   99200    132.09975   -113.57794    136944.03   -36997.845    2594.1189   -39591.964    304.80829    227.34408 
   99250    133.14972   -230.89982    136877.85    -37022.02    2614.7378   -39636.758    305.12646    229.15108 
   99300    134.01614    65.684264    136933.43   -36994.624    2631.7522   -39626.377    305.14526    230.64219 
   99350    132.37051   -326.80814    136891.43   -36976.975     2599.436   -39576.411    304.95234    227.81006 
   99400    130.09155   -69.923615     136873.4   -37038.685    2554.6827   -39593.368    305.09809    223.88796 
   99450    135.55413   -456.14245    136939.16    -37037.73    2661.9546   -39699.685    305.62952    233.28908 
   99500    133.07691   -193.45208    136888.47   -37005.886     2613.308   -39619.194    306.20143    229.02578 
   99550    134.17882   -416.50689    136907.81   -37022.079    2634.9468   -39657.025    306.04694    230.92216 
   99600    136.05257   -165.77451    136920.52   -36982.401    2671.7429   -39654.144    306.09434    234.14691 
   99650    132.38449   -344.76373    136902.24   -36971.966    2599.7106   -39571.676    306.27107    227.83412 
   99700    133.86861   -219.03297    136829.93   -37013.323     2628.855   -39642.178    306.40417    230.38829 
   99750    135.76052     127.2473    136915.02   -37010.888    2666.0077   -39676.896    306.76441    233.64428 
   99800    133.82402   -113.75838    136968.58   -36990.968    2627.9795   -39618.947    306.78617    230.31157 
   99850    137.32405   -120.66608    137086.51   -36972.058    2696.7115   -39668.769    307.07188    236.33511 
   99900    136.37197   -366.45342    137108.75    -37032.45    2678.0149   -39710.464    307.91481    234.69658 
   99950    135.02389   -185.88047    137169.83   -37031.789     2651.542   -39683.331    308.62375    232.37654 
  100000    133.14229    60.767281    137218.41   -37008.437    2614.5919   -39623.029    308.65924     229.1383 
Loop time of 187.034 on 60 procs for 100000 steps with 6589 atoms

Performance: 230.974 ns/day, 0.104 hours/ns, 534.663 timesteps/s
99.6% CPU use with 60 MPI tasks x no OpenMP threads

MPI task timing breakdown:
Section |  min time  |  avg time  |  max time  |%varavg| %total
---------------------------------------------------------------
Pair    | 20.091     | 82.42      | 137.27     | 553.6 | 44.07
Neigh   | 1.2353     | 2.5561     | 7.2051     | 130.9 |  1.37
Comm    | 30.888     | 79.425     | 129.29     | 449.7 | 42.47
Output  | 0.20675    | 0.21063    | 0.22628    |   0.5 |  0.11
Modify  | 9.8256     | 21.009     | 36.365     | 249.4 | 11.23
Other   |            | 1.413      |            |       |  0.76

Nlocal:    109.817 ave 251 max 69 min
Histogram: 48 0 0 0 0 0 0 0 6 6
Nghost:    1020.55 ave 1336 max 692 min
Histogram: 24 0 0 0 0 0 0 23 1 12
Neighs:    0 ave 0 max 0 min
Histogram: 60 0 0 0 0 0 0 0 0 0
FullNghs:  13367.8 ave 46211 max 4255 min
Histogram: 48 0 0 0 0 0 0 0 2 10

Total # of neighbors = 802070
Ave neighs/atom = 121.729
Neighbor list builds = 5811
Dangerous builds = 0

write_data		${DIR}/data.eq-${NAME}-${TEMP}
write_data		run_2/data.eq-${NAME}-${TEMP}
write_data		run_2/data.eq-het_freeze_2-${TEMP}
write_data		run_2/data.eq-het_freeze_2-230
undump          1

reset_timestep  0

unfix           2
unfix           3
unfix           4


################################################
#######         Run Simulation         #########
################################################

log				${DIR}/log.run_${NAME}
log				run_2/log.run_${NAME}
log				run_2/log.run_het_freeze_2
