LAMMPS data file via write_data, version 16 Mar 2018, timestep = 100000

5031 atoms
2 atom types

0.0000000000000000e+00 4.9219999999999999e+01 xlo xhi
0.0000000000000000e+00 4.9019635930410494e+01 ylo yhi
1.0332145951931153e+00 3.8966785404808505e+01 zlo zhi

Masses

1 18.015
2 12.01

Atoms # atomic

140 2 0.0000000000000000e+00 2.8417180249513345e+00 3.0636858116532375e+00 0 0 0
142 2 0.0000000000000000e+00 0.0000000000000000e+00 3.0636858116532375e+00 0 0 0
144 2 1.2305000000000001e+00 7.1042950623783474e-01 3.0636858116532375e+00 0 0 0
151 2 1.2305000000000001e+00 2.1312885187134998e+00 3.0636858116532375e+00 0 0 0
153 2 2.4610000000000003e+00 2.8417180249513345e+00 3.0636858116532375e+00 0 0 0
155 2 2.4610000000000003e+00 0.0000000000000000e+00 3.0636858116532375e+00 0 0 0
157 2 3.6915000000000004e+00 7.1042950623783474e-01 3.0636858116532375e+00 0 0 0
172 2 3.6914999999999996e+00 2.1312885187134998e+00 3.0636858116532375e+00 0 0 0
174 2 4.9220000000000006e+00 2.8417180249513332e+00 3.0636858116532375e+00 0 0 0
176 2 4.9220000000000006e+00 0.0000000000000000e+00 3.0636858116532375e+00 0 0 0
178 2 6.1524999999999999e+00 7.1042950623783407e-01 3.0636858116532375e+00 0 0 0
201 2 6.1524999999999999e+00 2.1312885187134989e+00 3.0636858116532375e+00 0 0 0
203 2 7.3829999999999991e+00 2.8417180249513345e+00 3.0636858116532375e+00 0 0 0
205 2 7.3829999999999991e+00 0.0000000000000000e+00 3.0636858116532375e+00 0 0 0
207 2 8.6134999999999984e+00 7.1042950623783407e-01 3.0636858116532375e+00 0 0 0
238 2 8.6134999999999984e+00 2.1312885187135002e+00 3.0636858116532375e+00 0 0 0
147 2 0.0000000000000000e+00 4.2625770374269996e+00 3.0636858116532375e+00 0 0 0
149 2 1.2305000000000001e+00 4.9730065436648339e+00 3.0636858116532375e+00 0 0 0
164 2 1.2305000000000001e+00 6.3938655561404980e+00 3.0636858116532375e+00 0 0 0
168 2 2.4610000000000003e+00 4.2625770374269996e+00 3.0636858116532375e+00 0 0 0
170 2 3.6914999999999996e+00 4.9730065436648339e+00 3.0636858116532375e+00 0 0 0
193 2 3.6914999999999996e+00 6.3938655561404980e+00 3.0636858116532375e+00 0 0 0
145 2 0.0000000000000000e+00 7.1042950623783341e+00 3.0636858116532375e+00 0 0 0
166 2 2.4610000000000003e+00 7.1042950623783341e+00 3.0636858116532375e+00 0 0 0
197 2 4.9220000000000006e+00 4.2625770374269978e+00 3.0636858116532375e+00 0 0 0
199 2 6.1524999999999999e+00 4.9730065436648339e+00 3.0636858116532375e+00 0 0 0
230 2 6.1524999999999999e+00 6.3938655561404980e+00 3.0636858116532375e+00 0 0 0
234 2 7.3829999999999991e+00 4.2625770374269996e+00 3.0636858116532375e+00 0 0 0
236 2 8.6135000000000002e+00 4.9730065436648339e+00 3.0636858116532375e+00 0 0 0
275 2 8.6135000000000002e+00 6.3938655561404980e+00 3.0636858116532375e+00 0 0 0
195 2 4.9220000000000006e+00 7.1042950623783341e+00 3.0636858116532375e+00 0 0 0
232 2 7.3830000000000009e+00 7.1042950623783341e+00 3.0636858116532375e+00 0 0 0
160 2 0.0000000000000000e+00 8.5251540748539991e+00 3.0636858116532375e+00 0 0 0
162 2 1.2305000000000001e+00 9.2355835810918343e+00 3.0636858116532375e+00 0 0 0
189 2 2.4610000000000003e+00 8.5251540748539991e+00 3.0636858116532375e+00 0 0 0
191 2 3.6915000000000004e+00 9.2355835810918343e+00 3.0636858116532375e+00 0 0 0
158 2 0.0000000000000000e+00 1.1366872099805333e+01 3.0636858116532375e+00 0 0 0
185 2 1.2305000000000001e+00 1.0656442593567498e+01 3.0636858116532375e+00 0 0 0
187 2 2.4610000000000003e+00 1.1366872099805333e+01 3.0636858116532375e+00 0 0 0
222 2 3.6914999999999996e+00 1.0656442593567499e+01 3.0636858116532375e+00 0 0 0
226 2 4.9220000000000006e+00 8.5251540748539991e+00 3.0636858116532375e+00 0 0 0
228 2 6.1524999999999999e+00 9.2355835810918343e+00 3.0636858116532375e+00 0 0 0
271 2 7.3830000000000009e+00 8.5251540748539991e+00 3.0636858116532375e+00 0 0 0
273 2 8.6134999999999984e+00 9.2355835810918343e+00 3.0636858116532375e+00 0 0 0
224 2 4.9220000000000006e+00 1.1366872099805333e+01 3.0636858116532375e+00 0 0 0
267 2 6.1524999999999999e+00 1.0656442593567499e+01 3.0636858116532375e+00 0 0 0
269 2 7.3829999999999991e+00 1.1366872099805333e+01 3.0636858116532375e+00 0 0 0
314 2 8.6134999999999984e+00 1.0656442593567498e+01 3.0636858116532375e+00 0 0 0
141 2 0.0000000000000000e+00 1.4208590124756650e+00 6.1638548771838595e+00 0 0 0
143 2 0.0000000000000000e+00 0.0000000000000000e+00 6.1638548771838595e+00 0 0 0
152 2 1.2305000000000001e+00 2.1312885187134998e+00 6.1638548771838595e+00 0 0 0
154 2 2.4610000000000003e+00 1.4208590124756650e+00 6.1638548771838595e+00 0 0 0
156 2 2.4610000000000003e+00 0.0000000000000000e+00 6.1638548771838595e+00 0 0 0
173 2 3.6914999999999996e+00 2.1312885187134998e+00 6.1638548771838595e+00 0 0 0
150 2 1.2305000000000001e+00 3.5521475311891644e+00 6.1638548771838595e+00 0 0 0
171 2 3.6914999999999996e+00 3.5521475311891644e+00 6.1638548771838595e+00 0 0 0
469 2 0.0000000000000000e+00 2.8417180249513345e+00 9.2640239427145072e+00 0 0 0
470 2 0.0000000000000000e+00 0.0000000000000000e+00 9.2640239427145072e+00 0 0 0
471 2 1.2305000000000001e+00 7.1042950623783474e-01 9.2640239427145072e+00 0 0 0
475 2 1.2305000000000001e+00 2.1312885187134998e+00 9.2640239427145072e+00 0 0 0
476 2 2.4610000000000003e+00 2.8417180249513345e+00 9.2640239427145072e+00 0 0 0
477 2 2.4610000000000003e+00 0.0000000000000000e+00 9.2640239427145072e+00 0 0 0
478 2 3.6915000000000004e+00 7.1042950623783474e-01 9.2640239427145072e+00 0 0 0
486 2 3.6914999999999996e+00 2.1312885187134998e+00 9.2640239427145072e+00 0 0 0
175 2 4.9220000000000006e+00 1.4208590124756650e+00 6.1638548771838595e+00 0 0 0
177 2 4.9220000000000006e+00 0.0000000000000000e+00 6.1638548771838595e+00 0 0 0
202 2 6.1524999999999999e+00 2.1312885187134989e+00 6.1638548771838595e+00 0 0 0
204 2 7.3829999999999991e+00 1.4208590124756659e+00 6.1638548771838595e+00 0 0 0
206 2 7.3829999999999991e+00 0.0000000000000000e+00 6.1638548771838595e+00 0 0 0
239 2 8.6134999999999984e+00 2.1312885187135002e+00 6.1638548771838595e+00 0 0 0
200 2 6.1524999999999999e+00 3.5521475311891644e+00 6.1638548771838595e+00 0 0 0
237 2 8.6134999999999984e+00 3.5521475311891657e+00 6.1638548771838595e+00 0 0 0
487 2 4.9220000000000006e+00 2.8417180249513332e+00 9.2640239427145072e+00 0 0 0
488 2 4.9220000000000006e+00 0.0000000000000000e+00 9.2640239427145072e+00 0 0 0
489 2 6.1524999999999999e+00 7.1042950623783407e-01 9.2640239427145072e+00 0 0 0
501 2 6.1524999999999999e+00 2.1312885187134989e+00 9.2640239427145072e+00 0 0 0
502 2 7.3829999999999991e+00 2.8417180249513345e+00 9.2640239427145072e+00 0 0 0
503 2 7.3829999999999991e+00 0.0000000000000000e+00 9.2640239427145072e+00 0 0 0
504 2 8.6134999999999984e+00 7.1042950623783407e-01 9.2640239427145072e+00 0 0 0
520 2 8.6134999999999984e+00 2.1312885187135002e+00 9.2640239427145072e+00 0 0 0
146 2 0.0000000000000000e+00 5.6834360499026637e+00 6.1638548771838595e+00 0 0 0
148 2 0.0000000000000000e+00 4.2625770374269996e+00 6.1638548771838595e+00 0 0 0
165 2 1.2305000000000001e+00 6.3938655561404980e+00 6.1638548771838595e+00 0 0 0
167 2 2.4610000000000003e+00 5.6834360499026637e+00 6.1638548771838595e+00 0 0 0
169 2 2.4610000000000003e+00 4.2625770374269996e+00 6.1638548771838595e+00 0 0 0
194 2 3.6914999999999996e+00 6.3938655561404980e+00 6.1638548771838595e+00 0 0 0
163 2 1.2305000000000001e+00 7.8147245686161639e+00 6.1638548771838595e+00 0 0 0
192 2 3.6914999999999996e+00 7.8147245686161639e+00 6.1638548771838595e+00 0 0 0
473 2 0.0000000000000000e+00 4.2625770374269996e+00 9.2640239427145072e+00 0 0 0
474 2 1.2305000000000001e+00 4.9730065436648339e+00 9.2640239427145072e+00 0 0 0
482 2 1.2305000000000001e+00 6.3938655561404980e+00 9.2640239427145072e+00 0 0 0
484 2 2.4610000000000003e+00 4.2625770374269996e+00 9.2640239427145072e+00 0 0 0
485 2 3.6914999999999996e+00 4.9730065436648339e+00 9.2640239427145072e+00 0 0 0
497 2 3.6914999999999996e+00 6.3938655561404980e+00 9.2640239427145072e+00 0 0 0
472 2 0.0000000000000000e+00 7.1042950623783341e+00 9.2640239427145072e+00 0 0 0
483 2 2.4610000000000003e+00 7.1042950623783341e+00 9.2640239427145072e+00 0 0 0
196 2 4.9220000000000006e+00 5.6834360499026637e+00 6.1638548771838595e+00 0 0 0
198 2 4.9220000000000006e+00 4.2625770374269978e+00 6.1638548771838595e+00 0 0 0
231 2 6.1524999999999999e+00 6.3938655561404980e+00 6.1638548771838595e+00 0 0 0
233 2 7.3829999999999991e+00 5.6834360499026637e+00 6.1638548771838595e+00 0 0 0
235 2 7.3829999999999991e+00 4.2625770374269996e+00 6.1638548771838595e+00 0 0 0
276 2 8.6135000000000002e+00 6.3938655561404980e+00 6.1638548771838595e+00 0 0 0
229 2 6.1524999999999999e+00 7.8147245686161639e+00 6.1638548771838595e+00 0 0 0
274 2 8.6135000000000002e+00 7.8147245686161639e+00 6.1638548771838595e+00 0 0 0
499 2 4.9220000000000006e+00 4.2625770374269978e+00 9.2640239427145072e+00 0 0 0
500 2 6.1524999999999999e+00 4.9730065436648339e+00 9.2640239427145072e+00 0 0 0
516 2 6.1524999999999999e+00 6.3938655561404980e+00 9.2640239427145072e+00 0 0 0
518 2 7.3829999999999991e+00 4.2625770374269996e+00 9.2640239427145072e+00 0 0 0
519 2 8.6135000000000002e+00 4.9730065436648339e+00 9.2640239427145072e+00 0 0 0
539 2 8.6135000000000002e+00 6.3938655561404980e+00 9.2640239427145072e+00 0 0 0
498 2 4.9220000000000006e+00 7.1042950623783341e+00 9.2640239427145072e+00 0 0 0
517 2 7.3830000000000009e+00 7.1042950623783341e+00 9.2640239427145072e+00 0 0 0
159 2 0.0000000000000000e+00 9.9460130873296642e+00 6.1638548771838595e+00 0 0 0
161 2 0.0000000000000000e+00 8.5251540748539991e+00 6.1638548771838595e+00 0 0 0
188 2 2.4610000000000003e+00 9.9460130873296642e+00 6.1638548771838595e+00 0 0 0
190 2 2.4610000000000003e+00 8.5251540748539991e+00 6.1638548771838595e+00 0 0 0
184 2 1.2305000000000001e+00 1.2077301606043163e+01 6.1638548771838595e+00 0 0 0
186 2 1.2305000000000001e+00 1.0656442593567498e+01 6.1638548771838595e+00 0 0 0
221 2 3.6914999999999996e+00 1.2077301606043163e+01 6.1638548771838595e+00 0 0 0
223 2 3.6914999999999996e+00 1.0656442593567499e+01 6.1638548771838595e+00 0 0 0
480 2 0.0000000000000000e+00 8.5251540748539991e+00 9.2640239427145072e+00 0 0 0
481 2 1.2305000000000001e+00 9.2355835810918343e+00 9.2640239427145072e+00 0 0 0
495 2 2.4610000000000003e+00 8.5251540748539991e+00 9.2640239427145072e+00 0 0 0
496 2 3.6915000000000004e+00 9.2355835810918343e+00 9.2640239427145072e+00 0 0 0
479 2 0.0000000000000000e+00 1.1366872099805333e+01 9.2640239427145072e+00 0 0 0
493 2 1.2305000000000001e+00 1.0656442593567498e+01 9.2640239427145072e+00 0 0 0
494 2 2.4610000000000003e+00 1.1366872099805333e+01 9.2640239427145072e+00 0 0 0
512 2 3.6914999999999996e+00 1.0656442593567499e+01 9.2640239427145072e+00 0 0 0
225 2 4.9220000000000006e+00 9.9460130873296642e+00 6.1638548771838595e+00 0 0 0
227 2 4.9220000000000006e+00 8.5251540748539991e+00 6.1638548771838595e+00 0 0 0
270 2 7.3830000000000009e+00 9.9460130873296642e+00 6.1638548771838595e+00 0 0 0
272 2 7.3830000000000009e+00 8.5251540748539991e+00 6.1638548771838595e+00 0 0 0
266 2 6.1524999999999999e+00 1.2077301606043163e+01 6.1638548771838595e+00 0 0 0
268 2 6.1524999999999999e+00 1.0656442593567499e+01 6.1638548771838595e+00 0 0 0
313 2 8.6135000000000002e+00 1.2077301606043163e+01 6.1638548771838595e+00 0 0 0
315 2 8.6134999999999984e+00 1.0656442593567498e+01 6.1638548771838595e+00 0 0 0
514 2 4.9220000000000006e+00 8.5251540748539991e+00 9.2640239427145072e+00 0 0 0
515 2 6.1524999999999999e+00 9.2355835810918343e+00 9.2640239427145072e+00 0 0 0
537 2 7.3830000000000009e+00 8.5251540748539991e+00 9.2640239427145072e+00 0 0 0
538 2 8.6134999999999984e+00 9.2355835810918343e+00 9.2640239427145072e+00 0 0 0
513 2 4.9220000000000006e+00 1.1366872099805333e+01 9.2640239427145072e+00 0 0 0
535 2 6.1524999999999999e+00 1.0656442593567499e+01 9.2640239427145072e+00 0 0 0
536 2 7.3829999999999991e+00 1.1366872099805333e+01 9.2640239427145072e+00 0 0 0
559 2 8.6134999999999984e+00 1.0656442593567498e+01 9.2640239427145072e+00 0 0 0
1563 1 2.0523960335683857e+00 4.9293601333496282e+00 1.5262977751280381e+01 0 1 0
2429 1 2.2597414353108980e+00 3.2994569444779662e+00 1.3226048086755124e+01 1 1 0
4078 1 6.6270709546914972e+00 9.3850714993981246e+00 1.6261869606521728e+01 0 1 0
3419 1 9.6954126002985817e+00 1.1208016842820879e+01 1.9099021113387177e+01 0 1 0
3463 1 5.9614908376893405e+00 1.6109433147745789e+00 1.1722741688806702e+01 0 0 0
2338 1 4.9719418563121325e+00 4.1962045289694698e+00 1.2561033359089974e+01 0 0 -1
4981 1 8.9553794575470391e+00 1.3823412731436533e+00 1.1928497254937213e+01 -1 1 -1
3501 1 7.5881233635747209e+00 1.6492437457869926e+00 1.4709166822827532e+01 0 0 0
2568 1 1.6136345585383403e+00 8.4003120821451187e+00 1.2046776210651347e+01 1 0 -1
4124 1 3.7332862490050811e+00 6.6751738621178749e+00 1.1848449166571660e+01 1 0 0
4324 1 5.0866291737736513e-01 6.9855082879203287e+00 1.6225041706983980e+01 1 0 0
3456 1 9.6650971098761429e-01 2.8200276758938174e+00 1.6784644881037856e+01 0 1 -1
4876 1 6.7980205333567216e+00 4.6214330409793920e+00 1.4852227095045142e+01 0 0 0
3244 1 7.6496145355264717e+00 1.1784877791291956e+01 1.5032294495587355e+01 0 1 0
1548 1 2.1739825281270497e+00 1.1401507729080946e+00 1.4614852098334701e+01 0 1 0
3170 1 1.5928688082731242e+00 9.3198076482013086e+00 1.4932726195861397e+01 1 0 0
4837 1 7.7871025335435897e+00 7.6878819365892772e+00 1.4436425338606528e+01 1 0 0
3142 1 5.9829922866267289e+00 8.3539522830055919e+00 1.1885306069631817e+01 0 -1 0
4238 1 8.1626214732319813e+00 3.0170929829554924e+00 1.9190798085307495e+01 1 1 0
886 1 7.7997264042419632e+00 8.9963469441264383e+00 1.8732020881582709e+01 0 1 0
94 1 8.1615328937280704e+00 1.1417270834537808e+01 1.2273978960184770e+01 0 0 0
4279 1 2.7686415623493956e+00 3.4483184965148976e+00 1.8968835864353430e+01 0 1 0
3359 1 3.9750547525498043e+00 1.1073669533120247e+00 1.7406151673188248e+01 0 0 -1
2378 1 2.2267487808428195e+00 1.1888149376798841e+01 1.1800005558967754e+01 0 0 0
862 1 3.4717248723117433e-01 3.9059401923814638e+00 1.1575695552411130e+01 0 0 0
943 1 3.9938933891765984e+00 1.0583888685555181e+01 1.6043502577931996e+01 0 1 0
81 1 4.4793477457145148e+00 5.6637620450839838e+00 1.6774653452739940e+01 0 1 0
4049 1 4.2369671664072781e+00 7.8868099436485677e+00 1.4693811636165048e+01 0 2 0
1520 1 9.2395200453805320e+00 3.5060897638979389e+00 1.6656928088129554e+01 0 -1 -1
1648 1 8.7539569321697375e+00 8.6008300326018201e+00 1.1828163102494912e+01 0 1 0
2513 1 9.8004538811661188e+00 7.1166431688025167e+00 1.8453633571679692e+01 1 0 0
1611 1 5.3671313466959720e+00 7.3888262703932366e+00 1.9247123576825942e+01 0 -1 1
3982 1 2.3543027833997994e+00 6.2105179021739643e+00 1.8907759674894372e+01 1 0 0
959 1 5.5083445905778392e+00 1.1251619118897558e+01 1.1659549124555957e+01 1 1 1
3358 1 2.0062424812391566e-01 1.0634910846221192e+01 1.7059223893961853e+01 0 0 0
2481 1 9.5983399468920965e+00 6.1384028182472870e+00 1.6058835464223897e+01 0 1 0
4965 1 5.9040024081326692e-02 2.9798866920686268e-01 1.9711532453751168e+01 1 1 0
4212 1 2.4837724549932498e+00 8.7167711222002064e-01 2.2536178302372804e+01 1 0 -1
1834 1 8.2423540785984739e-01 3.3608814434588119e+00 2.5537671953694886e+01 1 0 0
910 1 3.1908547918498580e+00 2.4614195299203834e+00 2.6817737204749957e+01 0 0 1
88 1 4.3581685599499780e+00 1.4578971651647645e+00 2.4437616400642238e+01 0 -1 0
4074 1 8.7764186349514066e+00 4.6715593784267178e+00 2.4006995615663637e+01 0 1 0
4979 1 2.6328456789980432e+00 6.5861150959812456e+00 2.1639671640526903e+01 1 0 -1
764 1 9.7217341032059124e-01 4.8875606564723908e+00 2.3023487739963088e+01 2 0 0
15 1 1.1605956777279895e+00 5.2325226539464342e+00 2.7770225996353915e+01 1 0 0
123 1 6.2904751326474608e+00 3.3607431647070363e+00 2.3397520208013706e+01 0 -1 0
1825 1 9.5097645788783041e+00 1.0522371921914728e+00 2.0509380726740194e+01 0 1 -1
2471 1 2.7263329180143803e+00 9.3520350920936650e+00 2.4875945431396993e+01 0 0 0
3394 1 4.3977255190554887e+00 9.9601301950552461e+00 2.0075211154716158e+01 1 0 0
1732 1 2.4809992267036955e+00 9.3558759009390240e+00 2.2000684424090068e+01 0 0 0
2362 1 3.1225003025645104e+00 6.7501879587568983e+00 2.6744207174057529e+01 1 2 0
3377 1 6.9854946821226713e+00 1.0601822572151440e+00 2.1925424899887002e+01 0 0 0
4988 1 5.4777333356371587e+00 5.9582233916527167e+00 2.1704256319977439e+01 0 -1 0
719 1 5.4947184333060859e+00 9.6812937433943098e+00 2.4245984338566458e+01 0 0 0
2615 1 8.3914744920869566e+00 6.5206599095603739e+00 2.6124613050482797e+01 1 -1 0
3345 1 5.5099916395811652e+00 1.1579927567755607e+01 2.2177191053087260e+01 1 1 -1
4795 1 9.2667809813840289e+00 8.3092520789924436e+00 2.4428055758872755e+01 1 1 0
963 1 5.2437221895948225e+00 4.1671781424430341e+00 2.7040641561346227e+01 0 0 0
690 1 8.0536774704572096e+00 4.9459714986459702e-01 2.6377313219176276e+01 0 1 0
2597 1 5.9088653191786298e+00 6.8065564396265135e+00 2.4684417488379808e+01 0 0 1
109 1 4.8391827884210867e+00 8.4394917282809345e+00 2.8300716363389895e+01 2 0 1
3179 1 9.5459678544180460e-01 2.7060260643577569e+00 2.1166819731333192e+01 0 0 0
1767 1 4.4073253072652125e+00 3.1631450415753642e-01 2.0626147880642627e+01 0 0 0
641 1 7.6369871490586130e+00 4.9423178367913492e+00 2.9029555992406234e+01 1 0 -1
24 1 8.0956061176502399e+00 3.1635402139896400e+00 2.6456874369972347e+01 0 0 -1
822 1 7.9194170985352184e+00 1.0302847642542440e+01 2.5521639085907921e+01 0 1 -1
1814 1 8.3643097102953377e+00 6.5794771072089802e+00 2.2225039582315002e+01 0 1 0
4168 1 5.3386746867518191e+00 3.4749382172021175e+00 2.0457211035755709e+01 1 0 1
2409 1 6.0400373825165543e+00 1.0893630035763074e+01 2.7703444069026823e+01 0 0 0
4278 1 1.6507400829738064e+00 1.1728395545272594e+01 2.5449877600041368e+01 0 0 0
2583 1 1.4820434095759583e+00 2.3840289016987728e+00 2.9133705123580732e+01 1 0 0
4101 1 9.7031287528667622e+00 5.1237492511197065e+00 2.0306898305985008e+01 0 1 -1
1505 1 6.3763324419033758e+00 5.0766068283440502e-01 2.9177381876214707e+01 1 1 0
1830 1 4.0996526265081839e+00 9.8556943756953785e-02 2.7691116225866445e+01 1 -1 0
3287 1 3.2579750982637123e+00 3.2285603609880731e+00 3.1122594684787760e+01 0 1 0
626 1 9.6335042885272881e-01 3.4302617377314188e+00 3.2634593000129648e+01 1 1 0
4073 1 3.6192361478258737e+00 7.7886234099429186e-01 3.7965720095670996e+01 2 1 1
1680 1 9.5778057715759974e+00 8.5716836730582138e+00 3.1017215994352966e+01 1 1 0
2342 1 9.0120306231065435e+00 5.3521821575296862e+00 3.5478477745286654e+01 -1 0 0
4166 1 6.2107312208678360e+00 8.5339644971905706e+00 3.8298905711077047e+01 0 0 -1
760 1 9.2116963337425446e+00 2.3498213893618103e+00 3.3944329798174593e+01 -1 0 -1
1769 1 6.1690167760139634e+00 6.8282796157947958e+00 3.0416565635474278e+01 1 1 0
3478 1 2.4217092823931297e+00 6.6099575225282701e+00 3.0333062825795221e+01 1 0 0
1590 1 4.2277729916617366e+00 6.1907047119863838e+00 3.2655252146345312e+01 0 0 -1
4957 1 7.6632591120999995e+00 4.3066884568199217e+00 3.2980276803020246e+01 0 1 0
702 1 4.0602776750203962e+00 4.5428054510758678e+00 3.6584880459660816e+01 0 1 -1
4023 1 6.9976733095257879e+00 9.4474122929336293e+00 3.1783057156235202e+01 1 1 -1
1786 1 4.3402655296446664e+00 1.1309320612652423e+01 3.3857713584528526e+01 0 0 1
793 1 5.2104150451755205e+00 8.4288780527426255e+00 3.3829082779513158e+01 2 0 1
2446 1 7.6303900871852317e+00 3.6443373273947988e-01 3.8110961875937456e+01 0 0 -1
663 1 7.4343059475534297e+00 1.1229442416045051e+01 3.7990145519939666e+01 1 0 -1
3234 1 2.4634311685747559e+00 9.4450833745852858e+00 2.9500501008666721e+01 1 0 0
3326 1 8.7978490520475727e+00 9.9450263597024513e+00 3.4124985182790816e+01 1 0 -1
2420 1 1.1592011128627913e+00 3.8124652326645494e+00 3.5475151210675264e+01 1 1 0
4940 1 9.6754504332471303e-01 1.3843813997642440e+00 3.8151977232748791e+01 0 0 -1
4857 1 4.6267599959363226e+00 1.3418464900352500e+00 3.5352461631140869e+01 1 0 0
4185 1 4.9176030074704906e+00 4.0628132472139180e+00 3.3795850784687019e+01 0 0 -1
1743 1 7.3117430731041981e+00 6.0355185377715814e-01 3.5109613706946419e+01 1 0 0
1493 1 5.6310444572400149e+00 2.3939422779696540e+00 3.8655736397644795e+01 1 1 0
689 1 8.5532977296232957e+00 4.8600264507737094e+00 3.8061950665091324e+01 0 1 1
4986 1 2.0003080913893929e+00 6.3886773852282861e+00 3.7755550376485779e+01 1 0 0
2516 1 2.3314473668855009e+00 6.6254297806154758e+00 3.5025389660430960e+01 0 1 0
3415 1 9.1305013257849108e+00 2.9196078966906693e+00 3.0584585412580253e+01 1 0 0
3131 1 5.9462532405739781e+00 5.2525158753200198e+00 3.8363826847736902e+01 1 1 0
3159 1 7.4756128936730928e+00 7.8489365715917039e+00 3.5992167267623003e+01 1 1 0
1739 1 2.8900947664888612e+00 9.3729004040988109e+00 3.5464385054234754e+01 0 0 0
4011 1 1.8166150756585417e+00 1.1065199345335532e+01 3.8357820041758082e+01 1 -1 0
4970 1 3.3974951976975594e+00 8.8518815199821219e+00 3.8055663161244986e+01 1 1 0
3976 1 6.9856292289283752e+00 1.1756983656070211e+01 3.5285565926887216e+01 0 1 -1
3347 1 9.4623977540657904e+00 7.5448958502257399e+00 3.8174649584574340e+01 0 1 -1
2317 1 3.8910240698214952e-03 5.9787155139989032e+00 3.1650838231692990e+01 1 1 -1
1578 1 6.1154434392042418e+00 2.7932572006216914e+00 3.0708094586034143e+01 1 0 0
4196 1 3.8366314655352380e+00 8.1541814904618370e-01 3.2613641441300302e+01 1 1 0
4106 1 3.2548650585039141e-01 1.0196499021809782e+01 3.5669375867232262e+01 0 -1 -1
4908 1 6.3846024935198251e+00 1.2004811540324372e+01 3.0490133261765330e+01 0 0 0
1776 1 9.7000565367219682e+00 2.1499661273394661e+00 3.8137184875084408e+01 0 1 0
4285 1 9.2716728740551009e+00 1.4287775777115286e-01 3.2072913859902258e+01 1 1 1
32 1 2.6484940754760959e+00 1.2152637648858978e+01 2.9664310468826908e+01 0 0 -1
181 2 0.0000000000000000e+00 1.2787731112280996e+01 3.0636858116532375e+00 0 0 0
183 2 1.2305000000000001e+00 1.3498160618518829e+01 3.0636858116532375e+00 0 0 0
218 2 2.4610000000000003e+00 1.2787731112280996e+01 3.0636858116532375e+00 0 0 0
220 2 3.6915000000000004e+00 1.3498160618518829e+01 3.0636858116532375e+00 0 0 0
179 2 0.0000000000000000e+00 1.5629449137232333e+01 3.0636858116532375e+00 0 0 0
214 2 1.2305000000000001e+00 1.4919019630994494e+01 3.0636858116532375e+00 0 0 0
216 2 2.4610000000000003e+00 1.5629449137232328e+01 3.0636858116532375e+00 0 0 0
259 2 3.6915000000000004e+00 1.4919019630994494e+01 3.0636858116532375e+00 0 0 0
263 2 4.9220000000000006e+00 1.2787731112280996e+01 3.0636858116532375e+00 0 0 0
265 2 6.1524999999999990e+00 1.3498160618518829e+01 3.0636858116532375e+00 0 0 0
310 2 7.3829999999999991e+00 1.2787731112280996e+01 3.0636858116532375e+00 0 0 0
312 2 8.6135000000000002e+00 1.3498160618518835e+01 3.0636858116532375e+00 0 0 0
261 2 4.9220000000000006e+00 1.5629449137232333e+01 3.0636858116532375e+00 0 0 0
306 2 6.1524999999999990e+00 1.4919019630994494e+01 3.0636858116532375e+00 0 0 0
308 2 7.3829999999999991e+00 1.5629449137232333e+01 3.0636858116532375e+00 0 0 0
353 2 8.6135000000000002e+00 1.4919019630994494e+01 3.0636858116532375e+00 0 0 0
210 2 0.0000000000000000e+00 1.7050308149707998e+01 3.0636858116532375e+00 0 0 0
255 2 2.4610000000000003e+00 1.7050308149707998e+01 3.0636858116532375e+00 0 0 0
208 2 0.0000000000000000e+00 1.9892026174659328e+01 3.0636858116532375e+00 0 0 0
212 2 1.2305000000000001e+00 1.7760737655945832e+01 3.0636858116532375e+00 0 0 0
251 2 1.2305000000000001e+00 1.9181596668421495e+01 3.0636858116532375e+00 0 0 0
253 2 2.4610000000000003e+00 1.9892026174659328e+01 3.0636858116532375e+00 0 0 0
257 2 3.6914999999999996e+00 1.7760737655945832e+01 3.0636858116532375e+00 0 0 0
298 2 3.6914999999999996e+00 1.9181596668421495e+01 3.0636858116532375e+00 0 0 0
302 2 4.9220000000000006e+00 1.7050308149707998e+01 3.0636858116532375e+00 0 0 0
349 2 7.3830000000000009e+00 1.7050308149707998e+01 3.0636858116532375e+00 0 0 0
300 2 4.9220000000000006e+00 1.9892026174659328e+01 3.0636858116532375e+00 0 0 0
304 2 6.1524999999999999e+00 1.7760737655945832e+01 3.0636858116532375e+00 0 0 0
345 2 6.1524999999999999e+00 1.9181596668421495e+01 3.0636858116532375e+00 0 0 0
347 2 7.3829999999999991e+00 1.9892026174659328e+01 3.0636858116532375e+00 0 0 0
351 2 8.6134999999999984e+00 1.7760737655945832e+01 3.0636858116532375e+00 0 0 0
387 2 8.6135000000000002e+00 1.9181596668421495e+01 3.0636858116532375e+00 0 0 0
245 2 0.0000000000000000e+00 2.4154603212086325e+01 3.0636858116532375e+00 0 0 0
247 2 0.0000000000000000e+00 2.1312885187134999e+01 3.0636858116532375e+00 0 0 0
249 2 1.2304999999999993e+00 2.2023314693372832e+01 3.0636858116532375e+00 0 0 0
290 2 1.2304999999999993e+00 2.3444173705848499e+01 3.0636858116532375e+00 0 0 0
292 2 2.4610000000000003e+00 2.4154603212086325e+01 3.0636858116532375e+00 0 0 0
294 2 2.4610000000000003e+00 2.1312885187134995e+01 3.0636858116532375e+00 0 0 0
296 2 3.6914999999999996e+00 2.2023314693372832e+01 3.0636858116532375e+00 0 0 0
337 2 3.6915000000000004e+00 2.3444173705848499e+01 3.0636858116532375e+00 0 0 0
339 2 4.9220000000000006e+00 2.4154603212086325e+01 3.0636858116532375e+00 0 0 0
341 2 4.9220000000000006e+00 2.1312885187134995e+01 3.0636858116532375e+00 0 0 0
343 2 6.1524999999999990e+00 2.2023314693372832e+01 3.0636858116532375e+00 0 0 0
379 2 6.1524999999999999e+00 2.3444173705848499e+01 3.0636858116532375e+00 0 0 0
381 2 7.3830000000000009e+00 2.4154603212086336e+01 3.0636858116532375e+00 0 0 0
383 2 7.3829999999999991e+00 2.1312885187134999e+01 3.0636858116532375e+00 0 0 0
385 2 8.6135000000000002e+00 2.2023314693372832e+01 3.0636858116532375e+00 0 0 0
413 2 8.6134999999999984e+00 2.3444173705848499e+01 3.0636858116532375e+00 0 0 0
182 2 0.0000000000000000e+00 1.2787731112280996e+01 6.1638548771838595e+00 0 0 0
219 2 2.4610000000000003e+00 1.2787731112280996e+01 6.1638548771838595e+00 0 0 0
180 2 0.0000000000000000e+00 1.4208590124756663e+01 6.1638548771838595e+00 0 0 0
215 2 1.2305000000000001e+00 1.4919019630994494e+01 6.1638548771838595e+00 0 0 0
217 2 2.4610000000000003e+00 1.4208590124756663e+01 6.1638548771838595e+00 0 0 0
260 2 3.6915000000000004e+00 1.4919019630994494e+01 6.1638548771838595e+00 0 0 0
491 2 0.0000000000000000e+00 1.2787731112280996e+01 9.2640239427145072e+00 0 0 0
492 2 1.2305000000000001e+00 1.3498160618518829e+01 9.2640239427145072e+00 0 0 0
510 2 2.4610000000000003e+00 1.2787731112280996e+01 9.2640239427145072e+00 0 0 0
511 2 3.6915000000000004e+00 1.3498160618518829e+01 9.2640239427145072e+00 0 0 0
490 2 0.0000000000000000e+00 1.5629449137232333e+01 9.2640239427145072e+00 0 0 0
508 2 1.2305000000000001e+00 1.4919019630994494e+01 9.2640239427145072e+00 0 0 0
509 2 2.4610000000000003e+00 1.5629449137232328e+01 9.2640239427145072e+00 0 0 0
531 2 3.6915000000000004e+00 1.4919019630994494e+01 9.2640239427145072e+00 0 0 0
264 2 4.9220000000000006e+00 1.2787731112280996e+01 6.1638548771838595e+00 0 0 0
311 2 7.3829999999999991e+00 1.2787731112280996e+01 6.1638548771838595e+00 0 0 0
262 2 4.9220000000000006e+00 1.4208590124756663e+01 6.1638548771838595e+00 0 0 0
307 2 6.1524999999999990e+00 1.4919019630994494e+01 6.1638548771838595e+00 0 0 0
309 2 7.3830000000000009e+00 1.4208590124756663e+01 6.1638548771838595e+00 0 0 0
354 2 8.6135000000000002e+00 1.4919019630994494e+01 6.1638548771838595e+00 0 0 0
533 2 4.9220000000000006e+00 1.2787731112280996e+01 9.2640239427145072e+00 0 0 0
534 2 6.1524999999999990e+00 1.3498160618518829e+01 9.2640239427145072e+00 0 0 0
557 2 7.3829999999999991e+00 1.2787731112280996e+01 9.2640239427145072e+00 0 0 0
558 2 8.6135000000000002e+00 1.3498160618518835e+01 9.2640239427145072e+00 0 0 0
532 2 4.9220000000000006e+00 1.5629449137232333e+01 9.2640239427145072e+00 0 0 0
555 2 6.1524999999999990e+00 1.4919019630994494e+01 9.2640239427145072e+00 0 0 0
556 2 7.3829999999999991e+00 1.5629449137232333e+01 9.2640239427145072e+00 0 0 0
579 2 8.6135000000000002e+00 1.4919019630994494e+01 9.2640239427145072e+00 0 0 0
211 2 0.0000000000000000e+00 1.7050308149707998e+01 6.1638548771838595e+00 0 0 0
213 2 1.2305000000000001e+00 1.6339878643470165e+01 6.1638548771838595e+00 0 0 0
256 2 2.4610000000000003e+00 1.7050308149707998e+01 6.1638548771838595e+00 0 0 0
258 2 3.6915000000000004e+00 1.6339878643470165e+01 6.1638548771838595e+00 0 0 0
209 2 0.0000000000000000e+00 1.8471167162183658e+01 6.1638548771838595e+00 0 0 0
252 2 1.2305000000000001e+00 1.9181596668421495e+01 6.1638548771838595e+00 0 0 0
254 2 2.4610000000000003e+00 1.8471167162183658e+01 6.1638548771838595e+00 0 0 0
299 2 3.6914999999999996e+00 1.9181596668421495e+01 6.1638548771838595e+00 0 0 0
506 2 0.0000000000000000e+00 1.7050308149707998e+01 9.2640239427145072e+00 0 0 0
529 2 2.4610000000000003e+00 1.7050308149707998e+01 9.2640239427145072e+00 0 0 0
505 2 0.0000000000000000e+00 1.9892026174659328e+01 9.2640239427145072e+00 0 0 0
507 2 1.2305000000000001e+00 1.7760737655945832e+01 9.2640239427145072e+00 0 0 0
527 2 1.2305000000000001e+00 1.9181596668421495e+01 9.2640239427145072e+00 0 0 0
528 2 2.4610000000000003e+00 1.9892026174659328e+01 9.2640239427145072e+00 0 0 0
530 2 3.6914999999999996e+00 1.7760737655945832e+01 9.2640239427145072e+00 0 0 0
551 2 3.6914999999999996e+00 1.9181596668421495e+01 9.2640239427145072e+00 0 0 0
303 2 4.9220000000000006e+00 1.7050308149707998e+01 6.1638548771838595e+00 0 0 0
305 2 6.1524999999999999e+00 1.6339878643470165e+01 6.1638548771838595e+00 0 0 0
350 2 7.3830000000000009e+00 1.7050308149707998e+01 6.1638548771838595e+00 0 0 0
352 2 8.6134999999999984e+00 1.6339878643470165e+01 6.1638548771838595e+00 0 0 0
301 2 4.9220000000000006e+00 1.8471167162183658e+01 6.1638548771838595e+00 0 0 0
346 2 6.1524999999999999e+00 1.9181596668421495e+01 6.1638548771838595e+00 0 0 0
348 2 7.3829999999999991e+00 1.8471167162183658e+01 6.1638548771838595e+00 0 0 0
388 2 8.6135000000000002e+00 1.9181596668421495e+01 6.1638548771838595e+00 0 0 0
553 2 4.9220000000000006e+00 1.7050308149707998e+01 9.2640239427145072e+00 0 0 0
577 2 7.3830000000000009e+00 1.7050308149707998e+01 9.2640239427145072e+00 0 0 0
552 2 4.9220000000000006e+00 1.9892026174659328e+01 9.2640239427145072e+00 0 0 0