
# Create simulation box and atoms

read_data data.ML_graphite_m1000atm_250K
  orthogonal box = (0 0 1.04861) to (49.22 49.0196 38.9514)
  5 by 4 by 4 MPI processor grid
  reading atoms ...
  5031 atoms
  reading velocities ...
  5031 velocities
group water type 1
2271 atoms in group water
group graphite type 2
2760 atoms in group graphite

# Define potential

pair_style sw
pair_coeff * * MLC_e.sw mW C


# Fix graphite atoms in place

fix 5 graphite setforce 0.0 0.0 0.0
velocity graphite set 0.0 0.0 0.0


# Equilibration of molecular water

# Add velocity/set timestep

velocity	    water create ${TEMP} ${SEED} rot yes dist gaussian
velocity	    water create 250 ${SEED} rot yes dist gaussian
velocity	    water create 250 9498 rot yes dist gaussian
timestep	    5.0

# Define output

compute			1 water msd
compute			3 water temp
thermo	    	50
thermo_style	custom step temp press vol etotal ke pe c_1[4] c_3

# Neighbor lists

neigh_modify    delay 0 every 1 check yes

# Set fixes

fix             1 water momentum 10 linear 1 1 1 rescale
fix             2 water nve
fix             3 water temp/csvr ${TEMP} ${TEMP} 500.0 ${SEED}
fix             3 water temp/csvr 250 ${TEMP} 500.0 ${SEED}
fix             3 water temp/csvr 250 250 500.0 ${SEED}
fix             3 water temp/csvr 250 250 500.0 9498
fix             4 water press/berendsen z ${PRES} ${PRES} 1000.0 modulus 20000
fix             4 water press/berendsen z -1000 ${PRES} 1000.0 modulus 20000
fix             4 water press/berendsen z -1000 -1000 1000.0 modulus 20000

# Run 0.5 ns equilibration

dump		    1 all atom 2000 ${DIR}/eq.${NAME}-${TEMP}.dump
dump		    1 all atom 2000 run_7/eq.${NAME}-${TEMP}.dump
dump		    1 all atom 2000 run_7/eq.het_freeze_7-${TEMP}.dump
dump		    1 all atom 2000 run_7/eq.het_freeze_7-250.dump

reset_timestep  0

run	            100000
Neighbor list info ...
  update every 1 steps, delay 0 steps, check yes
  max neighbors/atom: 2000, page size: 100000
  master list distance cutoff = 6.67472
  ghost atom cutoff = 6.67472
  binsize = 3.33736, bins = 15 15 12
  1 neighbor lists, perpetual/occasional/extra = 1 0 0
  (1) pair sw, perpetual
      attributes: full, newton on
      pair build: full/bin/atomonly
      stencil: full/bin/3d
      bin: standard
Per MPI rank memory allocation (min/avg/max) = 4.069 | 4.188 | 4.476 Mbytes
Step Temp Press Volume TotEng KinEng PotEng c_1[4] c_3 
       0    112.82306   -1433.2777    91449.793   -21655.009    1691.6097   -23346.618            0          250 
      50    116.07364   -1580.5295    91476.228   -21634.018    1740.3472   -23374.365    0.5461177    257.20283 
     100    113.31083   -1394.7124    91458.595   -21656.127    1698.9231    -23355.05   0.89790963    251.08083 
     150    111.24985    -1509.101    91364.941   -21701.368    1668.0218   -23369.389    1.0863609    246.51398 
     200    112.39488   -1437.0173    91370.854   -21697.222    1685.1898   -23382.411    1.2845248    249.05121 
     250     115.4104   -1243.1005    91345.644   -21686.032    1730.4029   -23416.435     1.511706    255.73317 
     300    115.33843   -1345.6658    91356.628   -21723.568    1729.3238   -23452.892    1.6977646     255.5737 
     350    112.71072   -1424.7791     91374.65   -21719.144    1689.9253   -23409.069    1.8916576    249.75106 
     400    112.88132   -1376.7687    91365.053   -21703.048    1692.4832   -23395.531    2.1592405    250.12909 
     450    110.28735    -1381.932    91313.553   -21708.426    1653.5906   -23362.016    2.3063466    244.38123 
     500    112.31007      -1107.9     91242.06   -21649.352    1683.9182    -23333.27    2.4636098    248.86328 
     550      115.619     -1126.34    91299.997   -21656.443    1733.5306   -23389.974    2.6729505    256.19541 
     600    113.34239   -1326.3769    91321.073   -21655.138    1699.3962   -23354.534    2.8206313    251.15075 
     650    112.51438   -1368.5768    91283.509   -21670.996    1686.9815   -23357.978      2.95962      249.316 
     700    111.62259   -1218.4679    91255.104   -21660.089    1673.6104     -23333.7    3.0423092    247.33992 
     750    110.66941   -1216.2076    91229.529   -21657.176     1659.319   -23316.495     3.240446    245.22782 
     800    113.98949   -1172.7843    91211.188   -21639.571    1709.0985    -23348.67    3.4659846    252.58464 
     850    118.06198   -867.02969    91302.015   -21611.102    1770.1593   -23381.261    3.5780756    261.60871 
     900     116.1266   -1249.2878    91374.645   -21637.319    1741.1411   -23378.461     3.691399    257.32016 
     950    114.83112   -1275.6406    91418.587   -21595.801    1721.7175   -23317.518     3.906804    254.44957 
    1000    115.23668   -1307.4858    91461.159   -21592.562    1727.7983    -23320.36    4.1578014    255.34825 
    1050    112.23666   -1244.2216    91491.944   -21654.323    1682.8175   -23337.141    4.3395388    248.70062 
    1100    116.22766   -1808.7345    91371.958   -21620.734    1742.6564    -23363.39    4.4976852    257.54411 
    1150    112.51518   -1387.3096    91363.216   -21650.056    1686.9935   -23337.049    4.6956627    249.31778 
    1200    112.50825   -1353.3894     91309.55   -21684.211    1686.8895   -23371.101    4.8385708    249.30241 
    1250    114.10649   -1560.8199    91223.479   -21714.873    1710.8527   -23425.725     4.952569    252.84389 
    1300    114.42665   -1102.1018    91247.936   -21675.262     1715.653   -23390.915    5.0732633    253.55332 
    1350    110.18834   -1244.5385     91293.58   -21678.147    1652.1061   -23330.253     5.317299    244.16184 
    1400    113.70528   -1338.9456    91228.131   -21656.195    1704.8372   -23361.032    5.4641985    251.95487 
    1450    113.57577   -1290.9916    91247.358   -21664.994    1702.8954   -23367.889    5.6083287    251.66789 
    1500    113.79086   -1139.8491    91290.254   -21656.413    1706.1203   -23362.533    5.7193645     252.1445 
    1550    115.52508   -1056.5055    91358.377    -21647.74    1732.1224   -23379.862    5.9265098     255.9873 
    1600    114.75891   -1054.1108    91412.047   -21639.487    1720.6347   -23360.122    6.0228105    254.28956 
    1650    111.80663   -1039.6208    91524.402   -21645.065    1676.3698   -23321.435    6.2340311    247.74772 
    1700    114.13983   -1287.6261    91501.691   -21649.445    1711.3526   -23360.797    6.3815264    252.91776 
    1750    110.54938   -1395.4377    91463.624   -21693.683    1657.5194   -23351.202    6.5493097    244.96185 
    1800    112.68314   -1427.8531     91382.35    -21685.63    1689.5118   -23375.142    6.6466151    249.68996 
    1850    112.38069   -1439.8777    91354.379   -21666.762     1684.977   -23351.739    6.6877936    249.01976 
    1900    111.58798    -1628.899    91300.462   -21674.739    1673.0915    -23347.83    6.8234822    247.26322 
    1950    112.20458   -1647.3681    91291.192   -21669.827    1682.3365   -23352.164    7.1425601    248.62953 
    2000    110.80478   -1755.2203    91232.303   -21724.447    1661.3487   -23385.795    7.4538424    245.52777 
    2050    108.21285   -1533.4947    91197.269   -21698.041    1622.4866   -23320.528    7.6882282    239.78442 
    2100    112.72379   -1250.3857    91140.252   -21689.023    1690.1212   -23379.144    7.8954475    249.78002 
    2150    108.67607   -1521.7441    91141.998   -21692.866    1629.4319   -23322.298    8.1476291    240.81086 
    2200    114.78697   -1274.9513    91105.202   -21649.078    1721.0555   -23370.133    8.3575606    254.35174 
    2250    114.21611   -1462.1782    91140.093   -21662.614    1712.4963    -23375.11    8.5929545     253.0868 
    2300    115.29861   -887.69855     91199.49   -21660.618    1728.7267   -23389.345     8.789287    255.48546 
    2350    112.92677   -1108.4749     91186.37   -21660.005    1693.1647    -23353.17    8.9541486    250.22981 
    2400    112.56058   -1312.8174    91196.588   -21636.916    1687.6741    -23324.59    9.1593862    249.41837 
    2450    114.03202   -1473.8679    91111.253   -21609.817    1709.7362   -23319.553    9.2560321    252.67888 
    2500    112.91498   -1258.8427    91068.159   -21625.253    1692.9879   -23318.241    9.4634145    250.20369 
    2550    110.41852   -1375.9179    91025.661   -21674.273    1655.5573   -23329.831    9.7704085    244.67188 
    2600    112.20338   -1269.7871    90940.017   -21686.135    1682.3185   -23368.453    9.8830586    248.62688 
    2650    112.92831   -1403.2817    90933.951   -21698.104    1693.1878   -23391.292    9.9954702    250.23322 
    2700    114.19174    -1470.068    90861.297     -21704.2     1712.131   -23416.331    10.150324    253.03281 
    2750    110.79241    -1054.402    90888.759   -21698.584    1661.1631   -23359.747    10.379901    245.50035 
    2800    110.68897   -1180.8019    90906.864   -21739.374    1659.6123   -23398.986    10.526734    245.27116 
    2850    110.88539   -1390.6055    90951.829   -21726.863    1662.5573   -23389.421    10.656094    245.70639 
    2900    114.37759   -1291.6864    90940.328   -21697.652    1714.9175   -23412.569      10.8092    253.44461 
    2950    111.62035   -1304.1586    90966.065   -21699.115    1673.5769   -23372.692    10.972317    247.33496 
    3000    114.21026   -1422.0492    90905.561   -21706.747    1712.4087   -23419.156    11.172051    253.07384 
    3050    111.47987   -1279.1893    90909.291   -21754.026    1671.4706   -23425.496    11.398703    247.02367 
    3100    112.24736   -1369.4842    90886.081   -21734.187     1682.978   -23417.165    11.732835    248.72433 
    3150    111.85706   -1357.1142    90859.959    -21688.79     1677.126   -23365.916    12.051287    247.85947 
    3200    111.75852   -1276.5947    90818.565   -21719.586    1675.6486   -23395.235     12.34841    247.64113 
    3250    111.90745   -1502.7413    90791.557    -21714.93    1677.8814   -23392.811    12.471901    247.97113 
    3300      111.606     -1167.73     90889.68   -21716.452    1673.3617   -23389.814    12.602569    247.30316 
    3350    113.47018   -1267.9795      90939.1   -21718.951    1701.3123   -23420.264    12.708842    251.43393 
    3400    113.23301   -1261.8384    90925.589   -21728.245    1697.7563   -23426.001    12.774555     250.9084 
    3450    111.86854   -1387.5512    90849.608   -21760.117    1677.2981   -23437.415     12.87834    247.88491 
    3500    111.39294   -1140.3222    90902.688   -21729.986    1670.1672   -23400.153    12.940077    246.83105 
    3550    112.16009   -1355.7819    91018.466   -21742.184    1681.6694   -23423.854    13.029682    248.53094 
    3600    116.24828   -1155.6559    91010.764   -21686.394    1742.9657    -23429.36     12.99647    257.58981 
    3650     112.0801   -1169.7885    91028.614   -21721.269    1680.4701   -23401.739    13.178938    248.35369 
    3700    112.54035   -1080.7839    91037.684    -21675.21    1687.3709   -23362.581    13.353413    249.37355 
    3750    112.77429   -1335.7169    91115.233   -21709.522    1690.8785     -23400.4    13.616769    249.89194 
    3800    110.70203   -1328.1124    91124.123   -21686.009     1659.808   -23345.817    13.883689    245.30008 
    3850    113.12281   -1432.7395    91182.585   -21664.739    1696.1039   -23360.843    13.915701    250.66419 
    3900    112.15765   -1072.6723    91160.796    -21673.43    1681.6328   -23355.063    13.977036    248.52554 
    3950    112.98255   -1615.6067    91091.077    -21650.22     1694.001   -23344.221    14.119261    250.35341 
    4000    114.58416   -1457.5077     91029.55   -21633.966    1718.0147   -23351.981     14.31079    253.90235 
    4050     111.7937   -1184.7208    90993.909   -21660.552     1676.176   -23336.728    14.465365    247.71908 
    4100    112.77445   -1346.0569    90979.531   -21684.544    1690.8808   -23375.425    14.726662    249.89228 
    4150    117.04798   -1222.7683    91044.851   -21691.167    1754.9559   -23446.123    14.992028    259.36183 
    4200    112.86786   -1011.8031    91134.461   -21671.372    1692.2814   -23363.653    15.064866    250.09926 
    4250    112.49491   -1511.5364    91170.612    -21680.64    1686.6896    -23367.33    15.148256    249.27286 
    4300    112.08783   -1285.2695    91184.813   -21704.773    1680.5861   -23385.359     15.22708    248.37084 
    4350    112.81067   -1297.0613    91255.632   -21705.564    1691.4238   -23396.988    15.400252    249.97253 
    4400    111.58483   -1707.5781    91224.559     -21680.3    1673.0443   -23353.345    15.658466    247.25625 
    4450    107.16207   -1616.2041    91109.214   -21736.218    1606.7318   -23342.949    15.892733    237.45604 
    4500    112.93792   -1605.0133    91059.016   -21724.984    1693.3319   -23418.315    16.096447    250.25452 
    4550    111.06346   -1567.1437    91004.338   -21716.908    1665.2272   -23382.135    16.121322    246.10097 
    4600    109.31937   -1384.9964    91019.808   -21748.781    1639.0772   -23387.858    16.217923    242.23631 
    4650    108.95974   -1370.0922    90978.166   -21726.123     1633.685   -23359.808    16.402158    241.43942 
    4700    109.51269    -1441.212    91013.668   -21719.684    1641.9758    -23361.66    16.614147    242.66469 
    4750    114.38003   -1170.4131    91025.959   -21719.513     1714.954   -23434.467    16.685372    253.45002 
    4800    115.38017   -1119.8745    91073.321   -21696.344    1729.9497   -23426.293    16.818815     255.6662 
    4850    112.61214   -1455.1361    91111.959   -21661.474    1688.4473   -23349.921    17.052624    249.53264 
    4900    113.22462   -1180.9247    91033.803   -21682.564    1697.6304   -23380.195    17.004222    250.88979 
    4950    111.24496   -1484.0133    90961.678   -21691.803    1667.9485   -23359.751    17.059405    246.50315 
    5000    110.61798    -1318.966    90928.916   -21691.423    1658.5479   -23349.971    17.090646    245.11385 
    5050    111.02846   -1275.0926    90895.413   -21663.766    1664.7023   -23328.469    17.170003    246.02341 
    5100    112.88623   -1055.8445    90951.713    -21654.53    1692.5567   -23347.087    17.408505    250.13996 
    5150    113.02416   -1374.5258    90889.632    -21673.79    1694.6249   -23368.415    17.530822     250.4456 
    5200    110.95471   -1125.6835     90857.37   -21682.863    1663.5967    -23346.46    17.665873    245.86001 
    5250    112.08389   -1369.8257    90878.144   -21641.707     1680.527   -23322.234    17.890848    248.36211 
    5300    111.44788   -1509.0462    90850.606   -21637.864    1670.9909   -23308.854     18.04641    246.95278 
    5350    112.01884   -1220.1268    90849.037    -21653.75    1679.5516   -23333.302    18.305745    248.21796 
    5400     116.3369   -1289.5264    90871.462   -21621.172    1744.2944   -23365.467    18.682798    257.78617 
    5450    115.12167   -1170.4563    90841.431   -21605.321    1726.0738   -23331.395    18.953109    255.09339 
    5500    114.16949   -1233.8115    90872.329   -21621.945    1711.7973   -23333.742    19.228367     252.9835 
    5550    114.07411   -1074.6372    90859.441   -21627.799    1710.3673   -23338.166    19.467728    252.77215 
    5600     115.9686      -1527.1    90931.735    -21632.51    1738.7722   -23371.282    19.578866    256.97006 
    5650    111.21266   -1291.9584    90850.116   -21683.333    1667.4642   -23350.797     19.64181    246.43158 
    5700    112.68358   -1151.2508    90915.478   -21673.588    1689.5183   -23363.106    20.034758    249.69092 
    5750    112.77323   -1374.3678    90866.026   -21687.245    1690.8625   -23378.108    20.235945    249.88957 
    5800    109.32768   -1445.1751    90923.624   -21720.505    1639.2018   -23359.707    20.450322    242.25473 
    5850    111.39961   -1098.3694    90985.361   -21727.063    1670.2673    -23397.33    20.542095    246.84584 
    5900     112.3542   -1097.8632    90997.872   -21768.711    1684.5799   -23453.291    20.629817    248.96107 
    5950    108.80459   -1272.8396    90986.711    -21769.98    1631.3589   -23401.339     20.88882    241.09564 
    6000    111.87082   -1244.7141    91066.403    -21730.56    1677.3322   -23407.892    21.062594    247.88996 
    6050    112.66389   -1119.4575    91115.408   -21713.706    1689.2232   -23402.929    21.145933     249.6473 
    6100    114.28731   -1167.4932    91185.689    -21657.08    1713.5639   -23370.644    21.386526    253.24457 
    6150    111.18986   -1086.1998    91192.484   -21687.937    1667.1223    -23355.06    21.693049    246.38105 
    6200    114.31676   -1293.7483    91268.497   -21716.215    1714.0054    -23430.22    21.799992    253.30983 
    6250    108.10246   -1348.4175    91211.738   -21750.928    1620.8315   -23371.759    21.909195    239.53982 
    6300    113.53894    -1527.148    91180.646    -21764.12    1702.3432   -23466.464    21.896664    251.58628 
    6350    112.42681   -1313.2387    91137.346   -21802.594    1685.6685   -23488.263    22.026685    249.12196 
    6400    111.42441   -1223.6712    91045.188   -21809.783    1670.6391   -23480.422    22.071549    246.90079 
    6450    109.71108   -1421.0256    91100.797   -21806.817    1644.9503   -23451.767    22.192089    243.10429 
    6500    112.25162   -1143.4593    91188.874    -21752.96    1683.0418   -23436.001    22.354728    248.73377 
    6550    110.50659    -1301.109    91223.304   -21729.262    1656.8778    -23386.14    22.518092    244.86703 
    6600     114.4064    -899.1896    91183.336    -21712.44    1715.3495   -23427.789    22.714622    253.50846 
    6650    110.55814    -1083.642    91170.747   -21731.894    1657.6506   -23389.545    22.854383    244.98124 
    6700    109.50694   -1115.9775    91127.551   -21704.203    1641.8896   -23346.093    23.197151    242.65195 
    6750    109.42296    -1540.139    91097.639   -21733.128    1640.6304   -23373.759    23.452385    242.46586 
    6800    113.32432   -1322.8377    91049.645   -21718.932    1699.1253   -23418.058    23.499202    251.11072 
    6850     112.8912   -1460.5316    91025.594   -21718.346    1692.6313   -23410.977    23.701591    250.15098 
    6900    112.69817   -1503.2205    90922.644   -21709.919    1689.7371   -23399.656    23.746858    249.72325 
    6950    112.91648   -910.76142    90910.146   -21730.597    1693.0104   -23423.607    23.775519    250.20701 
    7000    116.99886   -1270.3387    91008.674   -21719.516    1754.2195   -23473.735    23.933757    259.25298 
    7050    110.93521   -1182.4432    91081.427    -21764.98    1663.3042   -23428.284    24.356107    245.81678 
    7100    111.45397   -1220.9804    91145.248   -21766.032    1671.0823   -23437.114    24.294157    246.96628 
    7150    112.65533   -1365.7272    91107.603   -21785.735    1689.0948    -23474.83    24.463559    249.62833 
    7200    114.57894   -1401.2691    91047.854   -21710.059    1717.9364   -23427.995    24.588598    253.89078 
    7250    113.07847   -1194.5394    91051.001   -21714.104    1695.4391   -23409.543    24.800427    250.56594 
    7300    110.37853   -1219.0306    91047.131   -21781.075    1654.9577   -23436.033    24.972954    244.58326 
    7350     110.8762    -1252.963    91058.832   -21789.288    1662.4194   -23451.707    25.399953    245.68602 
    7400    109.72571   -1256.0224    91097.507   -21781.613    1645.1696   -23426.783    25.612965     243.1367 
    7450    108.47516   -1238.4369    91162.762    -21774.36    1626.4195    -23400.78    25.544779    240.36566 
    7500    111.12381   -1407.7515    91194.766   -21785.385    1666.1319   -23451.517    25.624849    246.23469 
    7550    113.97022   -1033.8988    91267.895   -21770.206    1708.8096   -23479.015    25.610188    252.54195 
    7600    111.11086     -1159.13    91332.625   -21746.577    1665.9379   -23412.515    25.928811    246.20601 
    7650    114.59265   -1360.2934    91420.238   -21719.358     1718.142     -23437.5     26.08711    253.92116 
    7700    112.24064   -1364.1609     91420.47   -21706.811    1682.8772   -23389.688    26.132074    248.70944 
    7750    113.43741   -1174.9427    91467.562   -21720.462    1700.8209   -23421.282    26.283968     251.3613 
    7800    114.67674    -1302.464    91475.941    -21765.45    1719.4028   -23484.853    26.607746    254.10749 
    7850    111.94389   -1518.7892    91450.611   -21808.477    1678.4279   -23486.905    26.778035    248.05189 
    7900    111.94153   -1248.9229    91455.372    -21836.58    1678.3925   -23514.972    27.145187    248.04665 
    7950    109.08606   -1334.6856    91373.448   -21859.235    1635.5791   -23494.814    27.218798    241.71933 
    8000     113.5485   -1211.3732    91395.657   -21827.918    1702.4866   -23530.404    27.254025    251.60748 
    8050    112.59936   -1067.8078    91419.397   -21810.891    1688.2556   -23499.146    27.145246    249.50431 
    8100    109.95204   -1515.8755    91423.386   -21815.737     1648.563     -23464.3     27.46259    243.63821 
    8150    115.02183   -1248.2048    91396.207   -21758.947    1724.5768   -23483.524     27.86299    254.87215 
    8200    113.49708   -1491.0781    91401.158   -21750.058    1701.7156   -23451.774    27.956061    251.49353 
    8250    112.75823   -1476.1796    91403.856   -21743.693    1690.6377   -23434.331    28.110549    249.85635 
    8300    112.19084   -1515.0255     91332.99   -21732.322    1682.1304   -23414.452    28.092505    248.59908 
    8350    112.77418   -1261.7755    91320.102   -21698.467    1690.8768   -23389.344    28.287634    249.89169 
    8400    115.76877   -1180.6058    91386.822   -21686.773    1735.7762   -23422.549     28.52831    256.52728 
    8450    114.53519   -963.83975    91398.748   -21743.933    1717.2804   -23461.214      28.4455    253.79383 
    8500    111.81304   -1318.0692    91370.808   -21713.319     1676.466   -23389.785    28.531051    247.76194 
    8550    114.09685   -1307.8636    91440.591   -21719.812    1710.7082   -23430.521    28.461149    252.82254 
    8600    110.04183   -1454.7247    91393.583   -21744.476    1649.9094   -23394.386    28.708896    243.83718 
    8650    111.03282   -1361.9921    91339.786   -21722.032    1664.7678     -23386.8    28.905792    246.03308 
    8700    112.94658   -1227.3291    91306.591   -21762.768    1693.4617    -23456.23    29.081717     250.2737 
    8750    113.82949   -1172.2328    91432.675   -21748.826    1706.6996   -23455.526    29.139067    252.23011 
    8800    110.24591   -1412.3292    91438.166    -21741.49    1652.9693   -23394.459    29.082005     244.2894 
    8850    114.39876   -1286.4406    91368.183    -21700.69    1715.2349   -23415.925    29.138566    253.49153 
    8900    111.88377   -850.65567    91457.245   -21711.637    1677.5265   -23389.164     29.10077    247.91867 
    8950    113.45439   -1073.4758    91488.571   -21681.246    1701.0755   -23382.322    29.296688    251.39894 
    9000    112.86194    -1452.514    91510.498   -21697.906    1692.1926   -23390.099    29.423736    250.08615 
    9050    114.14965   -1409.2116    91484.833   -21658.575    1711.4999   -23370.075    29.674734    252.93954 
    9100    114.47592   -1266.6248    91457.359   -21687.057    1716.3917   -23403.449    29.661956    253.66249 
    9150     114.3907   -1486.0618      91489.3   -21682.343    1715.1141   -23397.457    29.933541    253.47367 
    9200    110.94191   -1349.2842    91524.941   -21723.684    1663.4047   -23387.088    30.157073    245.83163 
    9250    112.73375   -1228.1988    91502.689   -21695.703    1690.2706   -23385.974     30.32725     249.8021 
    9300    113.63099   -1433.7751    91495.711   -21688.332    1703.7234   -23392.055    30.361239    251.79025 
    9350    112.65818   -1553.0914    91485.813   -21694.266    1689.1375   -23383.403    30.649072    249.63464 
    9400    115.91179   -1272.1856    91419.984   -21722.096    1737.9205   -23460.017     31.07531    256.84419 
    9450    112.45761   -1414.1414    91440.665   -21738.444    1686.1303   -23424.574    31.317763     249.1902 
    9500    111.91123   -1450.0547    91396.888   -21722.507    1677.9382   -23400.445    31.284116    247.97951 
    9550    112.28859   -1147.5942    91442.087     -21716.3    1683.5961   -23399.896    31.481051    248.81568 
    9600     109.2823    -1335.989    91411.449   -21732.033    1638.5214   -23370.554    31.470351    242.15417 
    9650    111.74481   -1494.3896    91328.182   -21724.645     1675.443   -23400.088    31.470044    247.61075 
    9700    112.78198   -1372.0896    91284.424    -21734.09    1690.9938   -23425.084    31.645629    249.90898 
    9750    114.42563   -1275.3418    91236.458    -21698.45    1715.6378   -23414.087    31.906118    253.55108 
    9800    110.96468   -1429.9201    91269.158   -21707.725    1663.7461   -23371.471    32.050365    245.88209 
    9850    113.38088     -1409.09    91338.188   -21746.135    1699.9734   -23446.108    31.859336    251.23605 
    9900    111.67779   -1737.5396    91331.212   -21757.326    1674.4381   -23431.764    32.307083    247.46224 
    9950    111.88479   -1615.7403    91257.011   -21754.675    1677.5418   -23432.217    32.392883    247.92092 
   10000    111.53646   -1269.6017    91276.452   -21760.113    1672.3191   -23432.432    32.590171    247.14908 
   10050    113.45234   -1473.5512    91332.006   -21748.586    1701.0448    -23449.63    32.739596    251.39439 
   10100    110.39107   -1497.0865    91226.998   -21743.044    1655.1457   -23398.189     32.83559    244.61106 
   10150    113.33506    -1216.143    91247.144   -21744.398    1699.2864   -23443.685    32.850456    251.13452 
   10200    110.41502   -1223.8983    91325.974   -21715.606    1655.5048    -23371.11     33.04697    244.66412 
   10250    112.97195   -1723.1474    91300.523   -21721.513     1693.842   -23415.355    33.295701    250.32991 
   10300    112.90526   -1550.5591    91280.176   -21724.897    1692.8422    -23417.74     33.36678    250.18214 
   10350    112.18037   -1331.6145    91247.596   -21731.657    1681.9735   -23413.631    33.500884    248.57588 
   10400    114.68734   -1392.2891    91219.801   -21741.197    1719.5617   -23460.759    33.690742    254.13098 
   10450    114.97839   -1488.4447    91195.656   -21765.268    1723.9256   -23489.193    33.902751    254.77591 
   10500    114.11953   -1062.1879    91204.536   -21740.644    1711.0483   -23451.692    34.306671     252.8728 
   10550      113.923   -1152.2674    91216.867   -21708.346    1708.1016   -23416.448    34.482202     252.4373 
   10600    115.40019   -1223.1296    91255.065   -21706.178    1730.2498   -23436.428    34.593931    255.71055 
   10650    115.63403   -1262.6754    91230.683   -21715.104    1733.7559    -23448.86    34.758366    256.22871 
   10700    113.39978   -1149.6044    91228.473   -21702.712    1700.2567   -23402.969    34.911598    251.27793 
   10750    115.59283   -1300.2453    91338.488   -21652.292    1733.1382    -23385.43    35.048845    256.13742 
   10800    113.28439   -1363.2486    91405.849   -21663.935    1698.5266   -23362.461    35.269329    251.02223 
   10850    115.05491   -1144.0367    91355.579   -21656.487    1725.0728    -23381.56    35.359832    254.94545 
   10900    112.85153   -1497.6825     91387.71   -21680.977    1692.0365   -23373.014    35.647052    250.06308 
   10950    113.42812   -1349.8952    91402.155    -21677.34    1700.6816   -23378.021    35.580871    251.34072 
   11000    115.74561   -1493.8957    91407.023   -21639.429    1735.4289   -23374.858     35.85254    256.47596 
   11050    115.53962   -1721.1636     91379.79   -21654.467    1732.3404   -23386.808     35.82331    256.01952 
   11100    112.30565   -1653.2643    91402.887   -21648.228    1683.8519    -23332.08    36.223203    248.85348 
   11150    113.51918   -1595.5836    91411.929   -21676.552    1702.0469   -23378.599     36.43408     251.5425 
   11200    112.71328   -1419.7784     91372.51   -21679.852    1689.9637   -23369.816    36.783599    249.75674 
   11250    113.83624   -1313.4874    91334.137   -21682.383    1706.8008   -23389.184    36.884287    252.24506 
   11300    111.94721   -1324.5388    91289.894   -21687.074    1678.4777   -23365.552    37.244784    248.05924 
   11350    112.48933   -1588.3498    91238.587   -21737.268    1686.6059   -23423.874    37.407453     249.2605 
   11400    109.25358     -1405.19    91208.498   -21747.011    1638.0907   -23385.101    37.528084    242.09052 
   11450    109.80117   -1256.5627    91205.268    -21772.09     1646.301   -23418.391    37.920603    243.30391 
   11500    110.83789   -1111.5849     91161.13   -21780.212    1661.8451   -23442.058    37.950868    245.60115 
   11550    110.47106   -1252.2242    91205.291   -21723.676     1656.345   -23380.022     37.95293     244.7883 
   11600    109.18925   -1430.1613    91197.163    -21696.41    1637.1262   -23333.536    38.061168    241.94798 
   11650    111.41303   -1537.1197    91044.466    -21685.29    1670.4684   -23355.759    38.011359    246.87556 
   11700    112.34554   -1157.6534     90953.71   -21664.842      1684.45   -23349.292     38.18504    248.94188 
   11750    113.13855   -977.71643    90874.753   -21653.479      1696.34   -23349.819    38.472399    250.69908 
   11800    113.79721   -950.87495    90880.999   -21661.387    1706.2156   -23367.603    38.563826    252.15857 
   11850    110.17746   -1411.9758    90887.546   -21696.954     1651.943   -23348.897    38.841425    244.13772 
   11900    113.62677   -1294.4577    90858.904   -21687.927      1703.66   -23391.587     39.07341    251.78089 
   11950    111.28909   -1205.0186    90852.185    -21685.66    1668.6102    -23354.27    39.267258    246.60094 
   12000    111.21816   -1107.2211    90878.333   -21695.038    1667.5467   -23362.584    39.446537    246.44377 
   12050    112.37001   -962.68102    90947.774    -21666.54    1684.8168   -23351.357    39.604156    248.99609 
   12100    113.44415   -1144.0934    90996.054   -21682.902     1700.922   -23383.824    39.590996    251.37624 
   12150    110.73712   -958.18664    91033.291   -21709.792    1660.3342   -23370.126    39.755512    245.37785 
   12200    110.13852   -1127.0186    91036.354   -21736.856     1651.359   -23388.215    40.049572    244.05143 
   12250    111.67697   -1193.2464    91091.265   -21708.463    1674.4259   -23382.889    40.446529    247.46043 
   12300    109.80966   -1325.0285    91028.434   -21728.964    1646.4284   -23375.392    40.492864    243.32273 
   12350    107.89266   -1438.3347    90980.586   -21699.713    1617.6859   -23317.399      40.6833    239.07493 
   12400    112.01536    -1166.764      90926.4   -21666.405    1679.4995   -23345.904    40.932407    248.21025 
   12450    113.50726   -1411.5949     90895.64   -21658.126    1701.8683   -23359.994    41.026472     251.5161 
   12500    110.74342   -1253.8747    90871.818   -21664.375    1660.4287   -23324.804    41.030145    245.39181 
   12550    112.08499   -1274.0171    90890.894   -21658.118    1680.5435   -23338.661    41.286145    248.36455 
   12600     113.5991   -1071.5963    90936.405   -21630.591    1703.2452   -23333.836    41.548279    251.71959 
   12650    117.37357   -1180.1415    90970.538   -21625.319    1759.8377   -23385.157    41.901022     260.0833 
   12700    114.46869   -912.34941    90994.928   -21669.088    1716.2834   -23385.371     41.76557    253.64648 
   12750    115.79012   -1349.7127    91047.703    -21669.11    1736.0962   -23405.206    42.063254    256.57458 
   12800    112.57366   -1381.1387    91114.702   -21676.094    1687.8703   -23363.964    42.334988    249.44736 
   12850    113.40607    -1271.455    91144.975   -21681.625     1700.351   -23381.976    42.390955    251.29186 
   12900    113.59173   -1396.5094     91203.51    -21646.81    1703.1347   -23349.944    42.466354    251.70326 
   12950    113.43081   -1296.5064    91173.892   -21704.938     1700.722    -23405.66    42.428991    251.34669 
   13000    112.04256   -1409.1241    91130.866    -21675.25    1679.9073   -23355.158    42.715669    248.27052 
   13050    114.32041   -1179.4546    91150.521   -21637.784    1714.0601   -23351.844    43.234364    253.31791 
   13100    113.90965   -1198.2545    91229.919    -21638.32    1707.9015   -23346.221    43.485014    252.40773 
   13150    114.61598   -1070.3598    91292.079   -21633.395    1718.4917   -23351.887    43.470532    253.97285 
   13200    113.38803   -1289.6211    91309.043   -21675.677    1700.0806   -23375.758    43.800575     251.2519 
   13250    113.05522   -821.91978    91329.899   -21672.545    1695.0906   -23367.635    43.816703    250.51443 
   13300    113.58565    -1120.486     91455.19   -21709.833    1703.0435   -23412.877    43.790346    251.68978 
   13350    112.39176   -1295.7107    91427.702   -21720.863     1685.143   -23406.006    44.156348    249.04429 
   13400    112.26875   -1234.4705    91365.434   -21729.599    1683.2986   -23412.897     44.58431    248.77172 
   13450    112.11195   -759.74519    91440.445   -21739.074    1680.9477   -23420.022    44.643066    248.42428 
   13500    110.92705   -1114.0372    91433.208   -21704.471    1663.1818   -23367.653    44.989623     245.7987 
   13550    110.53417   -1471.6289    91408.704   -21722.431    1657.2912   -23379.723    45.057674    244.92813 
   13600    114.26994   -1376.3198    91329.308   -21762.654    1713.3035   -23475.958    45.106605    253.20609 
   13650    110.85766   -1081.3412    91348.647    -21742.34    1662.1416   -23404.482    45.001316    245.64495 
   13700    108.79747    -1359.242    91288.284   -21751.126    1631.2521   -23382.378    45.169882    241.07986 
   13750    107.82432   -1261.7898    91240.815   -21745.587    1616.6612   -23362.248    45.230485    238.92349 
   13800    112.05849   -1055.2195    91214.286   -21729.716    1680.1461   -23409.862    45.442524    248.30582 
   13850    112.28535   -1384.6131    91186.563     -21724.6    1683.5475   -23408.148     45.33619    248.80851 
   13900    108.80588   -1221.8808    91230.848   -21712.229    1631.3782   -23343.607    45.682591    241.09849 
   13950     112.2747   -1144.1032    91234.516   -21695.106    1683.3879   -23378.494    45.734789    248.78492 
   14000    112.95219   -1507.3137     91167.26   -21673.113    1693.5458   -23366.659    45.978399    250.28613 
   14050    112.42227   -1344.9522    91098.817   -21625.286    1685.6004   -23310.886    45.999376    249.11189 
   14100    111.33773   -1447.0363    91100.568   -21669.615    1669.3394   -23338.954     46.18143    246.70872 
   14150    114.69151   -1250.1159     91130.04   -21636.412    1719.6242   -23356.036     46.26245    254.14021 
   14200    112.80957   -1213.9016    91157.475   -21661.869    1691.4075   -23353.276     46.87364    249.97011 
   14250    112.98769   -1473.2488    91141.227   -21678.147     1694.078   -23372.225    47.025844    250.36479 
   14300    111.26843   -1290.7809    91117.523   -21681.068    1668.3004   -23349.368    47.392222    246.55516 
   14350    113.01429   -1577.6746    91105.317   -21696.221    1694.4768   -23390.698    47.598254    250.42373 
   14400    112.83619   -1559.3695    91072.147   -21621.622    1691.8065   -23313.428     47.93516    250.02908 
   14450     107.4482   -1582.3406    91005.328   -21678.156    1611.0219   -23289.178    48.271846    238.09007 
   14500    112.57097   -1634.1904    90857.301   -21686.956      1687.83   -23374.786    48.220574    249.44141 
   14550    110.84547    -1359.503    90784.001   -21668.682    1661.9587   -23330.641    48.274831    245.61794 
   14600    110.32435   -1351.0158    90790.848   -21644.353    1654.1453   -23298.498     48.50168     244.4632 
   14650    112.82033   -1246.9964    90738.755   -21638.909    1691.5687   -23330.478    48.579904    249.99394 
   14700    110.46617   -1047.2572    90783.427    -21669.46    1656.2717   -23325.732    48.679924    244.77745 
   14750    111.30808    -1316.765    90795.952   -21656.223    1668.8948   -23325.118    48.835604    246.64301 
   14800    110.86227   -1657.4896    90760.115   -21672.707    1662.2106   -23334.918    48.963774    245.65516 
   14850    110.97737   -1453.5956    90713.053   -21730.234    1663.9364   -23394.171    49.039261    245.91022 
   14900    108.73068   -1212.9767    90637.126   -21741.968    1630.2507   -23372.219      49.1052    240.93186 
   14950    113.64089   -1478.9321    90612.645   -21721.188    1703.8718   -23425.059    49.287686     251.8122 
   15000    111.81303   -1375.8091    90617.045   -21709.498    1676.4658   -23385.964    49.366576    247.76191 
   15050    112.11744     -1406.08    90618.574   -21716.524      1681.03   -23397.554    49.407352    248.43645 
   15100    110.73467   -1369.6292    90665.755   -21696.047    1660.2975   -23356.345    49.551152    245.37243 
   15150    112.73794   -1309.6276    90683.221    -21728.74    1690.3334   -23419.073    49.684656    249.81138 
   15200    111.98951   -1237.4098    90689.863   -21718.882    1679.1118   -23397.994    49.858875    248.15296 
   15250    111.33925   -1270.9219    90659.705   -21696.028    1669.3621    -23365.39     49.89346    246.71207 
   15300    112.61138   -948.95926    90698.354   -21692.273    1688.4359   -23380.709    49.893198    249.53095 
   15350    111.00985   -1417.4656    90665.252   -21700.219    1664.4234   -23364.643    50.133537    245.98218 
   15400    110.18322   -1447.6234    90592.928   -21713.917    1652.0293   -23365.946    50.256614    244.15048 
   15450    115.84762   -1160.3757    90642.365   -21691.886    1736.9583   -23428.844    50.427362    256.70199 
   15500    113.69367   -880.68343    90721.004   -21741.965    1704.6632   -23446.628    50.329715    251.92915 
   15550    111.16551   -1131.5302    90777.738   -21725.876    1666.7572   -23392.633    50.617192     246.3271 
   15600    111.00937   -1143.5513    90791.066   -21720.311    1664.4161   -23384.727    50.781846    245.98111 
   15650    111.91487   -1163.9649    90866.876    -21721.32    1677.9927   -23399.313    50.961065    247.98757 
   15700    111.13104   -1513.9762    90876.752   -21709.881    1666.2404   -23376.121    51.172811    246.25071 
   15750    112.32374     -1113.95    90932.863   -21684.627    1684.1232    -23368.75    51.347268    248.89358 
   15800    113.13899   -1053.7981    90990.942   -21666.155    1696.3465   -23362.502    51.479211    250.70004 
   15850    109.02375   -1758.7551    90947.634   -21693.588    1634.6448   -23328.233    51.582128    241.58125 
   15900    112.40124   -1508.1215    90887.347   -21641.416    1685.2852   -23326.701    51.766034    249.06531 
   15950    111.81572   -1105.0463    90911.177   -21687.324    1676.5061    -23363.83    51.810582    247.76786 
   16000    113.11325   -969.23554    90984.631   -21693.791    1695.9606   -23389.752    52.141376    250.64302 
   16050    106.32655   -1622.9119    90958.566    -21759.07    1594.2044   -23353.274    52.444049    235.60465 
   16100    113.28774   -1230.4479    90948.699   -21738.994    1698.5769   -23437.571    52.826153    251.02967 
   16150    110.55751   -1032.8553    90941.284    -21721.85    1657.6411   -23379.491    53.303252    244.97985 
   16200    113.21284   -1247.2564    91017.713   -21716.455    1697.4538   -23413.909    53.655871    250.86369 
   16250    113.54292   -1203.2329    91080.662   -21690.465    1702.4029   -23392.868    53.792072     251.5951 
   16300    111.78299   -1381.4026    91111.152   -21686.799    1676.0154   -23362.814    54.041178    247.69535 
   16350    111.05129   -1537.1393    91020.126   -21678.786    1665.0447   -23343.831    54.225512      246.074 
   16400    115.06088   -1244.5912    90973.455   -21658.222    1725.1624   -23383.384    54.462355    254.95869 
   16450    113.07005   -1430.4423    90960.685   -21693.475    1695.3129   -23388.788    54.474178    250.54729 
   16500    111.91338   -1436.3388    90974.967   -21709.732    1677.9704   -23387.702    54.620813    247.98427 
   16550    112.26458   -1163.4547    90993.971   -21707.318    1683.2362   -23390.555    54.716102    248.76249 
   16600    109.19958    -1433.503    90924.458   -21703.578    1637.2811   -23340.859     54.89821    241.97087 
   16650    113.11113   -1522.4371    90794.357   -21723.017    1695.9288   -23418.945    55.016526    250.63831 
   16700    112.58048    -1325.931    90734.862   -21645.073    1687.9725   -23333.046    55.318831    249.46246 
   16750    113.58511   -1028.2766    90698.303   -21634.374    1703.0354   -23337.409     55.52881    251.68859 
   16800    113.56038    -1133.655     90625.78   -21634.934    1702.6646   -23337.599    55.804679    251.63378 
   16850    112.01735   -1188.1357    90615.984   -21656.482    1679.5293   -23336.011    56.165415    248.21466 
   16900    112.85802   -1319.9145    90572.906   -21668.494    1692.1338   -23360.628    56.368963    250.07746 
   16950    111.49034   -1383.5959    90478.934   -21678.807    1671.6276   -23350.434    56.484108    247.04688 
   17000    113.42539   -1397.1375    90452.666   -21652.459    1700.6407     -23353.1    56.616169    251.33467 
   17050    113.92776   -1289.6915    90493.147   -21672.871    1708.1729   -23381.044    56.818766    252.44785 
   17100    113.18379   -1473.6217    90484.596   -21662.154    1697.0182   -23359.173    56.737029    250.79932 
   17150    114.14505   -1003.5183    90531.589   -21644.959    1711.4309    -23356.39     56.65455    252.92934 
   17200    113.17946   -1153.7602    90518.008   -21654.306    1696.9533   -23351.259    56.909703    250.78972 
   17250    112.45698   -1112.9057    90559.334   -21626.132    1686.1209   -23312.253    57.140374    249.18882 
   17300    112.35622   -1022.0076    90624.616   -21602.739    1684.6101   -23287.349    57.093248    248.96553 
   17350    113.92183   -1151.5459    90608.364   -21655.325     1708.084   -23363.409    57.258594    252.43471 
   17400    114.98133   -1484.8714     90597.38   -21638.174    1723.9697   -23362.143    57.630444    254.78243 
   17450    113.88681    -1099.747     90515.91   -21642.509     1707.559   -23350.068     58.05311    252.35711 
   17500     113.3728   -899.50885    90621.477   -21671.642    1699.8522   -23371.495    58.492338    251.21815 
   17550     110.8445   -1472.9971    90594.842   -21652.613    1661.9442   -23314.557    58.611414    245.61579 
   17600    114.18546   -1297.7929    90522.129   -21623.697    1712.0368   -23335.733    58.805261    253.01888 
   17650    114.66778   -1274.8788    90497.399   -21615.948    1719.2685   -23335.217    59.220626    254.08764 
   17700    115.10389   -1069.0667    90527.987   -21649.339    1725.8072   -23375.146    59.361754    255.05399 
   17750    113.88302   -1101.8721    90569.206   -21650.555    1707.5022   -23358.058    59.420982    252.34872 
   17800    113.32266   -947.31891    90686.896   -21609.137    1699.1004   -23308.237    59.641278    251.10703 
   17850    113.38552   -1395.4225    90764.173   -21631.227    1700.0428    -23331.27    59.981193    251.24632 
   17900    115.04845   -1111.7238      90817.4   -21670.913    1724.9759   -23395.889    59.869312    254.93114 
   17950    114.76696   -1383.3095    90836.259   -21677.447    1720.7554   -23398.202    60.018472     254.3074 
   18000    113.09956   -1305.5768    90802.035   -21687.599    1695.7554   -23383.354    60.131583    250.61269 
   18050    112.62138   -1138.0256    90807.562   -21661.907    1688.5858   -23350.492    60.413588     249.5531 
   18100    114.62086   -1301.6458    90807.389   -21678.319     1718.565   -23396.884    60.404047    253.98367 
   18150    110.78419   -1148.2957     90887.52   -21694.471    1661.0399    -23355.51    60.737589    245.48215 
   18200    112.27208   -1428.4052    90935.257   -21628.607    1683.3486   -23311.955    60.722769    248.77911 
   18250    115.77351   -869.62368     90965.32   -21627.503    1735.8471    -23363.35    60.779754    256.53777 
   18300    114.21704    -1413.673    90947.496   -21615.157    1712.5103   -23327.667    61.087292    253.08886 
   18350    115.25527   -978.41621    90984.997    -21583.84    1728.0769   -23311.917    61.774758    255.38942 
   18400    115.76776   -995.92162    91099.012   -21592.399    1735.7609    -23328.16    61.827278    256.52503 
   18450    117.38171   -1430.2673     91038.84   -21553.612    1759.9596   -23313.572    61.887519    260.10131 
   18500    113.18549   -1026.9641    91013.287   -21584.846    1697.0438    -23281.89    62.133284     250.8031 
   18550    117.00068    -1040.123    91025.535   -21558.137    1754.2467   -23312.384    62.169633    259.25701 
   18600    115.59981   -1137.5188    90966.608   -21604.454    1733.2428   -23337.696    62.408802    256.15288 
   18650    112.86387   -1099.5333    90958.844   -21633.645    1692.2216   -23325.867    62.653884    250.09043 
   18700    111.21973   -1176.4807    90996.754   -21655.546    1667.5702   -23323.116    63.023358    246.44724 
   18750    114.01236   -1234.8153    91020.553   -21619.946    1709.4414   -23329.387    63.398768    252.63532 
   18800    113.23777   -839.84371    91031.093   -21624.812    1697.8276   -23322.639    63.768894    250.91893 
   18850    112.28363    -1054.652     91100.31   -21666.552    1683.5218   -23350.073    63.934771     248.8047 
   18900    115.12725   -1231.4393    91184.716   -21630.869    1726.1574   -23357.027    64.254234    255.10575 
   18950     114.0464   -1145.7312    91167.651    -21660.28    1709.9517   -23370.232    64.431742    252.71074 
   19000    111.80932   -1438.4119    91137.774   -21651.582    1676.4101   -23327.992    64.654558    247.75368 
   19050    113.76089   -1280.4334    91033.557   -21687.406    1705.6711   -23393.077    64.618829    252.07811 
   19100    109.67536   -1243.4827    90946.564   -21734.975    1644.4147   -23379.389    64.485657    243.02513 
   19150    112.88961   -1285.2445    90926.748   -21679.899    1692.6076   -23372.506    64.609843    250.14747 
   19200    114.24335   -1390.7555    91014.294   -21700.171    1712.9048   -23413.076    64.602739    253.14717 
   19250    113.44182   -1068.9037    91005.693   -21715.645     1700.887   -23416.532    64.612353    251.37108 
   19300    111.45131   -1318.3284    90988.543   -21707.049    1671.0424   -23378.091    64.848703    246.96039 
   19350    114.49235   -941.32801    90985.712   -21642.862    1716.6382     -23359.5    65.176371    253.69891 
   19400    114.47323   -1520.6673    91011.004   -21566.284    1716.3515   -23282.635    65.261019    253.65655 
   19450    113.12136   -1190.7944    91001.758   -21569.634    1696.0822   -23265.716    65.180329    250.66098 
   19500     112.8273   -1498.6876    90958.924   -21578.768    1691.6733   -23270.441    65.218444     250.0094 
   19550    114.30815   -1396.0203    90944.451   -21608.232    1713.8764   -23322.108    65.710005    253.29076 
   19600    111.89972   -1487.4217    90980.162   -21615.242    1677.7655   -23293.008    65.764452      247.954 
   19650    114.79582   -1360.8976    90956.076   -21627.895    1721.1882   -23349.083    66.078816    254.37136 
   19700    113.90086   -1438.3407    90899.023   -21616.464    1707.7696   -23324.233    66.548184    252.38825 
   19750    116.41356   -1096.2373    90856.585   -21605.392    1745.4437   -23350.836    66.688503    257.95603 
   19800    111.37666   -1124.6173    90911.599   -21590.994    1669.9231   -23260.917     66.97277    246.79497 
   19850    114.63358   -1075.0093    90887.816   -21615.388    1718.7557   -23334.143    66.858567    254.01186 
   19900    109.71424   -1133.6343    90892.701   -21622.738    1644.9977   -23267.735    67.324845     243.1113 
   19950    110.40196   -1350.0722    90862.463   -21688.459     1655.309   -23343.768    67.790802    244.63518 
   20000    110.58509    -1303.099    90812.927    -21678.43    1658.0547   -23336.484    67.931085    245.04097 
   20050    114.39169   -1253.3825    90799.983   -21690.203    1715.1289   -23405.332    68.227048    253.47587 
   20100    111.03925   -1334.9903    90781.269   -21715.548    1664.8641   -23380.412    68.290646    246.04732 
   20150    113.75212   -1332.8278    90759.863   -21689.636    1705.5396   -23395.175    68.257431    252.05867 
   20200    113.84024   -793.73917    90805.637   -21701.858    1706.8607   -23408.718    68.700003    252.25391 
   20250    110.68778   -1460.1279    90912.671   -21738.469    1659.5944   -23398.063    68.978462    245.26852 
   20300    112.46261   -1367.2023     90907.24   -21772.592    1686.2053   -23458.798    69.388521    249.20129 
   20350    112.03613   -1027.0035    90952.169   -21734.581    1679.8109   -23414.392    69.782181    248.25628 
   20400    111.94458   -1529.3244    90990.719   -21730.852    1678.4381    -23409.29    70.313453     248.0534 
   20450     112.8243   -1286.5718    91039.574   -21741.112    1691.6283    -23432.74    70.436516    250.00275 
   20500    112.52375   -1007.4149    91110.247   -21699.228     1687.122    -23386.35     70.48684    249.33678 
   20550    113.76525   -1475.6057    91128.347   -21709.314    1705.7363    -23415.05    70.506917    252.08775 
   20600    110.65384   -1365.1748     91091.33   -21689.167    1659.0855   -23348.252     70.93283    245.19331 
   20650    110.58613   -1209.4734     91140.72   -21702.914    1658.0704   -23360.984    70.941549    245.04328 
   20700    111.69728    -1476.529    91223.065   -21679.558    1674.7303   -23354.288    71.130683    247.50543 
   20750     110.6265   -1404.8188    91153.133   -21714.118    1658.6757   -23372.794     70.72447    245.13274 
   20800    109.50574   -1294.2331    91172.115   -21707.083    1641.8716   -23348.954    70.594828    242.64929 
   20850     114.6813   -1184.9292     91190.63   -21707.256    1719.4712   -23426.727    70.571419     254.1176 
   20900    116.12732    -1169.809    91218.153   -21698.678    1741.1521    -23439.83    70.739125    257.32178 
   20950    110.11908   -1222.2036    91307.938   -21716.959    1651.0676   -23368.027     71.23586    244.00836 
   21000    115.31054   -1284.5701    91281.788   -21747.278    1728.9056   -23476.184    71.343362    255.51189 
   21050    112.84061   -1423.6264    91306.964   -21719.395    1691.8728   -23411.268    71.647346    250.03889 
   21100    111.42089   -1095.1122    91422.421    -21725.65    1670.5862   -23396.236    71.692116    246.89297 
   21150    113.59772   -1261.1734    91509.051   -21753.027    1703.2245   -23456.251    71.754918    251.71653 
   21200     109.7238   -1428.6701    91579.711   -21740.699    1645.1409    -23385.84    72.425512    243.13247 
   21250    112.19741   -1366.2995     91634.29    -21693.74     1682.229   -23375.969    72.870511    248.61364 
   21300    110.59909   -1224.6462    91655.079   -21684.541    1658.2646   -23342.805    73.165788    245.07198 
   21350    111.16041   -1466.3156    91658.973   -21735.466    1666.6808   -23402.147    73.164154     246.3158 
   21400    112.04773   -1629.4301    91621.477   -21730.763    1679.9848   -23410.748    73.224774    248.28197 
   21450    117.05473   -1385.5799    91658.062   -21759.105    1755.0571   -23514.162    73.292838    259.37678 
   21500    113.59766   -1451.5326    91635.839   -21742.589    1703.2236   -23445.813     73.53284     251.7164 
   21550    111.47275   -1377.0893    91632.549   -21748.005    1671.3638   -23419.369    73.651048     247.0079 
   21600    115.54251   -1221.7955    91626.908   -21725.615    1732.3837   -23457.999    73.846903    256.02592 
   21650     112.3222   -1233.4665    91617.725   -21748.597       1684.1   -23432.697    73.756352    248.89015 
   21700    113.72394   -1285.4643    91645.357   -21755.966     1705.117   -23461.083      73.9273    251.99622 
   21750     112.2617   -1082.3566     91701.91   -21791.549     1683.193   -23474.742     74.18808    248.75611 
   21800    111.48203   -1110.9076     91792.15   -21800.517     1671.503    -23472.02    74.285265    247.02847 
   21850    109.76101   -1329.1231    91833.065   -21787.959     1645.699   -23433.658    74.431563    243.21494 
   21900    111.51806   -1279.3068    91869.204   -21787.166    1672.0432   -23459.209    74.407978     247.1083 
   21950    110.08812   -1487.2624    91810.777    -21770.36    1650.6035   -23420.963    74.311445    243.93976 
   22000    111.02255   -1365.7506    91775.209   -21781.212    1664.6137   -23445.826    74.033452    246.01031 
   22050    111.85442   -1577.1701    91729.831   -21756.543    1677.0865   -23433.629    74.167576    247.85364 
   22100    113.57443    -1410.579    91727.877   -21747.872    1702.8753   -23450.747    74.080728    251.66493 
   22150    109.20557   -1152.8239    91739.527   -21751.558     1637.371   -23388.929    74.209225    241.98415 
   22200     111.7335   -1317.1707    91756.479   -21738.634    1675.2733   -23413.908    74.493818    247.58568 
   22250    111.56592   -1416.5502    91730.169   -21725.433    1672.7607   -23398.194    74.841679    247.21435 
   22300    113.52645   -1255.3788    91824.132   -21707.309    1702.1559   -23409.465    75.127293    251.55861 
   22350    114.64327    -1410.888    91846.444   -21726.291    1718.9009   -23445.192    75.218655    254.03332 
   22400    114.16251   -1294.7861    91798.323   -21755.011    1711.6926   -23466.703    75.265164    252.96802 
   22450    113.02921   -1362.0082    91794.668   -21730.958    1694.7005   -23425.659    75.249145    250.45679 
   22500     112.3827   -1044.3875    91761.879   -21771.999    1685.0072   -23457.006    74.997662    249.02423 
   22550    112.61755    -1552.494    91765.934   -21766.679    1688.5284   -23455.208    75.399358    249.54462 
   22600     112.6888   -1152.6013    91692.426   -21751.751    1689.5967   -23441.348    75.571752     249.7025 
   22650    111.61198   -922.68512    91732.444   -21765.774    1673.4513   -23439.225    75.774214     247.3164 
   22700    111.83859   -1285.6759    91763.381   -21745.827     1676.849   -23422.676    76.140883    247.81854 
   22750    111.96041   -1145.6615    91726.352   -21710.662    1678.6755   -23389.337    76.083032    248.08848 
   22800    112.41558   -1324.8405    91753.668   -21716.666    1685.5001   -23402.166    76.530197    249.09707 
   22850    113.84203   -1394.5407      91785.5   -21704.564    1706.8876   -23411.451     76.81825     252.2579 
   22900    113.44373   -1446.0184    91748.672   -21716.482    1700.9156   -23417.398    76.937003    251.37531 
   22950    114.20466   -1391.8204    91760.784   -21706.059    1712.3247   -23418.383    77.237087    253.06144 
   23000    113.61441    -1256.275    91694.237   -21721.929    1703.4747   -23425.404    77.483331    251.75351 
   23050    111.55306   -1213.6136    91716.218   -21736.176     1672.568   -23408.744    77.739427    247.18586 
   23100     107.8296   -1468.9444    91666.825   -21756.885    1616.7403   -23373.625     78.02937    238.93519 
   23150    111.15144   -1447.5868    91510.805   -21768.397    1666.5462   -23434.944     78.28412    246.29592 
   23200    110.45507   -1227.9067    91486.286   -21743.963    1656.1054   -23400.068    78.344304    244.75288 
   23250    113.55744   -1452.0194     91511.88   -21692.183    1702.6205   -23394.803    78.805588    251.62727 
   23300    115.17286    -1429.801    91509.358   -21693.291    1726.8413   -23420.132    79.170723    255.20682 
   23350    113.11282   -1051.3315    91604.371   -21683.838    1695.9542   -23379.793    79.207296    250.64206 
   23400     112.8868   -1560.7274     91587.67    -21722.33    1692.5653   -23414.895    79.496799    250.14123 
   23450     113.4773   -1296.8397    91539.732    -21734.95    1701.4191   -23436.369    79.813033    251.44971 
   23500    111.90841   -1603.8727    91498.198   -21763.623     1677.896   -23441.519    79.830343    247.97327 
   23550    110.06626   -1352.2196    91468.031   -21772.553    1650.2757   -23422.829    79.687949    243.89133 
   23600    111.22078   -1531.0368     91454.63   -21720.853     1667.586   -23388.439    79.808838    246.44957 
   23650    113.04591   -1535.7933    91327.628   -21720.825     1694.951   -23415.776    79.459861     250.4938 
   23700    112.53192   -1571.3758    91253.907   -21714.015    1687.2445   -23401.259    79.477543    249.35487 
   23750    113.93386   -1122.0123    91203.454   -21721.267    1708.2645   -23429.531    79.426966    252.46138 
   23800    111.50904   -1103.7046    91235.908   -21736.519    1671.9079   -23408.427    79.734427     247.0883 
   23850    110.58598    -1289.094    91268.015   -21745.347    1658.0681   -23403.416    79.937127    245.04295 
   23900    108.21869   -1190.1154    91246.903    -21745.46    1622.5741   -23368.034    80.134114    239.79735 
   23950    112.91562   -1124.5107     91361.95   -21731.734    1692.9974   -23424.732     80.53608    250.20509 
   24000    115.75584   -1046.5424    91337.227   -21730.189    1735.5822   -23465.771    80.771379    256.49861 
   24050    112.68539   -1488.8187    91351.811   -21734.583    1689.5455   -23424.128    80.853928    249.69494 
   24100    112.68669   -1098.9254    91334.036   -21731.423     1689.565   -23420.988    80.919619    249.69782 
   24150    110.16539   -1321.1187    91335.655   -21767.863     1651.762   -23419.625    81.121642    244.11098 
   24200    111.81864   -1581.7157    91208.917   -21806.479      1676.55   -23483.029    81.121286    247.77435 
   24250    114.78297   -1076.5777    91185.474   -21780.601    1720.9956   -23501.596    81.102733    254.34289 
   24300    111.14542   -1540.8485    91246.775   -21735.101     1666.456   -23401.557    81.288597    246.28258 
   24350    113.93104    -1152.862    91193.307   -21747.936    1708.2221   -23456.158     81.41787    252.45512 
   24400    113.94213    -803.9175    91294.958   -21757.224    1708.3884   -23465.612    81.646202    252.47969 
   24450    111.40372   -851.73814    91435.994   -21743.804    1670.3289   -23414.133    81.863415    246.85495 
   24500    111.23751   -1231.2376    91551.494   -21738.074    1667.8368    -23405.91    82.303837    246.48664 
   24550    112.54683    -1204.613    91544.202   -21741.951    1687.4681   -23429.419    82.275749    249.38791 
   24600    111.26425    -1184.122    91609.675   -21738.481    1668.2377   -23406.718      82.4913    246.54589 
   24650    112.91854   -1474.1871    91659.561   -21734.733    1693.0413   -23427.774    82.504491    250.21157 
   24700    111.96166   -1190.0736    91699.936   -21726.639    1678.6943   -23405.333    82.553541    248.09125 
   24750    113.45924   -1386.8768    91663.997   -21726.303    1701.1483   -23427.452     82.79134    251.40969 
   24800    114.23168   -1200.8763    91637.061   -21732.999    1712.7298   -23445.729    82.698837    253.12131 
   24850    115.74414   -1463.3852    91625.916   -21728.363    1735.4068    -23463.77    83.128061     256.4727 
   24900    111.57916   -1553.8224    91508.318   -21736.379    1672.9592   -23409.338    83.047221    247.24368 
   24950    112.87067   -1187.2864    91491.265   -21699.706    1692.3235   -23392.029    83.008736     250.1055 
   25000     111.4044   -1186.0683    91470.979   -21741.184     1670.339   -23411.523    83.166947    246.85645 
   25050     114.2219   -1185.5386    91589.784    -21689.84    1712.5832   -23402.424    83.228703    253.09964 
   25100    115.65147     -1073.04    91611.127   -21688.521    1734.0174   -23422.539    83.353863    256.26736 
   25150    113.97765   -1278.7158    91646.614   -21696.776     1708.921   -23405.697    83.390012    252.55841 
   25200      113.234   -1466.5896    91628.002   -21704.079    1697.7711    -23401.85    83.656724    250.91058 
   25250    111.16626   -1592.3513    91551.113   -21749.457    1666.7685   -23416.225    83.552931    246.32877 
   25300    111.44162   -1231.5374    91413.507   -21715.187    1670.8971   -23386.084    83.931117    246.93892 
   25350    113.37321   -1086.1679    91421.678   -21668.187    1699.8583   -23368.046     83.78492    251.21904 
   25400    115.36163   -1081.2102    91467.198     -21635.8    1729.6717   -23365.471    84.235569    255.62511 
   25450    115.00422   -1112.7706    91532.896   -21634.336    1724.3128   -23358.649    84.481164    254.83313 
   25500    112.05486   -1054.4088    91519.468     -21675.9    1680.0916   -23355.992     84.52027    248.29776 
   25550    112.31318   -1197.2654     91568.17   -21684.777    1683.9647   -23368.742    85.079177    248.87016 
   25600    113.50175   -1348.1334    91573.704   -21732.018    1701.7856   -23433.804     84.91589    251.50388 
   25650    111.66005   -1134.8514    91627.282   -21745.434    1674.1722   -23419.606    85.087132    247.42294 
   25700    109.98617   -1335.5872    91644.983   -21738.382    1649.0748   -23387.457    85.361622    243.71384 
   25750    113.86724   -1283.0443    91679.172   -21751.222    1707.2656   -23458.487    85.649575    252.31375 
   25800    111.66493   -1191.3347    91683.881   -21738.134    1674.2453   -23412.379    86.014425    247.43375 
   25850    110.39986    -1111.741    91808.064   -21774.924    1655.2775   -23430.201    86.203661    244.63053 
   25900    109.90574   -1609.2583    91796.672   -21745.385     1647.869   -23393.254    86.377158    243.53564 
   25950    112.63821   -1329.8242    91764.575   -21733.227    1688.8382   -23422.065    86.637503     249.5904 
   26000    112.34323   -1821.5956    91715.524   -21730.765    1684.4154    -23415.18    86.856002    248.93677 
   26050    110.57914   -1585.1556    91616.695   -21724.809    1657.9655   -23382.775    86.840702    245.02778 
   26100    113.82096   -1333.5803    91572.041   -21686.095    1706.5716   -23392.667    86.890662    252.21119 
   26150    114.68367   -1174.5623    91608.272   -21729.197    1719.5066   -23448.704    86.980793    254.12284 
   26200    116.59169    -1611.174    91667.409   -21700.418    1748.1145   -23448.533    87.062244    258.35074 
   26250    114.29446   -1223.0784    91674.085    -21681.55    1713.6711   -23395.221    87.111391    253.26041 
   26300     111.7726   -1432.5481     91661.53   -21699.472    1675.8596   -23375.332    87.308696    247.67232 
   26350    109.39034   -1313.9299    91623.789   -21718.479    1640.1413    -23358.62    87.541743    242.39357 
   26400    112.20229   -1304.9385    91641.689   -21728.275    1682.3021   -23410.577    87.523225    248.62445 
   26450    114.75865   -1558.5421    91647.047   -21708.304    1720.6308   -23428.935    87.468562    254.28898 
   26500     112.1889   -1361.7336    91629.875   -21710.124    1682.1014   -23392.226    87.901238    248.59478 
   26550    110.03402   -1551.9654    91572.906   -21729.759    1649.7923   -23379.551    87.866882    243.81988 
   26600    114.86999   -1314.5351    91568.468   -21730.215    1722.3003   -23452.515    88.216907    254.53571 
   26650    113.74467   -1297.9143    91607.987   -21747.061    1705.4279   -23452.489    88.436926    252.04216 
   26700    115.47027   -1491.8464    91643.825   -21697.495    1731.3006   -23428.795    88.701187    255.86585 
   26750    113.52807   -1180.9838    91691.266   -21701.011    1702.1803   -23403.191    88.562454    251.56221 
   26800    115.36403   -1382.0058    91750.676   -21677.805    1729.7077   -23407.513    88.866049    255.63043 
   26850    115.72995   -1117.3771    91726.966   -21688.412    1735.1941   -23423.606    89.167763    256.44126 
   26900    112.72451   -1521.2479    91729.294   -21689.024     1690.132   -23379.156    89.194262    249.78161 
   26950    109.87407   -1667.2786    91724.869   -21719.933     1647.394   -23367.327    89.037927    243.46544 
   27000    112.49297   -1390.6559    91696.305   -21697.566    1686.6605   -23384.226    89.128202    249.26856 
   27050    115.42931   -1439.6034    91745.252   -21674.777    1730.6865   -23405.464    89.239164    255.77509 
   27100    116.33849   -1338.5147    91741.333   -21663.475    1744.3181   -23407.793    89.401131    257.78968 
   27150    112.34081   -1557.4557    91685.909   -21682.369    1684.3791   -23366.748    89.588931     248.9314 
   27200    109.59423   -1156.3924    91624.473   -21662.116    1643.1983   -23305.314    89.777198    242.84536 
   27250    113.42028   -1227.3085    91600.565   -21673.659    1700.5641   -23374.223    90.326872    251.32335 
   27300    113.66746   -1490.5451     91623.06   -21693.991    1704.2701   -23398.261    90.609241    251.87106 
   27350    112.67193    -1337.049    91620.824   -21693.863    1689.3437   -23383.206    90.761384    249.66512 
   27400    115.03089   -1508.7354    91628.066   -21656.087    1724.7127   -23380.799    91.264528    254.89223 
   27450    115.80592   -1446.6812    91608.857   -21696.464    1736.3331   -23432.797    91.209107    256.60959 
   27500     115.0263   -1161.4036    91615.288     -21668.7    1724.6439   -23393.344    91.199601    254.88207 
   27550    116.26323   -1419.7247    91650.558   -21656.585    1743.1898   -23399.775    91.669538    257.62294 
   27600    114.57382     -1452.61    91643.172   -21602.772    1717.8597   -23320.632    91.767593    253.87944 
   27650     112.6089    -1491.913    91719.416   -21649.713    1688.3987   -23338.112    91.644351    249.52546 
   27700      112.938   -1473.0667    91664.898   -21661.036     1693.333   -23354.369     91.78342    250.25468 
   27750    113.48838   -1211.2736    91644.805   -21668.077    1701.5852   -23369.662    91.988267    251.47426 
   27800    113.72714   -1528.9534    91649.533   -21643.745     1705.165    -23348.91    92.095457    252.00332 
   27850    115.70914   -1536.1691    91578.267   -21575.695     1734.882   -23310.577    92.355263    256.39514 
   27900    111.91453   -1286.5696    91550.355   -21632.675    1677.9877   -23310.662    92.637092    247.98683 
   27950    113.78283   -1296.4882    91574.334   -21655.634         1706   -23361.634    93.025989    252.12672 
   28000    111.59123   -1593.8641    91563.643   -21696.701    1673.1403   -23369.842    93.083254    247.27044 
   28050    111.50187   -1482.1019    91511.311   -21706.505    1671.8004   -23378.306    93.577198    247.07242 
   28100    114.75187   -1366.1225    91476.358   -21669.762    1720.5293   -23390.292    93.857874    254.27398 
   28150    114.02872   -1274.1271    91520.189   -21640.849    1709.6867   -23350.535    94.174771    252.67157 
   28200    113.35891   -1218.2114    91467.678   -21672.914    1699.6439   -23372.558    94.275207    251.18735 
   28250    113.80825   -1410.5276    91450.956   -21675.365     1706.381   -23381.746    94.480633    252.18303 
   28300    112.99626   -1271.1846    91466.319   -21668.516    1694.2065   -23362.723    94.170528    250.38378 
   28350    116.92436   -1209.9649    91423.484   -21629.135    1753.1025   -23382.237    94.078163    259.08791 
   28400    115.78624   -1430.4669    91350.761   -21637.186     1736.038   -23373.225    94.039817    256.56598 
   28450    115.20171   -1280.4561    91376.473   -21633.828    1727.2739   -23361.102    94.069712    255.27075 
   28500    113.27508   -1632.6699    91381.625     -21656.2     1698.387   -23354.587    94.055144     251.0016 
   28550    111.91054   -1273.7032    91357.702   -21701.581    1677.9279   -23379.509    94.348845    247.97799 
   28600    111.22643   -1291.4517    91444.196   -21695.609    1667.6707   -23363.279    94.571024     246.4621 
   28650    112.31568   -1011.5532    91476.265   -21648.181    1684.0022   -23332.183    94.743345    248.87571 
   28700    116.22373   -1473.8256    91576.944   -21655.528    1742.5975   -23398.125    94.951498    257.53539 
   28750    115.84776   -1156.1633     91649.77   -21668.034    1736.9604   -23404.994    95.107863     256.7023 
   28800    114.32456   -1339.8519    91651.855   -21678.021    1714.1224   -23392.144    95.448394    253.32711 
   28850    115.06768   -1461.9949    91616.674   -21683.326    1725.2644    -23408.59    95.679692    254.97377 
   28900    111.95583   -1235.9058     91584.05   -21731.278    1678.6069   -23409.885    95.915718    248.07834 
   28950    112.77399   -1051.3838    91555.393   -21715.453     1690.874   -23406.327    95.870959    249.89127 
   29000    115.44574   -1211.0834    91593.111   -21672.129    1730.9328   -23403.062    95.820299     255.8115 
   29050    110.75866    -1135.441    91592.993   -21745.982    1660.6572   -23406.639    95.569129    245.42558 
   29100    114.59163   -1475.0958    91546.678   -21770.357    1718.1267   -23488.483    95.686905     253.9189 
   29150    113.76125   -1423.7841    91477.657   -21796.879    1705.6764   -23502.555    95.903485    252.07889 
   29200    113.04448    -1205.364     91466.92   -21778.107    1694.9296   -23473.037    95.707988    250.49064 
   29250    113.37876   -1191.5416      91455.5   -21782.127    1699.9416   -23482.069    95.869852    251.23135 
   29300    111.47699   -824.26726    91508.012   -21787.325    1671.4274   -23458.752    96.164925     247.0173 
   29350    112.74208   -1265.7409    91604.756   -21753.767    1690.3955   -23444.162    96.353519    249.82055 
   29400    115.33729   -1174.8874    91675.312    -21726.13    1729.3067   -23455.436    96.595727    255.57117 
   29450    114.49547   -1170.4471    91665.378   -21714.624    1716.6849   -23431.308    96.670348    253.70582 
   29500    113.96996   -1296.6933    91625.941   -21699.692    1708.8057   -23408.498     96.54809    252.54137 
   29550     117.0391    -1550.401    91580.691   -21685.466    1754.8228   -23440.289     97.02493    259.34215 
   29600    116.29503   -1537.4458    91568.528   -21708.652    1743.6665   -23452.318    97.053023    257.69339 
   29650    110.84323   -1452.9118    91525.087   -21727.399    1661.9251   -23389.324    97.107265    245.61296 
   29700    110.83745   -1467.2417    91477.906   -21726.593    1661.8385   -23388.432    97.274584    245.60017 
   29750    113.21262   -1582.1779    91472.246   -21712.458    1697.4505   -23409.909    97.297271     250.8632 
   29800    108.13814   -1452.4633    91443.432   -21745.616    1621.3664   -23366.982    97.345869    239.61886 
   29850     111.9195   -1067.2345    91438.502   -21722.396    1678.0621   -23400.458    97.352544    247.99783 
   29900     113.0724    -1249.305    91464.049   -21685.446    1695.3482   -23380.794    97.510723     250.5525 
   29950    112.74834   -1373.8796    91433.475    -21679.74    1690.4894   -23370.229    97.761852    249.83443 
   30000    111.73355   -1119.4407    91456.215   -21702.992    1675.2742   -23378.267    97.778263     247.5858 
   30050    111.52847   -1287.5882     91401.55   -21720.646    1672.1993   -23392.845    98.214002    247.13137 
   30100    107.52766   -1381.9383    91334.797   -21815.614    1612.2133   -23427.828    98.156934    238.26614 
   30150    110.05962   -1463.4372     91380.95   -21848.567    1650.1762   -23498.743     98.34259    243.87661 
   30200     111.3659   -1205.4852    91365.861   -21802.246    1669.7618   -23472.008    97.892061    246.77114 
   30250    110.55795   -1480.3984    91350.952   -21810.843    1657.6478   -23468.491    97.922942    244.98084 
   30300    112.79883   -1328.6628    91338.813   -21761.116    1691.2464   -23452.362    98.082247     249.9463 
   30350    114.42609   -1255.1056    91343.242   -21747.242    1715.6447   -23462.887     98.18551     253.5521 
   30400    112.67124   -1333.7912    91341.901    -21714.55    1689.3333   -23403.883    97.908745    249.66358 
   30450    113.94064   -1477.0338    91365.651   -21671.965    1708.3661   -23380.331    97.990136     252.4764 
   30500    112.59437   -1349.8709    91338.893    -21725.81    1688.1808   -23413.991    98.234974    249.49324 
   30550    112.64734   -1330.6048    91316.248   -21710.272     1688.975   -23399.247    98.338931    249.61062 
   30600    112.79282   -1609.6738    91263.978   -21770.469    1691.1562   -23461.626    98.414141    249.93298 
   30650    111.77476   -1435.3828    91141.339   -21829.196    1675.8921   -23505.088    98.272748    247.67712 
   30700    112.38608   -1368.5072    91112.385   -21808.508    1685.0579   -23493.566    98.535412    249.03172 
   30750    111.97768   -1396.0914    91054.466   -21763.606    1678.9346   -23442.541    98.721737    248.12676 
   30800    114.49123   -1208.0385    91043.412   -21771.754    1716.6213   -23488.375     98.81068    253.69642 
   30850    114.30445   -1262.2824    91036.291   -21771.008    1713.8209   -23484.829    98.702678    253.28256 
   30900    108.63658   -1598.2306    90980.098   -21777.226    1628.8398   -23406.066    99.130019    240.72334 
   30950     110.5406   -1228.4347    91015.488   -21764.724    1657.3876   -23422.112    98.914878    244.94238 
   31000     115.9673   -1140.1256    91089.953   -21776.903    1738.7528   -23515.656    99.070657     256.9672 
   31050    112.54476   -1322.1228    91138.474    -21765.12     1687.437   -23452.557    99.145629    249.38333 
   31100    111.17328   -1221.2288    91159.303   -21764.098    1666.8738   -23430.972    99.415441    246.34432 
   31150    113.27031   -1461.7286    91205.056   -21766.766    1698.3155   -23465.082    99.449484    250.99104 
   31200    115.12668   -1452.5815    91252.945   -21744.012    1726.1489   -23470.161     99.61467    255.10448 
   31250    110.77719   -1364.2121    91226.136   -21744.769    1660.9349   -23405.704    99.940677    245.46663 
   31300    112.11369   -1324.3799    91235.326   -21748.227    1680.9738   -23429.201    100.36913    248.42814 
   31350    108.89508   -1364.2047    91201.506    -21717.29    1632.7157   -23350.005      100.527    241.29616 
   31400    115.82934   -1378.3859    91101.833    -21699.97    1736.6843   -23436.654    100.59638    256.66149 
   31450    110.39474   -1335.6884    91019.016   -21714.441    1655.2007   -23369.642    100.83948    244.61918 
   31500    112.13485   -1105.4833    91000.737   -21676.426     1681.291   -23357.717     100.8293    248.47502 
   31550    116.00195   -890.70535    91016.193   -21625.184    1739.2723   -23364.456    101.01403    257.04398 
   31600    114.42562   -1277.7341     91065.71   -21609.829    1715.6377   -23325.466    101.47926    253.55105 
   31650     117.4182   -1300.3292    91115.616   -21575.597    1760.5068   -23336.103    101.59169    260.18217 
   31700    111.24864   -1563.2061    91045.454   -21607.414    1668.0036   -23275.418     101.5436     246.5113 
   31750    109.59846    -1189.132    90951.314   -21633.939    1643.2617   -23277.201      101.654    242.85474 
   31800    112.57798   -1506.8646     90894.28   -21635.936    1687.9351   -23323.871    101.55914    249.45693 
   31850    114.63191   -1215.0342    90926.261   -21605.743    1718.7306   -23324.473    102.00826    254.00814 
   31900    111.92353   -1335.7934     90959.42   -21668.521    1678.1226   -23346.643    102.05722    248.00677 
   31950    116.44247   -1167.9671    91015.812   -21673.225    1745.8772   -23419.103    102.01374     258.0201 
   32000    114.14485   -1377.4829    91004.563   -21647.105    1711.4278   -23358.533      102.185    252.92889 
   32050    112.08747   -1432.4066    90942.937   -21665.094    1680.5807   -23345.675    102.43002    248.37004 
   32100    113.00683   -1230.0065    90918.001   -21699.121     1694.365   -23393.486    102.51519     250.4072 
   32150    112.55418   -1309.1084    90909.656    -21712.18    1687.5782   -23399.758    102.80661    249.40419 
   32200     112.2359   -855.40427    90965.949   -21732.308    1682.8061   -23415.114    102.49891    248.69892 
   32250    111.40002   -964.67994    91064.611    -21749.08    1670.2734   -23419.353    102.83206    246.84674 
   32300    109.78774   -1249.1819    91140.625   -21768.702    1646.0998   -23414.801    103.04813    243.27417 
   32350    110.81142   -1314.0883    91237.729   -21761.345    1661.4483   -23422.793    103.37155     245.5425 
   32400    113.15347   -1389.1364     91200.66    -21720.04    1696.5636   -23416.604    103.82649    250.73213 
   32450    112.19342   -1376.4597    91197.114   -21705.086    1682.1692   -23387.255    104.19784     248.6048 
   32500    114.10496   -1534.4856    91157.243   -21691.577    1710.8298   -23402.406    104.62769     252.8405 
   32550    113.32291   -1392.5969     91094.82   -21671.931    1699.1042   -23371.035     104.9894    251.10759 
   32600    113.12756   -1233.5715      91076.6    -21704.58    1696.1752   -23400.755    105.11078    250.67472 
   32650     112.4045   -1183.2595    91019.125   -21750.883    1685.3339   -23436.217    104.87326    249.07252 
   32700    113.55169   -1253.2075    91011.704   -21755.593    1702.5344   -23458.127    105.08412    251.61454 
   32750    109.04066    -1098.968    91118.477   -21742.711    1634.8983    -23377.61      105.194    241.61873 
   32800    110.07478   -1229.1271    91185.029   -21757.375    1650.4034   -23407.778    105.11582    243.91019 
   32850    112.24568   -1346.1364    91261.771   -21754.465    1682.9528   -23437.418    105.27789    248.72061 
   32900    110.53685   -989.52199    91296.949   -21764.223    1657.3315   -23421.555    105.35404    244.93408 
   32950    110.23106   -1276.7642     91402.93   -21774.004    1652.7466   -23426.751    105.25682     244.2565 
   33000    112.55506   -1525.3785    91367.302   -21772.023    1687.5915   -23459.615     105.1483    249.40615 
   33050    110.89914   -1284.0455    91345.695   -21766.289    1662.7635   -23429.052    105.32211    245.73687 
   33100    109.04779   -1644.1877    91386.059   -21792.357    1635.0052   -23427.362    105.57984    241.63452 
   33150    108.88541   -1441.0832    91321.924   -21805.083    1632.5707   -23437.654    105.44813    241.27473 
   33200    109.30667   -1504.1131      91289.3   -21792.541    1638.8868   -23431.427    105.35407    242.20817 
   33250    113.18358   -1389.3228     91331.31   -21782.431    1697.0151   -23479.446    105.38234    250.79885 
   33300    110.45516    -1384.183    91278.588   -21764.224    1656.1066    -23420.33    105.61336    244.75306 
   33350     112.6573    -1076.552    91345.096   -21771.452    1689.1243   -23460.576    105.59858    249.63269 
   33400    109.65977   -1233.6356    91400.133   -21791.085     1644.181   -23435.266    105.64855     242.9906 
   33450    108.60294   -1489.8681    91359.811   -21806.846    1628.3354   -23435.181    106.06813     240.6488 
   33500    108.76609   -1574.1078    91318.132   -21765.512    1630.7817   -23396.294    106.40932    241.01033 
   33550    111.83478   -1354.5364     91298.29   -21768.671    1676.7919   -23445.463    106.56401     247.8101 
   33600    109.01607   -1437.7653    91271.637   -21760.161    1634.5296    -23394.69    106.91337    241.56423 
   33650    109.33921   -1697.4359    91182.904   -21731.847    1639.3747   -23371.222    106.92339    242.28027 
   33700    109.11329   -956.02914    91112.378   -21745.694    1635.9874   -23381.681    107.05632    241.77967 
   33750    109.78059   -1383.2742    91082.959   -21752.712    1645.9924   -23398.704    107.23722     243.2583 
   33800    111.41817   -930.62062     91086.62   -21744.554    1670.5455     -23415.1    107.32161    246.88696 
   33850    110.17233   -1118.5223    91108.334   -21763.388    1651.8661   -23415.255    107.44409    244.12636 
   33900    113.46996   -1250.4588    91099.099   -21754.374    1701.3089   -23455.683    107.18219    251.43343 
   33950    110.91258   -1361.4079    91073.113   -21744.648    1662.9649   -23407.613    107.28942    245.76663 
[...]
   92000    109.12167   -1444.6763    91001.164   -21793.808    1636.1129   -23429.921    283.90623    241.79823 
   92050    112.97181    -1181.456    91012.768   -21772.468      1693.84   -23466.308    284.03611    250.32961 
   92100    112.66694   -1201.8374     91034.52   -21768.566    1689.2689   -23457.835    284.16835    249.65405 
   92150     111.4701   -1352.3892    91039.565   -21763.854    1671.3241   -23435.178     284.0988    247.00202 
   92200    112.21023   -1057.9426    91062.224   -21788.639    1682.4213    -23471.06    284.75522    248.64206 
   92250    110.44736   -953.93181    91140.575   -21767.935    1655.9897   -23423.925    284.59117    244.73578 
   92300     112.8567    -1165.067    91191.468     -21746.7     1692.114   -23438.814    284.64417    250.07453 
   92350    110.67698   -1220.1855    91242.139    -21726.76    1659.4325   -23386.193    285.17259    245.24459 
   92400    110.62572   -1162.0398    91259.136   -21722.837     1658.664     -23381.5    285.35389    245.13101 
   92450    111.26918   -1241.2677    91279.165   -21724.578    1668.3116    -23392.89    285.51231    246.55682 
   92500    111.66949   -1120.7886    91231.434   -21757.551    1674.3137   -23431.864    285.79657    247.44386 
   92550    108.50214   -1327.9674    91316.729   -21734.812    1626.8241   -23361.636    286.72086    240.42545 
   92600    111.44587   -1305.0097    91288.768   -21708.193    1670.9608   -23379.154    287.12387    246.94833 
   92650    114.15304   -1438.9497    91285.721   -21695.962    1711.5507   -23407.513    286.96223    252.94704 
   92700    114.86171   -1440.8911    91221.824   -21679.697    1722.1761   -23401.873     286.6826    254.51735 
   92750    114.60263   -1425.4333    91201.853   -21672.836    1718.2916   -23391.128    286.73753    253.94327 
   92800     112.4738   -1473.8737    91144.206   -21686.381    1686.3731   -23372.754    286.02186    249.22609 
   92850    115.45359   -1430.6084    91134.412   -21681.877    1731.0505   -23412.928    286.28125    255.82889 
   92900    109.41486   -1092.7036    91176.275   -21712.081    1640.5089   -23352.589    286.30181    242.44791 
   92950    111.48658   -1167.8032    91166.283   -21688.512    1671.5712   -23360.083    286.28164    247.03855 
   93000    115.21172   -1513.8142    91136.174   -21679.286     1727.424    -23406.71    286.22082    255.29293 
   93050    113.46357   -1274.2212    91194.305   -21704.471    1701.2132   -23405.684    285.88925    251.41928 
   93100    111.18006   -1596.3838    91214.217   -21738.026    1666.9754   -23405.001    285.67382    246.35934 
   93150    110.97597   -1227.8733    91142.125   -21747.269    1663.9153   -23411.184    285.64108     245.9071 
   93200    112.05694   -1224.2591    91084.252    -21710.51    1680.1229   -23390.633    285.61773    248.30239 
   93250    114.10874   -1179.4557    91136.845   -21643.376    1710.8865   -23354.262     285.7978    252.84888 
   93300    116.12972    -914.0275    91312.758   -21629.839     1741.188   -23371.027    286.14305    257.32709 
   93350     115.0155   -1006.0479    91380.468   -21622.156    1724.4819   -23346.638    286.90858    254.85813 
   93400    115.48895   -1164.7316     91376.85   -21621.587    1731.5806   -23353.167    287.06762    255.90723 
   93450     112.7671   -1150.2014    91457.695   -21649.375    1690.7706   -23340.145    287.06736      249.876 
   93500     113.5089   -1365.5668    91431.459   -21683.152    1701.8928   -23385.045    286.95293    251.51973 
   93550    111.78738   -1261.3416    91448.004   -21649.336    1676.0813   -23325.417    287.44362    247.70508 
   93600    109.18074   -1392.3904    91407.973   -21700.849    1636.9986   -23337.848     287.4836    241.92912 
   93650    115.03182   -1180.8412    91407.954   -21675.331    1724.7267   -23400.058    288.09207     254.8943 
   93700    109.57378   -1406.3319    91419.582   -21743.833    1642.8917   -23386.725    288.58413    242.80006 
   93750    111.68897   -1625.4133     91377.08   -21720.919    1674.6057   -23395.525    289.10541    247.48701 
   93800    110.88892   -1534.1176    91313.822   -21732.552    1662.6102   -23395.162    289.15459    245.71422 
   93850    112.48161   -1383.8506    91296.711   -21702.522    1686.4901   -23389.012    289.32602    249.24339 
   93900    112.95262   -1353.2129    91274.857   -21692.144    1693.5522   -23385.696    289.17963    250.28708 
   93950    110.44841   -1231.3789    91310.508   -21766.396    1656.0055   -23422.402    289.55861    244.73811 
   94000    109.02559     -1335.93    91346.162   -21773.283    1634.6724   -23407.956    290.09492    241.58534 
   94050    108.81667   -1316.8881    91378.471   -21773.316      1631.54   -23404.856    289.84262     241.1224 
   94100    111.75408   -1473.4735    91369.047   -21713.926    1675.5819   -23389.508    290.42672    247.63128 
   94150    112.88694   -1305.5634    91275.975   -21737.093    1692.5675    -23429.66    290.47524    250.14156 
   94200    111.87635    -1584.782    91222.254   -21765.593    1677.4152   -23443.008    290.49838    247.90222 
   94250    109.76626   -1681.7494    91201.362   -21742.118    1645.7776   -23387.896    290.37254    243.22655 
   94300     114.6453   -1370.6148    91233.557   -21714.688    1718.9315   -23433.619     289.8441    254.03783 
   94350    112.20546   -1373.5734    91244.122   -21734.874    1682.3498   -23417.224    289.71896    248.63149 
   94400    113.15889   -1532.8075    91255.938   -21717.872     1696.645   -23414.517    291.18605    250.74416 
   94450    112.13811   -1345.8681    91293.063    -21731.36    1681.3399     -23412.7     291.4346    248.48224 
   94500    112.49849    -1415.388    91335.189   -21691.667    1686.7432    -23378.41    292.16246    249.28079 
   94550     112.1785   -1587.6139    91280.831    -21726.46    1681.9454   -23408.406    292.43045    248.57173 
   94600    112.04037   -1446.0966    91239.495   -21755.197    1679.8744   -23435.071    292.65011    248.26566 
   94650    109.96372   -1289.1434    91177.546   -21775.203    1648.7382   -23423.941    292.47281    243.66409 
   94700    113.29964   -1466.3307    91154.733   -21745.083    1698.7552   -23443.838    292.44362    251.05603 
   94750     113.2353   -990.20379    91213.266   -21700.814    1697.7906   -23398.604    293.15944    250.91347 
   94800    113.14086   -1195.0606    91223.911   -21667.607    1696.3746   -23363.982    293.46083    250.70419 
   94850     114.8688   -1313.3108    91179.018   -21717.507    1722.2825   -23439.789    293.51734    254.53307 
   94900    114.30498   -1492.7156    91130.891   -21673.698    1713.8288   -23387.526     293.4351    253.28372 
   94950    114.23062    -1163.409    91124.583   -21676.108    1712.7139   -23388.822    293.50107    253.11895 
   95000    113.02642   -1431.5641    91113.569   -21708.037    1694.6588   -23402.696    293.63121    250.45062 
   95050    113.80642   -1133.9615    91126.956   -21717.729    1706.3537   -23424.083    293.60058    252.17898 
   95100    115.20276   -1372.2567    91148.874   -21735.304    1727.2896   -23462.593    293.84923    255.27308 
   95150    114.45532   -1092.3544    91118.375   -21749.308     1716.083   -23465.391    294.02548    253.61686 
   95200    113.14012   -1230.4563    91050.747   -21771.138    1696.3635   -23467.501    294.22394    250.70255 
   95250    112.27423   -1073.9235    91106.597   -21759.949    1683.3809    -23443.33    294.89358    248.78388 
   95300    114.16744   -967.40952     91104.35    -21761.82    1711.7666   -23473.586    294.54389    252.97895 
   95350    112.59742   -1293.7141    91082.542    -21758.25    1688.2266   -23446.477    294.41609    249.50002 
   95400    114.06142   -1058.2181    91112.891    -21750.79     1710.177   -23460.967    295.07329    252.74403 
   95450    111.41957   -1023.3387    91181.816    -21772.71    1670.5665   -23443.277    295.36633    246.89007 
   95500    112.29889    -1242.763    91224.055   -21790.952    1683.7505   -23474.703    295.60156     248.8385 
   95550     111.0462   -1386.3148    91202.131   -21755.728    1664.9684   -23420.696    295.45683    246.06273 
   95600    113.28302    -1175.742    91174.195   -21716.408     1698.506   -23414.914    295.45874    251.01919 
   95650    112.46717   -1282.1084    91175.509   -21695.665    1686.2736   -23381.939    295.50864    249.21139 
   95700    113.64599   -1413.3014    91131.295   -21702.208    1703.9483   -23406.157     295.7724     251.8235 
   95750    113.27056   -856.98531    91225.619   -21687.521    1698.3192   -23385.841    295.83818    250.99158 
   95800    113.78538   -965.87252    91354.316   -21671.297    1706.0381   -23377.335    295.86118    252.13235 
   95850    113.57363    -1318.964     91400.78   -21632.714    1702.8633   -23335.578    296.73349    251.66314 
   95900    112.96518   -853.60106    91477.521   -21644.375    1693.7406   -23338.116    296.85194    250.31492 
   95950    113.06276   -1463.3494    91493.431    -21700.23    1695.2036   -23395.434    296.81033    250.53114 
   96000    111.12066   -1591.5114    91444.195   -21704.722    1666.0848   -23370.807    297.10007    246.22772 
   96050    111.84609   -1620.7284    91443.105   -21679.974    1676.9614   -23356.936    297.43854    247.83516 
   96100    113.28391   -1453.4623    91373.028   -21688.229    1698.5194   -23386.749    297.62565    251.02118 
   96150    111.73557   -1528.6886    91285.549   -21683.681    1675.3044   -23358.986    297.45175    247.59026 
   96200    111.69023   -1450.0178        91207   -21706.398    1674.6247   -23381.023    296.82741    247.48981 
   96250    111.30983   -1619.8954    91151.358   -21706.208    1668.9211   -23375.129    297.13933     246.6469 
   96300    109.51605   -1347.7021    91086.835   -21715.059    1642.0261   -23357.085    297.70799    242.67213 
   96350    113.20797   -1394.9351    91022.241   -21716.042    1697.3808   -23413.423    297.53794    250.85291 
   96400    109.98941   -669.19858    91061.208   -21755.748    1649.1234   -23404.872    297.12078    243.72103 
   96450    111.69739   -1241.4762    91177.311   -21767.765     1674.732   -23442.496    297.17612    247.50567 
   96500    109.75309   -1304.4601    91249.527    -21709.06    1645.5802    -23354.64    296.82547    243.19738 
   96550     109.7991   -1426.9746    91283.867   -21724.384    1646.2701   -23370.654    297.77335    243.29934 
   96600    109.85523   -1462.0478    91261.141   -21771.816    1647.1115   -23418.928    297.88068     243.4237 
   96650    110.71456   -1198.2056    91228.943   -21780.138     1659.996   -23440.134    298.46867    245.32786 
   96700     110.1857    -821.4825    91223.238   -21769.706    1652.0665   -23421.772     298.7035    244.15597 
   96750    111.56527   -1454.0411    91280.725   -21742.176    1672.7511   -23414.927    298.74435    247.21292 
   96800    108.94814   -1686.6608    91291.688   -21750.376    1633.5112   -23383.887    298.87146    241.41373 
   96850    109.59597   -1444.4541    91267.732   -21716.065    1643.2243   -23359.289    299.30789    242.84921 
   96900    111.36083   -1333.2405    91271.318   -21738.881    1669.6857   -23408.567    299.40845     246.7599 
   96950    111.95554   -1430.9878    91157.698   -21711.474    1678.6026   -23390.076    298.31411     248.0777 
   97000    111.18389   -1577.5487    91121.815   -21701.842    1667.0328   -23368.875    298.22134    246.36782 
   97050    112.78289   -1517.2436    91095.547   -21690.197    1691.0074   -23381.204    297.94976    249.91098 
   97100    112.93815   -1187.2696    91120.952   -21656.057    1693.3352   -23349.392     298.8056    250.25501 
   97150    111.73592   -1194.3207    91168.824   -21641.684    1675.3097   -23316.994    299.69816    247.59106 
   97200    112.89323   -1166.7794    91208.547   -21674.782    1692.6618   -23367.444    299.92792    250.15549 
   97250    113.34475    -1680.422     91231.47   -21705.322    1699.4317   -23404.754    299.62473      251.156 
   97300    115.60612   -1547.6893      91194.2   -21738.907    1733.3374   -23472.244    300.12341    256.16686 
   97350     115.8332   -955.75999    91201.572   -21674.241    1736.7421   -23410.983    299.92055    256.67004 
   97400    109.01008   -1279.1311    91266.073   -21725.897    1634.4399   -23360.337    299.85123    241.55097 
   97450    110.47748   -1221.5497    91319.735   -21695.373    1656.4413   -23351.814    300.48129    244.80252 
   97500    114.17723   -1574.0026     91339.53   -21679.513    1711.9134   -23391.426    300.67698    253.00064 
   97550    113.44593   -1537.4953    91307.854   -21712.155    1700.9486   -23413.104    300.37629    251.38018 
   97600    114.41357   -1234.3532    91268.628   -21718.389    1715.4569   -23433.846    300.42513    253.52434 
   97650    111.84061   -1444.8544    91208.518   -21733.533    1676.8793   -23410.413    301.19993    247.82302 
   97700     110.7193   -1204.6116    91236.069   -21736.099     1660.067   -23396.166    300.93381    245.33837 
   97750    112.98029   -1284.0996    91328.948   -21726.088     1693.967   -23420.055    300.86428    250.34839 
   97800    113.12382   -1551.2722    91351.731   -21713.801    1696.1191    -23409.92    300.95003    250.66643 
   97850    111.62237    -1279.339    91310.701    -21721.53    1673.6072   -23395.137     301.3827    247.33944 
   97900    109.71961    -1449.897    91298.695   -21723.189    1645.0782   -23368.267    302.12616     243.1232 
   97950    113.95848   -1472.5601    91256.881   -21723.091    1708.6336   -23431.724    302.06299    252.51593 
   98000    111.02851   -1251.7546    91314.341   -21728.921    1664.7032   -23393.624    302.19487    246.02353 
   98050    110.98162    -1210.939     91292.72   -21671.236         1664   -23335.236    302.33052    245.91962 
   98100     115.0637   -1299.8361    91287.176   -21671.621    1725.2047   -23396.825    302.26967    254.96495 
   98150    114.92197   -1135.9796    91280.673    -21702.81    1723.0797   -23425.889     302.6528    254.65089 
   98200    114.90579    -1430.018    91311.251   -21706.359     1722.837   -23429.196    302.97114    254.61503 
   98250    118.19412   -1400.7712     91296.86   -21651.545    1772.1405   -23423.686    303.07369    261.90151 
   98300    114.30108   -1244.8661    91284.358    -21638.51    1713.7704   -23352.281    303.90702    253.27508 
   98350    115.76551   -1249.6464    91307.655   -21656.484    1735.7273   -23392.211     303.9458    256.52006 
   98400    113.44285   -1519.6709    91286.482   -21705.111    1700.9024   -23406.014    304.39014    251.37336 
   98450    113.07992   -1544.7641    91270.101   -21675.705    1695.4609   -23371.166    304.92218    250.56916 
   98500    113.75628   -1159.5492    91216.741   -21676.141    1705.6019   -23381.743    305.30247    252.06788 
   98550    111.32047   -1298.2622     91276.83   -21703.977    1669.0806   -23373.057    305.61894    246.67046 
   98600    112.14506   -1250.1915    91290.125   -21694.064    1681.4442   -23375.508    305.85662    248.49765 
   98650    111.10148   -1225.2682    91291.208   -21757.784    1665.7972   -23423.581    305.70223    246.18521 
   98700    112.33322   -1252.6688    91316.973   -21769.674    1684.2653   -23453.939    305.69225    248.91458 
   98750    109.58482   -1554.3423    91258.826   -21769.992    1643.0571   -23413.049    305.86342     242.8245 
   98800     113.8206   -960.07951    91269.677   -21773.013    1706.5662   -23479.579    306.22733    252.21039 
   98850    113.61213   -1201.1008    91306.383   -21721.122    1703.4405   -23424.563    306.19595    251.74846 
   98900    113.58268   -1010.7598    91378.881   -21722.351     1702.999    -23425.35    305.95333    251.68321 
   98950    113.10517   -1439.5605    91384.661   -21728.815    1695.8394   -23424.655    305.78801    250.62511 
   99000    114.21093   -1345.7592    91408.948   -21759.543    1712.4186   -23471.962    305.58801    253.07531 
   99050    111.82411   -1239.3245    91466.227   -21780.392     1676.632   -23457.024    306.10525    247.78647 
   99100    113.46102   -1378.8832    91478.957    -21748.97     1701.175   -23450.145    306.67609    251.41364 
   99150    113.21471   -1125.0068    91550.371   -21763.162    1697.4819   -23460.643    306.46271    250.86784 
   99200    112.97757    -1274.501     91594.41   -21749.844    1693.9263    -23443.77    306.39455    250.34236 
   99250    113.07104   -1152.6579    91623.094   -21754.299    1695.3278   -23449.627    306.05768    250.54949 
   99300    114.19388   -1380.4742    91569.347   -21751.992    1712.1631   -23464.156    306.71887    253.03755 
   99350    113.14503   -1061.0823    91531.818   -21767.379    1696.4371   -23463.816    306.45729    250.71343 
   99400    114.45434   -1215.7924    91619.631   -21741.523    1716.0683   -23457.592    306.67895    253.61469 
   99450    111.18695   -1613.1027    91624.275   -21752.639    1667.0787   -23419.718    306.71412    246.37461 
   99500    113.17002   -1567.1447    91580.463   -21755.171    1696.8118   -23451.983    306.34249     250.7688 
   99550    115.68097    -1515.226    91576.146   -21742.879    1734.4597   -23477.339     306.3615    256.33272 
   99600    112.42705   -1438.6513    91562.271   -21777.716    1685.6722   -23463.389    306.66616     249.1225 
   99650    114.07069   -1546.4051    91568.671   -21749.348    1710.3161   -23459.664    306.41689    252.76458 
   99700    113.76845   -1310.9465    91550.732   -21721.999    1705.7843   -23427.784    306.75943    252.09484 
   99750    114.43049   -1381.7792    91586.274   -21702.907    1715.7107   -23418.618     306.6321    253.56184 
   99800    113.49565   -1448.3219    91530.209   -21701.617    1701.6942   -23403.311    306.61566    251.49037 
   99850    106.48082   -1440.7896    91491.553   -21782.629    1596.5175   -23379.147    306.67135     235.9465 
   99900    110.39594   -1131.2029    91535.785   -21776.889    1655.2187   -23432.108    307.00683    244.62183 
   99950    113.87019   -1145.1462    91503.889   -21738.041    1707.3097   -23445.351    306.97722    252.32028 
  100000    113.05022   -1314.6405    91524.089   -21746.787    1695.0157   -23441.802     306.9131    250.50336 
Loop time of 42.4765 on 80 procs for 100000 steps with 5031 atoms

Performance: 1017.032 ns/day, 0.024 hours/ns, 2354.242 timesteps/s
100.0% CPU use with 80 MPI tasks x no OpenMP threads

MPI task timing breakdown:
Section |  min time  |  avg time  |  max time  |%varavg| %total
---------------------------------------------------------------
Pair    | 5.9207     | 17.489     | 24.385     | 170.3 | 41.17
Neigh   | 0.48664    | 1.253      | 3.2763     |  95.2 |  2.95
Comm    | 10.298     | 16.9       | 28.247     | 164.9 | 39.79
Output  | 0.12258    | 0.12609    | 0.25952    |   4.2 |  0.30
Modify  | 4.2414     | 5.8309     | 7.3413     |  36.5 | 13.73
Other   |            | 0.877      |            |       |  2.06

Nlocal:    62.8875 ave 144 max 28 min
Histogram: 42 18 0 0 0 0 0 0 5 15
Nghost:    671.35 ave 832 max 393 min
Histogram: 20 0 0 0 0 0 0 31 9 20
Neighs:    0 ave 0 max 0 min
Histogram: 80 0 0 0 0 0 0 0 0 0
FullNghs:  5905.07 ave 18694 max 1036 min
Histogram: 60 0 0 0 0 0 0 0 0 20

Total # of neighbors = 472406
Ave neighs/atom = 93.899
Neighbor list builds = 5958
Dangerous builds = 0

write_data		${DIR}/data.eq-${NAME}-${TEMP}
write_data		run_7/data.eq-${NAME}-${TEMP}
write_data		run_7/data.eq-het_freeze_7-${TEMP}
write_data		run_7/data.eq-het_freeze_7-250
undump          1

reset_timestep  0

unfix           2
unfix           3
unfix           4


################################################
#######         Run Simulation         #########
################################################

log				${DIR}/log.run_${NAME}
log				run_7/log.run_${NAME}
log				run_7/log.run_het_freeze_7
