LAMMPS data file via write_data, version 16 Mar 2018, timestep = 100000

4560 atoms
2 atom types

0.0000000000000000e+00 4.9219999999999999e+01 xlo xhi
0.0000000000000000e+00 4.9019635930410494e+01 ylo yhi
1.2773969697967189e+00 3.2662603030204849e+01 zlo zhi

Masses

1 18.015
2 12.01

Atoms # atomic

147 2 0.0000000000000000e+00 2.8417180249513345e+00 3.3579070135277909e+00 0 0 0
149 2 0.0000000000000000e+00 0.0000000000000000e+00 3.3579070135277909e+00 0 0 0
151 2 1.2305000000000001e+00 7.1042950623783474e-01 3.3579070135277909e+00 0 0 0
158 2 1.2305000000000001e+00 2.1312885187134998e+00 3.3579070135277909e+00 0 0 0
160 2 2.4610000000000003e+00 2.8417180249513345e+00 3.3579070135277909e+00 0 0 0
162 2 2.4610000000000003e+00 0.0000000000000000e+00 3.3579070135277909e+00 0 0 0
164 2 3.6915000000000004e+00 7.1042950623783474e-01 3.3579070135277909e+00 0 0 0
179 2 3.6914999999999996e+00 2.1312885187134998e+00 3.3579070135277909e+00 0 0 0
181 2 4.9220000000000006e+00 2.8417180249513332e+00 3.3579070135277909e+00 0 0 0
183 2 4.9220000000000006e+00 0.0000000000000000e+00 3.3579070135277909e+00 0 0 0
185 2 6.1524999999999999e+00 7.1042950623783407e-01 3.3579070135277909e+00 0 0 0
208 2 6.1524999999999999e+00 2.1312885187134989e+00 3.3579070135277909e+00 0 0 0
210 2 7.3829999999999991e+00 2.8417180249513345e+00 3.3579070135277909e+00 0 0 0
212 2 7.3829999999999991e+00 0.0000000000000000e+00 3.3579070135277909e+00 0 0 0
214 2 8.6134999999999984e+00 7.1042950623783407e-01 3.3579070135277909e+00 0 0 0
245 2 8.6134999999999984e+00 2.1312885187135002e+00 3.3579070135277909e+00 0 0 0
247 2 9.8440000000000012e+00 2.8417180249513332e+00 3.3579070135277909e+00 0 0 0
249 2 9.8440000000000012e+00 0.0000000000000000e+00 3.3579070135277909e+00 0 0 0
251 2 1.1074500000000002e+01 7.1042950623783330e-01 3.3579070135277909e+00 0 0 0
290 2 1.1074500000000002e+01 2.1312885187135002e+00 3.3579070135277909e+00 0 0 0
154 2 0.0000000000000000e+00 4.2625770374269996e+00 3.3579070135277909e+00 0 0 0
156 2 1.2305000000000001e+00 4.9730065436648339e+00 3.3579070135277909e+00 0 0 0
171 2 1.2305000000000001e+00 6.3938655561404980e+00 3.3579070135277909e+00 0 0 0
175 2 2.4610000000000003e+00 4.2625770374269996e+00 3.3579070135277909e+00 0 0 0
177 2 3.6914999999999996e+00 4.9730065436648339e+00 3.3579070135277909e+00 0 0 0
200 2 3.6914999999999996e+00 6.3938655561404980e+00 3.3579070135277909e+00 0 0 0
152 2 0.0000000000000000e+00 7.1042950623783341e+00 3.3579070135277909e+00 0 0 0
173 2 2.4610000000000003e+00 7.1042950623783341e+00 3.3579070135277909e+00 0 0 0
204 2 4.9220000000000006e+00 4.2625770374269978e+00 3.3579070135277909e+00 0 0 0
206 2 6.1524999999999999e+00 4.9730065436648339e+00 3.3579070135277909e+00 0 0 0
237 2 6.1524999999999999e+00 6.3938655561404980e+00 3.3579070135277909e+00 0 0 0
241 2 7.3829999999999991e+00 4.2625770374269996e+00 3.3579070135277909e+00 0 0 0
202 2 4.9220000000000006e+00 7.1042950623783341e+00 3.3579070135277909e+00 0 0 0
239 2 7.3830000000000009e+00 7.1042950623783341e+00 3.3579070135277909e+00 0 0 0
243 2 8.6135000000000002e+00 4.9730065436648339e+00 3.3579070135277909e+00 0 0 0
282 2 8.6135000000000002e+00 6.3938655561404980e+00 3.3579070135277909e+00 0 0 0
286 2 9.8440000000000012e+00 4.2625770374270004e+00 3.3579070135277909e+00 0 0 0
288 2 1.1074500000000002e+01 4.9730065436648339e+00 3.3579070135277909e+00 0 0 0
329 2 1.1074500000000002e+01 6.3938655561404980e+00 3.3579070135277909e+00 0 0 0
284 2 9.8440000000000012e+00 7.1042950623783341e+00 3.3579070135277909e+00 0 0 0
167 2 0.0000000000000000e+00 8.5251540748539991e+00 3.3579070135277909e+00 0 0 0
169 2 1.2305000000000001e+00 9.2355835810918343e+00 3.3579070135277909e+00 0 0 0
196 2 2.4610000000000003e+00 8.5251540748539991e+00 3.3579070135277909e+00 0 0 0
198 2 3.6915000000000004e+00 9.2355835810918343e+00 3.3579070135277909e+00 0 0 0
165 2 0.0000000000000000e+00 1.1366872099805333e+01 3.3579070135277909e+00 0 0 0
192 2 1.2305000000000001e+00 1.0656442593567498e+01 3.3579070135277909e+00 0 0 0
194 2 2.4610000000000003e+00 1.1366872099805333e+01 3.3579070135277909e+00 0 0 0
229 2 3.6914999999999996e+00 1.0656442593567499e+01 3.3579070135277909e+00 0 0 0
233 2 4.9220000000000006e+00 8.5251540748539991e+00 3.3579070135277909e+00 0 0 0
235 2 6.1524999999999999e+00 9.2355835810918343e+00 3.3579070135277909e+00 0 0 0
278 2 7.3830000000000009e+00 8.5251540748539991e+00 3.3579070135277909e+00 0 0 0
231 2 4.9220000000000006e+00 1.1366872099805333e+01 3.3579070135277909e+00 0 0 0
274 2 6.1524999999999999e+00 1.0656442593567499e+01 3.3579070135277909e+00 0 0 0
276 2 7.3829999999999991e+00 1.1366872099805333e+01 3.3579070135277909e+00 0 0 0
280 2 8.6134999999999984e+00 9.2355835810918343e+00 3.3579070135277909e+00 0 0 0
325 2 9.8440000000000012e+00 8.5251540748539956e+00 3.3579070135277909e+00 0 0 0
327 2 1.1074500000000002e+01 9.2355835810918343e+00 3.3579070135277909e+00 0 0 0
321 2 8.6134999999999984e+00 1.0656442593567498e+01 3.3579070135277909e+00 0 0 0
323 2 9.8440000000000012e+00 1.1366872099805333e+01 3.3579070135277909e+00 0 0 0
368 2 1.1074500000000002e+01 1.0656442593567498e+01 3.3579070135277909e+00 0 0 0
370 2 1.2304999999999998e+01 1.1366872099805333e+01 3.3579070135277909e+00 0 0 0
148 2 0.0000000000000000e+00 1.4208590124756650e+00 6.3432571656647481e+00 0 0 0
150 2 0.0000000000000000e+00 0.0000000000000000e+00 6.3432571656647481e+00 0 0 0
159 2 1.2305000000000001e+00 2.1312885187134998e+00 6.3432571656647481e+00 0 0 0
161 2 2.4610000000000003e+00 1.4208590124756650e+00 6.3432571656647481e+00 0 0 0
163 2 2.4610000000000003e+00 0.0000000000000000e+00 6.3432571656647481e+00 0 0 0
180 2 3.6914999999999996e+00 2.1312885187134998e+00 6.3432571656647481e+00 0 0 0
157 2 1.2305000000000001e+00 3.5521475311891644e+00 6.3432571656647481e+00 0 0 0
178 2 3.6914999999999996e+00 3.5521475311891644e+00 6.3432571656647481e+00 0 0 0
182 2 4.9220000000000006e+00 1.4208590124756650e+00 6.3432571656647481e+00 0 0 0
184 2 4.9220000000000006e+00 0.0000000000000000e+00 6.3432571656647481e+00 0 0 0
209 2 6.1524999999999999e+00 2.1312885187134989e+00 6.3432571656647481e+00 0 0 0
211 2 7.3829999999999991e+00 1.4208590124756659e+00 6.3432571656647481e+00 0 0 0
213 2 7.3829999999999991e+00 0.0000000000000000e+00 6.3432571656647481e+00 0 0 0
207 2 6.1524999999999999e+00 3.5521475311891644e+00 6.3432571656647481e+00 0 0 0
246 2 8.6134999999999984e+00 2.1312885187135002e+00 6.3432571656647481e+00 0 0 0
248 2 9.8440000000000012e+00 1.4208590124756659e+00 6.3432571656647481e+00 0 0 0
250 2 9.8440000000000012e+00 0.0000000000000000e+00 6.3432571656647481e+00 0 0 0
291 2 1.1074500000000002e+01 2.1312885187135002e+00 6.3432571656647481e+00 0 0 0
244 2 8.6134999999999984e+00 3.5521475311891657e+00 6.3432571656647481e+00 0 0 0
289 2 1.1074500000000002e+01 3.5521475311891644e+00 6.3432571656647481e+00 0 0 0
153 2 0.0000000000000000e+00 5.6834360499026637e+00 6.3432571656647481e+00 0 0 0
155 2 0.0000000000000000e+00 4.2625770374269996e+00 6.3432571656647481e+00 0 0 0
172 2 1.2305000000000001e+00 6.3938655561404980e+00 6.3432571656647481e+00 0 0 0
174 2 2.4610000000000003e+00 5.6834360499026637e+00 6.3432571656647481e+00 0 0 0
176 2 2.4610000000000003e+00 4.2625770374269996e+00 6.3432571656647481e+00 0 0 0
201 2 3.6914999999999996e+00 6.3938655561404980e+00 6.3432571656647481e+00 0 0 0
170 2 1.2305000000000001e+00 7.8147245686161639e+00 6.3432571656647481e+00 0 0 0
199 2 3.6914999999999996e+00 7.8147245686161639e+00 6.3432571656647481e+00 0 0 0
203 2 4.9220000000000006e+00 5.6834360499026637e+00 6.3432571656647481e+00 0 0 0
205 2 4.9220000000000006e+00 4.2625770374269978e+00 6.3432571656647481e+00 0 0 0
238 2 6.1524999999999999e+00 6.3938655561404980e+00 6.3432571656647481e+00 0 0 0
240 2 7.3829999999999991e+00 5.6834360499026637e+00 6.3432571656647481e+00 0 0 0
242 2 7.3829999999999991e+00 4.2625770374269996e+00 6.3432571656647481e+00 0 0 0
236 2 6.1524999999999999e+00 7.8147245686161639e+00 6.3432571656647481e+00 0 0 0
283 2 8.6135000000000002e+00 6.3938655561404980e+00 6.3432571656647481e+00 0 0 0
285 2 9.8440000000000012e+00 5.6834360499026637e+00 6.3432571656647481e+00 0 0 0
287 2 9.8440000000000012e+00 4.2625770374270004e+00 6.3432571656647481e+00 0 0 0
330 2 1.1074500000000002e+01 6.3938655561404980e+00 6.3432571656647481e+00 0 0 0
281 2 8.6135000000000002e+00 7.8147245686161639e+00 6.3432571656647481e+00 0 0 0
328 2 1.1074500000000002e+01 7.8147245686161639e+00 6.3432571656647481e+00 0 0 0
166 2 0.0000000000000000e+00 9.9460130873296642e+00 6.3432571656647481e+00 0 0 0
168 2 0.0000000000000000e+00 8.5251540748539991e+00 6.3432571656647481e+00 0 0 0
195 2 2.4610000000000003e+00 9.9460130873296642e+00 6.3432571656647481e+00 0 0 0
197 2 2.4610000000000003e+00 8.5251540748539991e+00 6.3432571656647481e+00 0 0 0
191 2 1.2305000000000001e+00 1.2077301606043163e+01 6.3432571656647481e+00 0 0 0
193 2 1.2305000000000001e+00 1.0656442593567498e+01 6.3432571656647481e+00 0 0 0
228 2 3.6914999999999996e+00 1.2077301606043163e+01 6.3432571656647481e+00 0 0 0
230 2 3.6914999999999996e+00 1.0656442593567499e+01 6.3432571656647481e+00 0 0 0
232 2 4.9220000000000006e+00 9.9460130873296642e+00 6.3432571656647481e+00 0 0 0
234 2 4.9220000000000006e+00 8.5251540748539991e+00 6.3432571656647481e+00 0 0 0
277 2 7.3830000000000009e+00 9.9460130873296642e+00 6.3432571656647481e+00 0 0 0
279 2 7.3830000000000009e+00 8.5251540748539991e+00 6.3432571656647481e+00 0 0 0
273 2 6.1524999999999999e+00 1.2077301606043163e+01 6.3432571656647481e+00 0 0 0
275 2 6.1524999999999999e+00 1.0656442593567499e+01 6.3432571656647481e+00 0 0 0
326 2 9.8440000000000012e+00 8.5251540748539956e+00 6.3432571656647481e+00 0 0 0
320 2 8.6135000000000002e+00 1.2077301606043163e+01 6.3432571656647481e+00 0 0 0
322 2 8.6134999999999984e+00 1.0656442593567498e+01 6.3432571656647481e+00 0 0 0
367 2 1.1074500000000002e+01 1.2077301606043163e+01 6.3432571656647481e+00 0 0 0
369 2 1.1074500000000002e+01 1.0656442593567498e+01 6.3432571656647481e+00 0 0 0
324 2 9.8440000000000012e+00 9.9460130873296642e+00 6.3432571656647481e+00 0 0 0
476 2 0.0000000000000000e+00 2.8417180249513345e+00 9.3286073178011772e+00 0 0 0
477 2 0.0000000000000000e+00 0.0000000000000000e+00 9.3286073178011772e+00 0 0 0
478 2 1.2305000000000001e+00 7.1042950623783474e-01 9.3286073178011772e+00 0 0 0
482 2 1.2305000000000001e+00 2.1312885187134998e+00 9.3286073178011772e+00 0 0 0
483 2 2.4610000000000003e+00 2.8417180249513345e+00 9.3286073178011772e+00 0 0 0
484 2 2.4610000000000003e+00 0.0000000000000000e+00 9.3286073178011772e+00 0 0 0
485 2 3.6915000000000004e+00 7.1042950623783474e-01 9.3286073178011772e+00 0 0 0
493 2 3.6914999999999996e+00 2.1312885187134998e+00 9.3286073178011772e+00 0 0 0
3582 1 3.4603005237431725e+00 1.9683807861058118e+00 1.1911872160839295e+01 0 1 0
494 2 4.9220000000000006e+00 2.8417180249513332e+00 9.3286073178011772e+00 0 0 0
495 2 4.9220000000000006e+00 0.0000000000000000e+00 9.3286073178011772e+00 0 0 0
496 2 6.1524999999999999e+00 7.1042950623783407e-01 9.3286073178011772e+00 0 0 0
508 2 6.1524999999999999e+00 2.1312885187134989e+00 9.3286073178011772e+00 0 0 0
509 2 7.3829999999999991e+00 2.8417180249513345e+00 9.3286073178011772e+00 0 0 0
510 2 7.3829999999999991e+00 0.0000000000000000e+00 9.3286073178011772e+00 0 0 0
3513 1 5.5062798155117063e+00 2.2763057377957024e-01 1.2428253958882845e+01 0 2 0
839 1 9.5236739381737525e+00 1.6395899292520795e+00 1.2311775711617532e+01 0 1 0
511 2 8.6134999999999984e+00 7.1042950623783407e-01 9.3286073178011772e+00 0 0 0
527 2 8.6134999999999984e+00 2.1312885187135002e+00 9.3286073178011772e+00 0 0 0
528 2 9.8440000000000012e+00 2.8417180249513332e+00 9.3286073178011772e+00 0 0 0
529 2 9.8440000000000012e+00 0.0000000000000000e+00 9.3286073178011772e+00 0 0 0
530 2 1.1074500000000002e+01 7.1042950623783330e-01 9.3286073178011772e+00 0 0 0
550 2 1.1074500000000002e+01 2.1312885187135002e+00 9.3286073178011772e+00 0 0 0
4555 1 1.1796846695120610e+01 3.3166912693095032e+00 1.3022550660724091e+01 1 -1 -1
480 2 0.0000000000000000e+00 4.2625770374269996e+00 9.3286073178011772e+00 0 0 0
481 2 1.2305000000000001e+00 4.9730065436648339e+00 9.3286073178011772e+00 0 0 0
489 2 1.2305000000000001e+00 6.3938655561404980e+00 9.3286073178011772e+00 0 0 0
491 2 2.4610000000000003e+00 4.2625770374269996e+00 9.3286073178011772e+00 0 0 0
492 2 3.6914999999999996e+00 4.9730065436648339e+00 9.3286073178011772e+00 0 0 0
504 2 3.6914999999999996e+00 6.3938655561404980e+00 9.3286073178011772e+00 0 0 0
479 2 0.0000000000000000e+00 7.1042950623783341e+00 9.3286073178011772e+00 0 0 0
490 2 2.4610000000000003e+00 7.1042950623783341e+00 9.3286073178011772e+00 0 0 0
887 1 1.7699236679420780e+00 7.4313119984768488e+00 1.3036990225672444e+01 0 0 0
96 1 3.2360140065163847e+00 5.0031532728043331e+00 1.1815230433570521e+01 0 0 0
4284 1 6.1427232828362044e+00 5.0303132799350383e+00 1.1509449971344718e+01 0 1 0
506 2 4.9220000000000006e+00 4.2625770374269978e+00 9.3286073178011772e+00 0 0 0
507 2 6.1524999999999999e+00 4.9730065436648339e+00 9.3286073178011772e+00 0 0 0
523 2 6.1524999999999999e+00 6.3938655561404980e+00 9.3286073178011772e+00 0 0 0
525 2 7.3829999999999991e+00 4.2625770374269996e+00 9.3286073178011772e+00 0 0 0
505 2 4.9220000000000006e+00 7.1042950623783341e+00 9.3286073178011772e+00 0 0 0
524 2 7.3830000000000009e+00 7.1042950623783341e+00 9.3286073178011772e+00 0 0 0
3146 1 9.7113424062002318e-01 7.9357100638008349e-01 1.4585886682340034e+01 1 0 0
526 2 8.6135000000000002e+00 4.9730065436648339e+00 9.3286073178011772e+00 0 0 0
546 2 8.6135000000000002e+00 6.3938655561404980e+00 9.3286073178011772e+00 0 0 0
548 2 9.8440000000000012e+00 4.2625770374270004e+00 9.3286073178011772e+00 0 0 0
549 2 1.1074500000000002e+01 4.9730065436648339e+00 9.3286073178011772e+00 0 0 0
570 2 1.1074500000000002e+01 6.3938655561404980e+00 9.3286073178011772e+00 0 0 0
547 2 9.8440000000000012e+00 7.1042950623783341e+00 9.3286073178011772e+00 0 0 0
2265 1 1.0168186544209474e+01 7.8135513809632071e+00 1.2386328314123169e+01 1 1 0
487 2 0.0000000000000000e+00 8.5251540748539991e+00 9.3286073178011772e+00 0 0 0
488 2 1.2305000000000001e+00 9.2355835810918343e+00 9.3286073178011772e+00 0 0 0
502 2 2.4610000000000003e+00 8.5251540748539991e+00 9.3286073178011772e+00 0 0 0
503 2 3.6915000000000004e+00 9.2355835810918343e+00 9.3286073178011772e+00 0 0 0
486 2 0.0000000000000000e+00 1.1366872099805333e+01 9.3286073178011772e+00 0 0 0
500 2 1.2305000000000001e+00 1.0656442593567498e+01 9.3286073178011772e+00 0 0 0
501 2 2.4610000000000003e+00 1.1366872099805333e+01 9.3286073178011772e+00 0 0 0
519 2 3.6914999999999996e+00 1.0656442593567499e+01 9.3286073178011772e+00 0 0 0
2186 1 1.8156980881106036e-01 1.0015157534047017e+01 1.5005815895805839e+01 1 1 0
3406 1 3.6087477417359493e+00 9.8708769513437407e+00 1.1683509951358007e+01 1 1 -1
1284 1 1.1179042123183338e+01 8.4052392231065642e+00 1.4972993384532950e+01 0 1 0
1108 1 6.4230716195672919e+00 1.0020075356915992e+01 1.2473825739639647e+01 1 0 0
930 1 7.4098555738884837e+00 7.2647635900409178e+00 1.2289534328830484e+01 0 0 -1
521 2 4.9220000000000006e+00 8.5251540748539991e+00 9.3286073178011772e+00 0 0 0
522 2 6.1524999999999999e+00 9.2355835810918343e+00 9.3286073178011772e+00 0 0 0
544 2 7.3830000000000009e+00 8.5251540748539991e+00 9.3286073178011772e+00 0 0 0
520 2 4.9220000000000006e+00 1.1366872099805333e+01 9.3286073178011772e+00 0 0 0
542 2 6.1524999999999999e+00 1.0656442593567499e+01 9.3286073178011772e+00 0 0 0
543 2 7.3829999999999991e+00 1.1366872099805333e+01 9.3286073178011772e+00 0 0 0
545 2 8.6134999999999984e+00 9.2355835810918343e+00 9.3286073178011772e+00 0 0 0
568 2 9.8440000000000012e+00 8.5251540748539956e+00 9.3286073178011772e+00 0 0 0
569 2 1.1074500000000002e+01 9.2355835810918343e+00 9.3286073178011772e+00 0 0 0
566 2 8.6134999999999984e+00 1.0656442593567498e+01 9.3286073178011772e+00 0 0 0
567 2 9.8440000000000012e+00 1.1366872099805333e+01 9.3286073178011772e+00 0 0 0
590 2 1.1074500000000002e+01 1.0656442593567498e+01 9.3286073178011772e+00 0 0 0
591 2 1.2304999999999998e+01 1.1366872099805333e+01 9.3286073178011772e+00 0 0 0
978 1 1.0808834765977073e+01 1.0445495406241127e+01 1.1756591361358348e+01 0 0 0
2037 1 3.1627324221055106e+00 1.5523125739338250e+00 1.6233728001990865e+01 0 0 -1
3392 1 2.7962851066875984e+00 5.5475961394492943e+00 1.6589591540534308e+01 1 0 0
3236 1 6.9912726802507095e+00 2.5506598328130550e+00 1.2557972641654400e+01 0 0 0
3541 1 6.6921829667208330e+00 3.7707524974437745e+00 1.4927689577908561e+01 1 0 0
1020 1 5.7038088286647382e+00 1.1278500454053988e+01 1.4987525391479764e+01 0 0 -1
4319 1 1.1564105944720843e+01 5.6046656272811948e+00 1.1640045222387823e+01 1 1 0
3347 1 1.6230398716294181e-01 6.0074610474313701e+00 1.5076333641733219e+01 1 0 -1
4427 1 8.3807446242130563e+00 1.1911117335943953e+01 1.2163254686266347e+01 0 -1 0
4423 1 3.0503075663554133e+00 9.6373489622965565e+00 1.4539381987047763e+01 1 -1 0
3576 1 3.8152014890985866e+00 3.8110643751745004e+00 1.4560256245727095e+01 1 0 0
3342 1 4.5976194119135068e+00 7.5977189031588361e+00 1.5728963033544382e+01 0 0 0
3545 1 7.1766338986560623e+00 6.6729529599969002e+00 1.5012581568960847e+01 0 0 0
3536 1 9.1645423708208771e+00 7.6455161666258888e+00 1.6455885642366276e+01 0 -1 0
2340 1 1.0323724851321607e+00 6.6943103037855700e-01 1.1933544452857621e+01 1 0 0
3180 1 3.5560365783720691e+00 3.3546221659754609e+00 1.8334875685665622e+01 0 1 0
2052 1 6.1411244423861344e+00 2.3071448132160306e+00 1.8668892662680815e+01 0 0 0
2397 1 6.5469284419630300e+00 3.0725085677877257e+00 2.1258239041204920e+01 1 -1 0
4237 1 9.6900063360626714e+00 3.4045414397816871e+00 2.2336171739609885e+01 0 0 0
1253 1 4.9196899724870509e+00 9.9317608598014484e+00 1.7383582998599433e+01 1 1 -1
4262 1 1.1937160025455837e+01 3.4711996890988344e+00 2.0716550284506980e+01 0 1 -1
1191 1 5.6752727882101253e+00 9.3975306532615939e+00 2.1987957146746893e+01 0 1 0
143 1 1.6799740626560324e+00 6.6289773909710155e+00 2.1181885469780799e+01 0 1 0
4274 1 1.0429780516953103e+01 1.3258653573012813e+00 1.7313437157987511e+01 0 1 0
1136 1 6.4036437418062997e+00 5.7469414555394476e+00 2.1237528959149145e+01 1 0 0
1258 1 1.0266929550857466e+01 8.7182858481260102e+00 2.1528567964747232e+01 1 1 0
1283 1 9.0461192379806530e+00 6.1731449203871263e+00 2.0836561428049812e+01 0 0 0
101 1 3.6216558601702626e+00 1.1567308019548232e+01 2.2804116574988527e+01 0 1 0
3303 1 2.0554483054729462e+00 9.7504889681684954e+00 1.8368639480625518e+01 0 0 0
4257 1 2.9944294543509251e+00 7.3625553276787326e+00 1.8854181287184336e+01 1 1 0
911 1 5.2845065430198641e+00 7.0262365805065734e+00 2.3564244142091049e+01 0 0 1
943 1 5.8571838866449992e+00 8.0276716052440236e+00 1.9728151284019898e+01 0 0 0
1064 1 9.7812852086779873e+00 5.5046337058681027e+00 1.8151743758568450e+01 1 1 0
70 1 1.6320725747418801e+00 1.1012160421326444e+01 2.0881525625601011e+01 0 0 0
3270 1 1.0768315060136116e+01 9.9011374062057182e+00 1.9163069061085636e+01 1 0 0
3179 1 8.0421160269153944e+00 9.8505573199274963e+00 1.7630198415514872e+01 0 1 -1
3129 1 4.5083423295341758e+00 2.9236261100956424e+00 2.2794798138305822e+01 1 0 0
2320 1 8.2961511272923651e+00 1.0332312287681511e+01 2.2315123999671599e+01 0 0 0
3514 1 8.3710494615701094e+00 3.1196567435220541e+00 1.7223108730642018e+01 0 0 0
4260 1 3.2097827001100319e+00 5.1776874586021968e+00 2.3059163210488457e+01 -1 0 0
3328 1 7.7069348479563935e+00 5.3401514570995099e+00 2.4129698149182985e+01 0 0 0
3560 1 1.2975741930970410e+00 2.5475556466453231e+00 1.9297866278429428e+01 1 1 0
4493 1 1.9307990822646988e+00 2.0905459908487201e+00 2.1920295790140546e+01 1 1 -1
61 1 1.1504410039418604e+01 5.4975101953260952e-01 1.9760748703491505e+01 0 1 0
1121 1 5.3425233061414668e+00 1.0846148079484254e-01 2.3622882854802892e+01 -1 1 -1
3517 1 1.0209786851203527e+01 6.9078596381618649e+00 2.4677346491394680e+01 -1 0 0
5 1 4.7173420577238771e-02 8.9203788424729158e+00 2.1601638446485424e+01 -1 -1 -1
1013 1 9.4351075307639682e+00 4.9462064291385843e-01 2.2004900067055647e+01 1 1 -1
4464 1 1.3225202469250050e+00 2.8356595930285805e-01 2.6620517275769917e+01 1 1 0
4382 1 5.4656356651058458e+00 3.0056140868347420e-01 2.8932025931799799e+01 0 2 0
1296 1 5.9149692778205303e+00 7.7432337467114900e+00 3.2084432617271716e+01 0 0 0
2175 1 1.1733118978304067e+00 1.2005211881102491e+01 3.1937713364651714e+01 0 0 0
1001 1 4.6383917299265098e+00 4.3528410563128794e+00 2.7052493033193585e+01 1 0 0
922 1 2.8435431146778085e+00 2.7285651396901760e+00 2.9656335023146980e+01 1 0 0
1986 1 5.7114051181637961e+00 6.8221306812584430e+00 2.7962814160984532e+01 0 0 0
1030 1 8.8290589091084293e+00 3.3596631652297400e+00 2.9405022256502324e+01 1 0 -1
2436 1 1.0672509540238407e+01 5.8211078614946441e+00 2.7168094830769011e+01 0 1 0
2060 1 4.1627055900217869e+00 1.1438191405986839e+01 3.2137919618778582e+01 -1 0 -1
1236 1 1.4594650149483503e+00 7.9213766451660268e+00 2.5865643566526664e+01 0 0 0
2011 1 8.6409346813359822e-01 6.8983207037709460e-01 2.9533899512661176e+01 1 0 0
4350 1 6.1489292272981730e+00 8.5896366240373094e+00 2.6077552614344306e+01 1 1 0
1272 1 4.4674918060871782e-01 3.0481579249768731e+00 2.5828209625662904e+01 0 -1 0
976 1 9.3943431396104931e+00 8.5505228096408246e+00 2.9167309776629160e+01 0 0 0
1968 1 8.9132147208513928e+00 8.7964929238225587e+00 2.6284942500392553e+01 -1 -1 0
8 1 7.5167838048672220e+00 1.1209214081398755e+00 3.2606696421177077e+01 0 0 0
3232 1 2.1331910008436799e+00 5.1386297094869384e+00 2.5586942357034616e+01 1 0 0
4424 1 1.1938432508982029e+01 9.8988420887214819e+00 2.8813109156079978e+01 1 1 0
914 1 1.2016239074114621e+01 6.8522815439082740e-01 2.8548137635112923e+01 0 1 -1
2079 1 1.0863866872988924e+01 3.1387293001005694e+00 2.5292661704016329e+01 0 1 0
1086 1 8.8418841379672646e+00 2.5038009547419757e+00 2.6731339445600295e+01 1 1 0
949 1 5.3415671720525317e+00 1.1013088630655039e+01 2.6722277529990304e+01 1 1 0
3327 1 1.1754994494519764e+01 1.0658885499649331e+00 3.1367723595763852e+01 0 1 -1
3284 1 3.6062710943245753e+00 8.0993045426709163e+00 2.9447350655702099e+01 1 0 -1
2230 1 4.3178030142895549e+00 7.6564544899976184e-01 2.6641065350427475e+01 1 1 -1
1244 1 1.2038225455643873e+01 9.9284497568816370e+00 3.1618394115819488e+01 0 1 0
2057 1 4.2868539988548005e+00 1.0868284377689521e+01 2.9411176645269130e+01 -1 0 -1
2105 1 1.9998304989269284e+00 5.0185699340705501e+00 3.2049885936664140e+01 1 0 0
2385 1 1.8751730153778901e+00 5.2274683642066666e+00 2.9075395985543214e+01 1 0 0
1988 1 6.2405976440530653e+00 3.8860803214585244e+00 3.2364509652813005e+01 0 1 0
3306 1 3.5819937645464504e+00 2.3648579557717113e+00 3.2536108916754884e+01 1 1 0
3404 1 5.8681183334422915e+00 3.1405267486580444e+00 2.9317221655349396e+01 1 0 0
2344 1 8.2898096337867457e+00 5.9833132791389723e+00 3.1956592382781473e+01 2 1 0
3512 1 8.3122859635180841e+00 6.0093022930116957e+00 2.9003256148788260e+01 -1 1 0
3504 1 9.3782098491493411e+00 8.7501190394413229e+00 3.2145828172488905e+01 1 0 0
1102 1 1.0759930494778787e+00 9.3583428384257505e+00 2.8749719831400480e+01 0 1 -1
2366 1 6.9853437837878019e-01 9.3298666483738213e+00 3.1664845763520180e+01 0 0 0
2083 1 7.1272113417461602e+00 1.0467947079462064e+01 3.2472229877274472e+01 -1 0 0
109 1 7.1835594468353081e+00 1.0297824457958829e+01 2.9551856178739726e+01 0 -1 0
3388 1 2.9056869720546232e+00 7.8055444758183006e+00 3.2319488533678168e+01 -1 1 0
2122 1 1.1510428914327246e+01 6.6449849541336237e+00 3.1817135174731597e+01 1 0 -1
3124 1 2.9901787431568492e+00 1.0720812940543928e+01 2.5455818003710810e+01 0 -1 0
4418 1 9.7830988582822247e+00 3.2312130281819997e+00 3.2117483273594466e+01 1 1 0
32 1 6.3580560312683376e+00 2.7294004182919176e+00 2.5509632676868240e+01 0 0 0
4307 1 9.2989972107623249e+00 1.1065026407266698e+01 2.5004796117525821e+01 1 1 0
188 2 0.0000000000000000e+00 1.2787731112280996e+01 3.3579070135277909e+00 0 0 0
190 2 1.2305000000000001e+00 1.3498160618518829e+01 3.3579070135277909e+00 0 0 0
225 2 2.4610000000000003e+00 1.2787731112280996e+01 3.3579070135277909e+00 0 0 0
227 2 3.6915000000000004e+00 1.3498160618518829e+01 3.3579070135277909e+00 0 0 0
186 2 0.0000000000000000e+00 1.5629449137232333e+01 3.3579070135277909e+00 0 0 0
221 2 1.2305000000000001e+00 1.4919019630994494e+01 3.3579070135277909e+00 0 0 0
223 2 2.4610000000000003e+00 1.5629449137232328e+01 3.3579070135277909e+00 0 0 0
266 2 3.6915000000000004e+00 1.4919019630994494e+01 3.3579070135277909e+00 0 0 0
270 2 4.9220000000000006e+00 1.2787731112280996e+01 3.3579070135277909e+00 0 0 0
272 2 6.1524999999999990e+00 1.3498160618518829e+01 3.3579070135277909e+00 0 0 0
317 2 7.3829999999999991e+00 1.2787731112280996e+01 3.3579070135277909e+00 0 0 0
268 2 4.9220000000000006e+00 1.5629449137232333e+01 3.3579070135277909e+00 0 0 0
313 2 6.1524999999999990e+00 1.4919019630994494e+01 3.3579070135277909e+00 0 0 0
315 2 7.3829999999999991e+00 1.5629449137232333e+01 3.3579070135277909e+00 0 0 0
319 2 8.6135000000000002e+00 1.3498160618518835e+01 3.3579070135277909e+00 0 0 0
364 2 9.8440000000000012e+00 1.2787731112280996e+01 3.3579070135277909e+00 0 0 0
366 2 1.1074500000000002e+01 1.3498160618518829e+01 3.3579070135277909e+00 0 0 0
360 2 8.6135000000000002e+00 1.4919019630994494e+01 3.3579070135277909e+00 0 0 0
362 2 9.8440000000000012e+00 1.5629449137232328e+01 3.3579070135277909e+00 0 0 0
402 2 1.1074500000000002e+01 1.4919019630994494e+01 3.3579070135277909e+00 0 0 0
217 2 0.0000000000000000e+00 1.7050308149707998e+01 3.3579070135277909e+00 0 0 0
262 2 2.4610000000000003e+00 1.7050308149707998e+01 3.3579070135277909e+00 0 0 0
215 2 0.0000000000000000e+00 1.9892026174659328e+01 3.3579070135277909e+00 0 0 0
219 2 1.2305000000000001e+00 1.7760737655945832e+01 3.3579070135277909e+00 0 0 0
258 2 1.2305000000000001e+00 1.9181596668421495e+01 3.3579070135277909e+00 0 0 0
260 2 2.4610000000000003e+00 1.9892026174659328e+01 3.3579070135277909e+00 0 0 0
264 2 3.6914999999999996e+00 1.7760737655945832e+01 3.3579070135277909e+00 0 0 0
305 2 3.6914999999999996e+00 1.9181596668421495e+01 3.3579070135277909e+00 0 0 0
309 2 4.9220000000000006e+00 1.7050308149707998e+01 3.3579070135277909e+00 0 0 0
356 2 7.3830000000000009e+00 1.7050308149707998e+01 3.3579070135277909e+00 0 0 0
307 2 4.9220000000000006e+00 1.9892026174659328e+01 3.3579070135277909e+00 0 0 0
311 2 6.1524999999999999e+00 1.7760737655945832e+01 3.3579070135277909e+00 0 0 0
352 2 6.1524999999999999e+00 1.9181596668421495e+01 3.3579070135277909e+00 0 0 0
354 2 7.3829999999999991e+00 1.9892026174659328e+01 3.3579070135277909e+00 0 0 0
398 2 9.8440000000000012e+00 1.7050308149707998e+01 3.3579070135277909e+00 0 0 0
432 2 1.2304999999999998e+01 1.7050308149707998e+01 3.3579070135277909e+00 0 0 0
358 2 8.6134999999999984e+00 1.7760737655945832e+01 3.3579070135277909e+00 0 0 0
394 2 8.6135000000000002e+00 1.9181596668421495e+01 3.3579070135277909e+00 0 0 0
396 2 9.8440000000000012e+00 1.9892026174659335e+01 3.3579070135277909e+00 0 0 0
400 2 1.1074500000000002e+01 1.7760737655945835e+01 3.3579070135277909e+00 0 0 0
428 2 1.1074500000000002e+01 1.9181596668421495e+01 3.3579070135277909e+00 0 0 0
252 2 0.0000000000000000e+00 2.4154603212086325e+01 3.3579070135277909e+00 0 0 0
254 2 0.0000000000000000e+00 2.1312885187134999e+01 3.3579070135277909e+00 0 0 0
256 2 1.2304999999999993e+00 2.2023314693372832e+01 3.3579070135277909e+00 0 0 0
297 2 1.2304999999999993e+00 2.3444173705848499e+01 3.3579070135277909e+00 0 0 0
299 2 2.4610000000000003e+00 2.4154603212086325e+01 3.3579070135277909e+00 0 0 0
301 2 2.4610000000000003e+00 2.1312885187134995e+01 3.3579070135277909e+00 0 0 0
303 2 3.6914999999999996e+00 2.2023314693372832e+01 3.3579070135277909e+00 0 0 0
344 2 3.6915000000000004e+00 2.3444173705848499e+01 3.3579070135277909e+00 0 0 0
346 2 4.9220000000000006e+00 2.4154603212086325e+01 3.3579070135277909e+00 0 0 0
348 2 4.9220000000000006e+00 2.1312885187134995e+01 3.3579070135277909e+00 0 0 0
350 2 6.1524999999999990e+00 2.2023314693372832e+01 3.3579070135277909e+00 0 0 0
386 2 6.1524999999999999e+00 2.3444173705848499e+01 3.3579070135277909e+00 0 0 0
388 2 7.3830000000000009e+00 2.4154603212086336e+01 3.3579070135277909e+00 0 0 0
390 2 7.3829999999999991e+00 2.1312885187134999e+01 3.3579070135277909e+00 0 0 0
392 2 8.6135000000000002e+00 2.2023314693372832e+01 3.3579070135277909e+00 0 0 0
420 2 8.6134999999999984e+00 2.3444173705848499e+01 3.3579070135277909e+00 0 0 0
422 2 9.8440000000000012e+00 2.4154603212086336e+01 3.3579070135277909e+00 0 0 0
424 2 9.8440000000000012e+00 2.1312885187134999e+01 3.3579070135277909e+00 0 0 0
426 2 1.1074500000000002e+01 2.2023314693372832e+01 3.3579070135277909e+00 0 0 0
446 2 1.1074500000000002e+01 2.3444173705848499e+01 3.3579070135277909e+00 0 0 0
189 2 0.0000000000000000e+00 1.2787731112280996e+01 6.3432571656647481e+00 0 0 0
226 2 2.4610000000000003e+00 1.2787731112280996e+01 6.3432571656647481e+00 0 0 0
187 2 0.0000000000000000e+00 1.4208590124756663e+01 6.3432571656647481e+00 0 0 0
222 2 1.2305000000000001e+00 1.4919019630994494e+01 6.3432571656647481e+00 0 0 0
224 2 2.4610000000000003e+00 1.4208590124756663e+01 6.3432571656647481e+00 0 0 0
267 2 3.6915000000000004e+00 1.4919019630994494e+01 6.3432571656647481e+00 0 0 0
271 2 4.9220000000000006e+00 1.2787731112280996e+01 6.3432571656647481e+00 0 0 0
318 2 7.3829999999999991e+00 1.2787731112280996e+01 6.3432571656647481e+00 0 0 0
269 2 4.9220000000000006e+00 1.4208590124756663e+01 6.3432571656647481e+00 0 0 0
314 2 6.1524999999999990e+00 1.4919019630994494e+01 6.3432571656647481e+00 0 0 0
316 2 7.3830000000000009e+00 1.4208590124756663e+01 6.3432571656647481e+00 0 0 0
365 2 9.8440000000000012e+00 1.2787731112280996e+01 6.3432571656647481e+00 0 0 0
361 2 8.6135000000000002e+00 1.4919019630994494e+01 6.3432571656647481e+00 0 0 0
363 2 9.8440000000000012e+00 1.4208590124756663e+01 6.3432571656647481e+00 0 0 0