LAMMPS data file via write_data, version 16 Mar 2018, timestep = 8000000

4560 atoms
2 atom types

0.0000000000000000e+00 4.9219999999999999e+01 xlo xhi
0.0000000000000000e+00 4.9019635930410494e+01 ylo yhi
4.9591389291211030e-01 3.3444086107097441e+01 zlo zhi

Masses

1 18.015
2 12.01

Atoms # atomic

147 2 0.0000000000000000e+00 2.8417180249513345e+00 2.6800322027371553e+00 0 0 0
149 2 0.0000000000000000e+00 0.0000000000000000e+00 2.6800322027371553e+00 0 0 0
151 2 1.2305000000000001e+00 7.1042950623783474e-01 2.6800322027371553e+00 0 0 0
158 2 1.2305000000000001e+00 2.1312885187134998e+00 2.6800322027371553e+00 0 0 0
160 2 2.4610000000000003e+00 2.8417180249513345e+00 2.6800322027371553e+00 0 0 0
162 2 2.4610000000000003e+00 0.0000000000000000e+00 2.6800322027371553e+00 0 0 0
164 2 3.6915000000000004e+00 7.1042950623783474e-01 2.6800322027371553e+00 0 0 0
179 2 3.6914999999999996e+00 2.1312885187134998e+00 2.6800322027371553e+00 0 0 0
181 2 4.9220000000000006e+00 2.8417180249513332e+00 2.6800322027371553e+00 0 0 0
183 2 4.9220000000000006e+00 0.0000000000000000e+00 2.6800322027371553e+00 0 0 0
185 2 6.1524999999999999e+00 7.1042950623783407e-01 2.6800322027371553e+00 0 0 0
208 2 6.1524999999999999e+00 2.1312885187134989e+00 2.6800322027371553e+00 0 0 0
210 2 7.3829999999999991e+00 2.8417180249513345e+00 2.6800322027371553e+00 0 0 0
212 2 7.3829999999999991e+00 0.0000000000000000e+00 2.6800322027371553e+00 0 0 0
214 2 8.6134999999999984e+00 7.1042950623783407e-01 2.6800322027371553e+00 0 0 0
245 2 8.6134999999999984e+00 2.1312885187135002e+00 2.6800322027371553e+00 0 0 0
247 2 9.8440000000000012e+00 2.8417180249513332e+00 2.6800322027371553e+00 0 0 0
249 2 9.8440000000000012e+00 0.0000000000000000e+00 2.6800322027371553e+00 0 0 0
251 2 1.1074500000000002e+01 7.1042950623783330e-01 2.6800322027371553e+00 0 0 0
290 2 1.1074500000000002e+01 2.1312885187135002e+00 2.6800322027371553e+00 0 0 0
154 2 0.0000000000000000e+00 4.2625770374269996e+00 2.6800322027371553e+00 0 0 0
156 2 1.2305000000000001e+00 4.9730065436648339e+00 2.6800322027371553e+00 0 0 0
171 2 1.2305000000000001e+00 6.3938655561404980e+00 2.6800322027371553e+00 0 0 0
175 2 2.4610000000000003e+00 4.2625770374269996e+00 2.6800322027371553e+00 0 0 0
177 2 3.6914999999999996e+00 4.9730065436648339e+00 2.6800322027371553e+00 0 0 0
200 2 3.6914999999999996e+00 6.3938655561404980e+00 2.6800322027371553e+00 0 0 0
152 2 0.0000000000000000e+00 7.1042950623783341e+00 2.6800322027371553e+00 0 0 0
173 2 2.4610000000000003e+00 7.1042950623783341e+00 2.6800322027371553e+00 0 0 0
204 2 4.9220000000000006e+00 4.2625770374269978e+00 2.6800322027371553e+00 0 0 0
206 2 6.1524999999999999e+00 4.9730065436648339e+00 2.6800322027371553e+00 0 0 0
237 2 6.1524999999999999e+00 6.3938655561404980e+00 2.6800322027371553e+00 0 0 0
241 2 7.3829999999999991e+00 4.2625770374269996e+00 2.6800322027371553e+00 0 0 0
202 2 4.9220000000000006e+00 7.1042950623783341e+00 2.6800322027371553e+00 0 0 0
239 2 7.3830000000000009e+00 7.1042950623783341e+00 2.6800322027371553e+00 0 0 0
243 2 8.6135000000000002e+00 4.9730065436648339e+00 2.6800322027371553e+00 0 0 0
282 2 8.6135000000000002e+00 6.3938655561404980e+00 2.6800322027371553e+00 0 0 0
286 2 9.8440000000000012e+00 4.2625770374270004e+00 2.6800322027371553e+00 0 0 0
288 2 1.1074500000000002e+01 4.9730065436648339e+00 2.6800322027371553e+00 0 0 0
329 2 1.1074500000000002e+01 6.3938655561404980e+00 2.6800322027371553e+00 0 0 0
284 2 9.8440000000000012e+00 7.1042950623783341e+00 2.6800322027371553e+00 0 0 0
167 2 0.0000000000000000e+00 8.5251540748539991e+00 2.6800322027371553e+00 0 0 0
169 2 1.2305000000000001e+00 9.2355835810918343e+00 2.6800322027371553e+00 0 0 0
196 2 2.4610000000000003e+00 8.5251540748539991e+00 2.6800322027371553e+00 0 0 0
198 2 3.6915000000000004e+00 9.2355835810918343e+00 2.6800322027371553e+00 0 0 0
165 2 0.0000000000000000e+00 1.1366872099805333e+01 2.6800322027371553e+00 0 0 0
192 2 1.2305000000000001e+00 1.0656442593567498e+01 2.6800322027371553e+00 0 0 0
194 2 2.4610000000000003e+00 1.1366872099805333e+01 2.6800322027371553e+00 0 0 0
229 2 3.6914999999999996e+00 1.0656442593567499e+01 2.6800322027371553e+00 0 0 0
233 2 4.9220000000000006e+00 8.5251540748539991e+00 2.6800322027371553e+00 0 0 0
235 2 6.1524999999999999e+00 9.2355835810918343e+00 2.6800322027371553e+00 0 0 0
278 2 7.3830000000000009e+00 8.5251540748539991e+00 2.6800322027371553e+00 0 0 0
231 2 4.9220000000000006e+00 1.1366872099805333e+01 2.6800322027371553e+00 0 0 0
274 2 6.1524999999999999e+00 1.0656442593567499e+01 2.6800322027371553e+00 0 0 0
276 2 7.3829999999999991e+00 1.1366872099805333e+01 2.6800322027371553e+00 0 0 0
280 2 8.6134999999999984e+00 9.2355835810918343e+00 2.6800322027371553e+00 0 0 0
325 2 9.8440000000000012e+00 8.5251540748539956e+00 2.6800322027371553e+00 0 0 0
327 2 1.1074500000000002e+01 9.2355835810918343e+00 2.6800322027371553e+00 0 0 0
321 2 8.6134999999999984e+00 1.0656442593567498e+01 2.6800322027371553e+00 0 0 0
323 2 9.8440000000000012e+00 1.1366872099805333e+01 2.6800322027371553e+00 0 0 0
368 2 1.1074500000000002e+01 1.0656442593567498e+01 2.6800322027371553e+00 0 0 0
370 2 1.2304999999999998e+01 1.1366872099805333e+01 2.6800322027371553e+00 0 0 0
148 2 0.0000000000000000e+00 1.4208590124756650e+00 5.8140511651415272e+00 0 0 0
150 2 0.0000000000000000e+00 0.0000000000000000e+00 5.8140511651415272e+00 0 0 0
159 2 1.2305000000000001e+00 2.1312885187134998e+00 5.8140511651415272e+00 0 0 0
161 2 2.4610000000000003e+00 1.4208590124756650e+00 5.8140511651415272e+00 0 0 0
163 2 2.4610000000000003e+00 0.0000000000000000e+00 5.8140511651415272e+00 0 0 0
180 2 3.6914999999999996e+00 2.1312885187134998e+00 5.8140511651415272e+00 0 0 0
157 2 1.2305000000000001e+00 3.5521475311891644e+00 5.8140511651415272e+00 0 0 0
178 2 3.6914999999999996e+00 3.5521475311891644e+00 5.8140511651415272e+00 0 0 0
182 2 4.9220000000000006e+00 1.4208590124756650e+00 5.8140511651415272e+00 0 0 0
184 2 4.9220000000000006e+00 0.0000000000000000e+00 5.8140511651415272e+00 0 0 0
209 2 6.1524999999999999e+00 2.1312885187134989e+00 5.8140511651415272e+00 0 0 0
211 2 7.3829999999999991e+00 1.4208590124756659e+00 5.8140511651415272e+00 0 0 0
213 2 7.3829999999999991e+00 0.0000000000000000e+00 5.8140511651415272e+00 0 0 0
207 2 6.1524999999999999e+00 3.5521475311891644e+00 5.8140511651415272e+00 0 0 0
246 2 8.6134999999999984e+00 2.1312885187135002e+00 5.8140511651415272e+00 0 0 0
248 2 9.8440000000000012e+00 1.4208590124756659e+00 5.8140511651415272e+00 0 0 0
250 2 9.8440000000000012e+00 0.0000000000000000e+00 5.8140511651415272e+00 0 0 0
291 2 1.1074500000000002e+01 2.1312885187135002e+00 5.8140511651415272e+00 0 0 0
244 2 8.6134999999999984e+00 3.5521475311891657e+00 5.8140511651415272e+00 0 0 0
289 2 1.1074500000000002e+01 3.5521475311891644e+00 5.8140511651415272e+00 0 0 0
153 2 0.0000000000000000e+00 5.6834360499026637e+00 5.8140511651415272e+00 0 0 0
155 2 0.0000000000000000e+00 4.2625770374269996e+00 5.8140511651415272e+00 0 0 0
172 2 1.2305000000000001e+00 6.3938655561404980e+00 5.8140511651415272e+00 0 0 0
174 2 2.4610000000000003e+00 5.6834360499026637e+00 5.8140511651415272e+00 0 0 0
176 2 2.4610000000000003e+00 4.2625770374269996e+00 5.8140511651415272e+00 0 0 0
201 2 3.6914999999999996e+00 6.3938655561404980e+00 5.8140511651415272e+00 0 0 0
170 2 1.2305000000000001e+00 7.8147245686161639e+00 5.8140511651415272e+00 0 0 0
199 2 3.6914999999999996e+00 7.8147245686161639e+00 5.8140511651415272e+00 0 0 0
203 2 4.9220000000000006e+00 5.6834360499026637e+00 5.8140511651415272e+00 0 0 0
205 2 4.9220000000000006e+00 4.2625770374269978e+00 5.8140511651415272e+00 0 0 0
238 2 6.1524999999999999e+00 6.3938655561404980e+00 5.8140511651415272e+00 0 0 0
240 2 7.3829999999999991e+00 5.6834360499026637e+00 5.8140511651415272e+00 0 0 0
242 2 7.3829999999999991e+00 4.2625770374269996e+00 5.8140511651415272e+00 0 0 0
236 2 6.1524999999999999e+00 7.8147245686161639e+00 5.8140511651415272e+00 0 0 0
283 2 8.6135000000000002e+00 6.3938655561404980e+00 5.8140511651415272e+00 0 0 0
285 2 9.8440000000000012e+00 5.6834360499026637e+00 5.8140511651415272e+00 0 0 0
287 2 9.8440000000000012e+00 4.2625770374270004e+00 5.8140511651415272e+00 0 0 0
330 2 1.1074500000000002e+01 6.3938655561404980e+00 5.8140511651415272e+00 0 0 0
281 2 8.6135000000000002e+00 7.8147245686161639e+00 5.8140511651415272e+00 0 0 0
328 2 1.1074500000000002e+01 7.8147245686161639e+00 5.8140511651415272e+00 0 0 0
166 2 0.0000000000000000e+00 9.9460130873296642e+00 5.8140511651415272e+00 0 0 0
168 2 0.0000000000000000e+00 8.5251540748539991e+00 5.8140511651415272e+00 0 0 0
195 2 2.4610000000000003e+00 9.9460130873296642e+00 5.8140511651415272e+00 0 0 0
197 2 2.4610000000000003e+00 8.5251540748539991e+00 5.8140511651415272e+00 0 0 0
191 2 1.2305000000000001e+00 1.2077301606043163e+01 5.8140511651415272e+00 0 0 0
193 2 1.2305000000000001e+00 1.0656442593567498e+01 5.8140511651415272e+00 0 0 0
228 2 3.6914999999999996e+00 1.2077301606043163e+01 5.8140511651415272e+00 0 0 0
230 2 3.6914999999999996e+00 1.0656442593567499e+01 5.8140511651415272e+00 0 0 0
232 2 4.9220000000000006e+00 9.9460130873296642e+00 5.8140511651415272e+00 0 0 0
234 2 4.9220000000000006e+00 8.5251540748539991e+00 5.8140511651415272e+00 0 0 0
277 2 7.3830000000000009e+00 9.9460130873296642e+00 5.8140511651415272e+00 0 0 0
279 2 7.3830000000000009e+00 8.5251540748539991e+00 5.8140511651415272e+00 0 0 0
273 2 6.1524999999999999e+00 1.2077301606043163e+01 5.8140511651415272e+00 0 0 0
275 2 6.1524999999999999e+00 1.0656442593567499e+01 5.8140511651415272e+00 0 0 0
324 2 9.8440000000000012e+00 9.9460130873296642e+00 5.8140511651415272e+00 0 0 0
322 2 8.6134999999999984e+00 1.0656442593567498e+01 5.8140511651415272e+00 0 0 0
367 2 1.1074500000000002e+01 1.2077301606043163e+01 5.8140511651415272e+00 0 0 0
369 2 1.1074500000000002e+01 1.0656442593567498e+01 5.8140511651415272e+00 0 0 0
326 2 9.8440000000000012e+00 8.5251540748539956e+00 5.8140511651415272e+00 0 0 0
320 2 8.6135000000000002e+00 1.2077301606043163e+01 5.8140511651415272e+00 0 0 0
476 2 0.0000000000000000e+00 2.8417180249513345e+00 8.9480701275397720e+00 0 0 0
477 2 0.0000000000000000e+00 0.0000000000000000e+00 8.9480701275397720e+00 0 0 0
478 2 1.2305000000000001e+00 7.1042950623783474e-01 8.9480701275397720e+00 0 0 0
482 2 1.2305000000000001e+00 2.1312885187134998e+00 8.9480701275397720e+00 0 0 0
483 2 2.4610000000000003e+00 2.8417180249513345e+00 8.9480701275397720e+00 0 0 0
484 2 2.4610000000000003e+00 0.0000000000000000e+00 8.9480701275397720e+00 0 0 0
485 2 3.6915000000000004e+00 7.1042950623783474e-01 8.9480701275397720e+00 0 0 0
493 2 3.6914999999999996e+00 2.1312885187134998e+00 8.9480701275397720e+00 0 0 0
1156 1 1.7869063041608632e-01 3.2836465460574429e+00 1.1602777987467295e+01 -1 2 0
2333 1 1.1732364832555739e+01 8.6032516925659142e+00 1.5566571354849838e+01 0 0 0
2014 1 5.2684480018696451e+00 7.1267318053086015e-01 1.1920689553980996e+01 2 4 0
494 2 4.9220000000000006e+00 2.8417180249513332e+00 8.9480701275397720e+00 0 0 0
495 2 4.9220000000000006e+00 0.0000000000000000e+00 8.9480701275397720e+00 0 0 0
496 2 6.1524999999999999e+00 7.1042950623783407e-01 8.9480701275397720e+00 0 0 0
508 2 6.1524999999999999e+00 2.1312885187134989e+00 8.9480701275397720e+00 0 0 0
509 2 7.3829999999999991e+00 2.8417180249513345e+00 8.9480701275397720e+00 0 0 0
510 2 7.3829999999999991e+00 0.0000000000000000e+00 8.9480701275397720e+00 0 0 0
2358 1 4.7620177456050596e+00 3.4127889277148742e+00 1.1775715607755082e+01 1 -1 0
511 2 8.6134999999999984e+00 7.1042950623783407e-01 8.9480701275397720e+00 0 0 0
527 2 8.6134999999999984e+00 2.1312885187135002e+00 8.9480701275397720e+00 0 0 0
528 2 9.8440000000000012e+00 2.8417180249513332e+00 8.9480701275397720e+00 0 0 0
529 2 9.8440000000000012e+00 0.0000000000000000e+00 8.9480701275397720e+00 0 0 0
530 2 1.1074500000000002e+01 7.1042950623783330e-01 8.9480701275397720e+00 0 0 0
550 2 1.1074500000000002e+01 2.1312885187135002e+00 8.9480701275397720e+00 0 0 0
884 1 9.8159619779282963e+00 1.3537532156212653e+00 1.1869339696241848e+01 0 1 0
4259 1 2.4699455369663283e+00 4.6849507695629811e+00 1.1527622999087670e+01 1 3 0
480 2 0.0000000000000000e+00 4.2625770374269996e+00 8.9480701275397720e+00 0 0 0
481 2 1.2305000000000001e+00 4.9730065436648339e+00 8.9480701275397720e+00 0 0 0
489 2 1.2305000000000001e+00 6.3938655561404980e+00 8.9480701275397720e+00 0 0 0
491 2 2.4610000000000003e+00 4.2625770374269996e+00 8.9480701275397720e+00 0 0 0
492 2 3.6914999999999996e+00 4.9730065436648339e+00 8.9480701275397720e+00 0 0 0
504 2 3.6914999999999996e+00 6.3938655561404980e+00 8.9480701275397720e+00 0 0 0
479 2 0.0000000000000000e+00 7.1042950623783341e+00 8.9480701275397720e+00 0 0 0
490 2 2.4610000000000003e+00 7.1042950623783341e+00 8.9480701275397720e+00 0 0 0
1187 1 2.3287599982973402e+00 7.3368966531701565e+00 1.1397307362561738e+01 0 2 0
506 2 4.9220000000000006e+00 4.2625770374269978e+00 8.9480701275397720e+00 0 0 0
507 2 6.1524999999999999e+00 4.9730065436648339e+00 8.9480701275397720e+00 0 0 0
523 2 6.1524999999999999e+00 6.3938655561404980e+00 8.9480701275397720e+00 0 0 0
525 2 7.3829999999999991e+00 4.2625770374269996e+00 8.9480701275397720e+00 0 0 0
505 2 4.9220000000000006e+00 7.1042950623783341e+00 8.9480701275397720e+00 0 0 0
524 2 7.3830000000000009e+00 7.1042950623783341e+00 8.9480701275397720e+00 0 0 0
1060 1 7.0768046850861817e+00 5.0633512543339716e+00 1.1656211248522945e+01 1 1 0
4428 1 7.0233743493017498e+00 7.7511763389586461e+00 1.1546492602375890e+01 1 2 0
4457 1 9.6480508354811931e+00 3.9974954025946432e+00 1.1817646815358243e+01 -1 -1 0
526 2 8.6135000000000002e+00 4.9730065436648339e+00 8.9480701275397720e+00 0 0 0
546 2 8.6135000000000002e+00 6.3938655561404980e+00 8.9480701275397720e+00 0 0 0
548 2 9.8440000000000012e+00 4.2625770374270004e+00 8.9480701275397720e+00 0 0 0
549 2 1.1074500000000002e+01 4.9730065436648339e+00 8.9480701275397720e+00 0 0 0
570 2 1.1074500000000002e+01 6.3938655561404980e+00 8.9480701275397720e+00 0 0 0
547 2 9.8440000000000012e+00 7.1042950623783341e+00 8.9480701275397720e+00 0 0 0
1240 1 8.8486921686155995e+00 1.2231250274664381e+01 1.5946541779819796e+01 -1 1 0
3578 1 1.1677005517906558e+01 8.4389113822560269e+00 1.1487047740852216e+01 0 0 0
487 2 0.0000000000000000e+00 8.5251540748539991e+00 8.9480701275397720e+00 0 0 0
488 2 1.2305000000000001e+00 9.2355835810918343e+00 8.9480701275397720e+00 0 0 0
502 2 2.4610000000000003e+00 8.5251540748539991e+00 8.9480701275397720e+00 0 0 0
503 2 3.6915000000000004e+00 9.2355835810918343e+00 8.9480701275397720e+00 0 0 0
486 2 0.0000000000000000e+00 1.1366872099805333e+01 8.9480701275397720e+00 0 0 0
500 2 1.2305000000000001e+00 1.0656442593567498e+01 8.9480701275397720e+00 0 0 0
501 2 2.4610000000000003e+00 1.1366872099805333e+01 8.9480701275397720e+00 0 0 0
519 2 3.6914999999999996e+00 1.0656442593567499e+01 8.9480701275397720e+00 0 0 0
4383 1 9.2866851893504592e+00 9.7616983401457524e+00 1.4772756718167521e+01 1 0 0
3197 1 4.4861362766400878e+00 8.7899230506835657e+00 1.2283460748822746e+01 -1 1 0
521 2 4.9220000000000006e+00 8.5251540748539991e+00 8.9480701275397720e+00 0 0 0
522 2 6.1524999999999999e+00 9.2355835810918343e+00 8.9480701275397720e+00 0 0 0
544 2 7.3830000000000009e+00 8.5251540748539991e+00 8.9480701275397720e+00 0 0 0
520 2 4.9220000000000006e+00 1.1366872099805333e+01 8.9480701275397720e+00 0 0 0
542 2 6.1524999999999999e+00 1.0656442593567499e+01 8.9480701275397720e+00 0 0 0
543 2 7.3829999999999991e+00 1.1366872099805333e+01 8.9480701275397720e+00 0 0 0
2141 1 4.3194619382090176e+00 1.1555841314088493e+01 1.1969073827833300e+01 0 0 1
2010 1 9.1176596570445003e+00 9.7246074659829134e+00 1.1955038882891831e+01 2 -1 0
545 2 8.6134999999999984e+00 9.2355835810918343e+00 8.9480701275397720e+00 0 0 0
568 2 9.8440000000000012e+00 8.5251540748539956e+00 8.9480701275397720e+00 0 0 0
569 2 1.1074500000000002e+01 9.2355835810918343e+00 8.9480701275397720e+00 0 0 0
566 2 8.6134999999999984e+00 1.0656442593567498e+01 8.9480701275397720e+00 0 0 0
567 2 9.8440000000000012e+00 1.1366872099805333e+01 8.9480701275397720e+00 0 0 0
590 2 1.1074500000000002e+01 1.0656442593567498e+01 8.9480701275397720e+00 0 0 0
591 2 1.2304999999999998e+01 1.1366872099805333e+01 8.9480701275397720e+00 0 0 0
1268 1 7.0435432356184968e-01 3.1632096087510484e+00 1.4996609573641541e+01 -1 2 0
3498 1 4.6033856393411443e-01 2.8430554870347441e-01 1.1897368922292950e+01 1 3 0
4553 1 5.4037193743457674e+00 7.4963520630488156e-01 1.4697856893752920e+01 1 -1 0
3219 1 4.9060483600634877e+00 3.4567976169609076e+00 1.4969317981170676e+01 0 1 0
985 1 1.0202065384643719e+01 1.3222936505724996e+00 1.4494473636323900e+01 0 -1 -1
4274 1 9.5664606934956833e+00 4.2739733938643161e+00 1.4898450825540785e+01 0 -1 0
79 1 2.5117501035942249e+00 4.7296450252368896e+00 1.4382840631425751e+01 2 -2 0
3236 1 2.4025767477813913e+00 7.2908563415352088e+00 1.5402787832279442e+01 0 -1 0
3434 1 7.0768505245257050e+00 5.4866529433026185e+00 1.4440452266485458e+01 -2 -1 0
54 1 7.0852245288882214e+00 8.2409674210782988e+00 1.5111310525700272e+01 0 1 0
2090 1 1.3057143520627079e-01 8.6614686363688413e+00 1.1554875888289374e+01 -2 3 0
2300 1 2.5809179167602192e-01 1.6155104650761173e-01 1.4680020372078506e+01 -1 1 0
2380 1 4.5074390630191479e+00 9.2574008575445319e+00 1.4994932756797841e+01 1 2 0
107 1 4.2615267410613171e+00 1.1988330830985788e+01 1.5344550963766327e+01 -3 -1 0
2163 1 1.1950297052488958e+01 5.4903305507710689e+00 1.1684624981131277e+01 3 0 -1
1119 1 1.1950844821208962e+01 5.8479503887516486e+00 1.4379891544744144e+01 0 -2 0
120 1 8.2905381295093547e-02 8.5100539803435371e+00 1.4392032229707718e+01 -1 0 0
1091 1 6.9131235259442314e-01 3.1175155116628508e+00 1.8021898239407857e+01 -1 -1 0
3387 1 4.6496227603687584e-01 3.2113062843846283e+00 2.2279477361794768e+01 1 -3 0
1115 1 5.4322638839062831e+00 1.2174416864234081e+00 1.9279034844631763e+01 -1 -1 0
2273 1 5.2967135455386121e+00 3.5204734097113790e+00 1.7877269377333040e+01 1 0 -1
3171 1 1.0094909203547743e+01 1.3555199494234078e+00 1.8920474151608918e+01 2 -2 0
4327 1 9.7314926599175724e+00 4.2443060781851729e+00 1.7683346816477975e+01 4 -2 0
2192 1 2.8310857017432558e+00 4.7563753362827024e+00 1.8493606962119475e+01 -1 1 0
4485 1 2.6401107539659692e+00 7.4286740535080220e+00 1.8278215322612088e+01 4 -1 0
1113 1 7.3322953859969884e+00 5.2398602790992337e+00 1.8716470711200586e+01 0 -1 0
3127 1 7.3020660124759660e+00 8.0328342362946668e+00 1.7963950065962372e+01 1 1 0
1079 1 1.0032882013616036e+00 2.8101542173183053e-01 2.1952532091507130e+01 3 -1 -1
3322 1 4.6323127237289787e+00 1.1612941311604340e+01 1.8176226883022487e+01 1 -1 0
3305 1 4.9377925545897723e+00 9.0004109814009450e+00 1.8972173949795209e+01 1 -1 0
911 1 4.5055599180846118e+00 9.1082272665454358e+00 2.1600169606227478e+01 1 0 1
2350 1 9.4791529074511161e+00 9.1995404195138395e+00 1.9284709095505132e+01 -1 0 0
3308 1 1.1931505759778259e+01 8.2592817056954004e+00 1.8165737894819973e+01 -1 2 0
4245 1 1.2088530023733455e+01 5.6709772993155783e+00 1.8815484867070310e+01 0 0 0
3167 1 9.3433656829483756e+00 9.4584667261715829e+00 2.1879829678986781e+01 1 1 -1
3225 1 5.4464590157925965e+00 1.2869439464001950e+00 2.1787441566299897e+01 1 -1 -1
2154 1 4.8616823533238556e+00 4.0173023600254458e+00 2.2279706518498678e+01 -2 -1 0
3437 1 1.0075684598122590e+01 1.7408541474584227e+00 2.1780259748720770e+01 1 0 0
2057 1 9.2640852117419765e+00 1.2183423586930882e+01 2.2617296146805295e+01 3 0 -1
4331 1 2.1387850344605797e+00 7.5651425286143397e+00 2.2308165707462074e+01 1 1 0
2245 1 2.2995273440901882e+00 4.8086758830614267e+00 2.1398411418539094e+01 1 0 0
4426 1 6.9510417006582301e+00 5.3392106807421253e+00 2.1547902975356518e+01 -2 2 -1
3289 1 7.0441836771282080e+00 8.0862455193351970e+00 2.2506677765710773e+01 1 0 -1
2111 1 9.7429079534674461e+00 4.6359851337108076e+00 2.2353767254150082e+01 0 2 0
2287 1 1.1834161438921193e+01 8.2686425367396676e+00 2.2452636369667090e+01 -1 1 0
3480 1 5.5896987415390231e-01 6.0343562943811824e-01 1.9243675843488138e+01 -1 0 0
3123 1 4.4935932701955892e+00 1.1805505097395104e+01 2.2681103255646050e+01 -1 -2 0
1994 1 1.2143255154532994e+01 5.6872326786368843e+00 2.1688191549110336e+01 0 0 0
1275 1 7.8383602076916006e+00 3.0501231747250301e-01 2.2545691332407021e+01 0 -3 0
4236 1 8.8368558899778300e+00 1.1779107935597274e+01 1.8452015008762686e+01 0 3 0
3331 1 1.2298243471125950e+01 4.8137525702780531e-01 2.2696487521854905e+01 1 3 0
3165 1 4.9819525447983493e+00 3.5369133432503914e+00 2.5149844780960716e+01 1 0 0
1271 1 1.1516854928721770e+01 8.2844128123892258e+00 2.5049807596015526e+01 0 -1 1
3475 1 2.0061525850163640e+00 7.5432989287814749e+00 2.5165606122529869e+01 2 1 1
947 1 9.4932931949885120e+00 4.3554917033293723e+00 2.5140944531746349e+01 -1 -1 -1
895 1 6.8307305774028004e-01 2.9495062389906606e+00 2.5122935620707871e+01 -1 -1 0
4398 1 3.0735680682042159e+00 1.9702437508560056e+00 2.6095805258990968e+01 1 2 -1
3139 1 1.6243710948176193e-01 5.7088816776874500e+00 2.5861712137986231e+01 0 -1 0
1032 1 3.0770194763686556e+00 2.1391036795679814e+00 2.8928400970485253e+01 1 -5 0
960 1 5.1888510519639486e-01 6.2635233765691618e+00 3.3224164187161648e+01 0 0 0
4272 1 7.4564561896130686e+00 2.8338962722617911e+00 2.6145418140067825e+01 -1 -1 -1
1050 1 7.8282799932977936e+00 2.4267891777310724e+00 2.8856882368278804e+01 3 4 -1
4510 1 8.0653945617376905e+00 1.9072837648239016e-01 2.5427471767818457e+01 0 2 0
2044 1 9.5002066233399542e+00 9.2533114912938963e+00 3.2598313951677142e+01 -1 2 0
1291 1 3.1221639551633862e+00 2.4907335560772217e+00 3.3300530081441849e+01 4 3 0
1151 1 4.6700220297212063e+00 8.9666991662682811e+00 2.9890386645582101e+01 0 0 0
4467 1 7.7382992314905730e-01 6.3095961496144515e+00 2.8611443848516455e+01 0 0 0
3532 1 9.0757017648933722e+00 1.1960078685407325e+01 2.5354972229552953e+01 -3 1 1
4405 1 4.5059930982620617e+00 6.5269412173099708e+00 2.6172344942007822e+01 -1 0 0
2104 1 4.8471723671794251e+00 6.1076416834487732e+00 2.8813872813100808e+01 0 -1 0
2135 1 4.8394753523474598e+00 9.2049979158204653e+00 3.2508215571692446e+01 -1 -1 0
3513 1 9.2770912301178186e+00 7.0510156184331594e+00 2.6080857013553160e+01 -2 2 0
3483 1 9.4831493871860992e+00 6.7597728402669066e+00 2.8858283980851521e+01 0 1 0
2438 1 1.8396354085653031e+00 1.0118806586533658e+01 2.6048416019813260e+01 1 -1 0
125 1 9.8000596876579120e+00 9.2496601041146835e+00 2.9916283989835435e+01 -1 1 0
2043 1 6.7970881334263211e+00 1.0403421421971146e+01 2.6291713660110357e+01 2 2 0
954 1 7.5195509698859402e+00 5.0603429825047801e+00 2.9776800048275174e+01 -2 -1 -1
3259 1 1.1675191106848272e+01 1.0989909671358546e+01 2.6127393688605050e+01 3 -1 0
3342 1 1.1573190327696794e+01 1.1033078799127001e+01 2.8928676513170764e+01 -1 -2 0
2140 1 2.7762836224511034e-02 8.9426737504852358e+00 2.9464243406795170e+01 -2 0 0
2086 1 7.3873170193081368e+00 5.1671347791443480e+00 3.2484605599235110e+01 -1 1 0
102 1 1.3133297171812919e+00 5.3119899870787546e-01 3.2487793078165176e+01 0 0 1
4266 1 1.0371931932952756e+00 6.2305603505141804e-01 2.9812364113053178e+01 3 2 0
57 1 9.6181240621717361e+00 6.6008964721446581e+00 3.3105757985736616e+01 -1 -1 0
1996 1 1.1710990570908287e+01 1.1097297931155445e+01 3.3347603687113676e+01 -1 1 0
4556 1 5.5111001525435830e+00 1.2936371236609134e+00 3.2416894209646358e+01 0 -1 0
2420 1 5.5293516035769121e+00 9.1327106365513311e-01 2.9568014481988882e+01 -3 -1 0
60 1 1.0054236281010091e+01 1.4081622058401562e+00 2.9906255565071692e+01 0 1 0
2041 1 1.0253534187356815e+01 1.3343229011677993e+00 3.2579949011394490e+01 2 3 0
3279 1 7.1339481434303256e+00 1.0199973600864340e+01 2.9006110371693968e+01 1 -1 0
2276 1 2.4213183184305405e+00 1.0349672317253697e+01 2.8887935448586003e+01 2 0 0
4263 1 2.8960879840988873e+00 5.0302614529540186e+00 3.2448965416307018e+01 0 1 0
2421 1 2.8118716033930351e+00 4.7421757406783955e+00 2.9590786106803211e+01 0 3 0
3156 1 1.1628190710294097e+01 2.9343515576454853e+00 2.6360630161858538e+01 0 1 -1
2143 1 4.3621776976675637e+00 1.1465114137649843e+01 2.5284235733837338e+01 -1 -1 0
3175 1 1.2179144450207403e+01 4.6902147066208011e-01 2.5398879140729960e+01 1 -1 -1
3354 1 2.2950942199456668e+00 1.0549366799174292e+01 3.2967378547949764e+01 0 1 -1
892 1 1.2005235140390045e+01 5.5878854693304465e+00 2.9622990182330433e+01 0 1 0
3283 1 7.9186387529316926e+00 2.6947517002959920e+00 3.3105093663666878e+01 0 3 0
3364 1 9.2838433591540745e-02 8.8798729647515824e+00 3.2340183637210501e+01 -1 -2 0
2223 1 1.1954316526356568e+01 5.4230672790743162e+00 3.2344524798036375e+01 -2 -1 0
1053 1 6.9647754591381297e+00 1.0487997113407772e+01 3.2712730325207644e+01 1 0 0
3318 1 5.1071670946048480e+00 6.4635144177938306e+00 3.2848182053982868e+01 0 0 0
2024 1 6.7584096340961715e+00 7.8376189624853660e+00 2.5357422588861379e+01 1 1 0
188 2 0.0000000000000000e+00 1.2787731112280996e+01 2.6800322027371553e+00 0 0 0
190 2 1.2305000000000001e+00 1.3498160618518829e+01 2.6800322027371553e+00 0 0 0
225 2 2.4610000000000003e+00 1.2787731112280996e+01 2.6800322027371553e+00 0 0 0
227 2 3.6915000000000004e+00 1.3498160618518829e+01 2.6800322027371553e+00 0 0 0
186 2 0.0000000000000000e+00 1.5629449137232333e+01 2.6800322027371553e+00 0 0 0
221 2 1.2305000000000001e+00 1.4919019630994494e+01 2.6800322027371553e+00 0 0 0
223 2 2.4610000000000003e+00 1.5629449137232328e+01 2.6800322027371553e+00 0 0 0
266 2 3.6915000000000004e+00 1.4919019630994494e+01 2.6800322027371553e+00 0 0 0
270 2 4.9220000000000006e+00 1.2787731112280996e+01 2.6800322027371553e+00 0 0 0
272 2 6.1524999999999990e+00 1.3498160618518829e+01 2.6800322027371553e+00 0 0 0
317 2 7.3829999999999991e+00 1.2787731112280996e+01 2.6800322027371553e+00 0 0 0
268 2 4.9220000000000006e+00 1.5629449137232333e+01 2.6800322027371553e+00 0 0 0
313 2 6.1524999999999990e+00 1.4919019630994494e+01 2.6800322027371553e+00 0 0 0
315 2 7.3829999999999991e+00 1.5629449137232333e+01 2.6800322027371553e+00 0 0 0
423 2 9.8440000000000012e+00 2.2733744199610655e+01 5.8140511651415272e+00 0 0 0
319 2 8.6135000000000002e+00 1.3498160618518835e+01 2.6800322027371553e+00 0 0 0
364 2 9.8440000000000012e+00 1.2787731112280996e+01 2.6800322027371553e+00 0 0 0
366 2 1.1074500000000002e+01 1.3498160618518829e+01 2.6800322027371553e+00 0 0 0
360 2 8.6135000000000002e+00 1.4919019630994494e+01 2.6800322027371553e+00 0 0 0
362 2 9.8440000000000012e+00 1.5629449137232328e+01 2.6800322027371553e+00 0 0 0
402 2 1.1074500000000002e+01 1.4919019630994494e+01 2.6800322027371553e+00 0 0 0
217 2 0.0000000000000000e+00 1.7050308149707998e+01 2.6800322027371553e+00 0 0 0
262 2 2.4610000000000003e+00 1.7050308149707998e+01 2.6800322027371553e+00 0 0 0
215 2 0.0000000000000000e+00 1.9892026174659328e+01 2.6800322027371553e+00 0 0 0
219 2 1.2305000000000001e+00 1.7760737655945832e+01 2.6800322027371553e+00 0 0 0
258 2 1.2305000000000001e+00 1.9181596668421495e+01 2.6800322027371553e+00 0 0 0
260 2 2.4610000000000003e+00 1.9892026174659328e+01 2.6800322027371553e+00 0 0 0
264 2 3.6914999999999996e+00 1.7760737655945832e+01 2.6800322027371553e+00 0 0 0
305 2 3.6914999999999996e+00 1.9181596668421495e+01 2.6800322027371553e+00 0 0 0
309 2 4.9220000000000006e+00 1.7050308149707998e+01 2.6800322027371553e+00 0 0 0
356 2 7.3830000000000009e+00 1.7050308149707998e+01 2.6800322027371553e+00 0 0 0
307 2 4.9220000000000006e+00 1.9892026174659328e+01 2.6800322027371553e+00 0 0 0
311 2 6.1524999999999999e+00 1.7760737655945832e+01 2.6800322027371553e+00 0 0 0
352 2 6.1524999999999999e+00 1.9181596668421495e+01 2.6800322027371553e+00 0 0 0
354 2 7.3829999999999991e+00 1.9892026174659328e+01 2.6800322027371553e+00 0 0 0
398 2 9.8440000000000012e+00 1.7050308149707998e+01 2.6800322027371553e+00 0 0 0
432 2 1.2304999999999998e+01 1.7050308149707998e+01 2.6800322027371553e+00 0 0 0
358 2 8.6134999999999984e+00 1.7760737655945832e+01 2.6800322027371553e+00 0 0 0
394 2 8.6135000000000002e+00 1.9181596668421495e+01 2.6800322027371553e+00 0 0 0
396 2 9.8440000000000012e+00 1.9892026174659335e+01 2.6800322027371553e+00 0 0 0
400 2 1.1074500000000002e+01 1.7760737655945835e+01 2.6800322027371553e+00 0 0 0
428 2 1.1074500000000002e+01 1.9181596668421495e+01 2.6800322027371553e+00 0 0 0
252 2 0.0000000000000000e+00 2.4154603212086325e+01 2.6800322027371553e+00 0 0 0
254 2 0.0000000000000000e+00 2.1312885187134999e+01 2.6800322027371553e+00 0 0 0
256 2 1.2304999999999993e+00 2.2023314693372832e+01 2.6800322027371553e+00 0 0 0
297 2 1.2304999999999993e+00 2.3444173705848499e+01 2.6800322027371553e+00 0 0 0
299 2 2.4610000000000003e+00 2.4154603212086325e+01 2.6800322027371553e+00 0 0 0
301 2 2.4610000000000003e+00 2.1312885187134995e+01 2.6800322027371553e+00 0 0 0
303 2 3.6914999999999996e+00 2.2023314693372832e+01 2.6800322027371553e+00 0 0 0
344 2 3.6915000000000004e+00 2.3444173705848499e+01 2.6800322027371553e+00 0 0 0
346 2 4.9220000000000006e+00 2.4154603212086325e+01 2.6800322027371553e+00 0 0 0
348 2 4.9220000000000006e+00 2.1312885187134995e+01 2.6800322027371553e+00 0 0 0
350 2 6.1524999999999990e+00 2.2023314693372832e+01 2.6800322027371553e+00 0 0 0
386 2 6.1524999999999999e+00 2.3444173705848499e+01 2.6800322027371553e+00 0 0 0
388 2 7.3830000000000009e+00 2.4154603212086336e+01 2.6800322027371553e+00 0 0 0
390 2 7.3829999999999991e+00 2.1312885187134999e+01 2.6800322027371553e+00 0 0 0
392 2 8.6135000000000002e+00 2.2023314693372832e+01 2.6800322027371553e+00 0 0 0
420 2 8.6134999999999984e+00 2.3444173705848499e+01 2.6800322027371553e+00 0 0 0
422 2 9.8440000000000012e+00 2.4154603212086336e+01 2.6800322027371553e+00 0 0 0
424 2 9.8440000000000012e+00 2.1312885187134999e+01 2.6800322027371553e+00 0 0 0
426 2 1.1074500000000002e+01 2.2023314693372832e+01 2.6800322027371553e+00 0 0 0
446 2 1.1074500000000002e+01 2.3444173705848499e+01 2.6800322027371553e+00 0 0 0