
# Create simulation box and atoms

read_data data.ML_graphite_m1000atm_250K
  orthogonal box = (0 0 1.24595) to (49.22 49.0196 32.694)
  4 by 4 by 4 MPI processor grid
  reading atoms ...
  4560 atoms
  reading velocities ...
  4560 velocities
group water type 1
1800 atoms in group water
group graphite type 2
2760 atoms in group graphite

# Define potential

pair_style sw
pair_coeff * * MLC_e.sw mW C


# Fix graphite atoms in place

fix 5 graphite setforce 0.0 0.0 0.0
velocity graphite set 0.0 0.0 0.0


# Equilibration of molecular water

# Add velocity/set timestep

velocity	    water create ${TEMP} ${SEED} rot yes dist gaussian
velocity	    water create 250 ${SEED} rot yes dist gaussian
velocity	    water create 250 28748 rot yes dist gaussian
timestep	    5.0

# Define output

compute			1 water msd
compute			3 water temp
thermo	    	50
thermo_style	custom step temp press vol etotal ke pe c_1[4] c_3

# Neighbor lists

neigh_modify    delay 0 every 1 check yes

# Set fixes

fix             1 water momentum 10 linear 1 1 1 rescale
fix             2 water nve
fix             3 water temp/csvr ${TEMP} ${TEMP} 500.0 ${SEED}
fix             3 water temp/csvr 250 ${TEMP} 500.0 ${SEED}
fix             3 water temp/csvr 250 250 500.0 ${SEED}
fix             3 water temp/csvr 250 250 500.0 28748
fix             4 water press/berendsen z ${PRES} ${PRES} 1000.0 modulus 20000
fix             4 water press/berendsen z -1000 ${PRES} 1000.0 modulus 20000
fix             4 water press/berendsen z -1000 -1000 1000.0 modulus 20000

# Run 0.5 ns equilibration

dump		    1 all atom 2000 ${DIR}/eq.${NAME}-${TEMP}.dump
dump		    1 all atom 2000 run_17/eq.${NAME}-${TEMP}.dump
dump		    1 all atom 2000 run_17/eq.het_freeze_17-${TEMP}.dump
dump		    1 all atom 2000 run_17/eq.het_freeze_17-250.dump

reset_timestep  0

run	            100000
Neighbor list info ...
  update every 1 steps, delay 0 steps, check yes
  max neighbors/atom: 2000, page size: 100000
  master list distance cutoff = 6.67472
  ghost atom cutoff = 6.67472
  binsize = 3.33736, bins = 15 15 10
  1 neighbor lists, perpetual/occasional/extra = 1 0 0
  (1) pair sw, perpetual
      attributes: full, newton on
      pair build: full/bin/atomonly
      stencil: full/bin/3d
      bin: standard
Per MPI rank memory allocation (min/avg/max) = 4.068 | 4.29 | 4.492 Mbytes
Step Temp Press Volume TotEng KinEng PotEng c_1[4] c_3 
       0     98.65102   -1309.4651    75876.271   -17199.746    1340.6193   -18540.366            0          250 
      50    99.254702   -1398.6905    75869.355   -17253.262    1348.8231   -18602.085   0.50574465    251.52984 
     100    97.419227   -1612.6809    75872.452   -17264.779    1323.8799   -18588.659   0.86626104    246.87841 
     150     97.84806   -1205.6173    75794.569   -17281.481    1329.7075   -18611.188    1.0953833    247.96515 
     200    98.377872   -1391.0295    75784.557   -17247.827    1336.9074   -18584.735    1.3087992    249.30779 
     250    97.811752   -1265.6883    75805.196   -17223.924    1329.2141   -18553.138    1.5223161    247.87314 
     300    96.227832   -1417.8576    75811.479   -17227.936    1307.6894   -18535.626    1.7066997    243.85919 
     350    97.583287   -1257.3379    75749.513   -17224.867    1326.1093   -18550.976    1.8796033    247.29417 
     400    97.251666   -1590.4829    75756.282    -17221.91    1321.6028   -18543.513    2.0625224    246.45378 
     450    96.336193   -1351.0863    75697.752   -17231.935    1309.1619   -18541.097    2.2494259     244.1338 
     500    97.025702   -1439.0884    75673.928   -17206.792     1318.532   -18525.324    2.4099206    245.88114 
     550    98.490132   -1093.0359    75655.984   -17218.657    1338.4329    -18557.09    2.5468744    249.59228 
     600    98.142909   -1406.5024    75653.948   -17216.648    1333.7143   -18550.362    2.7412723    248.71235 
     650    97.464585   -1248.0327    75718.625   -17248.234    1324.4962    -18572.73    2.9561426    246.99335 
     700    96.654214   -1727.6754    75692.816   -17265.029    1313.4837   -18578.513    3.0986622    244.93972 
     750    95.908765   -1412.5134    75647.335   -17257.767    1303.3534    -18561.12    3.3582188    243.05062 
     800    98.620828   -1384.4202    75635.918    -17258.35     1340.209   -18598.559    3.5405386    249.92349 
     850    97.788683    -1341.407    75661.737    -17247.02    1328.9006    -18575.92    3.7731065    247.81468 
     900    97.962879   -1495.3999     75724.18   -17220.164    1331.2678   -18551.431    3.9293709    248.25612 
     950     99.08073   -1360.2238    75723.352   -17203.111    1346.4589    -18549.57    4.1405587    251.08896 
    1000    98.451619   -1408.1617    75698.109   -17216.959    1337.9096   -18554.869    4.3549361    249.49468 
    1050    100.46716   -1168.1578    75712.651   -17170.921    1365.2997   -18536.221    4.4969942    254.60243 
    1100    99.472412   -1220.3584    75771.762   -17206.479    1351.7816    -18558.26    4.6209146    252.08156 
    1150    96.302083   -1094.7186    75786.755   -17214.965    1308.6984   -18523.663    4.7486406    244.04736 
    1200    99.253528   -1417.5497    75758.418    -17222.44    1348.8071   -18571.247    4.9994467    251.52687 
    1250    97.491087   -1389.0889    75757.449   -17228.533    1324.8564   -18553.389    5.0754084    247.06051 
    1300    99.343823   -1436.2067    75739.538   -17223.221    1350.0342   -18573.256    5.2358154    251.75569 
    1350    98.883855   -1192.2342    75811.653   -17187.994    1343.7834   -18531.777    5.5021528    250.59005 
    1400    98.197459   -1159.7493    75872.162   -17209.424    1334.4556    -18543.88    5.6121362    248.85059 
    1450     100.9321   -1425.5953    75830.823   -17171.705    1371.6181   -18543.323    5.8301019    255.78068 
    1500     100.6634   -1628.9574    75781.648   -17185.471    1367.9667   -18553.438    6.0637932    255.09976 
    1550    99.939444   -1350.6882    75783.895   -17174.562    1358.1284   -18532.691    6.2694615    253.26511 
    1600     100.2708   -1385.2099     75719.15   -17210.689    1362.6314    -18573.32    6.3569849    254.10483 
    1650    100.91128   -931.53934    75796.386   -17198.402    1371.3351   -18569.737    6.6096501    255.72791 
    1700    99.844579   -1522.1057    75764.026   -17249.147    1356.8392   -18605.986     6.757959     253.0247 
    1750     100.5112   -1582.3155    75738.508   -17243.275    1365.8982   -18609.173    6.9516001    254.71404 
    1800    98.020423   -1155.5998    75717.634   -17256.519    1332.0498   -18588.569    7.1070108    248.40195 
    1850    96.474079   -1521.0927    75677.367   -17250.559    1311.0357   -18561.595     7.208781    244.48323 
    1900    97.478745   -1457.1158    75642.856   -17227.341    1324.6887    -18552.03    7.4169757    247.02924 
    1950     99.62302   -1330.4433    75593.376   -17210.036    1353.8283   -18563.864    7.5544336    252.46323 
    2000    97.130243   -1252.4523    75569.824   -17227.889    1319.9527   -18547.841    7.7165038    246.14607 
    2050    96.827423   -1305.9527      75528.2   -17244.941    1315.8375   -18560.778    7.9164257    245.37867 
    2100    98.884349   -1414.3541    75538.574   -17268.584    1343.7902   -18612.374    8.1021179     250.5913 
    2150    99.879506   -1190.6258    75542.721   -17217.985    1357.3138   -18575.299    8.3112145    253.11321 
    2200    98.227202    -1661.488    75564.689   -17240.742    1334.8598   -18575.602    8.6553732    248.92597 
    2250    99.553735   -1312.9641     75553.85   -17223.408    1352.8868   -18576.295    8.8148195    252.28765 
    2300    98.024354   -1596.8006    75533.555   -17239.533    1332.1032   -18571.637    8.9544731    248.41191 
    2350    99.055673   -1243.3134    75505.494   -17214.702    1346.1184   -18560.821    9.1141849    251.02547 
    2400    96.735424   -1299.9031    75562.289   -17213.711    1314.5873   -18528.298    9.3331504    245.14552 
    2450    99.760798   -1447.6881     75572.26   -17211.497    1355.7007   -18567.197    9.4198446    252.81238 
    2500     99.09414   -1439.3594    75527.141   -17219.343    1346.6411   -18565.984     9.505231    251.12295 
    2550    98.803337   -934.77925    75585.755   -17232.987    1342.6892   -18575.676    9.5693204      250.386 
    2600     98.48741   -1513.8476    75679.968   -17242.366    1338.3959   -18580.762    9.7774865    249.58538 
    2650    97.776012   -1365.7268    75687.776   -17209.059    1328.7284   -18537.787    9.9310335    247.78257 
    2700    99.504074   -1210.9863    75728.751   -17214.528    1352.2119   -18566.739    10.001113     252.1618 
    2750    103.24047   -1379.9363    75771.958   -17227.252    1402.9877    -18630.24    10.208215    261.63052 
    2800    97.597835   -1222.7029    75767.229   -17227.176    1326.3071   -18553.483    10.440594    247.33103 
    2850    97.916154   -1428.3651    75769.053   -17233.537    1330.6329    -18564.17    10.611343    248.13771 
    2900    99.824285   -1445.6203     75798.88   -17216.652    1356.5634   -18573.215    10.828647    252.97327 
    2950    103.33022   -1200.7699    75855.027   -17221.885    1404.2074   -18626.092    10.991695    261.85796 
    3000    99.138975   -1458.8129    75860.574   -17178.742    1347.2504   -18525.992    11.248305    251.23657 
    3050    99.809904   -1435.5983    75908.068   -17235.334     1356.368   -18591.702    11.369935    252.93683 
    3100    99.977972   -1365.2229    75913.745   -17230.266     1358.652   -18588.917     11.64278    253.36274 
    3150    99.449934   -1147.6565    75983.057   -17229.429    1351.4762   -18580.905    11.746392     252.0246 
    3200     95.86095   -1065.9568    75987.549   -17247.025    1302.7036   -18549.729    11.976644    242.92944 
    3250    99.665904   -1070.0538    75975.274   -17213.757    1354.4111   -18568.168    12.187627     252.5719 
    3300    98.629805   -1348.7424    75969.283   -17233.113     1340.331   -18573.444    12.246859    249.94624 
    3350    97.277125   -1247.8258    75951.922   -17257.653    1321.9487   -18579.601     12.59649    246.51829 
    3400    98.253688   -1362.1298    75944.868   -17270.641    1335.2198   -18605.861    12.886321    248.99309 
    3450    99.168405   -1334.8771     75930.45    -17247.34    1347.6503    -18594.99    12.929251    251.31115 
    3500    99.423397   -1565.2916    75935.263   -17275.904    1351.1156    -18627.02    13.132235    251.95735 
    3550    95.813491   -1431.3224    75930.208     -17280.9    1302.0587   -18582.958    13.276001    242.80917 
    3600    101.60086   -1578.8833    75917.339   -17274.793    1380.7062   -18655.499    13.377977    257.47544 
    3650     98.20788   -1324.2651    75931.208   -17280.602    1334.5973   -18615.199    13.481226      248.877 
    3700    96.163484   -1018.1101    75987.198   -17285.126    1306.8149   -18591.941    13.368195    243.69612 
    3750    97.207405   -1799.5665    76004.046   -17302.659    1321.0013    -18623.66     13.43391    246.34161 
    3800    98.883806   -1456.4622    75948.046   -17285.933    1343.7828   -18629.716    13.499169    250.58992 
    3850    96.511054    -1638.222    75924.389   -17245.481    1311.5382   -18557.019    13.478505    244.57693 
    3900    96.056168   -1091.7333    75888.507   -17269.729    1305.3565   -18575.086    13.714243    243.42416 
    3950    97.152503   -1076.9808    75971.544   -17281.212    1320.2552   -18601.467    13.831837    246.20248 
    4000    98.419281   -1198.8534    75987.396   -17292.264    1337.4701   -18629.734     13.90608    249.41273 
    4050    94.330918     -1193.23    75995.501    -17302.02    1281.9112   -18583.931    14.087116    239.05206 
    4100    94.484477   -1348.5612    75951.662   -17313.365     1283.998   -18597.363    14.123398    239.44121 
    4150    97.492594   -1194.6498    75972.784   -17275.704    1324.8769    -18600.58    14.047721    247.06433 
    4200    99.283058   -1285.5988    75950.086   -17267.194    1349.2084   -18616.402    14.208618     251.6017 
    4250    96.765185   -1121.2364    75935.665   -17292.074    1314.9917   -18607.066    14.660347    245.22094 
    4300    97.300845   -1452.6106    75909.604   -17325.027    1322.2711   -18647.298    14.800436    246.57841 
    4350    97.243281    -1185.341    75944.328   -17272.682    1321.4888   -18594.171    14.953412    246.43253 
    4400    101.07163   -1277.0443    76019.173   -17205.566    1373.5142    -18579.08     15.09775    256.13427 
    4450    96.561101   -1403.0189    76031.002   -17254.685    1312.2183   -18566.903    15.175993    244.70376 
    4500    96.404951   -1341.9095    75987.854   -17258.671    1310.0963   -18568.767    15.205858    244.30804 
    4550    100.45604    -1509.848    75955.593    -17242.64    1365.1487   -18607.789    15.478633    254.57426 
    4600    104.34167   -1142.3917    75931.883    -17242.91    1417.9525   -18660.863    15.603962    264.42116 
    4650    98.286373   -1522.6539      75980.7   -17228.455    1335.6639   -18564.119    15.830649    249.07592 
    4700    98.881839   -1466.9674    75963.686   -17225.491     1343.756   -18569.247    16.038509    250.58494 
    4750    99.621466   -1582.7376    75896.466   -17237.758    1353.8072   -18591.566    16.096193    252.45929 
    4800    99.583856   -1404.6504    75871.443   -17252.085    1353.2961   -18605.381    16.183821    252.36398 
    4850    99.463137   -1341.1833    75819.943   -17254.729    1351.6556   -18606.384    16.181674    252.05806 
    4900     96.96876   -1214.5897    75841.568   -17279.753    1317.7582   -18597.511    16.161532    245.73684 
    4950    100.24613   -1301.3948    75938.244   -17288.454    1362.2961    -18650.75    16.335745     254.0423 
    5000    102.06871   -1220.2576    76018.475   -17280.654     1387.064   -18667.718    16.477835    258.66106 
    5050    98.043036   -1251.7732    76018.749   -17309.891    1332.3571   -18642.248    16.465263    248.45926 
    5100     97.34817   -1685.4537    76026.635   -17314.434    1322.9142   -18637.348    16.577318    246.69834 
    5150    98.602407   -1527.1606    76025.224   -17350.159    1339.9587   -18690.118    16.725542    249.87681 
    5200    98.934471   -1277.3127    76069.248   -17309.913    1344.4713   -18654.384    16.940578    250.71832 
    5250    97.899965    -1437.948     76068.85   -17311.847    1330.4128    -18642.26    17.111711    248.09669 
    5300    97.799351   -1259.5841    76088.051   -17318.424    1329.0456    -18647.47    17.390287    247.84171 
    5350    97.707089   -920.12523    76154.063   -17328.434    1327.7918   -18656.226    17.682187     247.6079 
    5400    97.651538   -1268.5579    76258.641    -17322.96    1327.0369   -18649.997    17.835784    247.46713 
    5450    100.43272   -1294.3403    76278.067   -17302.689    1364.8318   -18667.521    17.973925    254.51516 
    5500    99.555389   -1299.0763    76340.646   -17281.846    1352.9093   -18634.755    18.135631    252.29184 
    5550    102.15052   -1110.3924    76368.478   -17262.636    1388.1758   -18650.812    18.300495    258.86837 
    5600    102.03001   -1175.0176    76373.778   -17262.579    1386.5382   -18649.117    18.556076      258.563 
    5650     97.10453   -937.21857    76433.068   -17243.747    1319.6033   -18563.351    18.722646    246.08091 
    5700    98.594678    -1100.707    76478.538   -17263.653    1339.8537   -18603.506    18.929755    249.85722 
    5750    100.54765   -1208.7703    76490.707   -17258.539    1366.3936   -18624.932     18.88069    254.80642 
    5800    101.14988   -1670.0462    76400.673   -17252.706    1374.5776   -18627.284     19.06409    256.33257 
    5850    101.12758    -1449.017    76342.965   -17252.017    1374.2746   -18626.292    19.241081    256.27607 
    5900    101.81517   -1274.6089    76331.869   -17283.026    1383.6186   -18666.644    19.516077    258.01854 
    5950    96.263606   -1363.7743    76347.897     -17319.7    1308.1755   -18627.876    19.788403    243.94985 
    6000    97.529648   -1586.2751    76299.219   -17336.357    1325.3804   -18661.738    19.845165    247.15823 
    6050    97.186601   -1501.0292    76296.567   -17315.929    1320.7186   -18636.648     20.07775    246.28889 
    6100    100.44018   -1154.0085    76296.997   -17324.211    1364.9331   -18689.144    20.214597    254.53405 
    6150    98.238489   -1455.9451    76375.094   -17313.427    1335.0132   -18648.441    20.438428    248.95457 
    6200    94.811624   -1272.2852    76359.201    -17322.34    1288.4438   -18610.783    20.525216    240.27026 
    6250    97.570939   -1337.4906    76375.525   -17348.066    1325.9415   -18674.007    20.838007    247.26287 
    6300    92.755917   -1319.7884    76347.033   -17393.066    1260.5077   -18653.574    20.917732    235.06072 
    6350    94.785718   -1440.1825    76325.069    -17344.91    1288.0917   -18633.002    21.060256    240.20461 
    6400    98.897545   -1478.2467    76240.893   -17335.998    1343.9695   -18679.967     21.19434    250.62474 
    6450    97.103986   -1703.6799    76231.346   -17270.195    1319.5959   -18589.791    21.341174    246.07953 
    6500    98.581172   -1361.7818    76218.268   -17261.448    1339.6701   -18601.118    21.573854    249.82299 
    6550    98.856414    -1421.388    76146.998   -17251.463    1343.4105   -18594.873     21.71874    250.52051 
    6600    103.60897   -1650.8847    76176.313   -17229.619    1407.9954   -18637.615    21.867185    262.56436 
    6650    100.35171   -1676.9774    76115.912    -17274.73    1363.7309   -18638.461    21.935084    254.30988 
    6700    95.941163   -1501.0087    76080.625   -17356.823    1303.7937   -18660.617    22.224208    243.13272 
    6750    97.720539   -1198.8786    76158.248   -17345.082    1327.9745   -18673.056    22.608513    247.64199 
    6800    94.168394   -1348.9594    76189.667    -17372.58    1279.7026   -18652.282    22.853839    238.64019 
    6850    94.099095   -1314.6022    76201.689   -17379.884    1278.7609   -18658.645    22.777608    238.46458 
    6900    97.467101   -886.58719    76264.759   -17337.161    1324.5304   -18661.691    22.688387    246.99973 
    6950    98.206625   -1197.1446    76342.271   -17311.118    1334.5802   -18645.698     22.73268    248.87382 
    7000    97.086244   -1103.4619    76435.314   -17346.978    1319.3548   -18666.333    23.022585    246.03457 
    7050    97.597959   -979.92264    76481.658   -17340.442    1326.3087   -18666.751    23.164923    247.33135 
    7100     96.29908   -1483.7295    76452.323   -17355.064    1308.6576   -18663.722    23.270216    244.03975 
    7150    98.873133    -1602.039    76453.798   -17352.725    1343.6377   -18696.363    23.268784    250.56288 
    7200    97.269225   -1589.6124     76432.41   -17352.608    1321.8414    -18674.45    23.427762    246.49827 
    7250    97.619483   -1236.4236    76435.568   -17325.672    1326.6012   -18652.273    23.454816    247.38589 
    7300    98.906323   -1476.7734     76428.62   -17310.941    1344.0888    -18655.03     23.73342    250.64699 
    7350    98.335381   -1284.5212    76422.394   -17320.126    1336.3299   -18656.456    24.006471    249.20011 
    7400    97.468269   -1437.9881     76414.51   -17311.918    1324.5463   -18636.464    24.171043    247.00269 
    7450    101.14601   -1540.9241    76367.204   -17294.284     1374.525   -18668.809    24.472313    256.32277 
    7500    99.000345   -1272.8552    76335.946   -17243.219    1345.3665   -18588.586    24.620137    250.88525 
    7550    96.586923   -1204.9653    76336.873   -17267.783    1312.5692   -18580.353    24.798584    244.76919 
    7600    99.709844   -1206.5909    76344.121   -17256.832    1355.0082    -18611.84    24.809198    252.68326 
    7650    97.466037   -1468.3014    76284.724   -17295.907     1324.516   -18620.423     24.82573    246.99703 
    7700    100.10072   -1543.8388    76299.004   -17262.521      1360.32   -18622.841    24.823775     253.6738 
    7750    101.12036   -1376.4093    76284.166   -17257.882    1374.1764   -18632.058    24.972741    256.25776 
    7800    101.37389   -1246.4226    76251.586   -17225.795    1377.6218   -18603.417    25.045866    256.90027 
    7850    102.36768   -1498.8157    76187.329   -17225.739    1391.1269   -18616.866    25.122856    259.41871 
    7900    101.04216   -1398.5268     76133.06   -17221.285    1373.1137   -18594.399    25.163405    256.05959 
    7950    99.438394    -1572.459     76062.08   -17246.906    1351.3193   -18598.225    25.274186    251.99535 
    8000    98.573718   -1211.3286    76027.174   -17255.442    1339.5688   -18595.011    25.538319     249.8041 
    8050    97.305121    -1526.314    76002.944   -17283.301    1322.3292   -18605.631    25.676347    246.58924 
    8100    97.528439   -1593.7976    75889.905     -17277.5     1325.364   -18602.864    25.945939    247.15517 
    8150    98.387795    -1274.604    75875.012   -17277.809    1337.0422   -18614.852    26.310251    249.33294 
    8200    100.80874    -1403.052    75877.231    -17246.16    1369.9416   -18616.101    26.431209    255.46805 
    8250    101.70428   -1320.7008    75871.204   -17269.658    1382.1116   -18651.769    26.498645    257.73752 
    8300    98.430055   -1199.4925    75845.273   -17257.812    1337.6165   -18595.428     26.87098    249.44003 
    8350    98.929733   -1278.9203    75844.878   -17284.588    1344.4069   -18628.995    27.106414    250.70631 
    8400    98.025798   -1536.2375    75880.433   -17298.902    1332.1229   -18631.025    27.100562    248.41557 
    8450    98.208335   -1557.5497    75838.982   -17290.342    1334.6034   -18624.946    27.359376    248.87815 
    8500    98.295875   -1318.3886    75800.739   -17273.765    1335.7931   -18609.558    27.361124        249.1 
    8550    101.42838   -1763.1503    75727.646   -17269.313    1378.3622   -18647.675    27.435396    257.03834 
    8600    98.146106     -1230.44    75672.515   -17227.662    1333.7578    -18561.42    27.460967    248.72046 
    8650    101.36009   -1133.8314    75725.199   -17221.089    1377.4342   -18598.523    27.804003    256.86528 
    8700    98.000911   -1310.8362    75764.914   -17240.106    1331.7847    -18571.89    28.057239     248.3525 
    8750    99.255333   -1498.6983    75723.851   -17266.457    1348.8316   -18615.289    28.034896    251.53144 
    8800    98.054436   -1507.1577    75720.823   -17278.841     1332.512   -18611.353    28.100931    248.48815 
    8850    98.128876   -1264.5619    75701.518   -17214.881    1333.5236   -18548.404    28.300925    248.67679 
    8900    101.26857    -1394.928    75642.417    -17221.25    1376.1905    -18597.44    28.627099    256.63335 
    8950    99.180957   -1138.1152    75698.067   -17228.677    1347.8209   -18576.498    28.557342    251.34296 
    9000    95.603323     -1638.07    75714.444   -17250.826    1299.2026   -18550.028    28.544532    242.27657 
    9050    100.49821   -1377.9737    75702.234   -17208.124    1365.7217   -18573.846    28.578972    254.68112 
    9100    97.451084   -1473.8826    75666.482   -17226.499    1324.3128   -18550.812    28.613247    246.95914 
    9150    98.736975    -1967.987    75640.184   -17200.865    1341.7874   -18542.652    29.049977    250.21783 
    9200    97.547255   -1882.6818    75552.061   -17195.566    1325.6197   -18521.186    29.124917    247.20285 
    9250    99.089446    -1528.392    75537.589   -17199.725    1346.5773   -18546.302     29.27027    251.11105 
    9300     97.48897   -1369.9098    75507.174   -17181.624    1324.8276   -18506.452    29.657235    247.05515 
    9350    99.250387    -1245.832    75519.592   -17204.724    1348.7644   -18553.488    29.981698    251.51891 
    9400    99.431143    -1379.128     75597.48   -17213.815    1351.2208   -18565.036    30.268231    251.97698 
    9450     98.64624   -1150.0057    75607.767    -17221.28    1340.5544   -18561.834    30.527323    249.98789 
    9500    98.461567    -1480.583    75677.681   -17259.495    1338.0447    -18597.54    30.747446    249.51989 
    9550     101.9683   -1616.0647    75715.176   -17245.686    1385.6996   -18631.385    31.028099    258.40661 
    9600    98.700947   -901.81326    75729.771   -17221.103    1341.2978   -18562.401    31.352499    250.12652 
    9650    99.843219    -989.9006    75835.757   -17230.011    1356.8207   -18586.831    31.463647    253.02125 
    9700    100.60283   -1292.1167    75885.167   -17233.903    1367.1435   -18601.046    31.537057    254.94626 
    9750    100.35477   -1183.6541    75987.063   -17237.157    1363.7725   -18600.929    31.632645    254.31763 
    9800    98.458276   -1630.8082    76074.725   -17243.049         1338   -18581.049    31.753417    249.51155 
    9850    98.654887   -1495.7277    76024.055   -17228.743    1340.6719   -18569.415    31.814228     250.0098 
    9900    101.34425   -1409.7024    76063.759   -17244.147     1377.219   -18621.366    31.976051    256.82514 
    9950    99.897185   -1466.5396    76005.012   -17244.752    1357.5541   -18602.307    32.003121    253.15801 
   10000    99.247675   -1384.3705    76004.544   -17241.394    1348.7276   -18590.122    32.251421    251.51203 
   10050    95.579206   -1305.3535    75953.336   -17229.354    1298.8749   -18528.229    32.382571    242.21545 
   10100    99.031011   -1277.6822    75936.484   -17237.121    1345.7832   -18582.904    32.690251    250.96297 
   10150     100.5824   -1109.7271    75965.272    -17251.64    1366.8658   -18618.506    32.950013    254.89447 
   10200    98.050121   -1412.9947    76010.478   -17285.119    1332.4534   -18617.572    32.908449    248.47721 
   10250    97.628864   -1337.8264    76027.929   -17281.709    1326.7287   -18608.437    33.311808    247.40967 
   10300    95.344447    -1323.208    76012.142   -17299.141    1295.6846   -18594.826    33.609604    241.62053 
   10350     98.11247    -1716.348    75994.534   -17290.787    1333.3007   -18624.088    33.484572    248.63521 
   10400    96.762359   -1994.6593    75913.662   -17280.282    1314.9533   -18595.235    33.799456    245.21378 
   10450    93.481179   -1325.1794    75843.535   -17299.869    1270.3637   -18570.233    33.848461    236.89866 
   10500    96.252772   -1479.7228    75872.961   -17269.739    1308.0283   -18577.767    34.070976    243.92239 
   10550    98.718745   -1256.0119    75942.359   -17271.649    1341.5397   -18613.188    34.389185    250.17163 
   10600    98.573925   -1432.1793    75938.724    -17303.68    1339.5716   -18643.251    35.038921    249.80463 
   10650    95.948975   -1043.6401    75925.518   -17296.521    1303.8998   -18600.421    35.649614    243.15252 
   10700    101.37513   -1467.0928    75912.614   -17312.834    1377.6386   -18690.473    36.012972     256.9034 
   10750    98.561532   -1484.9946    75930.453    -17331.48    1339.4032   -18670.883    36.394513    249.77322 
   10800    96.451881   -1436.7054    75880.415   -17326.146    1310.7341    -18636.88    36.607015    244.42697 
   10850    96.117882    -1346.265    75814.167   -17312.013    1306.1952   -18618.208    36.776288    243.58056 
   10900    99.030625   -1191.9889    75848.282   -17277.864     1345.778   -18623.642    36.884968    250.96199 
   10950    97.054427   -1381.2555    75868.824   -17300.786    1318.9224   -18619.708    37.054475    245.95394 
   11000     97.93121   -1463.6922    75860.235   -17293.043    1330.8374   -18623.881    36.679236    248.17587 
   11050    100.89468   -1576.2345    75838.937   -17276.668    1371.1095   -18647.778    36.601439    255.68584 
   11100    100.83484   -1417.3996    75814.119   -17271.912    1370.2964   -18642.208    36.750665    255.53421 
   11150    99.601544   -1412.6897    75749.875   -17266.753    1353.5365    -18620.29    36.898186     252.4088 
   11200    97.399621   -1384.6111    75692.687    -17250.36    1323.6134   -18573.974    36.999317    246.82872 
   11250    100.63416   -1213.5827    75684.883   -17237.746    1367.5692   -18605.315    37.124098    255.02564 
   11300    99.536014   -1110.5447    75704.871   -17269.887     1352.646   -18622.533    37.198297    252.24274 
   11350    98.875282   -1287.9699    75663.503   -17272.101    1343.6669   -18615.768    37.393447    250.56832 
   11400    100.35666   -1654.7435    75625.234   -17272.377    1363.7981   -18636.175    37.515048    254.32241 
   11450    99.250056   -1544.9288    75615.031    -17296.23    1348.7599    -18644.99    37.764998    251.51807 
   11500    99.401554   -1412.7982    75623.516   -17280.589    1350.8187   -18631.408    38.041195    251.90199 
   11550    100.49679   -1276.6938    75684.463   -17249.995    1365.7024   -18615.697    38.074701    254.67751 
   11600      100.909    -1463.811    75764.033    -17266.19    1371.3042   -18637.494    38.216988    255.72214 
   11650    93.920572   -1472.5759    75771.491   -17285.433    1276.3348   -18561.768    38.420642    238.01217 
   11700    98.171702   -1527.4253    75744.074   -17286.458    1334.1056   -18620.564    38.782918    248.78532 
   11750    97.915569   -1137.7936    75729.328   -17284.666    1330.6249   -18615.291    38.895804    248.13623 
   11800    96.376233   -1266.0175    75716.827   -17305.364    1309.7061    -18615.07    38.827268    244.23527 
   11850    103.01024   -1050.0772    75707.898   -17288.269     1399.859   -18688.128    39.158628    261.04707 
   11900    97.116833   -1303.3058     75745.04   -17334.022    1319.7705   -18653.792    39.246622    246.11209 
   11950    97.559218   -1043.5309    75728.888   -17298.768    1325.7823   -18624.551    39.312818    247.23317 
   12000     98.92395   -1337.9628    75727.278   -17318.424    1344.3283   -18662.752    39.493149    250.69166 
   12050    97.408773   -1199.3415    75658.558   -17308.286    1323.7378   -18632.024    39.689365    246.85192 
   12100    98.900702   -1123.8825     75625.21   -17323.473    1344.0124   -18667.486    39.839355    250.63274 
   12150    97.477217    -1578.324    75642.642   -17332.531    1324.6679   -18657.199    40.179444    247.02537 
   12200    96.354228   -1386.8147    75589.307   -17323.958     1309.407   -18633.365    40.294899     244.1795 
   12250    99.583948   -1275.0974    75495.853   -17311.727    1353.2974   -18665.024    40.598357    252.36421 
   12300    97.446806   -1605.8643    75437.709   -17336.195    1324.2546    -18660.45    40.767461     246.9483 
   12350    97.940757   -1630.8291    75349.647   -17312.897    1330.9672   -18643.864    40.997654    248.20006 
   12400    96.483854   -1151.0582    75360.416   -17319.163    1311.1686   -18630.332    41.045782      244.508 
   12450     98.82271   -1326.9393    75425.977   -17311.106    1342.9525   -18654.058     41.05683    250.43509 
   12500    98.060764   -1598.6801    75432.043   -17299.882     1332.598    -18632.48    41.345024    248.50418 
   12550    99.557973   -1294.1397    75464.459   -17278.679    1352.9444   -18631.624    41.431686    252.29839 
   12600    100.69868   -1513.3279    75463.479   -17271.274     1368.446    -18639.72     41.29306    255.18914 
   12650    101.07663   -1160.3891    75454.021    -17268.11    1373.5822   -18641.692     41.46219    256.14695 
   12700    98.504666   -1473.9938    75436.304   -17255.053    1338.6304   -18593.683    41.683016    249.62911 
   12750    97.583496   -1433.4792    75438.638   -17268.438    1326.1122   -18594.551    41.916395     247.2947 
   12800    100.28256   -1447.5157    75411.887   -17273.807    1362.7912   -18636.598    41.940179    254.13463 
   12850    98.660185    -1319.771     75475.31   -17246.265    1340.7439   -18587.009    42.185548    250.02323 
   12900    98.634729   -1567.0268    75506.797   -17238.992    1340.3979    -18579.39    42.405659    249.95872 
   12950    98.675963   -1559.4396    75501.912   -17231.833    1340.9583   -18572.791    42.751362    250.06321 
   13000    100.87148   -1437.1729    75547.247   -17221.188    1370.7943   -18591.982    42.975488    255.62707 
   13050    101.48591   -1335.1382    75597.733   -17220.441    1379.1441   -18599.585    43.280528    257.18414 
   13100    96.199792   -1430.7198    75608.786   -17248.916    1307.3083   -18556.224     43.42716    243.78813 
   13150    100.11697   -1407.2411    75669.812   -17229.736    1360.5409   -18590.277    43.401237      253.715 
   13200     100.2756   -1556.2277    75640.093   -17232.982    1362.6965   -18595.678    43.567605    254.11698 
   13250    97.411542   -1419.9574    75667.619   -17286.483    1323.7754   -18610.259    43.591773    246.85893 
   13300    100.70735   -1118.7348    75727.447   -17293.988    1368.5639   -18662.552    43.654878    255.21112 
   13350    98.395065   -1228.4997    75806.768   -17311.448     1337.141   -18648.589    44.023859    249.35136 
   13400    98.390896   -1157.5175    75855.365   -17307.262    1337.0844   -18644.347    44.398193     249.3408 
   13450    98.059012   -1364.5411     75882.37   -17286.182    1332.5742   -18618.756     44.72279    248.49974 
   13500    100.89544    -1382.515    75893.218   -17298.517    1371.1199   -18669.637    45.002265    255.68778 
   13550    97.589935   -1410.1887    75867.961   -17347.169    1326.1997   -18673.369    44.902125    247.31101 
   13600     96.32656   -1534.6491    75848.951   -17348.843     1309.031   -18657.874    45.298158    244.10939 
   13650    96.934039   -1207.8726    75899.489   -17372.538    1317.2864   -18689.824    45.524964    245.64885 
   13700    95.115858   -1448.3421    75901.171   -17363.044    1292.5782   -18655.622    45.463469    241.04124 
   13750    96.498989   -1499.3847     75839.15    -17384.51    1311.3743   -18695.884     45.52384    244.54636 
   13800    95.492772   -1416.4133    75834.614   -17399.081    1297.7003   -18696.781    45.833328    241.99641 
   13850    95.003725   -1349.5298     75853.89   -17393.824    1291.0544   -18684.878    46.098387    240.75708 
   13900    95.925315   -1190.9633    75810.116   -17390.997    1303.5783   -18694.575    46.183467    243.09256 
   13950    96.499765   -1345.7403    75799.143    -17384.17    1311.3848   -18695.555    46.185088    244.54832 
   14000    97.246937   -1348.7634    75789.617   -17387.399    1321.5385   -18708.938    46.454136    246.44179 
   14050    97.663225   -1328.8027    75850.032   -17354.562    1327.1957   -18681.757    46.477397    247.49674 
   14100    99.172902   -1583.1679    75852.278   -17353.004    1347.7114   -18700.716    46.526163    251.32255 
   14150    95.836003   -1273.1119    75884.523   -17344.215    1302.3646    -18646.58    46.417692    242.86622 
   14200    97.913589   -1256.1015    75856.092   -17312.146     1330.598   -18642.744    46.210339    248.13121 
   14250    96.422092   -1152.1303    75856.709   -17317.684    1310.3293   -18628.013    46.772973    244.35148 
   14300    97.784489   -1423.3168    75836.822    -17323.67    1328.8436   -18652.513    47.218651    247.80405 
   14350    97.874472   -1270.1322    75694.621   -17355.667    1330.0664   -18685.733    47.548505    248.03208 
   14400    98.552049   -1291.3119    75585.918   -17333.183    1339.2744   -18672.457    47.714545    249.74919 
   14450    99.566569   -1295.1863    75559.188   -17321.148    1353.0612   -18674.209    47.928451    252.32017 
   14500    97.457168   -1352.7485    75601.536   -17328.588    1324.3955   -18652.983    48.401167    246.97456 
   14550    96.179398   -1318.6311    75623.977   -17382.965    1307.0312   -18689.996    48.528572    243.73645 
   14600    97.640225   -1174.9254    75643.682    -17348.35    1326.8831   -18675.233    48.437126    247.43846 
   14650     97.22087   -1584.4123    75584.287   -17314.058    1321.1843   -18635.242    48.575593    246.37573 
   14700    97.926254   -1369.6142    75580.638   -17332.022    1330.7701   -18662.793    48.738395    248.16331 
   14750    96.982059   -1329.5686    75552.952    -17321.22    1317.9389   -18639.159    49.017311    245.77054 
   14800    97.819366   -1236.2405    75553.708   -17305.885    1329.3176   -18635.203    48.671016    247.89244 
   14850    95.634632    -1596.021    75639.786   -17273.063    1299.6281   -18572.691     48.96627    242.35591 
   14900    99.776423   -1289.4452    75641.885   -17261.677     1355.913    -18617.59    49.096207    252.85198 
   14950    95.916774   -1441.2063    75628.054    -17284.12    1303.4623   -18587.582    49.434531    243.07091 
   15000    98.421478   -1343.0723    75605.037   -17266.479       1337.5   -18603.979    49.803936     249.4183 
   15050    100.02796   -1305.7722    75639.241   -17283.698    1359.3313   -18643.029    49.950472    253.48943 
   15100    101.86397   -1108.3218    75638.631   -17225.541    1384.2817   -18609.823    50.062514     258.1422 
   15150    97.321473   -1513.4887    75570.541   -17271.024    1322.5514   -18593.575    50.087017    246.63068 
   15200    101.15792   -1453.7921    75557.234   -17269.596    1374.6869   -18644.283    50.293588    256.35295 
   15250    98.851533   -1798.9903    75579.924   -17294.155    1343.3442   -18637.499    50.691001    250.50814 
   15300     98.18425     -1759.46    75598.942     -17296.7    1334.2761   -18630.976     50.91711    248.81712 
   15350     99.19244   -1340.3495    75537.643   -17255.392     1347.977   -18603.369    50.992864    251.37206 
   15400    103.81602   -1306.7177    75530.549   -17235.984    1410.8092   -18646.794    51.120968    263.08907 
   15450    98.877992    -1512.479    75533.773   -17235.775    1343.7038   -18579.479    51.148434    250.57519 
   15500    100.56267   -1149.6976    75527.453   -17271.024    1366.5977   -18637.622    51.346182    254.84447 
   15550     99.80621   -1131.2279     75620.72   -17269.983    1356.3178   -18626.301    51.452675    252.92747 
   15600    98.114667   -1085.9528    75673.405   -17281.373    1333.3305   -18614.703    51.625508    248.64078 
   15650    100.38091   -1238.1931    75728.135   -17248.621    1364.1276   -18612.749    51.845991    254.38385 
   15700    101.41499   -1648.3058     75787.45   -17245.312    1378.1803   -18623.492    51.906138    257.00442 
   15750    96.795361   -1293.2872    75836.763   -17252.952    1315.4018   -18568.354    51.976713    245.29742 
   15800    101.27134   -997.25181    75927.033   -17239.779    1376.2282   -18616.008    52.445669    256.64037 
   15850    101.21165   -1082.3595    76050.627   -17216.914    1375.4171   -18592.331    52.633882    256.48912 
   15900    97.643924   -1093.8955    76115.902   -17268.117    1326.9334   -18595.051    52.722451    247.44783 
   15950    96.744418   -1569.7502    76157.248   -17281.132    1314.7095   -18595.841    52.964235    245.16832 
   16000    97.625763   -1081.1196    76188.989   -17259.535    1326.6866   -18586.222    53.436997    247.40181 
   16050    96.203874    -981.5407    76206.513   -17284.164    1307.3638   -18591.528    53.665532    243.79848 
   16100    98.252097     -1408.39    76295.459   -17285.827    1335.1982   -18621.025    53.711815    248.98906 
   16150    98.077707   -1003.1538    76357.911   -17287.208    1332.8283   -18620.036    54.037021    248.54712 
   16200    99.585273   -1440.3423    76404.079   -17259.791    1353.3154   -18613.106    54.125956    252.36757 
   16250     97.48109   -1716.9367    76429.392   -17282.589    1324.7205   -18607.309    54.274855    247.03518 
   16300    95.242485   -1698.8669    76409.386   -17307.095     1294.299   -18601.394    54.455073    241.36214 
   16350    97.125793    -1405.662    76420.295   -17284.903    1319.8922   -18604.795    54.589603    246.13479 
   16400    98.961504   -1523.4154    76419.414   -17266.283    1344.8386   -18611.121    54.758412    250.78682 
   16450    98.339107   -1291.4587    76456.413   -17260.941    1336.3806   -18597.321    54.858162    249.20956 
   16500    100.88281   -1239.6297    76464.647   -17231.919    1370.9482   -18602.867    54.898356    255.65577 
   16550    97.711233   -1416.4409    76474.599   -17243.082    1327.8481    -18570.93    55.390225    247.61841 
   16600    99.923689    -1714.891    76425.647    -17241.42    1357.9143   -18599.335    55.327233    253.22518 
   16650    99.024157    -1235.961    76371.409   -17247.411    1345.6901   -18593.101    55.732974     250.9456 
   16700    95.834693   -1477.9795    76341.268   -17288.647    1302.3468   -18590.994    55.978089    242.86291 
   16750    96.486431   -1628.5858    76299.703   -17293.866    1311.2036    -18605.07    56.099009    244.51453 
   16800    99.391669   -1412.2888    76322.959   -17243.928    1350.6844   -18594.612      56.2515    251.87694 
   16850     99.61851   -1452.8979    76353.874   -17207.278     1353.767   -18561.045    56.524745     252.4518 
   16900    101.18419   -1458.6765    76327.798   -17185.548    1375.0439   -18560.592    56.888956    256.41952 
   16950    100.21693   -1314.8238    76290.357   -17186.671    1361.8993    -18548.57    56.578679    253.96831 
   17000    103.02771   -1007.7308     76253.76   -17171.527    1400.0964   -18571.623    56.614764    261.09134 
   17050     100.1047    -1310.397    76326.247   -17175.468    1360.3741   -18535.843    56.926536     253.6839 
   17100    103.14855   -1531.0169    76305.088   -17157.741    1401.7385    -18559.48    57.565558    261.39757 
   17150    99.579731   -1498.3996    76315.884   -17160.626      1353.24   -18513.866    58.041612    252.35353 
   17200    99.924059   -1360.6391    76328.929   -17170.024    1357.9193   -18527.944    58.268348    253.22612 
   17250    100.31465   -1700.3298    76335.042   -17196.957    1363.2272   -18560.184    58.573261    254.21594 
   17300    97.884373   -1484.3442    76303.625   -17213.536     1330.201   -18543.737    59.008486    248.05717 
   17350    99.528277   -1350.4852    76275.736   -17189.052    1352.5408   -18541.593    59.196724    252.22313 
   17400    99.489959   -1606.0143    76293.152   -17159.614    1352.0201   -18511.634    59.449883    252.12603 
   17450    100.12422   -1510.7804    76345.339   -17175.259    1360.6394   -18535.898    59.431763    253.73336 
   17500    98.095552   -1653.2838    76319.003   -17208.641    1333.0708   -18541.712    59.686385    248.59234 
   17550      97.9807   -1640.2422    76308.331   -17238.398      1331.51   -18569.908    59.792681    248.30129 
   17600    96.299049   -1482.1583    76232.672   -17242.712    1308.6572   -18551.369    59.847281    244.03967 
   17650    99.196915   -1536.3308    76170.734   -17261.769    1348.0378   -18609.807    59.802204     251.3834 
   17700    97.385173   -1661.8831    76148.089   -17243.973    1323.4171    -18567.39    59.838782    246.79211 
   17750    100.34911   -1262.4817    76179.679   -17225.232    1363.6955   -18588.927    60.217685    254.30327 
   17800    99.255051   -1555.6488    76191.483   -17227.302    1348.8278    -18576.13    60.493246    251.53073 
   17850    99.708155   -1402.3501     76188.34   -17227.185    1354.9853    -18582.17    60.436297    252.67898 
   17900    100.63227   -1415.5221    76161.527   -17239.934    1367.5436   -18607.478    60.628537    255.02087 
   17950    95.979523   -1526.5923    76094.213   -17226.681     1304.315   -18530.996    60.958512    243.22993 
   18000    97.618973   -1431.9867    76045.015   -17261.935    1326.5943   -18588.529     61.42184     247.3846 
   18050    98.654204    -1469.874    76005.011   -17218.427    1340.6626    -18559.09    61.372538    250.00807 
   18100    97.989668   -1533.4435    75932.688     -17213.1    1331.6319   -18544.732    61.143984    248.32401 
   18150     100.6578   -1023.6834    75934.862   -17199.392    1367.8905   -18567.283    61.126293    255.08556 
   18200    97.225698   -1269.6793    75991.041   -17225.462    1321.2499   -18546.712    61.155916    246.38797 
   18250    98.634925   -1263.1655    76016.307    -17204.82    1340.4006    -18545.22    61.243271    249.95921 
   18300    95.877739   -1187.0629    75988.173   -17193.329    1302.9318   -18496.261    61.043718    242.97199 
   18350    99.801146   -1431.2085    76027.017   -17189.644     1356.249   -18545.893    61.149892    252.91463 
   18400     100.7884   -1283.3891    76062.163   -17188.061    1369.6652   -18557.726    61.152478    255.41651 
   18450    99.571949   -1376.6857    76128.141   -17150.642    1353.1343   -18503.776    61.321955     252.3338 
   18500    101.74023   -1534.7216    76126.355   -17134.997    1382.6002   -18517.597    61.528461    257.82863 
   18550    98.991295   -1277.4826     76074.06   -17164.639    1345.2435   -18509.883    61.968459    250.86232 
   18600    96.530346   -1405.2051    76047.798   -17179.416    1311.8004   -18491.217    62.328547    244.62582 
   18650    98.996031   -1173.3404    76088.321   -17171.906    1345.3078   -18517.214    62.676438    250.87432 
   18700    95.603195   -1347.3905    76121.531   -17195.291    1299.2009   -18494.492     62.67386    242.27625 
   18750    101.58058   -1253.8433    76146.375   -17203.465    1380.4306   -18583.896    62.865909    257.42405 
   18800    97.711303   -1494.5858    76110.001   -17195.353     1327.849   -18523.202    63.246084    247.61858 
   18850    100.32272    -1227.411    76138.896   -17201.781    1363.3369   -18565.118    63.300487    254.23639 
   18900    96.588798   -1394.3287     76069.09   -17220.592    1312.5947   -18533.187    63.215991    244.77395 
   18950    100.90114   -1498.2247    75988.353   -17228.475    1371.1973   -18599.672    63.596993    255.70221 
   19000    99.628421   -1138.6047    75927.909   -17213.964    1353.9017   -18567.866     64.06491    252.47692 
   19050     97.64564   -1407.2746    75944.763   -17223.997    1326.9567   -18550.954    64.411008    247.45218 
   19100    98.605365    -1332.034    76058.735   -17214.259    1339.9989   -18554.258     64.51841     249.8843 
   19150    97.473178   -1165.9136    76090.086   -17242.189     1324.613   -18566.802    64.756547    247.01513 
   19200    97.588476   -1481.3618    76118.884   -17247.459    1326.1799   -18573.639    64.846418    247.30732 
   19250    96.047089   -1669.0259    76024.592   -17224.718    1305.2332   -18529.952    64.935072    243.40116 
   19300    96.680602    -1599.526    75984.101   -17248.312    1313.8423   -18562.154    65.032379     245.0066 
   19350    98.854297   -1323.6712    75974.032   -17245.752    1343.3818   -18589.134    65.342342    250.51514 
   19400     99.85371   -1386.1671    76003.881   -17236.551    1356.9633   -18593.514    65.825135    253.04784 
   19450    102.10971   -1137.9264     76073.49   -17223.763    1387.6212   -18611.384     66.27728    258.76495 
   19500    99.628193     -1487.81    76077.314   -17239.586    1353.8986   -18593.484     66.10676    252.47634 
   19550    97.861104   -1240.7223    76105.092   -17246.239    1329.8847   -18576.124    66.175778    247.99821 
   19600    99.879946   -1322.3393    76149.113   -17251.612    1357.3198   -18608.932    66.585581    253.11433 
   19650    98.148407   -1189.7513    76214.908   -17247.522    1333.7891   -18581.311    66.557108    248.72629 
   19700    98.281611   -1359.9955    76282.699   -17260.817    1335.5992   -18596.416    66.614963    249.06385 
   19750      99.5496   -1517.4757    76289.041   -17278.803    1352.8306   -18631.634     66.70432    252.27717 
   19800      96.7373   -1481.5148    76262.041   -17273.737    1314.6128    -18588.35    66.723905    245.15028 
   19850    98.559676   -1688.0656    76231.825   -17276.114     1339.378   -18615.492    66.846276    249.76852 
   19900    98.412244   -1517.9933    76219.514   -17248.181    1337.3745   -18585.556     66.82012     249.3949 
   19950    97.440074    -1547.207    76162.658   -17269.972    1324.1632   -18594.135    66.946858    246.93124 
   20000     98.89971   -1724.5786    76051.585   -17271.954    1343.9989   -18615.953    66.997391    250.63023 
   20050    102.16209   -1408.9073    75997.697   -17226.604    1388.3331   -18614.937    67.195341    258.89771 
   20100    100.77802   -1789.8543    75954.581   -17240.407    1369.5242   -18609.931    67.652271    255.39021 
   20150    97.968334   -1620.3758     75877.05   -17239.297    1331.3419   -18570.639    67.793393    248.26995 
   20200    100.61695   -1172.5437     75779.03   -17196.527    1367.3354   -18563.863    68.024337    254.98203 
   20250    102.04633   -1612.5675    75734.515   -17245.611    1386.7599    -18632.37    68.157596    258.60434 
   20300    100.72846    -1179.999    75704.447   -17267.993    1368.8507   -18636.844      68.3223    255.26461 
   20350      99.0141    -1223.812    75693.765   -17280.066    1345.5534   -18625.619    68.141756    250.92011 
   20400    99.693721   -1074.4682    75732.664   -17299.051    1354.7891    -18653.84    68.313192     252.6424 
   20450    94.206818   -1370.3754     75786.11   -17343.269    1280.2248   -18623.494    68.278027    238.73757 
   20500    96.917869   -1458.9297    75777.723   -17309.486    1317.0666   -18626.553    68.303118    245.60787 
   20550    97.932567    -1476.123    75788.879   -17307.747    1330.8559   -18638.603    68.788208    248.17931 
   20600    97.828674   -1447.3692    75768.397   -17326.637     1329.444   -18656.081    69.101532    247.91602 
   20650    95.673228   -1452.5756    75802.039   -17346.661    1300.1526   -18646.814    69.415338    242.45372 
   20700     95.56538   -1531.3335    75819.293   -17346.149     1298.687   -18644.836    69.651352    242.18042 
   20750    96.543814   -1322.9377    75854.922   -17324.808    1311.9834   -18636.791    69.666547    244.65995 
   20800    100.05629   -1554.4976    75925.447   -17288.408    1359.7162   -18648.124    69.963064    253.56121 
   20850    103.00316   -1330.8652     75974.06   -17249.309    1399.7628   -18649.072    70.041378    261.02914 
   20900    99.067838   -1449.9289    76022.093   -17255.133    1346.2837   -18601.417    70.036063     251.0563 
   20950    99.959445   -1493.8475    76009.767   -17275.204    1358.4002   -18633.604    70.053764    253.31579 
   21000    99.373788   -1411.8492    76031.926   -17297.453    1350.4414   -18647.894    69.952456    251.83163 
   21050    98.499125    -1276.982    76039.162   -17318.903    1338.5551   -18657.458    70.096818    249.61507 
   21100    99.829391   -1462.2776    76059.673   -17279.266    1356.6328   -18635.899    70.287845    252.98621 
   21150    100.42317   -1238.8821    76045.683   -17277.057     1364.702   -18641.759    70.429569    254.49097 
   21200    98.522179   -1436.4452    76073.305   -17297.876    1338.8684   -18636.744    70.707153    249.67349 
   21250    100.96611   -1662.6565    76073.258   -17314.169    1372.0802   -18686.249    70.691778    255.86686 
   21300    98.288566   -1726.9957    76036.736   -17281.573    1335.6937   -18617.267    70.808742    249.08147 
   21350    99.987707   -1544.2045     75977.02   -17244.144    1358.7843   -18602.929    70.945628    253.38741 
   21400    102.74602   -1868.9693    75961.893   -17238.888    1396.2684   -18635.156     70.77513     260.3775 
   21450    98.090637   -1306.7256    75884.123   -17277.689     1333.004   -18610.693     70.60589    248.57989 
   21500    98.545889   -1250.8283     75945.18   -17304.785    1339.1906   -18643.976    70.967415    249.73358 
   21550    99.199455   -1254.2703    75976.305    -17332.16    1348.0723   -18680.232     71.07309    251.38984 
   21600       99.666   -1285.8235    75946.674   -17293.477    1354.4124    -18647.89    71.361633    252.57215 
   21650    98.656257    -1260.828     75988.26   -17332.221    1340.6905   -18672.911    71.866004    250.01327 
   21700    99.440745    -1295.964    75900.944   -17315.026    1351.3513   -18666.378    71.953586    252.00131 
   21750    99.373777   -1317.7398    75876.003   -17298.813    1350.4412   -18649.255    72.482661     251.8316 
   21800    98.006639   -1442.2347    75816.386   -17334.538    1331.8625   -18666.401    72.915007    248.36702 
   21850    98.469913   -1366.2695    75772.164   -17335.377    1338.1582   -18673.535     73.33698    249.54104 
   21900    99.236923    -1327.212    75796.739   -17367.742    1348.5815   -18716.323    73.822834    251.48479 
   21950    97.883243   -1206.7195    75737.595   -17405.698    1330.1856   -18735.883    74.251015    248.05431 
   22000    98.057396    -1199.512    75762.917    -17379.79    1332.5523   -18712.342     74.15361    248.49565 
   22050    97.688141   -1223.7182    75820.184   -17366.878    1327.5343   -18694.412     74.69947    247.55989 
   22100    97.025526   -1152.7986     75928.52   -17372.244    1318.5296   -18690.774    75.177263     245.8807 
   22150    99.609969   -1169.6731    75998.975   -17342.017     1353.651   -18695.668    75.214649    252.43015 
   22200     97.69147   -1312.5252    75950.728    -17314.84    1327.5795    -18642.42    75.476917    247.56832 
   22250    97.053708   -1302.2053    75916.793   -17331.806    1318.9126   -18650.718    75.645481    245.95212 
   22300    98.192787   -1176.1341    75942.982   -17327.783    1334.3922   -18662.176    75.674839    248.83875 
   22350     101.7157   -1288.1166     75933.26   -17328.792    1382.2669   -18711.059    75.490708    257.76648 
   22400     98.03607   -1489.1851    75941.803   -17365.334    1332.2625   -18697.596    75.469935     248.4416 
   22450     98.06822   -1138.7644    75990.893   -17353.083    1332.6994   -18685.782    75.642029    248.52308 
   22500    93.320347    -1114.412    76019.106   -17347.199    1268.1781   -18615.377    75.613912    236.49109 
   22550     96.77745   -1500.9778    76063.844   -17331.073    1315.1584   -18646.232     75.48733    245.25203 
   22600    99.270889   -1354.4069    76119.831   -17305.106     1349.043   -18654.149    75.740251    251.57086 
   22650    98.979251   -1182.5429    76173.111   -17290.629    1345.0798   -18635.709    75.888593     250.8318 
   22700    101.81415   -1106.7798    76172.664   -17308.448    1383.6048   -18692.053    75.904529    258.01597 
   22750    99.068361   -1447.7816    76142.034   -17302.254    1346.2908   -18648.545    75.993469    251.05762 
   22800    98.195905   -1552.0231    76134.457    -17294.32    1334.4345   -18628.755    76.127192    248.84666 
   22850    95.344642   -1442.8175    76048.987   -17326.738    1295.6873   -18622.425    76.451869    241.62102 
   22900    97.682329   -845.80348    76006.165   -17300.792    1327.4553   -18628.248    76.337785    247.54516 
   22950      97.9195   -1469.4836    75969.763   -17317.444    1330.6783   -18648.123    76.460911    248.14619 
   23000    98.449955    -1141.584    75992.311   -17297.867    1337.8869   -18635.754    76.504032    249.49046 
   23050    95.476675   -1356.5932    76003.521   -17345.236    1297.4815   -18642.718    76.614503    241.95562 
   23100    97.278496   -1467.0814     75994.14   -17319.107    1321.9674   -18641.075    76.606858    246.52177 
   23150    97.331789   -1731.1818    75868.225   -17295.439    1322.6916    -18618.13    76.926633    246.65682 
   23200    97.538529   -1614.2503    75778.367   -17269.165    1325.5011   -18594.666     77.20033    247.18074 
   23250    97.205725   -1124.5541    75792.966   -17256.081    1320.9785    -18577.06    77.231338    246.33735 
   23300    98.677453   -1184.9159    75765.704   -17234.783    1340.9785   -18575.762    77.336063    250.06699 
   23350    96.854332   -1262.8303    75797.381   -17279.054    1316.2032   -18595.257    77.524461    245.44686 
   23400    99.637285   -1283.9023     75828.16   -17292.723    1354.0222   -18646.745    77.587917    252.49938 
   23450    97.879579   -1623.3831    75835.388   -17293.941    1330.1358   -18624.077     77.48329    248.04502 
   23500    95.636495   -1072.5794    75826.112     -17266.1    1299.6534   -18565.754    77.502673    242.36063 
   23550    101.54721   -1352.4952    75765.713   -17279.578    1379.9772   -18659.555    77.542469    257.33949 
   23600    99.923965   -1317.0923    75738.568   -17269.564     1357.918   -18627.482    77.725142    253.22588 
   23650    99.009302   -1395.3846    75733.592   -17294.324    1345.4882   -18639.812    78.212914    250.90795 
   23700    100.38159   -1214.5771    75770.253   -17265.843    1364.1369   -18629.979    78.938831    254.38557 
   23750    97.705323   -1490.2009    75757.702   -17293.234    1327.7678   -18621.002    79.091283    247.60343 
   23800    98.240237   -1406.0061    75775.956   -17288.296     1335.037   -18623.333    79.214074      248.959 
   23850    99.079409   -1651.7046    75704.885   -17298.333    1346.4409   -18644.774    79.140337    251.08562 
   23900    97.650025   -1676.8089    75698.216   -17318.615    1327.0163   -18645.632     79.29868    247.46329 
   23950    98.165389   -1753.7743     75630.79   -17310.629    1334.0198   -18644.649    79.335366    248.76932 
   24000    100.41854   -1375.1795    75621.438   -17290.828    1364.6391   -18655.468    79.094814    254.47924 
   24050    99.357453   -1535.7275    75569.235   -17272.099    1350.2194   -18622.318    79.362507    251.79023 
   24100    100.77545   -1103.3505    75508.484   -17279.503    1369.4893   -18648.993    79.661652    255.38371 
   24150    97.399737   -1674.9859    75511.317   -17301.187     1323.615   -18624.802    79.724971    246.82902 
   24200    94.225535   -1299.0419    75486.416   -17321.885    1280.4791   -18602.364    80.229182      238.785 
   24250    97.169789   -1739.8736    75479.807   -17309.676    1320.4901   -18630.166     80.63985    246.24629 
   24300    99.629687   -1292.8076    75430.873   -17263.508    1353.9189   -18617.427    80.860529    252.48012 
   24350    97.341347    -1300.551    75464.899   -17303.726    1322.8215   -18626.548    80.852584    246.68105 
   24400    99.594374   -1304.6085    75535.308   -17277.958     1353.439   -18631.397    80.776155    252.39063 
   24450    101.08894   -1358.5505    75591.927   -17266.292    1373.7495   -18640.042    81.221246    256.17815 
   24500    98.629299   -1246.3347    75627.648   -17266.344    1340.3241   -18606.668    81.241121    249.94495 
   24550    98.042441   -1449.1309    75672.998   -17271.273     1332.349   -18603.622    81.626442    248.45775 
   24600    99.294776   -1119.8384    75648.415   -17246.195    1349.3676   -18595.562    81.752794     251.6314 
   24650    100.16606   -1346.0883    75701.753   -17242.751     1361.208   -18603.959    81.938616    253.83939 
   24700    97.679935   -1222.3013     75716.77   -17249.645    1327.4227   -18577.068     81.91405    247.53909 
   24750    95.503615   -1352.8566    75719.174   -17279.847    1297.8476   -18577.694    81.861627    242.02389 
   24800    98.578428   -1279.6332    75765.041   -17271.642    1339.6328   -18611.275    81.729941    249.81604 
   24850    100.52277    -1458.527    75776.618   -17214.018    1366.0554   -18580.074    81.712904    254.74335 
   24900    98.415051   -1319.2497    75760.238   -17247.694    1337.4126   -18585.107    81.783495    249.40201 
   24950    97.332304   -1562.7513     75816.85   -17274.775    1322.6986   -18597.473    82.222273    246.65813 
   25000     99.79765   -1220.4675    75808.528   -17280.332    1356.2015   -18636.533    82.529276    252.90577 
   25050    98.168597   -1420.7526    75785.844   -17284.066    1334.0634    -18618.13    82.566816    248.77745 
   25100    98.127326   -1647.5011    75787.239   -17286.949    1333.5026   -18620.451    82.864074    248.67286 
   25150    94.743497   -1597.9268    75747.017   -17309.104     1287.518   -18596.622    82.482237    240.09761 
   25200    94.396147   -1678.0813    75675.571   -17345.687    1282.7977   -18628.485    82.520167    239.21736 
   25250    95.525151   -1539.3598    75596.094    -17316.84    1298.1403    -18614.98     82.47048    242.07847 
   25300    96.539264   -1245.3188    75554.765    -17283.67    1311.9216   -18595.591    82.529207    244.64842 
   25350    98.339861   -1239.3041    75561.943   -17250.643    1336.3908   -18587.034    82.597247    249.21147 
   25400     97.66333   -1275.2283    75572.799   -17269.917    1327.1971   -18597.114    83.075029    247.49701 
   25450    96.430834   -1177.5163    75647.344   -17278.099    1310.4481   -18588.547    83.706382    244.37364 
   25500    99.713132   -1104.3874    75669.397   -17266.569    1355.0529   -18621.622    84.065815    252.69159 
   25550    99.127725   -996.27775    75734.985   -17259.934    1347.0975   -18607.032    84.304998    251.20806 
   25600    100.33803   -830.37943     75857.29    -17249.53     1363.545   -18613.075    84.622305     254.2752 
   25650    96.897845   -1521.1639    75867.428   -17246.629    1316.7945   -18563.424    84.587301    245.55713 
   25700    97.953694   -1316.7512    75837.852   -17235.536     1331.143   -18566.679    84.647594    248.23285 
   25750    97.639474   -1424.1032     75847.72   -17230.805    1326.8729   -18557.678    85.059397    247.43655 
   25800      97.7258    -1753.376    75792.428   -17269.603     1328.046   -18597.649    85.058826    247.65532 
   25850    98.386339   -1409.3283    75754.103   -17272.797    1337.0224   -18609.819    84.934608    249.32925 
   25900    99.315999   -1550.6258    75743.668   -17249.826    1349.6561   -18599.482    84.924126    251.68518 
   25950    100.58336   -1415.8847    75737.746   -17245.402    1366.8789   -18612.281    84.914012    254.89691 
   26000    102.64033   -1251.9476    75772.386   -17222.739     1394.832   -18617.571    84.788769    260.10964 
   26050    99.309875   -1599.9749    75798.084   -17197.192    1349.5728   -18546.764    84.820123    251.66966 
   26100    100.41275   -1729.0299    75778.403   -17230.973    1364.5604   -18595.533    84.937179    254.46455 
   26150    96.922686   -1570.5676    75774.225   -17258.284    1317.1321   -18575.416    85.444284    245.62008 
   26200    101.20444   -1183.9714    75766.821   -17238.271     1375.319    -18613.59    85.705813    256.47083 
   26250    98.751683   -1359.1869    75798.243   -17248.526    1341.9873   -18590.513    85.520834     250.2551 
   26300    96.941091   -1818.4352    75834.662   -17213.449    1317.3822   -18530.831    85.764927    245.66672 
   26350    98.836667   -1209.3324    75818.231    -17266.11    1343.1422   -18609.253    85.965967    250.47046 
   26400    99.557539   -1245.5884    75820.636   -17234.254    1352.9385   -18587.192    86.010622    252.29729 
   26450    98.860861   -1564.8981    75781.254   -17299.081     1343.471   -18642.552    85.989746    250.53178 
   26500      99.0644   -1485.4867    75831.563   -17272.143    1346.2369    -18618.38     85.93898    251.04758 
   26550    97.766116   -1452.0773    75875.181   -17306.226    1328.5939    -18634.82    86.080638    247.75749 
   26600    98.084941   -1466.3253    75923.857   -17321.187    1332.9266   -18654.113    86.467657    248.56545 
   26650    97.262715   -1376.1006    75871.063   -17317.292    1321.7529   -18639.045    86.740004    246.48178 
   26700    93.954012   -1680.5585    75861.065   -17350.712    1276.7893   -18627.501    87.096555    238.09691 
   26750    97.369227   -1352.1832     75858.09   -17360.463    1323.2004   -18683.663    87.281703     246.7517 
   26800    96.119826   -1466.5095    75824.966   -17359.925    1306.2216   -18666.146    87.594379    243.58548 
   26850    95.991164   -1525.8557     75745.69   -17381.335    1304.4732   -18685.809    87.785244    243.25943 
   26900    96.824805   -1357.2689    75748.101   -17373.037    1315.8019   -18688.839    88.015004    245.37203 
   26950    97.421026   -1710.5065    75690.536   -17355.763    1323.9043   -18679.667    88.133616    246.88297 
   27000    96.975154   -1230.4108    75678.274   -17333.722    1317.8451   -18651.567    88.125852    245.75304 
   27050     98.70093   -1323.6375    75662.149   -17300.702    1341.2976   -18641.999    88.663893    250.12648 
   27100    99.476578    -1337.657    75677.654   -17296.525    1351.8382   -18648.363    89.056534    252.09212 
   27150     99.96989     -1394.33      75658.6   -17295.704    1358.5421   -18654.246    89.244315    253.34226 
   27200     99.46199   -1352.3495    75693.177   -17309.934      1351.64   -18661.574    89.624446    252.05515 
   27250    98.773261   -1459.9393    75694.354    -17322.17    1342.2805   -18664.451    89.461919    250.30978 
   27300    100.80678   -1421.0268     75701.03   -17284.202     1369.915   -18654.117     89.61385    255.46309 
   27350    98.928062   -1337.2574    75708.266   -17296.488    1344.3842   -18640.872    89.741849    250.70208 
   27400    97.703388   -1082.8194     75774.29   -17306.326    1327.7415   -18634.068    89.754596    247.59852 
   27450    95.416834   -1534.0508     75803.11   -17343.955    1296.6683   -18640.623    90.474628    241.80397 
   27500    98.110553   -1160.9047      75749.1   -17348.368    1333.2746   -18681.643    90.728277    248.63036 
   27550    97.040834   -1491.6263    75755.043   -17357.189    1318.7377   -18675.927    90.805563    245.91949 
   27600    96.128681   -1471.1168    75763.039   -17333.906     1306.342   -18640.248    90.771175    243.60793 
   27650    97.729713   -1749.0858    75710.688   -17317.998    1328.0992   -18646.097    90.834498    247.66524 
   27700    97.489447   -1504.7135    75608.769   -17303.223    1324.8341   -18628.058    90.495364    247.05636 
   27750    96.657492   -1194.2568    75540.315   -17282.705    1313.5283   -18596.233    90.130551    244.94803 
   27800    101.34391   -1329.9147     75593.24   -17292.733    1377.2144   -18669.947    90.301482     256.8243 
   27850    99.477377   -1415.2085    75627.354   -17337.593    1351.8491   -18689.442    90.524583    252.09414 
   27900    97.098177   -1304.9126    75674.244   -17302.977    1319.5169   -18622.494    91.130866    246.06481 
   27950    97.963645   -1158.7511    75667.463   -17274.815    1331.2782   -18606.093    91.391045    248.25806 
   28000    95.982201   -1352.7048    75603.562   -17250.104    1304.3514   -18554.456    91.636595    243.23672 
   28050    98.847002   -1188.0427    75602.501   -17257.665    1343.2826   -18600.947    91.643663    250.49666 
   28100    97.962086   -1069.3261    75637.968   -17238.396     1331.257   -18569.653    91.381229    248.25411 
   28150    97.969195   -1150.0108    75564.091   -17289.992    1331.3537   -18621.345    91.303787    248.27213 
   28200    95.577766   -1545.7823    75551.596   -17314.946    1298.8553   -18613.801    91.424481     242.2118 
   28250    97.001181   -1522.3409    75528.531   -17293.975    1318.1988   -18612.173    91.094194      245.819 
   28300     93.49019   -1365.6068    75480.423   -17288.792    1270.4861   -18559.278    90.787286     236.9215 
   28350    98.512011    -1237.441    75464.954   -17293.252    1338.7303   -18631.982    90.969316    249.64773 
   28400    97.584828   -1324.3718     75446.79   -17300.278    1326.1303   -18626.408     91.40965    247.29807 
   28450    100.09992   -1284.6151    75478.726   -17279.576    1360.3092   -18639.886     91.70452    253.67179 
   28500    97.729731    -926.5853     75492.08   -17261.539    1328.0995   -18589.639    92.037732    247.66528 
   28550    98.487347   -1419.5845    75518.012   -17248.097    1338.3951   -18586.492    92.418652    249.58522 
   28600    97.467299    -1355.357    75471.336     -17255.4    1324.5331   -18579.933    92.618522    247.00023 
   28650     100.8413   -1277.7938    75492.352    -17249.39    1370.3842   -18619.774    92.476397    255.55058 
   28700    100.18634   -1326.8835    75493.935   -17244.209    1361.4835   -18605.693    92.449535    253.89078 
   28750    98.474452   -908.62274    75544.054   -17219.173    1338.2198   -18557.393    92.150731    249.55254 
   28800    99.476409   -1580.2799    75513.507   -17227.842     1351.836   -18579.678    92.510568    252.09169 
   28850    98.979431   -1582.6905    75496.633   -17226.767    1345.0823    -18571.85    92.425591    250.83225 
   28900    99.133874   -1528.3501      75448.5   -17252.523    1347.1811   -18599.705    92.491698    251.22364 
   28950    97.666909   -1114.1002    75524.763   -17281.239    1327.2457   -18608.485    92.621885    247.50608 
   29000    99.534345    -1038.869    75589.136   -17248.175    1352.6233   -18600.798    92.988281    252.23851 
   29050    95.761645   -1341.6379    75665.391   -17272.121    1301.3541   -18573.475     93.07059    242.67779 
   29100    97.246861   -1187.7662    75740.492   -17294.531    1321.5375   -18616.069     93.13809     246.4416 
   29150     95.96035   -1749.6081    75804.404   -17265.024    1304.0544   -18569.078     93.39266    243.18134 
   29200    96.774525   -1221.6711    75805.061   -17260.509    1315.1187   -18575.627    93.294428    245.24461 
   29250     96.98077   -1668.5713    75720.691   -17278.241    1317.9214   -18596.162    93.647646    245.76728 
   29300    98.333678   -1189.2808    75683.326   -17219.555    1336.3068   -18555.861    93.952158     249.1958 
   29350    99.970203   -1492.4281    75731.236   -17204.728    1358.5464   -18563.274    94.578932    253.34305 
   29400    97.774325   -1240.3223    75767.413    -17220.88    1328.7055   -18549.586    94.896603    247.77829 
   29450    99.797555   -1384.3356    75800.899   -17214.002    1356.2002   -18570.202    95.076802    252.90553 
   29500    99.494166   -987.34611    75768.984   -17257.559    1352.0773   -18609.637    95.164282    252.13669 
   29550    99.461491   -1376.8194    75827.649   -17280.769    1351.6332   -18632.402      95.1567    252.05389 
   29600     99.81335   -1346.7518    75856.208   -17286.216    1356.4148    -18642.63     95.28425    252.94556 
   29650     98.41039   -1243.8186    75837.354   -17290.139    1337.3493   -18627.489    95.090689     249.3902 
   29700    98.587053   -1158.8318    75893.259   -17300.489      1339.75   -18640.239    95.207444     249.8379 
   29750     96.33097   -1605.1629    75875.673   -17308.396     1309.091   -18617.487    95.647231    244.12056 
   29800    99.200289   -1134.3661    75891.797   -17276.934    1348.0836   -18625.018    95.523881    251.39195 
   29850    98.428641   -1044.8814    75938.667   -17317.855    1337.5973   -18655.452    95.454927    249.43645 
   29900    96.902413   -1204.7158    76039.671   -17290.525    1316.8566   -18607.382    95.685145    245.56871 
   29950     96.26473   -1412.4408    76066.173    -17294.93    1308.1908   -18603.121    96.114283     243.9527 
   30000     97.58109   -1515.8349    76033.913   -17254.888    1326.0795   -18580.967    96.252658     247.2886 
   30050    97.333914   -1367.8515    76023.559    -17258.53    1322.7205    -18581.25    96.178965    246.66221 
   30100    95.651358   -1497.6371    76046.368     -17265.1    1299.8554   -18564.955    96.467861     242.3983 
   30150    98.514846   -1580.3068    76049.257   -17232.316    1338.7688   -18571.085     96.37475    249.65491 
   30200     99.69744   -1369.4666    75980.365   -17275.286    1354.8397   -18630.126    96.204199    252.65182 
   30250    98.785036   -1628.5234    75997.198   -17259.294    1342.4405   -18601.734    96.649051    250.33962 
   30300    99.188575   -1488.9261    75968.697   -17215.261    1347.9244   -18563.186    96.866367    251.36227 
   30350    98.851176   -1079.0297    76001.703   -17250.812    1343.3393   -18594.152    96.914313    250.50723 
   30400    98.110623   -1746.0009    75974.566   -17290.004    1333.2756    -18623.28    97.033949    248.63053 
   30450    99.054657   -1319.5825    75956.608   -17296.647    1346.1046   -18642.751    97.024063    251.02289 
   30500    97.556212   -1301.7121    75910.769   -17279.076    1325.7414   -18604.818    96.823644    247.22555 
   30550    100.04974    -1314.193    75944.251   -17257.633    1359.6272    -18617.26     96.50349    253.54461 
   30600    99.128463   -1263.1031    76008.705   -17251.249    1347.1075   -18598.357    96.530927    251.20993 
   30650    99.779664    -1296.976    76099.471   -17270.158     1355.957   -18626.115    96.422584    252.86019 
   30700    100.61352   -1551.6528    76127.608   -17268.442    1367.2887    -18635.73    96.656318    254.97333 
   30750    99.373958   -1408.2535    76117.014   -17234.852    1350.4437   -18585.296    96.756868    251.83206 
   30800    101.03056   -1547.2376    76107.937   -17223.183    1372.9561   -18596.139    97.404097     256.0302 
   30850    100.83696   -1279.6154    76118.914   -17208.285    1370.3252    -18578.61    98.039709    255.53959 
   30900    100.52807   -1579.5793    76146.518   -17198.012    1366.1275    -18564.14    98.127591    254.75679 
   30950    100.81868   -1359.3888    76152.074   -17199.582    1370.0768   -18569.659    98.440407    255.49326 
   31000    102.02892    -1403.807      76147.5   -17219.114    1386.5234   -18605.637     98.95801    258.56024 
   31050    99.214594    -1269.915     76146.96   -17200.317     1348.278   -18548.595    99.333841     251.4282 
   31100    99.286096   -1602.5409    76111.945   -17225.428    1349.2497   -18574.678    99.485545     251.6094 
   31150    99.954008   -1460.2626    76118.751    -17218.55    1358.3263   -18576.876    99.782726    253.30201 
   31200    97.405422   -1439.3388    76012.323   -17257.023    1323.6922   -18580.715    100.11264    246.84342 
   31250    100.67522   -1583.0862    76028.122   -17281.843    1368.1272    -18649.97    100.53101     255.1297 
   31300    98.058239   -1336.2777    76050.237     -17258.2    1332.5637   -18590.764     100.4466    248.49778 
   31350    96.577378   -1437.2955    76062.842   -17262.723    1312.4395   -18575.162    100.36087    244.74501 
   31400    96.363815   -1517.4066    76041.856   -17250.614    1309.5373   -18560.151    100.64569     244.2038 
   31450    101.05657   -1790.3439    75943.682   -17246.703    1373.3095   -18620.012    101.11631     256.0961 
   31500     99.74291   -1549.0542    75901.157   -17254.833    1355.4576   -18610.291    101.28354    252.76705 
   31550    98.703032   -1722.1735    75857.186   -17234.612    1341.3261   -18575.938    100.86552    250.13181 
   31600    97.428954   -1398.6224    75819.244   -17222.658     1324.012    -18546.67    100.94134    246.90306 
   31650     98.71636   -1761.9154    75787.947   -17240.982    1341.5073   -18582.489    100.75015    250.16558 
   31700    100.43603   -1599.7445     75712.48   -17247.187    1364.8768   -18612.064    100.71224    254.52355 
   31750     98.49802   -1354.2718    75662.898   -17291.391    1338.5401   -18629.931    101.18464    249.61227 
   31800    97.368001   -1153.5217    75762.737   -17273.212    1323.1837   -18596.395    101.37748    246.74859 
   31850    99.634483   -1080.4087    75888.943   -17252.855    1353.9841   -18606.839    101.75811    252.49228 
   31900    102.05248   -1375.6457     75933.37   -17256.978    1386.8436   -18643.822    102.16714    258.61994 
   31950    99.280829   -1190.3369    76031.437   -17251.965    1349.1781   -18601.143    102.89359    251.59605 
   32000    99.483204    -1405.277     76069.38   -17245.458    1351.9283   -18597.386    103.12383    252.10891 
   32050    100.20803    -1570.182    76051.346   -17270.733    1361.7784   -18632.511    103.03452    253.94576 
   32100    101.07771   -1268.0288    76088.137   -17242.794    1373.5968    -18616.39    102.83972    256.14968 
   32150    100.15355    -1301.212    76158.678   -17215.775     1361.038   -18576.813     103.3401    253.80769 
   32200     98.89134   -1274.0565    76241.528   -17243.024    1343.8851   -18586.909    103.39663    250.60901 
   32250    99.784968   -1483.5621    76311.368   -17237.656    1356.0291   -18593.685     103.4199    252.87363 
   32300    100.19787    -1407.812    76279.308   -17254.603    1361.6402   -18616.243    103.87947       253.92 
   32350     95.78921   -1149.8647     76265.06   -17291.207    1301.7287   -18592.936    104.46148    242.74764 
   32400    99.677018    -1439.205    76299.197   -17279.053    1354.5621   -18633.615    104.36015    252.60007 
   32450    100.31657   -1280.6491    76405.856   -17265.769    1363.2534   -18629.022     104.8492    254.22082 
   32500    98.987405   -1449.2381    76485.502   -17288.401    1345.1906   -18633.592    104.74601    250.85246 
   32550    98.681971   -1493.7058    76486.178   -17304.391    1341.0399   -18645.431    104.88058    250.07844 
   32600    98.054689   -1490.9343    76484.496   -17270.807    1332.5155   -18603.322    105.02806    248.48879 
   32650    97.004352   -1315.8685    76508.931   -17301.984    1318.2419   -18620.226    104.99335    245.82704 
   32700    96.926617   -1339.2725     76517.47   -17295.791    1317.1855   -18612.976    105.12984    245.63004 
   32750    98.598673   -1128.4609    76529.313   -17272.628     1339.908   -18612.536    105.14853    249.86734 
   32800    99.597071   -1201.2817    76532.512   -17286.065    1353.4757   -18639.541    105.18108    252.39747 
   32850    98.570862   -1498.2449    76536.743   -17263.781      1339.53   -18603.311     105.4637    249.79686 
   32900    97.526578    -1593.412    76482.837   -17280.781    1325.3387   -18606.119    105.74198    247.15046 
   32950    97.410223   -1497.1544    76469.266   -17258.467    1323.7575   -18582.224    105.63311    246.85559 
   33000    96.970262   -1118.2306    76495.434   -17250.026    1317.7786   -18567.804     105.9906    245.74065 
   33050    96.023995   -1194.0091     76530.28   -17296.955    1304.9193   -18601.875    106.20193    243.34263 
   33100    96.539234   -1079.4131    76508.774   -17297.008    1311.9212   -18608.929    106.73459    244.64834 
   33150    95.406402   -1442.6731    76503.323    -17318.73    1296.5265   -18615.257    106.51789    241.77754 
   33200    95.238104   -1322.3565    76520.759   -17325.547    1294.2394   -18619.786    106.81226    241.35104 
   33250    97.358342   -1401.8201    76515.394   -17303.557    1323.0525   -18626.609     106.7984    246.72412 
   33300    95.300831   -1446.0771    76514.031    -17301.04    1295.0919   -18596.132    106.86036       241.51 
   33350    98.148344   -1011.9024    76555.385   -17324.995    1333.7882   -18658.783    107.67821    248.72613 
   33400    98.015116   -1451.3002     76613.11   -17348.882    1331.9777    -18680.86    107.69534     248.3885 
   33450    98.784368   -1361.3401    76622.743   -17302.325    1342.4315   -18644.757    107.92767    250.33793 
   33500    99.334419   -1438.3551    76647.405   -17326.333    1349.9064   -18676.239    108.11281    251.73186 
   33550    95.538312   -1365.1502    76621.847   -17382.341    1298.3191    -18680.66      107.918    242.11182 
   33600    96.293716    -1387.662     76651.09   -17377.989    1308.5847   -18686.574    108.03137    244.02615 
   33650    97.392854   -1274.6997    76642.816   -17376.721    1323.5215   -18700.242    108.09761    246.81157 
   33700    96.941987   -1521.6355    76647.151   -17369.454    1317.3944   -18686.849    108.04321    245.66899 
   33750    98.885355   -1386.0334    76649.785   -17383.966    1343.8038    -18727.77    108.22284    250.59385 
   33800    97.340566    -1343.688    76691.995   -17400.621    1322.8109   -18723.432    108.25334    246.67907 
   33850    96.035064   -1110.9748    76702.267   -17407.335    1305.0698   -18712.405    108.11685    243.37068 
   33900    92.845954   -1325.9848    76819.321   -17372.722    1261.7313   -18634.453     107.9695    235.28889 
   33950    99.971151   -1388.4339    76839.689   -17367.605    1358.5593   -18726.164    107.79538    253.34546 
[...]
   92000    101.41024   -1410.6903    75911.872   -17313.327    1378.1158   -18691.443    258.89609    256.99238 
   92050    99.025288   -1530.8985    75880.406   -17305.072    1345.7054   -18650.777    258.75831    250.94846 
   92100    99.197456   -1332.5666    75907.036   -17297.038    1348.0451   -18645.083    258.84637    251.38477 
   92150     97.85792   -1526.9976     75894.99   -17279.432    1329.8415   -18609.273    258.88558    247.99014 
   92200    100.28445   -1036.5676    75871.943   -17278.718    1362.8169   -18641.535     258.7784    254.13942 
   92250    99.478495   -1614.1333    75898.605   -17307.659    1351.8643   -18659.523    259.09886    252.09697 
   92300    97.636958   -1520.5031    75802.612   -17335.176    1326.8387   -18662.014    258.81476    247.43018 
   92350    100.63748   -1423.5697    75751.703    -17296.04    1367.6143   -18663.654    259.58424    255.03405 
   92400    101.95463   -1697.4358    75730.154   -17264.442    1385.5138   -18649.956     259.4847    258.37196 
   92450    100.13322   -1447.7848    75750.496   -17279.011    1360.7617   -18639.772    259.38374    253.75617 
   92500    100.83584   -1277.7028    75751.366   -17313.364    1370.3099   -18683.674    259.82057    255.53673 
   92550    101.08905   -1164.8707    75813.037   -17286.615     1373.751   -18660.366    260.27357    256.17843 
   92600    101.00343    -1115.395    75873.263   -17247.456    1372.5874   -18620.044     260.2263    255.96143 
   92650    98.196458   -1080.0095    75887.484   -17233.826     1334.442   -18568.268    260.22598    248.84806 
   92700    101.33421   -1152.0929    75879.577   -17224.228    1377.0826   -18601.311    260.45878     256.7997 
   92750    103.94262   -1198.7534    75857.596   -17203.284    1412.5296   -18615.814    260.70396     263.4099 
   92800    104.06222   -1259.2884    75836.358   -17200.124     1414.155   -18614.279    261.27692      263.713 
   92850    101.12024   -1120.8327    75851.731   -17222.806    1374.1748   -18596.981    261.70207    256.25746 
   92900    97.870372   -1422.4635    75892.501   -17262.634    1330.0107   -18592.645    262.13292    248.02169 
   92950    97.979111   -1509.8977    75940.777   -17302.959    1331.4884   -18634.448    263.31495    248.29726 
   93000    99.292091   -1313.3062    76006.928   -17268.722    1349.3312   -18618.053    263.10336    251.62459 
   93050    95.810229   -1291.3285    75962.229   -17253.468    1302.0144   -18555.483    263.31865    242.80091 
   93100    100.01277   -1221.4783    75951.063   -17269.086    1359.1248   -18628.211    263.14804    253.45093 
   93150    100.15204   -1293.7799    75937.754   -17231.266    1361.0175   -18592.283    264.10528    253.80387 
   93200    99.158122   -1564.6979    75989.254   -17254.948    1347.5106   -18602.459    264.32166    251.28509 
   93250    102.30742   -1202.5286    76012.902   -17228.851     1390.308   -18619.159    263.91774    259.26599 
   93300    101.18448   -1221.9755    76062.087   -17238.619    1375.0478   -18613.667    264.09331    256.42026 
   93350    97.520304   -1429.1891    76137.082   -17234.736    1325.2534   -18559.989    264.19262    247.13455 
   93400    100.98077   -1796.9523    76069.077   -17209.404    1372.2795   -18581.684    264.13596    255.90403 
   93450    100.84327    -1567.397    76030.051   -17229.275    1370.4109   -18599.686    264.11725    255.55557 
   93500    100.94996   -1436.1456    75967.643   -17210.417    1371.8608   -18582.278    264.04985    255.82594 
   93550    100.03343   -1479.0989    75973.324   -17182.671    1359.4056   -18542.077    264.50004    253.50329 
   93600    99.901792   -1480.4192     75977.54   -17213.265    1357.6167   -18570.881    264.85074    253.16969 
   93650    103.62539   -943.92707    76036.815   -17243.589    1408.2186   -18651.808    264.93537    262.60598 
   93700    99.845506   -1467.0796    76095.973   -17220.088    1356.8518    -18576.94    265.48114    253.02705 
   93750    98.825029   -1538.9302    76070.769   -17218.638     1342.984   -18561.622    265.50553    250.44097 
   93800     98.89365   -1566.0492    76025.479   -17275.118    1343.9165   -18619.035    266.00565    250.61487 
   93850    98.347785   -1390.1648    76001.234   -17279.031    1336.4985    -18615.53    266.51133    249.23155 
   93900    99.280877   -1279.6936    76050.681    -17287.81    1349.1788   -18636.988    267.17689    251.59617 
   93950    99.572439   -1456.4082    76053.791    -17284.72     1353.141   -18637.861    267.49833    252.33505 
   94000    98.865507   -1313.8708    76080.578   -17260.224    1343.5341   -18603.758    267.33076    250.54355 
   94050    98.746351   -1380.8392    76087.171   -17270.674    1341.9148   -18612.589    268.14299    250.24159 
   94100    98.371229   -1593.9924    76058.569   -17236.857    1336.8171   -18573.674     268.2965    249.29096 
   94150    99.095025   -1351.4388    76076.755   -17220.116    1346.6531    -18566.77    267.83021    251.12519 
   94200    97.186007   -1540.8003    76127.503   -17234.419    1320.7105   -18555.129    267.94808    246.28738 
   94250    95.822797   -1762.3619    76065.473   -17221.545    1302.1851    -18523.73    268.35008    242.83276 
   94300    101.55795   -1643.6837    76045.366   -17222.844     1380.123   -18602.967    268.36183    257.36669 
   94350    99.339277   -1344.9204    76061.123   -17235.087    1349.9724   -18585.059    268.51345    251.74417 
   94400    97.617556   -1541.2785    76040.955   -17266.762     1326.575   -18593.337    268.57256    247.38101 
   94450    97.509544   -1536.9125    76026.253   -17262.134    1325.1072   -18587.241    268.98485    247.10729 
   94500     100.0697   -1317.0302    76025.245   -17225.484    1359.8985   -18585.383    268.62119    253.59519 
   94550    98.986262   -1712.9885      76036.4   -17300.151    1345.1751   -18645.326    268.72836    250.84957 
   94600    97.568502   -1427.3376     76006.11   -17286.334    1325.9084   -18612.242    268.80028     247.2567 
   94650    95.697793   -1263.4851    76051.844   -17277.222    1300.4864   -18577.708    269.08497    242.51598 
   94700     97.93234   -1486.7029    76007.354   -17286.653    1330.8528   -18617.506     269.7231    248.17873 
   94750    99.950961   -1146.4003    76033.247   -17314.869    1358.2849   -18673.154    269.72152    253.29429 
   94800    96.959079   -1389.5364    76047.834   -17303.228    1317.6267   -18620.855    269.65587    245.71231 
   94850    99.594212   -1073.8307     76062.81   -17294.467    1353.4368   -18647.904    269.68577    252.39022 
   94900    96.581726    -1452.211    76004.142    -17302.83    1312.4986   -18615.329    269.38277    244.75602 
   94950    99.869321   -1315.6804    76020.279   -17315.302    1357.1754   -18672.477    269.71838     253.0874 
   95000    99.960441    -1687.558     76046.85   -17274.575    1358.4137   -18632.988    270.11299    253.31832 
   95050    97.790573   -1499.3982    76028.064   -17291.504    1328.9263    -18620.43    269.87366    247.81947 
   95100    99.679451    -1318.179    76074.104   -17267.296    1354.5952   -18621.892     269.6484    252.60624 
   95150    99.928733   -1292.1375    76074.191   -17242.165    1357.9828   -18600.147    270.01976    253.23796 
   95200    100.72449   -1466.0338    76057.622   -17243.536    1368.7967   -18612.333    269.79319    255.25455 
   95250    100.69762   -1628.0733    75954.806   -17238.421    1368.4317   -18606.853    270.17333    255.18648 
   95300    99.231831   -1449.1661    75909.386   -17249.998    1348.5123    -18598.51    270.72658    251.47188 
   95350    101.42199   -1557.3263    75838.282   -17214.302    1378.2755   -18592.577    270.32234    257.02216 
   95400    99.833617   -1431.7264    75712.423   -17207.779    1356.6902   -18564.469    270.87111    252.99692 
   95450    96.703502   -1765.6373    75688.238   -17215.809    1314.1535   -18529.963    271.25771    245.06463 
   95500     96.61198   -1326.7172     75657.17   -17210.262    1312.9098   -18523.172    271.25239    244.83269 
   95550    99.508299   -1106.2288    75732.655   -17190.421    1352.2693    -18542.69    271.03393     252.1725 
   95600    99.431599   -1285.8443    75769.782   -17220.367     1351.227   -18571.594    271.39037    251.97813 
   95650    100.38321   -1458.7969    75740.719   -17224.185    1364.1589   -18588.343    271.65616    254.38969 
   95700    99.065366   -1586.3477    75715.766   -17220.464    1346.2501   -18566.714    272.35291    251.05003 
   95750    97.366215   -1480.4572    75657.479   -17208.583    1323.1595   -18531.742    272.86202    246.74407 
   95800    100.49942   -1250.2151    75665.087   -17237.096    1365.7382   -18602.835    272.85399    254.68419 
   95850    100.52894   -1403.7076    75638.208   -17236.486    1366.1394   -18602.626    272.66086    254.75901 
   95900    99.902882   -1349.5842    75582.155   -17226.556    1357.6315   -18584.188    272.96339    253.17245 
   95950     97.51791    -1376.779    75566.947   -17273.176    1325.2209   -18598.397    273.06195    247.12849 
   96000    102.86808   -927.66222    75552.601   -17235.291    1397.9271   -18633.218    273.48408    260.68681 
   96050    101.02972   -794.65459    75613.186   -17240.688    1372.9446   -18613.633    273.60117    256.02806 
   96100    98.413797   -1511.5905    75668.475   -17245.041    1337.3956   -18582.437    273.60074    249.39883 
   96150    94.866212   -1701.8822    75638.158    -17245.69    1289.1856   -18534.875    272.60587    240.40859 
   96200    97.413327   -1676.6181    75617.899   -17287.335    1323.7997   -18611.135     272.8173    246.86346 
   96250    101.04742   -1206.3761    75612.931   -17282.099    1373.1853   -18655.284     272.1964    256.07293 
   96300    100.13278   -1321.8551    75659.009   -17286.734    1360.7557    -18647.49    272.10688    253.75506 
   96350    100.09815   -1319.7354    75697.541   -17251.955    1360.2851    -18612.24    272.45045     253.6673 
   96400    99.455534    -1248.053    75708.948   -17269.772    1351.5523   -18621.324    272.68059    252.03879 
   96450    97.836835   -1285.8501    75712.065   -17254.173    1329.5549   -18583.728    273.27845     247.9367 
   96500    99.633059   -1424.7426    75693.723   -17257.393    1353.9648   -18611.357    274.17853    252.48867 
   96550    100.90526   -1341.1629    75720.724   -17254.019    1371.2534   -18625.273    274.40617    255.71267 
   96600    97.468104   -924.52963    75751.422   -17298.462    1324.5441   -18623.006    274.57205    247.00227 
   96650    97.570343   -1246.4176    75769.128   -17273.936    1325.9334    -18599.87    274.17309    247.26136 
   96700    100.83771   -1200.5422    75767.943   -17264.298    1370.3353   -18634.633    274.66113    255.54147 
   96750    98.949216   -1126.7021    75748.186   -17234.445    1344.6717   -18579.117    274.73437    250.75569 
   96800    99.609938   -1375.2316    75724.141   -17225.849    1353.6505     -18579.5    275.32284    252.43008 
   96850    98.347244   -1453.5653    75717.717   -17254.247    1336.4912   -18590.738    275.36353    249.23018 
   96900    96.041988   -1268.7875    75749.284   -17253.911    1305.1639   -18559.075    275.53201    243.38823 
   96950    97.715253   -1454.2983    75693.995   -17287.476    1327.9027   -18615.379     275.3669    247.62859 
   97000    97.356433   -1448.4911    75670.994   -17310.284    1323.0265   -18633.311    275.57568    246.71928 
   97050    98.764666   -1599.0122    75669.958   -17305.724    1342.1637   -18647.888     275.7799      250.288 
   97100    97.220215    -1212.061    75701.615   -17334.476    1321.1754   -18655.652    275.80024    246.37408 
   97150    101.12185   -900.70036    75780.261   -17335.503    1374.1967     -18709.7    275.67073    256.26153 
   97200    96.842793   -1270.9122    75825.226   -17344.343    1316.0464    -18660.39    276.21021    245.41762 
   97250    100.38294   -1481.5264     75875.62   -17277.496    1364.1553   -18641.651    276.53388    254.38902 
   97300    98.802136   -1438.9035    75893.426   -17290.385    1342.6729   -18633.058    276.35751    250.38296 
   97350    100.31053    -1491.164    75859.212   -17276.673    1363.1713   -18639.844    276.72331    254.20551 
   97400    101.74418   -1238.0899    75876.836   -17253.592    1382.6538   -18636.246    276.86624    257.83864 
   97450    100.46477   -1354.2308    75874.637   -17284.559    1365.2673   -18649.826    276.33478    254.59638 
   97500    99.532695   -1213.6255    75907.969   -17244.161    1352.6009   -18596.762    276.88235    252.23433 
   97550    100.60062   -1388.3141    75943.151   -17280.165    1367.1134   -18647.279    277.14424    254.94064 
   97600    97.252128   -1604.7731    75947.833   -17310.106    1321.6091   -18631.715    276.71721    246.45495 
   97650    98.050434   -1537.2697    75924.233   -17310.694    1332.4576   -18643.152    276.30174      248.478 
   97700    97.597841   -1360.1455    75886.819   -17304.872    1326.3071   -18631.179    276.75789    247.33105 
   97750    100.49013   -1505.6641      75828.7   -17318.641    1365.6119   -18684.253    276.71947    254.66064 
   97800    95.641613   -1382.7096    75770.205   -17289.926    1299.7229   -18589.649    276.93381     242.3736 
   97850    102.94368   -1612.7322    75773.715   -17235.013    1398.9545   -18633.968    277.47103     260.8784 
   97900    100.69638    -1485.966    75773.231   -17247.918    1368.4147   -18616.333    276.57184    255.18331 
   97950    99.229173   -1353.3408    75721.563   -17250.975    1348.4761   -18599.451    276.77094    251.46515 
   98000    101.13143   -1217.3761    75667.162   -17262.313    1374.3269    -18636.64      277.111    256.28583 
   98050    100.57119   -1559.3179    75581.619   -17267.692    1366.7135   -18634.406    276.91803    254.86608 
   98100    100.63139   -1167.5496      75529.8    -17250.37    1367.5316   -18617.901    276.94599    255.01864 
   98150    98.270035    -1220.968    75519.183   -17299.839    1335.4419   -18635.281    277.16764    249.03451 
   98200    99.740654      -1114.5    75534.169   -17321.999    1355.4269   -18677.426    277.73885    252.76133 
   98250    97.713309   -1382.9311    75507.597   -17322.275    1327.8763   -18650.151    276.94597    247.62367 
   98300    101.42462   -1201.6653    75488.722   -17301.939    1378.3112    -18680.25    277.03487    257.02881 
   98350    100.73701   -1164.9303    75528.992   -17276.485    1368.9669   -18645.452    276.87507    255.28628 
   98400    100.58738   -1091.0052    75561.252   -17296.618    1366.9335   -18663.552    277.34636    254.90709 
   98450    96.771132   -1064.6329    75618.023   -17337.715    1315.0726   -18652.787    277.48146    245.23601 
   98500    98.903673   -884.64863    75661.328   -17319.754    1344.0528   -18663.807    277.80393    250.64027 
   98550     97.52439   -1145.5902    75697.582   -17336.394     1325.309   -18661.703    278.26043    247.14491 
   98600    96.255338   -1163.8395    75713.086   -17350.929    1308.0632   -18658.992    278.31595     243.9289 
   98650    100.79666   -1250.1782    75733.017   -17341.136    1369.7776   -18710.913    278.57202    255.43746 
   98700    99.793848   -1009.5791    75759.527   -17311.887    1356.1498   -18668.036    278.72519    252.89614 
   98750    99.966557    -762.1178    75746.208   -17325.719    1358.4968   -18684.215    278.53598    253.33381 
   98800    99.654095   -1271.6634    75809.268   -17298.756    1354.2506   -18653.007    278.38599    252.54198 
   98850     99.55591   -1297.1289    75790.854   -17311.441    1352.9163   -18664.357    278.34391    252.29316 
   98900     99.03539   -1576.1358    75815.511   -17320.285    1345.8427   -18666.128    278.43196    250.97407 
   98950    99.075508   -1505.6292    75809.898   -17330.868    1346.3879   -18677.256    278.44258    251.07573 
   99000    98.792788   -1311.1432    75866.913   -17329.383    1342.5459   -18671.928    278.68659    250.35927 
   99050     98.29736   -1279.2579    75884.897   -17321.199    1335.8132   -18657.012     278.6566    249.10376 
   99100    98.382747   -1051.2776      75923.5   -17331.985    1336.9736   -18668.958    278.97779    249.32015 
   99150    99.673778   -1197.1445    75980.507   -17328.079    1354.5181   -18682.597    279.26829    252.59186 
   99200     99.88462   -1104.9519    75994.544   -17318.806    1357.3833   -18676.189    278.91616    253.12617 
   99250     95.49463   -1510.1236    75972.884   -17405.059    1297.7255   -18702.785    278.76318    242.00112 
   99300    97.803978    -1190.551    75894.665   -17426.159    1329.1084   -18755.268    278.91284    247.85344 
   99350    93.818907    -1294.857    75858.911   -17413.975    1274.9533   -18688.928    279.00296    237.75453 
   99400    97.077538   -1188.6114    75882.151   -17392.728    1319.2365   -18711.965    279.35687     246.0125 
   99450    97.662124    -1504.911    75939.696   -17366.338    1327.1807   -18693.518    279.77358    247.49395 
   99500    99.480743   -917.58027     75925.54   -17308.584    1351.8949   -18660.478    279.57978    252.10267 
   99550    98.184652   -1232.4491    75986.714   -17285.332    1334.2816   -18619.613    279.56177    248.81814 
   99600    99.076162   -1237.0826    76006.664   -17294.675    1346.3968   -18641.072    279.54346    251.07739 
   99650    97.735906   -1063.8893    76046.057   -17304.865    1328.1834   -18633.048    279.82352    247.68093 
   99700     98.90925   -1299.3607    76119.304   -17305.267    1344.1285   -18649.396     279.8255     250.6544 
   99750    97.203912    -1167.606    76049.977   -17332.244    1320.9538   -18653.198    280.34513    246.33276 
   99800    97.774734   -1313.4505    75995.449   -17329.465     1328.711   -18658.176    280.42978    247.77933 
   99850    99.726056    -1385.242    76013.211   -17319.139    1355.2285   -18674.367    281.26494    252.72434 
   99900    100.41207   -1409.2695    75974.443   -17328.658    1364.5511   -18693.209    281.14158    254.46282 
   99950    95.070838    -1304.558    76015.653   -17363.721    1291.9664   -18655.687    281.38782    240.92715 
  100000     97.25275   -1586.1446     75998.71   -17357.922    1321.6175    -18679.54    281.62556    246.45652 
Loop time of 72.273 on 64 procs for 100000 steps with 4560 atoms

Performance: 597.733 ns/day, 0.040 hours/ns, 1383.642 timesteps/s
100.0% CPU use with 64 MPI tasks x no OpenMP threads

MPI task timing breakdown:
Section |  min time  |  avg time  |  max time  |%varavg| %total
---------------------------------------------------------------
Pair    | 8.7001     | 29.093     | 50.444     | 319.0 | 40.25
Neigh   | 0.50289    | 1.4922     | 2.7947     |  71.3 |  2.06
Comm    | 12.362     | 33.179     | 56.658     | 333.9 | 45.91
Output  | 0.11929    | 0.12139    | 0.13428    |   0.5 |  0.17
Modify  | 4.7249     | 7.6564     | 14.946     | 146.9 | 10.59
Other   |            | 0.7317     |            |       |  1.01

Nlocal:    71.25 ave 122 max 32 min
Histogram: 18 14 0 0 0 1 12 3 4 12
Nghost:    761.422 ave 958 max 384 min
Histogram: 16 0 0 0 0 0 6 10 0 32
Neighs:    0 ave 0 max 0 min
Histogram: 64 0 0 0 0 0 0 0 0 0
FullNghs:  7216.12 ave 16557 max 1205 min
Histogram: 31 1 0 0 1 15 0 0 3 13

Total # of neighbors = 461832
Ave neighs/atom = 101.279
Neighbor list builds = 5830
Dangerous builds = 0

write_data		${DIR}/data.eq-${NAME}-${TEMP}
write_data		run_17/data.eq-${NAME}-${TEMP}
write_data		run_17/data.eq-het_freeze_17-${TEMP}
write_data		run_17/data.eq-het_freeze_17-250
undump          1

reset_timestep  0

unfix           2
unfix           3
unfix           4


################################################
#######         Run Simulation         #########
################################################

log				${DIR}/log.run_${NAME}
log				run_17/log.run_${NAME}
log				run_17/log.run_het_freeze_17
