LAMMPS data file via write_data, version 16 Mar 2018, timestep = 8000000

6328 atoms
2 atom types

0.0000000000000000e+00 4.9219999999999999e+01 xlo xhi
0.0000000000000000e+00 4.9019635930410494e+01 ylo yhi
2.1682131974455814e+00 5.7893786802544547e+01 zlo zhi

Masses

1 18.015
2 12.01

Atoms # atomic

4769 1 4.3447396898380655e+00 6.2917011367161235e-01 5.1492855001394222e+00 -3 0 1
95 1 1.2132117372435975e+01 9.6651033144713416e+00 5.2380410414495246e+00 -1 3 1
3648 1 6.1305046480795122e-01 3.0315126328813755e+00 5.1638568206732103e+00 -4 3 0
1670 1 4.7504746075837883e+00 5.4562537101723461e+00 2.4145347957410692e+00 0 1 0
3090 1 8.2914252727284730e+00 2.8736120861468022e+00 4.9556732511617705e+00 1 6 1
102 1 2.2993983273036667e-01 7.6485025114079876e+00 1.3444536819054173e+01 4 1 0
1557 1 1.1774605167582271e+01 3.0225930373108262e-01 1.3309481287402187e+01 -1 0 0
356 1 7.4449993755053567e-01 3.6309382885289638e+00 2.4849605963365038e+00 -1 2 1
1591 1 6.7652724102380923e-01 7.6891462244480095e+00 4.9669040127345401e+00 0 -3 1
3629 1 8.3360506340768978e+00 3.0438715423974494e+00 2.2838638995726606e+00 2 2 1
1765 1 4.6001313011768090e+00 5.5659801399313711e+00 5.0078322633528840e+00 -4 3 0
543 1 1.1737825826274543e+01 5.6123610876320262e-01 5.0338811820870486e+00 2 -2 0
4569 1 4.3320407960774974e+00 5.7102807562089963e-01 2.4260801617140184e+00 2 -4 1
2810 1 8.6598408149040065e+00 7.4428022640557527e+00 5.1219244014636498e+00 -2 0 1
3428 1 2.9838056402389148e-02 1.1963610728756397e+01 1.3636169344257873e+01 0 0 0
3583 1 1.1639053235867550e+01 4.6052318288434630e+00 1.3052252693450837e+01 -1 2 1
5271 1 4.7974191403651920e+00 1.0272415443515234e+01 4.9466991688796735e+00 -1 6 1
3258 1 1.1723099252745866e+01 9.4376622027160870e+00 1.3544012931344115e+01 1 -4 0
6020 1 3.9892961066513850e+00 9.5865033030827131e+00 1.3415529435046016e+01 4 -2 0
3104 1 1.7764793884017571e+00 7.7913397695212683e-01 6.3378427426322430e+00 0 1 1
4937 1 1.3646669292781384e+00 1.0441174990114872e+00 8.9978394876135823e+00 2 1 1
6002 1 5.6901612220496034e+00 3.0726979753921948e+00 5.6772746067762014e+00 1 -1 1
1290 1 5.2210535919586452e+00 2.8172372400855226e+00 8.4776780218689947e+00 -1 4 1
2914 1 9.1598352287816915e+00 5.3550356211164574e-01 5.8849415089739088e+00 0 -1 0
5305 1 1.5656648429781000e-01 3.1911839465326515e+00 1.3342803934250581e+01 2 4 1
4513 1 1.9672846425275734e+00 5.4543862657850228e+00 5.7853354277043625e+00 -1 3 0
4595 1 1.5375235895960708e+00 5.3009094819222025e+00 8.5861713280567145e+00 0 1 0
1831 1 5.7762438275316512e+00 7.9419475697134647e+00 5.6586268991606072e+00 2 1 0
3285 1 5.3836885989598242e+00 7.2499025761299514e+00 8.4858190415561712e+00 0 5 0
65 1 9.9071955840000800e+00 5.0763291253417089e+00 5.8386216244677405e+00 -2 1 0
3461 1 9.4066956531844355e+00 5.4060954983832632e+00 8.7381733694530954e+00 2 -2 1
4776 1 2.0946882849806334e+00 9.8812984520073233e+00 5.8884810837227608e+00 0 -2 1
1749 1 1.6630528809139646e+00 1.0052724547383063e+01 8.6399855665802612e+00 0 3 0
110 1 6.4616752584668378e+00 3.7013134597882158e-01 1.2578491154516300e+01 0 -2 0
3240 1 6.5213190336845495e+00 1.2244393721797159e+01 5.9330510706357007e+00 -2 0 1
3453 1 9.5670323001399620e+00 9.8434839750137701e+00 6.2863560595087273e+00 -1 -3 0
3338 1 9.2539665740367258e+00 9.7194609938986822e+00 8.9261687184047069e+00 6 2 0
6180 1 2.8857259934837827e+00 3.2689209128683547e+00 9.5565515773791923e+00 0 0 1
4454 1 2.8230534088794328e+00 3.3190624175840053e+00 1.2301381761857726e+01 5 3 1
5241 1 6.5938485523342667e+00 6.6227012262554796e-01 9.6552295520847871e+00 3 5 1
3545 1 1.0748777419724274e+01 7.1833712154003448e+00 1.2423153679790341e+01 -4 1 0
1668 1 1.0329630556455395e+01 2.4843591824660574e+00 1.2206074943693379e+01 4 2 0
3482 1 1.0306696582155945e+01 2.7112769734376378e+00 9.5163117381145774e+00 -3 3 0
3328 1 2.8792668769665863e+00 7.6836586669256599e+00 9.4773829371166087e+00 1 1 1
4745 1 6.6460350577814813e+00 4.9563690516180596e+00 9.5015062115530355e+00 -1 0 1
2835 1 1.0929749568496307e+01 7.4556588468696789e+00 9.7191293996361701e+00 -2 2 1
1432 1 2.6259815109225588e+00 1.1932107624944374e+01 1.2417531426808313e+01 0 1 0
5981 1 8.0320967789173743e+00 1.1826902838558039e+01 1.3124843342812680e+01 1 0 0
8 1 6.5307729850191665e+00 9.6361481826098654e+00 9.6990806270805301e+00 0 0 0
4749 1 1.0654526360499602e+01 1.1687787618482297e+01 1.2362387922188027e+01 2 1 1
4896 1 7.6971428280360019e+00 1.1703682260662312e+01 1.5977828152848591e+01 2 -2 0
1282 1 6.4125230403159810e+00 9.3419018864448358e+00 1.2402650772867236e+01 1 -6 1
3487 1 4.0003368836845992e+00 1.0757099952312890e+00 1.3463159107605406e+01 3 4 0
1752 1 7.9515125382724756e+00 2.4102703873630911e+00 1.3232377850066285e+01 3 0 0
517 1 2.6462436315282933e+00 7.6597776467985623e+00 1.2226289380162259e+01 -2 -3 0
4789 1 4.0618071213418379e+00 5.5112155319327565e+00 1.3117489413077177e+01 -2 5 0
3187 1 6.7578871382353256e+00 4.6247681834228231e+00 1.2300942993157566e+01 -1 3 0
2031 1 7.9929318165984364e+00 6.9611035905095404e+00 1.3138789019731872e+01 -2 0 0
4662 1 7.8992645065047409e+00 7.0195299257596080e+00 1.5833295007385404e+01 -4 2 1
1325 1 8.9144772383657536e+00 4.3973448658650488e-01 8.6267828240640796e+00 -6 5 1
2816 1 2.7475993028593941e+00 1.2048750880147621e+01 9.6856162299128670e+00 0 -1 1
4773 1 5.4702228369558901e+00 1.1884042814061788e+01 8.5067510619832394e+00 2 -1 1
404 1 1.0975061876756259e+01 1.1774158149768557e+01 9.7024987292814835e+00 2 0 1
4436 1 9.0440237625834818e+00 1.1952139032431194e+01 2.3776731770111881e+00 -4 1 1
4649 1 1.1722571915071047e+01 4.5995720539641942e+00 1.5792254901609436e+01 -2 0 1
1293 1 1.1618495609942773e+01 2.0546524177133715e-01 1.6069612322130169e+01 1 -3 1
219 1 4.0720324229028622e+00 5.5495561936267181e+00 1.5979814316879262e+01 2 -4 1
6265 1 1.7944288995566595e+00 9.1265758302393540e-01 1.7401535669927220e+01 -1 0 1
638 2 4.9220000000000006e+00 8.5251540748539991e+00 2.6705567821685754e+01 0 0 0
1355 1 5.1631735453574406e+00 3.2805082651214588e+00 1.7433715548555789e+01 0 2 1
726 2 8.6134999999999984e+00 1.0656442593567498e+01 2.6705567821685754e+01 0 0 0
84 1 8.9608134408437863e+00 4.6962800104698693e-01 1.7350814113111490e+01 2 -3 0
3174 1 1.5636431874475551e+00 5.3066594720226350e+00 1.6804933386134898e+01 0 0 1
732 2 1.1074500000000002e+01 9.2355835810918343e+00 2.6705567821685754e+01 0 0 0
728 2 9.8440000000000012e+00 1.1366872099805333e+01 2.6705567821685754e+01 0 0 0
3233 1 5.5024630242045349e+00 7.3464453116064270e+00 1.6868900953030671e+01 -2 2 1
775 2 1.2304999999999998e+01 1.1366872099805333e+01 2.6705567821685754e+01 0 0 0
2025 1 9.1255391955765432e+00 4.8062831874419238e+00 1.6540768680869142e+01 -1 -1 0
730 2 9.8440000000000012e+00 8.5251540748539956e+00 2.6705567821685754e+01 0 0 0
4553 1 5.2179354223556906e+00 1.2141573159503032e+01 1.6988467306009632e+01 -1 1 0
1605 1 1.5962930768534969e+00 1.0022731302163468e+01 1.7234340415995163e+01 1 -1 0
683 2 7.3830000000000009e+00 8.5251540748539991e+00 2.6705567821685754e+01 0 0 0
2137 1 3.6200025193593433e-01 7.6492248276968269e+00 1.6287328974141882e+01 -1 -3 1
685 2 8.6134999999999984e+00 9.2355835810918343e+00 2.6705567821685754e+01 0 0 0
1328 1 9.1822035077914439e+00 9.4656797531474712e+00 1.6615547211684643e+01 -1 1 1
3033 1 1.4331334647448841e+00 9.7885941293931833e-01 2.0136186210540636e+01 1 -5 0
6270 1 2.3823460072699754e+00 3.3376522584979527e+00 2.1095619153385663e+01 3 0 1
6008 1 4.9428972239608262e+00 3.0103708980471033e+00 2.0202748391492978e+01 5 -2 0
3713 1 6.4864403486527458e+00 6.0415536371959466e-01 2.1105674040370765e+01 -1 1 1
1461 1 6.4658266660681383e+00 1.0282428684723046e+00 2.3747495144488600e+01 -2 -3 1
3363 1 1.0142469397948142e+01 2.9636580375675754e+00 2.0749816233893746e+01 -1 2 0
3218 1 1.4431042748478169e+00 5.4942593670403967e+00 1.9535601439736240e+01 0 -1 1
3427 1 2.8729982024310301e+00 7.5780868805637054e+00 2.0468725619245024e+01 -1 1 1
3412 1 5.2956679392585553e+00 7.7642372916848048e+00 1.9534451900269271e+01 3 -1 1
2907 1 6.4475998181705414e+00 5.2907548878982924e+00 2.0602453980116138e+01 -1 -2 1
3432 1 8.9109196874704288e+00 4.8981180779540985e+00 1.9352123218047893e+01 0 0 0
3067 1 1.0177938937231003e+01 7.2138141496198225e+00 2.0584796738784934e+01 -1 -1 0
6019 1 1.5297053257662772e+00 9.8591545336219113e+00 1.9904577267828909e+01 0 0 1
3270 1 1.0213685130224603e+01 1.1973573131029104e+01 2.3383352921971145e+01 0 -3 1
5996 1 5.0543523083723434e+00 1.2145317333652452e+01 1.9868969963829581e+01 2 -2 1
3399 1 6.4097677162861553e+00 9.9154709987386749e+00 2.1142570630538906e+01 1 0 0
773 2 1.1074500000000002e+01 1.0656442593567498e+01 2.6705567821685754e+01 0 0 0
5292 1 8.9032594839937680e+00 9.5507605186070492e+00 1.9658649177801397e+01 1 2 1
3034 1 1.0221099784210056e+01 1.1750605799560621e+01 2.0722660632682434e+01 -4 1 1
1973 1 2.5944192533576613e+00 3.0116445970505765e+00 2.3732622372827553e+01 2 -1 1
6178 1 1.0246334480666759e+00 9.7067770618460392e-01 2.4343383295310165e+01 1 3 0
5283 1 2.4689361444412650e+00 1.2017566651872837e+01 2.4030205146108109e+01 2 1 1
426 1 5.1691263623093153e+00 3.1790499887701014e+00 2.4484918827081085e+01 1 3 0
5273 1 1.0220756851835723e+01 2.7677961719792568e+00 2.3546343846844053e+01 1 1 1
2939 1 8.9289826112573412e+00 5.4193237722252807e-01 2.0074769922214905e+01 1 3 0
5149 1 1.2980352366460159e+00 5.4700695130708672e+00 2.4093564670996994e+01 2 1 1
1470 1 2.7466108390320159e+00 7.5372423375645470e+00 2.3215357475844190e+01 1 2 1
3395 1 6.5359466128067050e+00 5.3694843224208419e+00 2.3185819518209456e+01 -5 0 0
3370 1 5.2413336979783605e+00 7.6142810791291344e+00 2.4204919979625128e+01 1 -1 0
3470 1 1.0686646044791715e+01 7.1932222102139480e+00 2.3272231687335264e+01 4 2 0
2870 1 9.0533191327767266e+00 5.1394152561926623e+00 2.4334190986651283e+01 -2 5 1
2813 1 1.2791798500889482e+00 9.5383486970576179e+00 2.4159169694594617e+01 4 3 0
5069 1 2.3664566897920056e+00 1.2153359804329821e+01 2.1074733664942819e+01 -1 1 0
3650 1 6.6039410138012586e+00 9.8920182517909918e+00 2.3821659732234600e+01 -2 -2 0
681 2 7.3829999999999991e+00 1.1366872099805333e+01 2.6705567821685754e+01 0 0 0
1541 1 9.6428128478759518e+00 9.5163851078850801e+00 2.4156899258242660e+01 -2 -2 0
552 2 0.0000000000000000e+00 2.8417180249513345e+00 2.6705567821685754e+01 0 0 0
554 2 0.0000000000000000e+00 0.0000000000000000e+00 2.6705567821685754e+01 0 0 0
556 2 1.2305000000000001e+00 7.1042950623783474e-01 2.6705567821685754e+01 0 0 0
563 2 1.2305000000000001e+00 2.1312885187134998e+00 2.6705567821685754e+01 0 0 0
565 2 2.4610000000000003e+00 2.8417180249513345e+00 2.6705567821685754e+01 0 0 0
567 2 2.4610000000000003e+00 0.0000000000000000e+00 2.6705567821685754e+01 0 0 0
569 2 3.6915000000000004e+00 7.1042950623783474e-01 2.6705567821685754e+01 0 0 0
584 2 3.6914999999999996e+00 2.1312885187134998e+00 2.6705567821685754e+01 0 0 0
586 2 4.9220000000000006e+00 2.8417180249513332e+00 2.6705567821685754e+01 0 0 0
588 2 4.9220000000000006e+00 0.0000000000000000e+00 2.6705567821685754e+01 0 0 0
590 2 6.1524999999999999e+00 7.1042950623783407e-01 2.6705567821685754e+01 0 0 0
613 2 6.1524999999999999e+00 2.1312885187134989e+00 2.6705567821685754e+01 0 0 0
615 2 7.3829999999999991e+00 2.8417180249513345e+00 2.6705567821685754e+01 0 0 0
617 2 7.3829999999999991e+00 0.0000000000000000e+00 2.6705567821685754e+01 0 0 0
619 2 8.6134999999999984e+00 7.1042950623783407e-01 2.6705567821685754e+01 0 0 0
650 2 8.6134999999999984e+00 2.1312885187135002e+00 2.6705567821685754e+01 0 0 0
652 2 9.8440000000000012e+00 2.8417180249513332e+00 2.6705567821685754e+01 0 0 0
654 2 9.8440000000000012e+00 0.0000000000000000e+00 2.6705567821685754e+01 0 0 0
656 2 1.1074500000000002e+01 7.1042950623783330e-01 2.6705567821685754e+01 0 0 0
695 2 1.1074500000000002e+01 2.1312885187135002e+00 2.6705567821685754e+01 0 0 0
559 2 0.0000000000000000e+00 4.2625770374269996e+00 2.6705567821685754e+01 0 0 0
561 2 1.2305000000000001e+00 4.9730065436648339e+00 2.6705567821685754e+01 0 0 0
576 2 1.2305000000000001e+00 6.3938655561404980e+00 2.6705567821685754e+01 0 0 0
580 2 2.4610000000000003e+00 4.2625770374269996e+00 2.6705567821685754e+01 0 0 0
582 2 3.6914999999999996e+00 4.9730065436648339e+00 2.6705567821685754e+01 0 0 0
605 2 3.6914999999999996e+00 6.3938655561404980e+00 2.6705567821685754e+01 0 0 0
557 2 0.0000000000000000e+00 7.1042950623783341e+00 2.6705567821685754e+01 0 0 0
578 2 2.4610000000000003e+00 7.1042950623783341e+00 2.6705567821685754e+01 0 0 0
609 2 4.9220000000000006e+00 4.2625770374269978e+00 2.6705567821685754e+01 0 0 0
611 2 6.1524999999999999e+00 4.9730065436648339e+00 2.6705567821685754e+01 0 0 0
642 2 6.1524999999999999e+00 6.3938655561404980e+00 2.6705567821685754e+01 0 0 0
646 2 7.3829999999999991e+00 4.2625770374269996e+00 2.6705567821685754e+01 0 0 0
607 2 4.9220000000000006e+00 7.1042950623783341e+00 2.6705567821685754e+01 0 0 0
644 2 7.3830000000000009e+00 7.1042950623783341e+00 2.6705567821685754e+01 0 0 0
648 2 8.6135000000000002e+00 4.9730065436648339e+00 2.6705567821685754e+01 0 0 0
687 2 8.6135000000000002e+00 6.3938655561404980e+00 2.6705567821685754e+01 0 0 0
691 2 9.8440000000000012e+00 4.2625770374270004e+00 2.6705567821685754e+01 0 0 0
693 2 1.1074500000000002e+01 4.9730065436648339e+00 2.6705567821685754e+01 0 0 0
734 2 1.1074500000000002e+01 6.3938655561404980e+00 2.6705567821685754e+01 0 0 0
689 2 9.8440000000000012e+00 7.1042950623783341e+00 2.6705567821685754e+01 0 0 0
599 2 2.4610000000000003e+00 1.1366872099805333e+01 2.6705567821685754e+01 0 0 0
634 2 3.6914999999999996e+00 1.0656442593567499e+01 2.6705567821685754e+01 0 0 0
574 2 1.2305000000000001e+00 9.2355835810918343e+00 2.6705567821685754e+01 0 0 0
601 2 2.4610000000000003e+00 8.5251540748539991e+00 2.6705567821685754e+01 0 0 0
603 2 3.6915000000000004e+00 9.2355835810918343e+00 2.6705567821685754e+01 0 0 0
572 2 0.0000000000000000e+00 8.5251540748539991e+00 2.6705567821685754e+01 0 0 0
597 2 1.2305000000000001e+00 1.0656442593567498e+01 2.6705567821685754e+01 0 0 0
570 2 0.0000000000000000e+00 1.1366872099805333e+01 2.6705567821685754e+01 0 0 0
636 2 4.9220000000000006e+00 1.1366872099805333e+01 2.6705567821685754e+01 0 0 0
679 2 6.1524999999999999e+00 1.0656442593567499e+01 2.6705567821685754e+01 0 0 0
640 2 6.1524999999999999e+00 9.2355835810918343e+00 2.6705567821685754e+01 0 0 0
5256 1 9.1040050468121745e+00 5.0984978474765252e-01 2.4483125212670007e+01 3 3 1
4625 1 5.0866836463681953e+00 1.2100022106863481e+01 2.4526813674764405e+01 2 -2 1
6176 1 2.6331987234906656e-01 2.9323733827394025e+00 1.6172977104134254e+01 2 -3 0
1873 1 4.1571440693129622e+00 1.1014816972171833e+00 1.6205805004366184e+01 0 5 0
1272 1 1.5435852766604339e-02 1.2211498919773700e+01 1.6336249349671220e+01 -1 -2 0
3026 1 1.1957065253565723e+01 9.3011242721791572e+00 1.6225851070359994e+01 -3 4 0
3009 1 4.0873232799780688e+00 9.4964405491998196e+00 1.6235646198138987e+01 2 3 1
380 1 7.5802749371267026e+00 2.6694959007184873e+00 1.6115583146841274e+01 2 -2 0
553 2 0.0000000000000000e+00 1.4208590124756650e+00 3.0030999999995124e+01 0 0 0
555 2 0.0000000000000000e+00 0.0000000000000000e+00 3.0030999999995124e+01 0 0 0
564 2 1.2305000000000001e+00 2.1312885187134998e+00 3.0030999999995124e+01 0 0 0
566 2 2.4610000000000003e+00 1.4208590124756650e+00 3.0030999999995124e+01 0 0 0
568 2 2.4610000000000003e+00 0.0000000000000000e+00 3.0030999999995124e+01 0 0 0
585 2 3.6914999999999996e+00 2.1312885187134998e+00 3.0030999999995124e+01 0 0 0
562 2 1.2305000000000001e+00 3.5521475311891644e+00 3.0030999999995124e+01 0 0 0
583 2 3.6914999999999996e+00 3.5521475311891644e+00 3.0030999999995124e+01 0 0 0
881 2 0.0000000000000000e+00 2.8417180249513345e+00 3.3356432178303834e+01 0 0 0
882 2 0.0000000000000000e+00 0.0000000000000000e+00 3.3356432178303834e+01 0 0 0
883 2 1.2305000000000001e+00 7.1042950623783474e-01 3.3356432178303834e+01 0 0 0
887 2 1.2305000000000001e+00 2.1312885187134998e+00 3.3356432178303834e+01 0 0 0
888 2 2.4610000000000003e+00 2.8417180249513345e+00 3.3356432178303834e+01 0 0 0
889 2 2.4610000000000003e+00 0.0000000000000000e+00 3.3356432178303834e+01 0 0 0
890 2 3.6915000000000004e+00 7.1042950623783474e-01 3.3356432178303834e+01 0 0 0
898 2 3.6914999999999996e+00 2.1312885187134998e+00 3.3356432178303834e+01 0 0 0
587 2 4.9220000000000006e+00 1.4208590124756650e+00 3.0030999999995124e+01 0 0 0
589 2 4.9220000000000006e+00 0.0000000000000000e+00 3.0030999999995124e+01 0 0 0
614 2 6.1524999999999999e+00 2.1312885187134989e+00 3.0030999999995124e+01 0 0 0
616 2 7.3829999999999991e+00 1.4208590124756659e+00 3.0030999999995124e+01 0 0 0
618 2 7.3829999999999991e+00 0.0000000000000000e+00 3.0030999999995124e+01 0 0 0
612 2 6.1524999999999999e+00 3.5521475311891644e+00 3.0030999999995124e+01 0 0 0
899 2 4.9220000000000006e+00 2.8417180249513332e+00 3.3356432178303834e+01 0 0 0
900 2 4.9220000000000006e+00 0.0000000000000000e+00 3.3356432178303834e+01 0 0 0
901 2 6.1524999999999999e+00 7.1042950623783407e-01 3.3356432178303834e+01 0 0 0
913 2 6.1524999999999999e+00 2.1312885187134989e+00 3.3356432178303834e+01 0 0 0
914 2 7.3829999999999991e+00 2.8417180249513345e+00 3.3356432178303834e+01 0 0 0
915 2 7.3829999999999991e+00 0.0000000000000000e+00 3.3356432178303834e+01 0 0 0
651 2 8.6134999999999984e+00 2.1312885187135002e+00 3.0030999999995124e+01 0 0 0
653 2 9.8440000000000012e+00 1.4208590124756659e+00 3.0030999999995124e+01 0 0 0
655 2 9.8440000000000012e+00 0.0000000000000000e+00 3.0030999999995124e+01 0 0 0
696 2 1.1074500000000002e+01 2.1312885187135002e+00 3.0030999999995124e+01 0 0 0
649 2 8.6134999999999984e+00 3.5521475311891657e+00 3.0030999999995124e+01 0 0 0
694 2 1.1074500000000002e+01 3.5521475311891644e+00 3.0030999999995124e+01 0 0 0
916 2 8.6134999999999984e+00 7.1042950623783407e-01 3.3356432178303834e+01 0 0 0
932 2 8.6134999999999984e+00 2.1312885187135002e+00 3.3356432178303834e+01 0 0 0
933 2 9.8440000000000012e+00 2.8417180249513332e+00 3.3356432178303834e+01 0 0 0
934 2 9.8440000000000012e+00 0.0000000000000000e+00 3.3356432178303834e+01 0 0 0
935 2 1.1074500000000002e+01 7.1042950623783330e-01 3.3356432178303834e+01 0 0 0
955 2 1.1074500000000002e+01 2.1312885187135002e+00 3.3356432178303834e+01 0 0 0
558 2 0.0000000000000000e+00 5.6834360499026637e+00 3.0030999999995124e+01 0 0 0
560 2 0.0000000000000000e+00 4.2625770374269996e+00 3.0030999999995124e+01 0 0 0
577 2 1.2305000000000001e+00 6.3938655561404980e+00 3.0030999999995124e+01 0 0 0
579 2 2.4610000000000003e+00 5.6834360499026637e+00 3.0030999999995124e+01 0 0 0
581 2 2.4610000000000003e+00 4.2625770374269996e+00 3.0030999999995124e+01 0 0 0
606 2 3.6914999999999996e+00 6.3938655561404980e+00 3.0030999999995124e+01 0 0 0
575 2 1.2305000000000001e+00 7.8147245686161639e+00 3.0030999999995124e+01 0 0 0
604 2 3.6914999999999996e+00 7.8147245686161639e+00 3.0030999999995124e+01 0 0 0
885 2 0.0000000000000000e+00 4.2625770374269996e+00 3.3356432178303834e+01 0 0 0
886 2 1.2305000000000001e+00 4.9730065436648339e+00 3.3356432178303834e+01 0 0 0
894 2 1.2305000000000001e+00 6.3938655561404980e+00 3.3356432178303834e+01 0 0 0
896 2 2.4610000000000003e+00 4.2625770374269996e+00 3.3356432178303834e+01 0 0 0
897 2 3.6914999999999996e+00 4.9730065436648339e+00 3.3356432178303834e+01 0 0 0
909 2 3.6914999999999996e+00 6.3938655561404980e+00 3.3356432178303834e+01 0 0 0
884 2 0.0000000000000000e+00 7.1042950623783341e+00 3.3356432178303834e+01 0 0 0
895 2 2.4610000000000003e+00 7.1042950623783341e+00 3.3356432178303834e+01 0 0 0
608 2 4.9220000000000006e+00 5.6834360499026637e+00 3.0030999999995124e+01 0 0 0
610 2 4.9220000000000006e+00 4.2625770374269978e+00 3.0030999999995124e+01 0 0 0
643 2 6.1524999999999999e+00 6.3938655561404980e+00 3.0030999999995124e+01 0 0 0
645 2 7.3829999999999991e+00 5.6834360499026637e+00 3.0030999999995124e+01 0 0 0
647 2 7.3829999999999991e+00 4.2625770374269996e+00 3.0030999999995124e+01 0 0 0
641 2 6.1524999999999999e+00 7.8147245686161639e+00 3.0030999999995124e+01 0 0 0
911 2 4.9220000000000006e+00 4.2625770374269978e+00 3.3356432178303834e+01 0 0 0
912 2 6.1524999999999999e+00 4.9730065436648339e+00 3.3356432178303834e+01 0 0 0
928 2 6.1524999999999999e+00 6.3938655561404980e+00 3.3356432178303834e+01 0 0 0
930 2 7.3829999999999991e+00 4.2625770374269996e+00 3.3356432178303834e+01 0 0 0
910 2 4.9220000000000006e+00 7.1042950623783341e+00 3.3356432178303834e+01 0 0 0
929 2 7.3830000000000009e+00 7.1042950623783341e+00 3.3356432178303834e+01 0 0 0
688 2 8.6135000000000002e+00 6.3938655561404980e+00 3.0030999999995124e+01 0 0 0
690 2 9.8440000000000012e+00 5.6834360499026637e+00 3.0030999999995124e+01 0 0 0
692 2 9.8440000000000012e+00 4.2625770374270004e+00 3.0030999999995124e+01 0 0 0
735 2 1.1074500000000002e+01 6.3938655561404980e+00 3.0030999999995124e+01 0 0 0
686 2 8.6135000000000002e+00 7.8147245686161639e+00 3.0030999999995124e+01 0 0 0
733 2 1.1074500000000002e+01 7.8147245686161639e+00 3.0030999999995124e+01 0 0 0
931 2 8.6135000000000002e+00 4.9730065436648339e+00 3.3356432178303834e+01 0 0 0
951 2 8.6135000000000002e+00 6.3938655561404980e+00 3.3356432178303834e+01 0 0 0
953 2 9.8440000000000012e+00 4.2625770374270004e+00 3.3356432178303834e+01 0 0 0
954 2 1.1074500000000002e+01 4.9730065436648339e+00 3.3356432178303834e+01 0 0 0
975 2 1.1074500000000002e+01 6.3938655561404980e+00 3.3356432178303834e+01 0 0 0
952 2 9.8440000000000012e+00 7.1042950623783341e+00 3.3356432178303834e+01 0 0 0
571 2 0.0000000000000000e+00 9.9460130873296642e+00 3.0030999999995124e+01 0 0 0
573 2 0.0000000000000000e+00 8.5251540748539991e+00 3.0030999999995124e+01 0 0 0
600 2 2.4610000000000003e+00 9.9460130873296642e+00 3.0030999999995124e+01 0 0 0
602 2 2.4610000000000003e+00 8.5251540748539991e+00 3.0030999999995124e+01 0 0 0
596 2 1.2305000000000001e+00 1.2077301606043163e+01 3.0030999999995124e+01 0 0 0
598 2 1.2305000000000001e+00 1.0656442593567498e+01 3.0030999999995124e+01 0 0 0
633 2 3.6914999999999996e+00 1.2077301606043163e+01 3.0030999999995124e+01 0 0 0
635 2 3.6914999999999996e+00 1.0656442593567499e+01 3.0030999999995124e+01 0 0 0
892 2 0.0000000000000000e+00 8.5251540748539991e+00 3.3356432178303834e+01 0 0 0
893 2 1.2305000000000001e+00 9.2355835810918343e+00 3.3356432178303834e+01 0 0 0
907 2 2.4610000000000003e+00 8.5251540748539991e+00 3.3356432178303834e+01 0 0 0
908 2 3.6915000000000004e+00 9.2355835810918343e+00 3.3356432178303834e+01 0 0 0
891 2 0.0000000000000000e+00 1.1366872099805333e+01 3.3356432178303834e+01 0 0 0
905 2 1.2305000000000001e+00 1.0656442593567498e+01 3.3356432178303834e+01 0 0 0
906 2 2.4610000000000003e+00 1.1366872099805333e+01 3.3356432178303834e+01 0 0 0
924 2 3.6914999999999996e+00 1.0656442593567499e+01 3.3356432178303834e+01 0 0 0
637 2 4.9220000000000006e+00 9.9460130873296642e+00 3.0030999999995124e+01 0 0 0
639 2 4.9220000000000006e+00 8.5251540748539991e+00 3.0030999999995124e+01 0 0 0
682 2 7.3830000000000009e+00 9.9460130873296642e+00 3.0030999999995124e+01 0 0 0
684 2 7.3830000000000009e+00 8.5251540748539991e+00 3.0030999999995124e+01 0 0 0
678 2 6.1524999999999999e+00 1.2077301606043163e+01 3.0030999999995124e+01 0 0 0
680 2 6.1524999999999999e+00 1.0656442593567499e+01 3.0030999999995124e+01 0 0 0
926 2 4.9220000000000006e+00 8.5251540748539991e+00 3.3356432178303834e+01 0 0 0
927 2 6.1524999999999999e+00 9.2355835810918343e+00 3.3356432178303834e+01 0 0 0
949 2 7.3830000000000009e+00 8.5251540748539991e+00 3.3356432178303834e+01 0 0 0
925 2 4.9220000000000006e+00 1.1366872099805333e+01 3.3356432178303834e+01 0 0 0
947 2 6.1524999999999999e+00 1.0656442593567499e+01 3.3356432178303834e+01 0 0 0
948 2 7.3829999999999991e+00 1.1366872099805333e+01 3.3356432178303834e+01 0 0 0
729 2 9.8440000000000012e+00 9.9460130873296642e+00 3.0030999999995124e+01 0 0 0
731 2 9.8440000000000012e+00 8.5251540748539956e+00 3.0030999999995124e+01 0 0 0
725 2 8.6135000000000002e+00 1.2077301606043163e+01 3.0030999999995124e+01 0 0 0
727 2 8.6134999999999984e+00 1.0656442593567498e+01 3.0030999999995124e+01 0 0 0
772 2 1.1074500000000002e+01 1.2077301606043163e+01 3.0030999999995124e+01 0 0 0
774 2 1.1074500000000002e+01 1.0656442593567498e+01 3.0030999999995124e+01 0 0 0
950 2 8.6134999999999984e+00 9.2355835810918343e+00 3.3356432178303834e+01 0 0 0
973 2 9.8440000000000012e+00 8.5251540748539956e+00 3.3356432178303834e+01 0 0 0
974 2 1.1074500000000002e+01 9.2355835810918343e+00 3.3356432178303834e+01 0 0 0
971 2 8.6134999999999984e+00 1.0656442593567498e+01 3.3356432178303834e+01 0 0 0
972 2 9.8440000000000012e+00 1.1366872099805333e+01 3.3356432178303834e+01 0 0 0
995 2 1.1074500000000002e+01 1.0656442593567498e+01 3.3356432178303834e+01 0 0 0
996 2 1.2304999999999998e+01 1.1366872099805333e+01 3.3356432178303834e+01 0 0 0
5266 1 2.3421428741468935e+00 8.9896628795472655e-01 3.6373699606257645e+01 2 0 0
2981 1 3.6742338635173568e+00 3.4304014597595174e+00 3.5738772453206387e+01 3 4 0
4460 1 6.5463334423428581e+00 3.4821483665701538e+00 3.6305392075772254e+01 2 3 0
6207 1 7.9495373504726157e+00 9.3418048754927419e-01 3.5743288353573853e+01 -2 0 -1
1925 1 1.0724003419015046e+01 8.1410294967658414e-01 3.6048839967649783e+01 3 2 -1
1370 1 2.5868094677752906e+00 5.7955121601240194e+00 3.6091957194648124e+01 1 1 0
5243 1 2.6617750786446615e+00 1.1582726182906280e+00 4.3552905770404152e+01 4 0 0
6182 1 6.9501007327470532e+00 7.8050855930595473e+00 3.6060265951897676e+01 -2 0 0
6135 1 8.5681718194234033e+00 5.4647504431919867e+00 3.5803120749377946e+01 0 -1 0
5169 1 1.1281733847024698e+01 5.2566547918655742e+00 3.6671522901103415e+01 -2 2 -1
4793 1 3.0085614436416344e+00 1.0806867435104930e+01 3.6012894730679520e+01 -2 2 -1
4909 1 1.0421197736949457e+01 9.9439026159056692e+00 4.3562511605764470e+01 1 0 0
3580 1 4.2766451745320033e+00 8.1743148290804477e+00 3.6016877801420044e+01 1 0 0
2950 1 8.7239513454810513e+00 9.9994138566115076e+00 3.5930896800909331e+01 -4 1 0
4444 1 1.1843942234719398e+01 1.0393061526595156e+01 3.5960277538872681e+01 -2 -1 0
5252 1 2.3395047962469353e+00 1.2446387696746382e+00 3.8836609964383015e+01 2 0 0
1485 1 1.3050719996212217e+00 3.5014796274568352e+00 3.9903073129652427e+01 0 1 0
2989 1 4.8449979717057738e+00 1.4712805318150606e+00 3.9698764893833783e+01 0 1 -1
4426 1 6.6409759115403721e+00 3.4641811198024457e+00 3.8873982187849300e+01 5 -1 0
4918 1 9.9203296057151444e+00 7.8757794985132956e-01 3.8652026822493866e+01 -1 -2 -1
3276 1 9.0726309535371090e+00 3.1865700992180628e+00 3.9745362424437992e+01 3 -3 0
145 1 5.3964754312348129e+00 1.0202438188971483e+01 4.2344425631903334e+01 -4 1 -1
2866 1 2.7113830108510926e+00 5.6358270388539218e+00 3.8814617336530944e+01 0 -1 0
6003 1 5.1945065749289867e+00 5.4075216343227703e+00 4.0039767572065571e+01 2 2 -1
250 1 6.6615108022367151e+00 7.6085746639725889e+00 3.8917414269722620e+01 3 -2 -1
3561 1 1.0315337107024158e+01 5.6148274374477314e+00 3.9258157495511625e+01 0 2 0
1496 1 9.0960343496462119e+00 7.8341116498299002e+00 3.9847004160522609e+01 -1 1 -1
3516 1 1.4411952282780456e+00 7.7006958661975631e+00 3.9755118923668995e+01 -2 2 -1
1476 1 2.8107515749935215e+00 1.0027060022500599e+01 3.8998144340416154e+01 1 1 0
373 1 5.4890139188832006e+00 1.0156620392243591e+01 3.9682206121590752e+01 4 -1 -1
2897 1 1.0044778242497838e+01 1.0219784714448160e+01 3.8709494291863670e+01 -1 -2 0
1479 1 8.0094454822525529e-02 6.0914183225910836e+00 3.5918646571500730e+01 2 -1 0
4790 1 1.3216367111643448e+00 3.3155423445943617e+00 4.2591440220590520e+01 2 1 -1
2033 1 5.0580743279168381e+00 1.1133157183940912e+00 4.2468935328579128e+01 0 1 0
4641 1 6.2589889901615283e+00 3.5609205257646868e+00 4.3451721244776408e+01 0 3 0
1746 1 8.9851927595569769e+00 2.9620768485030520e+00 4.2465265778903415e+01 1 -1 -1
3029 1 1.0010821163637559e+01 7.3403674052330936e-01 4.3401294061013104e+01 0 3 -1
86 1 1.4949592746836120e+00 7.9806929659298111e+00 4.2389135502918869e+01 -1 2 -1
411 1 2.4367708358962972e+00 5.5728891365346565e+00 4.3649863482178787e+01 2 -1 0
2067 1 4.8564385423178660e+00 5.8107600167590956e+00 4.2837014571106764e+01 5 3 0
3341 1 6.4433750924005864e+00 7.9072192494729174e+00 4.3350821557357882e+01 -2 -1 -1
508 1 1.0088351878485781e+01 5.4187697606346958e+00 4.3332452087719034e+01 2 3 -1
2038 1 9.1536371358293209e+00 7.9174290866911807e+00 4.2772531476773423e+01 -2 -1 0
3263 1 2.6534828983825953e+00 1.0369635062138068e+01 4.3198950576216276e+01 4 1 -1
1410 1 1.8019342627004526e+00 1.1649627419550403e+00 4.6254438349171195e+01 4 2 0
2046 1 9.5604936621764169e-01 3.6752922716139804e+00 4.7272012020075486e+01 2 0 0
3147 1 5.9647891041321524e+00 3.1062325125910686e+00 4.6150324205200697e+01 -2 2 -1
4906 1 4.3175441408518802e+00 9.7598106638655313e-01 4.7253329900799258e+01 2 -3 -1
1745 1 8.6740538548304560e+00 2.9577034469307621e+00 4.6977910320204515e+01 -1 -3 -1
1517 1 9.6150903354052861e+00 6.7014035027916186e-01 4.5911211406591988e+01 1 2 0
1954 1 7.7453387004506631e+00 1.0049009429761647e+01 5.4267582384386841e+01 -1 0 -1
2142 1 2.3584009202719787e+00 5.6114630230423037e+00 4.6159312120621124e+01 0 1 0
3083 1 1.5431205094543616e+00 8.1705248967793906e+00 4.7197579887735046e+01 2 -1 -1
3476 1 4.8326455594043152e+00 5.4389522607808409e+00 4.7316535127533882e+01 -1 0 0
1298 1 6.1773214757776929e+00 7.5446783636174057e+00 4.5974101988544938e+01 -2 -1 -1
1853 1 1.0103156738219884e+01 5.2902118620197651e+00 4.5982084446839188e+01 3 1 0
4681 1 8.7605123001881999e+00 7.4942229494054429e+00 4.6851663029086815e+01 3 -1 0
3039 1 2.6422237613811905e+00 1.0466846085185800e+01 4.6068908950216681e+01 2 -2 0
1516 1 5.3603904556279396e+00 1.0211184026228999e+01 4.6914016669118588e+01 3 -4 0
444 1 1.0428222497178208e+01 9.8593543294679780e+00 4.6184029562827469e+01 0 -1 0
4739 1 1.1244605817978184e+00 3.5503105052243735e+00 4.9902486623369128e+01 1 4 0