LAMMPS data file via write_data, version 16 Mar 2018, timestep = 100000

6328 atoms
2 atom types

0.0000000000000000e+00 4.9219999999999999e+01 xlo xhi
0.0000000000000000e+00 4.9019635930410494e+01 ylo yhi
3.6640494670775006e+00 5.6397950532921129e+01 zlo zhi

Masses

1 18.015
2 12.01

Atoms # atomic

537 1 9.7398527113749989e+00 9.2019198484430298e+00 1.5302995420525905e+01 0 1 1
1947 1 1.1147306734449044e+01 1.6280707738495672e+00 1.0564269843628480e+01 1 -1 0
5287 1 2.1023195421756866e+00 5.6741530374547544e+00 1.5909509535463261e+01 1 1 -1
4785 1 9.8128811140272756e+00 4.2487363723305140e+00 7.6632511150591931e+00 -1 0 0
3515 1 9.4041381079341413e+00 1.5199632959237004e+00 6.1447279965476591e+00 -1 1 1
4634 1 5.6303457497790816e+00 1.0735771956520436e+01 1.1025394126361869e+01 0 1 1
4431 1 2.2774849063527691e+00 1.0030160028861799e+01 1.0580232215381525e+01 1 1 1
1814 1 4.5910630725172047e-01 1.0897015046288418e+01 1.6006386985518851e+01 0 0 0
182 1 3.2993861327551461e+00 4.6849078016618586e+00 4.8797094830656018e+00 1 0 1
1718 1 4.0070672428315151e+00 7.1499902743585180e+00 5.9568142395504537e+00 0 1 1
2 1 1.0689204484687021e+01 8.8156164128230472e+00 4.3898258265904593e+00 0 1 0
4619 1 3.2358190975038990e+00 5.1436374112023819e-01 1.3129504335927514e+01 0 0 1
1504 1 9.4718592625515488e+00 6.3562856481062200e+00 6.0089730892914535e+00 0 1 0
1515 1 1.6813329146889842e+00 8.9597049365925123e+00 5.6094342056374451e+00 0 0 1
3409 1 8.7504083365418310e+00 1.1654024524505735e+01 1.4308934043458088e+01 1 0 0
281 1 1.2157472430596025e+01 8.7684208242818784e-01 5.4492849426829810e+00 -1 1 0
1911 1 5.8298250890976426e+00 8.2978567844772240e+00 4.3799392949535108e+00 1 1 0
1393 1 7.1860843624676987e+00 1.0167615630295659e+01 5.9939109564090902e+00 0 0 1
5022 1 4.7146419867576235e+00 1.1383224875142202e+01 1.5622295424660431e+01 2 1 1
1533 1 9.1727447179410255e+00 1.1048701394351838e+01 4.3689823795978109e+00 1 0 1
173 1 8.4125263690495800e+00 7.5077425320322728e+00 1.3676321580565352e+01 0 1 0
3643 1 4.5129921550908723e+00 2.2090777430643134e+00 8.7144017058144740e+00 0 1 1
6042 1 2.3448077390325848e+00 3.5561639843377386e+00 7.3146477680984354e+00 0 0 1
4720 1 4.3882666935297276e+00 2.3895492976070996e+00 1.1175591470497736e+01 0 1 1
5190 1 7.0037963016223053e+00 2.8816503997846534e+00 1.1759594499094574e+01 -1 1 0
3204 1 6.7118201301944795e+00 3.7061592881710692e+00 7.8272802749718586e+00 1 0 0
4880 1 3.2902242025481410e-01 7.5423425229569050e+00 3.6726406744526177e+00 1 0 1
2940 1 8.4795420088187630e+00 4.7530132493449706e+00 1.0166417409407011e+01 0 0 1
4448 1 1.0167119122344451e+01 5.9926364632043940e+00 1.2171515323216589e+01 -1 1 1
5019 1 8.3940044515003187e+00 5.4666661717862874e-01 1.0267129558065768e+01 1 0 0
1452 1 2.3438210579932846e+00 5.2717467506323992e+00 9.5908709204033951e+00 2 0 1
4569 1 4.9324942648788568e+00 5.9450358992284995e+00 8.2841119814936963e+00 1 0 1
1477 1 7.0770883307032566e+00 7.1857424981910576e+00 9.4471047334398435e+00 0 1 1
3113 1 8.5175488538377735e+00 8.3401498766883275e+00 7.5973537643501849e+00 0 0 1
6283 1 1.0523250561329453e+01 9.7238969395344270e+00 8.6503658451269274e+00 0 1 0
3430 1 1.1834647795389683e+01 7.7057782054067792e+00 1.0545628970728227e+01 -1 1 0
3561 1 5.9166527058366594e+00 3.7441183088263590e+00 4.8756967694549438e+00 1 0 1
4832 1 3.9008130308489695e+00 1.1257320931792638e+01 1.3085077142420916e+01 2 -1 0
5106 1 1.8604096583220870e+00 7.9040147159773575e+00 8.4312404300037365e+00 1 0 0
3494 1 5.9444426954965979e-01 1.9452061967178567e+00 6.1807111774851951e+00 1 1 0
5220 1 1.1409215665004830e+01 4.7944248741251876e+00 1.4395847053461402e+01 0 0 0
6280 1 1.1368464900364435e+01 1.2178315481411095e+01 5.6108808955961260e+00 1 0 1
1253 1 5.6903769760393432e+00 1.6586884467499718e+00 1.6451664354391443e+01 1 0 1
1640 1 1.8935932482176434e+00 9.5077175163325958e+00 1.4235191426685439e+01 1 0 0
4548 1 8.3404686866319206e+00 1.6606331002324950e+00 3.6813009306466307e+00 1 0 1
5086 1 9.1403385773554158e-01 1.1123037475612942e+00 1.4809044754555963e+01 0 -1 1
4427 1 7.4733308769266742e+00 5.9998914070891649e+00 4.0697971336293035e+00 0 0 1
4473 1 7.6866070533890376e+00 2.4157737148262051e+00 1.4613880546015205e+01 -1 1 1
1254 1 9.5530893937954371e+00 5.2970199347975998e-02 1.4753745170410927e+01 0 0 0
3142 1 3.5663949653709642e-01 5.4583469991555145e+00 1.3645100919413469e+01 1 0 0
371 1 3.1698062681100305e+00 4.6826662863799937e+00 1.2199996868295187e+01 1 2 1
345 1 3.5629879323237748e+00 7.7451825030192909e+00 1.5495852301598585e+01 1 1 0
5107 1 8.5084098928972285e+00 5.0028007018038094e+00 1.5452527490101877e+01 0 1 1
490 1 4.8931629309132418e+00 6.5485405818948710e+00 1.3300984166510887e+01 0 0 1
6050 1 6.2843265968435853e+00 8.3275940579720107e+00 1.1757538307392021e+01 1 1 1
4658 1 1.7763240983115292e+00 1.1227497499964262e+01 7.6300156447936418e+00 2 0 0
497 1 1.1475999685727881e+01 1.9685323548747131e+00 1.3703869697816472e+01 -1 1 1
4869 1 1.2175956381492828e+01 3.8268856363321424e+00 8.9935172957255940e+00 1 1 1
1705 1 1.1975728466248656e+01 1.2190540311139113e+01 1.1176669325308165e+01 1 0 0
2969 1 5.4892975636374719e-01 8.0507844801855999e+00 1.2260895876579561e+01 0 0 1
3181 1 1.1497317010006332e+01 3.3030961833895129e+00 4.2000470995191117e+00 1 0 1
6064 1 7.8245578627680130e+00 1.2168002946182263e+01 1.1737921460882108e+01 1 0 1
6106 1 2.0841676552475388e+00 1.1851153646714103e+01 3.7106575561611095e+00 0 1 1
457 1 7.6746487540235950e+00 1.3166877140505140e+00 1.8302674549478361e+01 0 -1 0
4948 1 1.3356215684446904e+00 3.1441728468721073e+00 2.1202712627175728e+01 1 0 0
3356 1 3.7906981917133962e+00 3.3235998784346799e+00 1.6997718214753746e+01 1 0 0
284 1 2.6474144657889637e-01 5.7221455537241592e+00 1.7916923654349780e+01 1 0 1
6114 1 5.0396980261151523e+00 3.6200727161286834e+00 1.9437722394237817e+01 1 1 0
3360 1 7.9971866587412572e+00 2.9677193202424514e+00 2.2201524120671266e+01 1 1 0
775 2 1.2304999999999998e+01 1.1366872099805333e+01 2.6884096340742420e+01 0 0 0
6223 1 1.0000375267495707e+01 2.1798565630299818e+00 2.0194296615575681e+01 0 0 0
685 2 8.6134999999999984e+00 9.2355835810918343e+00 2.6884096340742420e+01 0 0 0
5093 1 1.0428809372063748e+01 5.9167270782050096e-01 1.7342837875286790e+01 1 0 1
152 1 3.5140555585204458e+00 5.1088688347679634e+00 2.1041234077658196e+01 0 1 0
5225 1 1.1996812641953123e+00 1.1851841377966595e+01 2.1799814660695013e+01 0 -1 0
1925 1 7.3688361276979961e+00 5.1254848693888446e+00 1.8081861291636717e+01 1 0 0
1726 1 7.5245372483830248e+00 7.7951867239359229e+00 1.8343200716863063e+01 1 0 1
1577 1 8.0944636148907367e+00 5.2046851438225854e+00 2.4438563747148173e+01 0 0 1
1952 1 9.7394596221509016e+00 4.6817528472636862e+00 1.9327616556787206e+01 0 0 0
6 1 6.0892668850191676e+00 1.1743391183942643e+01 1.8926311960643403e+01 1 0 0
5039 1 3.2845768400963373e+00 9.3077934613030244e+00 1.9582752166635348e+01 1 0 0
2927 1 2.4750871134673615e+00 1.1983316607688025e+01 1.9442022830757210e+01 0 0 1
730 2 9.8440000000000012e+00 8.5251540748539956e+00 2.6884096340742420e+01 0 0 0
683 2 7.3830000000000009e+00 8.5251540748539991e+00 2.6884096340742420e+01 0 0 0
4843 1 5.3600297116075390e+00 4.9777570449913799e-01 2.4127113279086988e+01 1 1 0
3604 1 9.5593989169233620e+00 9.7335647609613538e+00 1.8038229740034534e+01 0 1 1
1866 1 1.1252619102948572e+01 8.6948793113877230e+00 1.9825492902051245e+01 0 1 0
477 1 5.1969639130957894e+00 9.0282420722488279e+00 1.7465490706799681e+01 0 -1 0
5232 1 3.7271204942929601e+00 4.9857682000099075e+00 2.4085239170420707e+01 1 2 1
5180 1 1.0371453949005755e+01 6.5211193874743945e+00 2.1402223556148037e+01 1 -1 1
1529 1 5.8853691594320043e+00 3.4834706348957609e+00 2.4552629267517016e+01 0 1 1
3427 1 9.4686691075589113e+00 1.9495479870483632e+00 2.4462557296505103e+01 1 0 1
3260 1 1.0838236020866130e+01 4.5204288409531381e+00 2.4482255447162039e+01 1 2 1
773 2 1.1074500000000002e+01 1.0656442593567498e+01 2.6884096340742420e+01 0 0 0
4906 1 1.5594759455983471e+00 1.7075610300092969e+00 1.7504396831773388e+01 0 -1 0
1742 1 1.1666992563488439e+00 3.7563179261075481e+00 2.4141490505774584e+01 0 1 0
308 1 4.7858694572735372e+00 7.4168657349155094e+00 2.2423079248851948e+01 0 0 1
3440 1 1.9770733367982078e+00 7.1223022933177029e+00 1.9850834523119602e+01 1 2 1
728 2 9.8440000000000012e+00 1.1366872099805333e+01 2.6884096340742420e+01 0 0 0
5976 1 7.8517372392422295e+00 8.0095381707238200e+00 2.1428356530350413e+01 1 0 1
1894 1 6.4172743625633544e+00 7.3625015156775051e+00 2.4629417847785859e+01 0 1 0
4913 1 8.5928272848298395e+00 9.2212413643546629e+00 2.4307866629552606e+01 0 1 0
3213 1 1.0849959634029039e+01 7.6482871514701101e+00 2.4101462119339580e+01 -1 -1 1
1915 1 9.7135292274780802e+00 1.0312172810855651e+01 2.1485681584339986e+01 0 -1 0
4943 1 3.0139552866844750e+00 8.3314057260903258e+00 2.4529482143669462e+01 2 1 0
726 2 8.6134999999999984e+00 1.0656442593567498e+01 2.6884096340742420e+01 0 0 0
2120 1 6.5184339375117260e+00 5.1064991952938765e-01 2.1813876120845556e+01 1 1 0
6082 1 5.6351994687868840e+00 9.9455920135350357e+00 2.1013238024929390e+01 1 0 1
3266 1 1.1701797699315646e+01 3.2995549231605448e-01 2.3938185470233641e+01 -1 1 1
1708 1 1.1460697945594408e+01 1.0772577374350639e+01 2.4151917879439399e+01 -1 1 0
732 2 1.1074500000000002e+01 9.2355835810918343e+00 2.6884096340742420e+01 0 0 0
1921 1 3.1905634958946703e+00 1.1167939545162504e+01 2.4376682637167242e+01 1 0 0
552 2 0.0000000000000000e+00 2.8417180249513345e+00 2.6884096340742420e+01 0 0 0
554 2 0.0000000000000000e+00 0.0000000000000000e+00 2.6884096340742420e+01 0 0 0
556 2 1.2305000000000001e+00 7.1042950623783474e-01 2.6884096340742420e+01 0 0 0
563 2 1.2305000000000001e+00 2.1312885187134998e+00 2.6884096340742420e+01 0 0 0
565 2 2.4610000000000003e+00 2.8417180249513345e+00 2.6884096340742420e+01 0 0 0
567 2 2.4610000000000003e+00 0.0000000000000000e+00 2.6884096340742420e+01 0 0 0
569 2 3.6915000000000004e+00 7.1042950623783474e-01 2.6884096340742420e+01 0 0 0
584 2 3.6914999999999996e+00 2.1312885187134998e+00 2.6884096340742420e+01 0 0 0
586 2 4.9220000000000006e+00 2.8417180249513332e+00 2.6884096340742420e+01 0 0 0
588 2 4.9220000000000006e+00 0.0000000000000000e+00 2.6884096340742420e+01 0 0 0
590 2 6.1524999999999999e+00 7.1042950623783407e-01 2.6884096340742420e+01 0 0 0
613 2 6.1524999999999999e+00 2.1312885187134989e+00 2.6884096340742420e+01 0 0 0
615 2 7.3829999999999991e+00 2.8417180249513345e+00 2.6884096340742420e+01 0 0 0
617 2 7.3829999999999991e+00 0.0000000000000000e+00 2.6884096340742420e+01 0 0 0
619 2 8.6134999999999984e+00 7.1042950623783407e-01 2.6884096340742420e+01 0 0 0
650 2 8.6134999999999984e+00 2.1312885187135002e+00 2.6884096340742420e+01 0 0 0
652 2 9.8440000000000012e+00 2.8417180249513332e+00 2.6884096340742420e+01 0 0 0
654 2 9.8440000000000012e+00 0.0000000000000000e+00 2.6884096340742420e+01 0 0 0
656 2 1.1074500000000002e+01 7.1042950623783330e-01 2.6884096340742420e+01 0 0 0
695 2 1.1074500000000002e+01 2.1312885187135002e+00 2.6884096340742420e+01 0 0 0
559 2 0.0000000000000000e+00 4.2625770374269996e+00 2.6884096340742420e+01 0 0 0
561 2 1.2305000000000001e+00 4.9730065436648339e+00 2.6884096340742420e+01 0 0 0
576 2 1.2305000000000001e+00 6.3938655561404980e+00 2.6884096340742420e+01 0 0 0
580 2 2.4610000000000003e+00 4.2625770374269996e+00 2.6884096340742420e+01 0 0 0
582 2 3.6914999999999996e+00 4.9730065436648339e+00 2.6884096340742420e+01 0 0 0
605 2 3.6914999999999996e+00 6.3938655561404980e+00 2.6884096340742420e+01 0 0 0
557 2 0.0000000000000000e+00 7.1042950623783341e+00 2.6884096340742420e+01 0 0 0
578 2 2.4610000000000003e+00 7.1042950623783341e+00 2.6884096340742420e+01 0 0 0
609 2 4.9220000000000006e+00 4.2625770374269978e+00 2.6884096340742420e+01 0 0 0
611 2 6.1524999999999999e+00 4.9730065436648339e+00 2.6884096340742420e+01 0 0 0
642 2 6.1524999999999999e+00 6.3938655561404980e+00 2.6884096340742420e+01 0 0 0
646 2 7.3829999999999991e+00 4.2625770374269996e+00 2.6884096340742420e+01 0 0 0
607 2 4.9220000000000006e+00 7.1042950623783341e+00 2.6884096340742420e+01 0 0 0
644 2 7.3830000000000009e+00 7.1042950623783341e+00 2.6884096340742420e+01 0 0 0
648 2 8.6135000000000002e+00 4.9730065436648339e+00 2.6884096340742420e+01 0 0 0
687 2 8.6135000000000002e+00 6.3938655561404980e+00 2.6884096340742420e+01 0 0 0
691 2 9.8440000000000012e+00 4.2625770374270004e+00 2.6884096340742420e+01 0 0 0
693 2 1.1074500000000002e+01 4.9730065436648339e+00 2.6884096340742420e+01 0 0 0
734 2 1.1074500000000002e+01 6.3938655561404980e+00 2.6884096340742420e+01 0 0 0
689 2 9.8440000000000012e+00 7.1042950623783341e+00 2.6884096340742420e+01 0 0 0
572 2 0.0000000000000000e+00 8.5251540748539991e+00 2.6884096340742420e+01 0 0 0
574 2 1.2305000000000001e+00 9.2355835810918343e+00 2.6884096340742420e+01 0 0 0
601 2 2.4610000000000003e+00 8.5251540748539991e+00 2.6884096340742420e+01 0 0 0
603 2 3.6915000000000004e+00 9.2355835810918343e+00 2.6884096340742420e+01 0 0 0
570 2 0.0000000000000000e+00 1.1366872099805333e+01 2.6884096340742420e+01 0 0 0
597 2 1.2305000000000001e+00 1.0656442593567498e+01 2.6884096340742420e+01 0 0 0
599 2 2.4610000000000003e+00 1.1366872099805333e+01 2.6884096340742420e+01 0 0 0
634 2 3.6914999999999996e+00 1.0656442593567499e+01 2.6884096340742420e+01 0 0 0
636 2 4.9220000000000006e+00 1.1366872099805333e+01 2.6884096340742420e+01 0 0 0
640 2 6.1524999999999999e+00 9.2355835810918343e+00 2.6884096340742420e+01 0 0 0
638 2 4.9220000000000006e+00 8.5251540748539991e+00 2.6884096340742420e+01 0 0 0
679 2 6.1524999999999999e+00 1.0656442593567499e+01 2.6884096340742420e+01 0 0 0
681 2 7.3829999999999991e+00 1.1366872099805333e+01 2.6884096340742420e+01 0 0 0
3199 1 5.0760127166390134e+00 1.2028846604437105e+01 2.2734405523722007e+01 0 0 1
4796 1 4.4940152407617511e+00 1.0202078166266559e+00 1.9935446094632944e+01 0 0 1
4930 1 2.0794777830014390e+00 3.8983728676722645e-01 2.1332088635526308e+01 1 1 0
1805 1 1.1543287481535264e+01 4.6647750736756324e+00 1.7179411980654137e+01 -1 0 0
5035 1 2.4150885536296871e-01 7.9867635724282131e+00 2.4311969119315489e+01 0 0 0
64 1 1.1994856316080438e-01 1.1412487587764202e+00 2.4431330094231150e+01 0 0 0
1561 1 7.7530360755159329e+00 1.1910897999046840e+01 2.4101146233424071e+01 1 1 1
6261 1 1.1781448706653089e+01 3.5988606408112428e-01 2.1220876205185267e+01 1 0 1
5045 1 4.0823569983949426e-02 7.5217014282683081e+00 2.1510310666485960e+01 1 -1 0
3282 1 2.6694032203578160e+00 6.2668483293393251e-03 2.3958519440868244e+01 2 1 1
553 2 0.0000000000000000e+00 1.4208590124756650e+00 3.0030999999999366e+01 0 0 0
555 2 0.0000000000000000e+00 0.0000000000000000e+00 3.0030999999999366e+01 0 0 0
564 2 1.2305000000000001e+00 2.1312885187134998e+00 3.0030999999999366e+01 0 0 0
566 2 2.4610000000000003e+00 1.4208590124756650e+00 3.0030999999999366e+01 0 0 0
568 2 2.4610000000000003e+00 0.0000000000000000e+00 3.0030999999999366e+01 0 0 0
585 2 3.6914999999999996e+00 2.1312885187134998e+00 3.0030999999999366e+01 0 0 0
562 2 1.2305000000000001e+00 3.5521475311891644e+00 3.0030999999999366e+01 0 0 0
583 2 3.6914999999999996e+00 3.5521475311891644e+00 3.0030999999999366e+01 0 0 0
881 2 0.0000000000000000e+00 2.8417180249513345e+00 3.3177903659252799e+01 0 0 0
882 2 0.0000000000000000e+00 0.0000000000000000e+00 3.3177903659252799e+01 0 0 0
883 2 1.2305000000000001e+00 7.1042950623783474e-01 3.3177903659252799e+01 0 0 0
887 2 1.2305000000000001e+00 2.1312885187134998e+00 3.3177903659252799e+01 0 0 0
888 2 2.4610000000000003e+00 2.8417180249513345e+00 3.3177903659252799e+01 0 0 0
889 2 2.4610000000000003e+00 0.0000000000000000e+00 3.3177903659252799e+01 0 0 0
890 2 3.6915000000000004e+00 7.1042950623783474e-01 3.3177903659252799e+01 0 0 0
898 2 3.6914999999999996e+00 2.1312885187134998e+00 3.3177903659252799e+01 0 0 0
587 2 4.9220000000000006e+00 1.4208590124756650e+00 3.0030999999999366e+01 0 0 0
589 2 4.9220000000000006e+00 0.0000000000000000e+00 3.0030999999999366e+01 0 0 0
614 2 6.1524999999999999e+00 2.1312885187134989e+00 3.0030999999999366e+01 0 0 0
616 2 7.3829999999999991e+00 1.4208590124756659e+00 3.0030999999999366e+01 0 0 0
618 2 7.3829999999999991e+00 0.0000000000000000e+00 3.0030999999999366e+01 0 0 0
612 2 6.1524999999999999e+00 3.5521475311891644e+00 3.0030999999999366e+01 0 0 0
899 2 4.9220000000000006e+00 2.8417180249513332e+00 3.3177903659252799e+01 0 0 0
900 2 4.9220000000000006e+00 0.0000000000000000e+00 3.3177903659252799e+01 0 0 0
901 2 6.1524999999999999e+00 7.1042950623783407e-01 3.3177903659252799e+01 0 0 0
913 2 6.1524999999999999e+00 2.1312885187134989e+00 3.3177903659252799e+01 0 0 0
914 2 7.3829999999999991e+00 2.8417180249513345e+00 3.3177903659252799e+01 0 0 0
915 2 7.3829999999999991e+00 0.0000000000000000e+00 3.3177903659252799e+01 0 0 0
651 2 8.6134999999999984e+00 2.1312885187135002e+00 3.0030999999999366e+01 0 0 0
653 2 9.8440000000000012e+00 1.4208590124756659e+00 3.0030999999999366e+01 0 0 0
655 2 9.8440000000000012e+00 0.0000000000000000e+00 3.0030999999999366e+01 0 0 0
696 2 1.1074500000000002e+01 2.1312885187135002e+00 3.0030999999999366e+01 0 0 0
649 2 8.6134999999999984e+00 3.5521475311891657e+00 3.0030999999999366e+01 0 0 0
694 2 1.1074500000000002e+01 3.5521475311891644e+00 3.0030999999999366e+01 0 0 0
916 2 8.6134999999999984e+00 7.1042950623783407e-01 3.3177903659252799e+01 0 0 0
932 2 8.6134999999999984e+00 2.1312885187135002e+00 3.3177903659252799e+01 0 0 0
933 2 9.8440000000000012e+00 2.8417180249513332e+00 3.3177903659252799e+01 0 0 0
934 2 9.8440000000000012e+00 0.0000000000000000e+00 3.3177903659252799e+01 0 0 0
935 2 1.1074500000000002e+01 7.1042950623783330e-01 3.3177903659252799e+01 0 0 0
955 2 1.1074500000000002e+01 2.1312885187135002e+00 3.3177903659252799e+01 0 0 0
558 2 0.0000000000000000e+00 5.6834360499026637e+00 3.0030999999999366e+01 0 0 0
560 2 0.0000000000000000e+00 4.2625770374269996e+00 3.0030999999999366e+01 0 0 0
577 2 1.2305000000000001e+00 6.3938655561404980e+00 3.0030999999999366e+01 0 0 0
579 2 2.4610000000000003e+00 5.6834360499026637e+00 3.0030999999999366e+01 0 0 0
581 2 2.4610000000000003e+00 4.2625770374269996e+00 3.0030999999999366e+01 0 0 0
606 2 3.6914999999999996e+00 6.3938655561404980e+00 3.0030999999999366e+01 0 0 0
575 2 1.2305000000000001e+00 7.8147245686161639e+00 3.0030999999999366e+01 0 0 0
604 2 3.6914999999999996e+00 7.8147245686161639e+00 3.0030999999999366e+01 0 0 0
885 2 0.0000000000000000e+00 4.2625770374269996e+00 3.3177903659252799e+01 0 0 0
886 2 1.2305000000000001e+00 4.9730065436648339e+00 3.3177903659252799e+01 0 0 0
894 2 1.2305000000000001e+00 6.3938655561404980e+00 3.3177903659252799e+01 0 0 0
896 2 2.4610000000000003e+00 4.2625770374269996e+00 3.3177903659252799e+01 0 0 0
897 2 3.6914999999999996e+00 4.9730065436648339e+00 3.3177903659252799e+01 0 0 0
909 2 3.6914999999999996e+00 6.3938655561404980e+00 3.3177903659252799e+01 0 0 0
884 2 0.0000000000000000e+00 7.1042950623783341e+00 3.3177903659252799e+01 0 0 0
895 2 2.4610000000000003e+00 7.1042950623783341e+00 3.3177903659252799e+01 0 0 0
608 2 4.9220000000000006e+00 5.6834360499026637e+00 3.0030999999999366e+01 0 0 0
610 2 4.9220000000000006e+00 4.2625770374269978e+00 3.0030999999999366e+01 0 0 0
643 2 6.1524999999999999e+00 6.3938655561404980e+00 3.0030999999999366e+01 0 0 0
645 2 7.3829999999999991e+00 5.6834360499026637e+00 3.0030999999999366e+01 0 0 0
647 2 7.3829999999999991e+00 4.2625770374269996e+00 3.0030999999999366e+01 0 0 0
641 2 6.1524999999999999e+00 7.8147245686161639e+00 3.0030999999999366e+01 0 0 0
911 2 4.9220000000000006e+00 4.2625770374269978e+00 3.3177903659252799e+01 0 0 0
912 2 6.1524999999999999e+00 4.9730065436648339e+00 3.3177903659252799e+01 0 0 0
928 2 6.1524999999999999e+00 6.3938655561404980e+00 3.3177903659252799e+01 0 0 0
930 2 7.3829999999999991e+00 4.2625770374269996e+00 3.3177903659252799e+01 0 0 0
910 2 4.9220000000000006e+00 7.1042950623783341e+00 3.3177903659252799e+01 0 0 0
929 2 7.3830000000000009e+00 7.1042950623783341e+00 3.3177903659252799e+01 0 0 0
688 2 8.6135000000000002e+00 6.3938655561404980e+00 3.0030999999999366e+01 0 0 0
690 2 9.8440000000000012e+00 5.6834360499026637e+00 3.0030999999999366e+01 0 0 0
692 2 9.8440000000000012e+00 4.2625770374270004e+00 3.0030999999999366e+01 0 0 0
735 2 1.1074500000000002e+01 6.3938655561404980e+00 3.0030999999999366e+01 0 0 0
686 2 8.6135000000000002e+00 7.8147245686161639e+00 3.0030999999999366e+01 0 0 0
733 2 1.1074500000000002e+01 7.8147245686161639e+00 3.0030999999999366e+01 0 0 0
931 2 8.6135000000000002e+00 4.9730065436648339e+00 3.3177903659252799e+01 0 0 0
951 2 8.6135000000000002e+00 6.3938655561404980e+00 3.3177903659252799e+01 0 0 0
953 2 9.8440000000000012e+00 4.2625770374270004e+00 3.3177903659252799e+01 0 0 0
954 2 1.1074500000000002e+01 4.9730065436648339e+00 3.3177903659252799e+01 0 0 0
975 2 1.1074500000000002e+01 6.3938655561404980e+00 3.3177903659252799e+01 0 0 0
952 2 9.8440000000000012e+00 7.1042950623783341e+00 3.3177903659252799e+01 0 0 0
571 2 0.0000000000000000e+00 9.9460130873296642e+00 3.0030999999999366e+01 0 0 0
573 2 0.0000000000000000e+00 8.5251540748539991e+00 3.0030999999999366e+01 0 0 0
600 2 2.4610000000000003e+00 9.9460130873296642e+00 3.0030999999999366e+01 0 0 0
602 2 2.4610000000000003e+00 8.5251540748539991e+00 3.0030999999999366e+01 0 0 0
596 2 1.2305000000000001e+00 1.2077301606043163e+01 3.0030999999999366e+01 0 0 0
598 2 1.2305000000000001e+00 1.0656442593567498e+01 3.0030999999999366e+01 0 0 0
633 2 3.6914999999999996e+00 1.2077301606043163e+01 3.0030999999999366e+01 0 0 0
635 2 3.6914999999999996e+00 1.0656442593567499e+01 3.0030999999999366e+01 0 0 0
892 2 0.0000000000000000e+00 8.5251540748539991e+00 3.3177903659252799e+01 0 0 0
893 2 1.2305000000000001e+00 9.2355835810918343e+00 3.3177903659252799e+01 0 0 0
907 2 2.4610000000000003e+00 8.5251540748539991e+00 3.3177903659252799e+01 0 0 0
908 2 3.6915000000000004e+00 9.2355835810918343e+00 3.3177903659252799e+01 0 0 0
891 2 0.0000000000000000e+00 1.1366872099805333e+01 3.3177903659252799e+01 0 0 0
905 2 1.2305000000000001e+00 1.0656442593567498e+01 3.3177903659252799e+01 0 0 0
906 2 2.4610000000000003e+00 1.1366872099805333e+01 3.3177903659252799e+01 0 0 0
924 2 3.6914999999999996e+00 1.0656442593567499e+01 3.3177903659252799e+01 0 0 0
637 2 4.9220000000000006e+00 9.9460130873296642e+00 3.0030999999999366e+01 0 0 0
639 2 4.9220000000000006e+00 8.5251540748539991e+00 3.0030999999999366e+01 0 0 0
682 2 7.3830000000000009e+00 9.9460130873296642e+00 3.0030999999999366e+01 0 0 0
684 2 7.3830000000000009e+00 8.5251540748539991e+00 3.0030999999999366e+01 0 0 0
678 2 6.1524999999999999e+00 1.2077301606043163e+01 3.0030999999999366e+01 0 0 0
680 2 6.1524999999999999e+00 1.0656442593567499e+01 3.0030999999999366e+01 0 0 0
926 2 4.9220000000000006e+00 8.5251540748539991e+00 3.3177903659252799e+01 0 0 0
927 2 6.1524999999999999e+00 9.2355835810918343e+00 3.3177903659252799e+01 0 0 0
949 2 7.3830000000000009e+00 8.5251540748539991e+00 3.3177903659252799e+01 0 0 0
925 2 4.9220000000000006e+00 1.1366872099805333e+01 3.3177903659252799e+01 0 0 0
947 2 6.1524999999999999e+00 1.0656442593567499e+01 3.3177903659252799e+01 0 0 0
948 2 7.3829999999999991e+00 1.1366872099805333e+01 3.3177903659252799e+01 0 0 0
729 2 9.8440000000000012e+00 9.9460130873296642e+00 3.0030999999999366e+01 0 0 0
731 2 9.8440000000000012e+00 8.5251540748539956e+00 3.0030999999999366e+01 0 0 0
725 2 8.6135000000000002e+00 1.2077301606043163e+01 3.0030999999999366e+01 0 0 0
727 2 8.6134999999999984e+00 1.0656442593567498e+01 3.0030999999999366e+01 0 0 0
772 2 1.1074500000000002e+01 1.2077301606043163e+01 3.0030999999999366e+01 0 0 0
774 2 1.1074500000000002e+01 1.0656442593567498e+01 3.0030999999999366e+01 0 0 0
950 2 8.6134999999999984e+00 9.2355835810918343e+00 3.3177903659252799e+01 0 0 0
973 2 9.8440000000000012e+00 8.5251540748539956e+00 3.3177903659252799e+01 0 0 0
974 2 1.1074500000000002e+01 9.2355835810918343e+00 3.3177903659252799e+01 0 0 0
971 2 8.6134999999999984e+00 1.0656442593567498e+01 3.3177903659252799e+01 0 0 0
972 2 9.8440000000000012e+00 1.1366872099805333e+01 3.3177903659252799e+01 0 0 0
995 2 1.1074500000000002e+01 1.0656442593567498e+01 3.3177903659252799e+01 0 0 0
996 2 1.2304999999999998e+01 1.1366872099805333e+01 3.3177903659252799e+01 0 0 0
4557 1 3.3607100337592284e+00 1.6789549383347935e+00 3.5667413381162916e+01 0 1 0
70 1 1.5818937485415445e+00 2.2338854651357010e+00 3.8020663569011433e+01 1 0 0
47 1 6.0265249268996675e+00 1.8675710408282575e+00 3.6273895463989703e+01 0 1 0
1600 1 2.9290470910472166e-01 3.3328934790552696e+00 3.5685707027642380e+01 1 1 0
3018 1 5.9114188382540922e+00 1.2713003115430876e+00 3.8938965028449232e+01 0 1 -1
4685 1 8.7820950824313506e+00 9.8705103054690753e+00 4.3199539389857421e+01 0 0 0
4474 1 8.6822293683807210e+00 3.4379253919235997e+00 4.2735127278361361e+01 1 0 0
2145 1 9.8307245999302850e+00 1.9397032219926005e+00 3.5493599134130520e+01 0 0 0
5954 1 2.9932168684327576e+00 6.7377903960512109e+00 3.6059044951718590e+01 0 0 0
3517 1 7.0408505264615142e+00 6.8764858815614014e+00 4.2602302292258841e+01 1 1 -1
1441 1 3.0587114101623101e+00 6.4452203698974468e+00 3.9012139616327389e+01 0 1 0
6137 1 1.1070416628388370e+01 7.8505497015981751e+00 3.6208108967610414e+01 0 -1 0
229 1 5.0561608725833631e+00 4.6933411302693999e+00 3.5841052890179469e+01 1 0 -1
3252 1 7.1510657903730221e+00 6.7332773934041796e+00 3.5620512845331234e+01 0 0 0
1314 1 6.0626730127198298e+00 4.8059429164884140e+00 3.8300817353747362e+01 0 0 0
5042 1 8.6835925630800528e+00 4.1734652404990804e+00 3.5930760339768241e+01 0 1 -1
1988 1 8.5560845948511286e+00 3.1305707844053408e+00 3.8569219263710238e+01 0 1 -1
5174 1 1.1517662692771149e+01 3.9742189028968089e+00 4.1528870860532052e+01 -1 1 -1
6130 1 3.2460259677717476e+00 9.2984452161029854e+00 3.6111236788910858e+01 0 1 0
4611 1 2.1596379645286370e+00 1.0545807128618357e+01 3.8650248076552828e+01 0 0 0
40 1 3.3902456268260699e+00 3.9526726942991695e+00 4.2151096842908231e+01 1 1 0
6063 1 7.3661149887749202e+00 9.3949393245315829e+00 3.8523883916452561e+01 0 1 0
546 1 6.1355918019480553e+00 9.7648809139813562e+00 3.6242081552915423e+01 0 0 -1
5161 1 4.7215938717671572e-03 6.0979968954888903e+00 3.5693807333740523e+01 1 0 -1
1622 1 1.0283394579947457e+01 9.2704487081589857e+00 3.8425135972413244e+01 0 1 -1
5268 1 8.9587287849745838e+00 1.0051273835517470e+01 3.5432077156152403e+01 2 1 -1
1905 1 5.7522939840199276e+00 2.7944434430509685e-01 4.2909209021966348e+01 -1 0 -1
6221 1 1.1064689268449632e+01 1.7732027866708011e+00 3.8217809067029805e+01 1 1 -1
3228 1 1.2373413401893947e+00 1.6932716950551669e+00 4.2677579952265347e+01 1 1 -1
4922 1 3.8527684714530825e+00 3.2905436688821261e+00 3.9375782010996161e+01 -1 0 -1
3645 1 7.7377024055578953e+00 1.5468766266654563e+00 4.1167075348261946e+01 0 0 0
2892 1 2.3938190006347143e-01 6.3819869299499947e+00 3.8266713607382144e+01 0 1 0
5231 1 3.6570600423810795e+00 8.9716564795890719e+00 4.0490447742836679e+01 0 1 0
1522 1 1.1068509789270442e+01 5.3321999094469819e+00 3.6279966394671462e+01 1 0 0
6211 1 5.9789626788360044e+00 7.4916156023774647e+00 4.0043662331576471e+01 1 1 -1
2819 1 1.1083163498532267e+01 6.9852416351858349e+00 3.9748162018438649e+01 0 0 0
6162 1 9.8754795079385964e+00 6.3474249923346155e+00 4.2308752040223126e+01 -1 1 0
4405 1 1.8064746643707839e+00 8.6653050676100722e+00 4.2253213152597425e+01 -1 0 0
2137 1 7.3965449432907890e+00 1.1558477909863958e+01 4.0265338569189396e+01 0 0 0
4517 1 5.3860815269169935e+00 1.1040463314472007e+01 4.1823251533449351e+01 0 0 0
6013 1 1.6375212537974246e-01 9.9860303859209782e+00 3.5922123053128260e+01 0 0 0
3493 1 1.2196587087646071e+01 1.0078808540791760e+01 4.2220033802100659e+01 0 0 0
6170 1 1.0108834746074386e+01 1.1480773817183270e+01 4.1038461565718407e+01 -1 0 0
6200 1 3.7007955746244114e+00 2.1310694759993881e-01 4.0869920510918718e+01 1 0 0
1984 1 5.0771209798720260e+00 1.2130816044015386e+01 3.5739976122120808e+01 0 1 0
1953 1 2.4545551671642705e+00 1.6719326007923747e+00 4.6537108026631003e+01 0 1 -1
3640 1 1.0429027059297972e+01 2.8805842462088127e+00 5.1085235957439920e+01 0 1 0
1751 1 5.7306508883146656e-01 9.0851797923289528e+00 4.6447775545156972e+01 0 0 -1
5250 1 7.3910454077416903e+00 7.5837130051064183e-01 4.6460652079290085e+01 0 0 0
5064 1 5.2683438585510833e+00 2.1176126805913391e+00 4.5286149050933261e+01 1 1 -1
3580 1 1.1624867052260269e+01 7.9868977295238075e+00 5.4900681066086307e+01 0 0 0
4779 1 8.6386624751407357e+00 2.4653961013044792e+00 4.8443711351244133e+01 1 1 0
5963 1 1.1120166613553971e+01 3.1317236807295599e+00 4.6658412581061199e+01 1 0 0
4726 1 9.5498856987955811e+00 1.7724604326143496e+00 4.4578839605156858e+01 0 1 -1
1406 1 9.3433880636615696e-01 9.9447475451422029e+00 5.4753149676206078e+01 1 1 0
1712 1 4.9534895968638137e+00 1.0094972568516834e+01 5.5362377144633399e+01 2 1 -1
1903 1 5.8600319469072408e+00 4.3090321625097676e+00 4.3719104306686361e+01 1 1 -1
2922 1 6.1613818006116263e+00 5.8750873020528234e+00 4.6172371946310761e+01 0 0 0
5139 1 1.0652526322354236e+01 7.4158567350330031e+00 4.4850762599836585e+01 1 1 0
282 1 3.3020698349251960e+00 9.4272299252522114e+00 5.3331212555367998e+01 0 1 -1
4842 1 8.6753091549586845e+00 4.0661874932163444e+00 5.5191985108563458e+01 -1 0 -1
4767 1 2.4745061919530609e+00 1.0083322944505168e+01 4.4661978074265264e+01 1 1 0
42 1 1.9744932348974653e+00 5.8553959196243550e+00 5.4617464852275859e+01 1 0 -1
3331 1 5.0021679595152841e+00 8.5615778677119696e+00 4.6077700977404660e+01 0 0 -1
6199 1 6.2692266957406400e+00 1.0430648135936368e+01 4.4168382842805102e+01 0 1 0
3404 1 9.3185657653987839e+00 1.1876024106566582e+01 4.4981478798860280e+01 1 0 -1
4907 1 8.2266152406760096e+00 7.8759907074671158e+00 4.5653103918232418e+01 0 1 0
6294 1 6.5674540179102401e+00 1.1089358768514405e+01 5.3539004661026667e+01 0 1 0