
# Create simulation box and atoms

read_data data.ML_graphite_1atm_240K
  orthogonal box = (0 0 3.74403) to (49.22 49.0196 56.318)
  4 by 4 by 4 MPI processor grid
  reading atoms ...
  6328 atoms
  reading velocities ...
  6328 velocities
group water type 1
3568 atoms in group water
group graphite type 2
2760 atoms in group graphite

# Define potential

pair_style sw
pair_coeff * * MLC_e.sw mW C


# Fix graphite atoms in place

fix 5 graphite setforce 0.0 0.0 0.0
velocity graphite set 0.0 0.0 0.0


# Equilibration of molecular water

# Add velocity/set timestep

velocity	    water create ${TEMP} ${SEED} rot yes dist gaussian
velocity	    water create 240 ${SEED} rot yes dist gaussian
velocity	    water create 240 8085 rot yes dist gaussian
timestep	    5.0

# Define output

compute			1 water msd
compute			3 water temp
thermo	    	50
thermo_style	custom step temp press vol etotal ke pe c_1[4] c_3

# Neighbor lists

neigh_modify    delay 0 every 1 check yes

# Set fixes

fix             1 water momentum 10 linear 1 1 1 rescale
fix             2 water nve
fix             3 water temp/csvr ${TEMP} ${TEMP} 500.0 ${SEED}
fix             3 water temp/csvr 240 ${TEMP} 500.0 ${SEED}
fix             3 water temp/csvr 240 240 500.0 ${SEED}
fix             3 water temp/csvr 240 240 500.0 8085
fix             4 water press/berendsen z ${PRES} ${PRES} 1000.0 modulus 20000
fix             4 water press/berendsen z 1 ${PRES} 1000.0 modulus 20000
fix             4 water press/berendsen z 1 1 1000.0 modulus 20000

# Run 0.5 ns equilibration

dump		    1 all atom 2000 ${DIR}/eq.${NAME}-${TEMP}.dump
dump		    1 all atom 2000 run_30/eq.${NAME}-${TEMP}.dump
dump		    1 all atom 2000 run_30/eq.het_freeze_30-${TEMP}.dump
dump		    1 all atom 2000 run_30/eq.het_freeze_30-240.dump

reset_timestep  0

run	            100000
Neighbor list info ...
  update every 1 steps, delay 0 steps, check yes
  max neighbors/atom: 2000, page size: 100000
  master list distance cutoff = 6.67472
  ghost atom cutoff = 6.67472
  binsize = 3.33736, bins = 15 15 16
  1 neighbor lists, perpetual/occasional/extra = 1 0 0
  (1) pair sw, perpetual
      attributes: full, newton on
      pair build: full/bin/atomonly
      stencil: full/bin/3d
      bin: standard
Per MPI rank memory allocation (min/avg/max) = 4.072 | 4.208 | 4.496 Mbytes
Step Temp Press Volume TotEng KinEng PotEng c_1[4] c_3 
       0    135.30583   -58.143592    126847.59   -33960.221    2551.8119   -36512.033            0          240 
      50    134.88906   -457.70923    126880.61    -33991.69    2543.9516   -36535.641   0.50941649    239.26074 
     100     134.7383   -433.80529    126816.28   -33979.137    2541.1084   -36520.245    0.9097726    238.99333 
     150    133.65499   -361.47655    126936.58   -34050.414    2520.6777   -36571.091    1.1881698    237.07181 
     200    133.17546   -517.06286    126895.57   -34036.624     2511.634   -36548.258    1.4675259    236.22124 
     250    138.70764    -154.1948    126834.17   -33948.602    2615.9686   -36564.571    1.7501556      246.034 
     300    136.61414   -231.61114    126822.71   -33973.638     2576.486   -36550.124    2.0043093    242.32062 
     350    133.73223   -135.73409    126878.57   -33972.571    2522.1344   -36494.706    2.2458121    237.20881 
     400    138.63659   -159.15449    126889.77   -33872.445    2614.6285   -36487.074    2.4590922    245.90796 
     450    133.12543   -216.61619    126924.51   -33881.558    2510.6904   -36392.248    2.7403103    236.13249 
     500    138.98706   -220.45021    127024.39   -33937.759    2621.2382   -36558.997    2.9608983     246.5296 
     550    137.14993    -121.0724    127128.63   -33900.107    2586.5908   -36486.698    3.2555767    243.27099 
     600    136.21926   -303.10987    127187.26   -33921.714    2569.0387   -36490.752    3.5997234     241.6202 
     650    136.13459   -717.98596    127076.65   -33920.951    2567.4419   -36488.393    3.8062534    241.47002 
     700    137.94356   -407.93728    127037.83   -33941.409    2601.5584   -36542.967    4.0722999     244.6787 
     750    136.71616   -453.20618    126967.61    -33929.13      2578.41    -36507.54    4.2857769    242.50158 
     800     135.2926   -402.71647    126940.08   -33947.112    2551.5624   -36498.674    4.5466488    239.97654 
     850    135.57647   -474.36416    126918.64   -33942.459    2556.9159   -36499.375    4.7093471    240.48004 
     900    137.12149   -397.90509    126912.62   -33913.642    2586.0544   -36499.697    4.9166408    243.22054 
     950    135.75385   -486.96595    126797.08   -33947.511    2560.2612   -36507.772    5.0921378    240.79467 
    1000    133.23077   -559.15487     126752.7   -33962.304    2512.6771   -36474.981     5.297476    236.31935 
    1050    132.82409   -396.09212    126720.21   -33955.044    2505.0072   -36460.051    5.5914828    235.59798 
    1100    133.75269   -279.11808    126752.75   -33963.758    2522.5202   -36486.278    5.9407127     237.2451 
    1150    134.22999   -280.12465    126783.09   -33972.106     2531.522   -36503.628    6.2905302    238.09172 
    1200    130.61372    -275.1112    126738.62   -33971.273    2463.3207   -36434.594    6.6046364    231.67733 
    1250    132.60319   -347.72332    126697.48   -33995.434    2500.8411   -36496.275    6.7614395    235.20616 
    1300    136.02242   -375.03126    126810.22   -33983.119    2565.3264   -36548.446    6.9199789    241.27106 
    1350    136.11842   -631.15599    126858.64   -33968.448     2567.137   -36535.585    7.2493416    241.44134 
    1400    138.12122   -455.37767    126859.14   -33942.833    2604.9089   -36547.742    7.4711236    244.99382 
    1450    134.07795   -385.70875    126816.51   -34017.211    2528.6545   -36545.865    7.6296717    237.82203 
    1500    131.75606   -204.22957     126796.5   -34016.464    2484.8647   -36501.329    7.7989751    233.70356 
    1550    134.15217   -618.06232    126746.37   -33997.086    2530.0543   -36527.141    7.9422834    237.95368 
    1600     134.4002   -135.80707     126784.8   -34010.282    2534.7321   -36545.015    8.1808608    238.39363 
    1650    135.10185    -269.5936    126734.98   -33971.648    2547.9649   -36519.613    8.4191495    239.63819 
    1700    135.86096   -321.53565    126663.95   -34023.254    2562.2814   -36585.536    8.6636263    240.98466 
    1750    132.92498   -140.50657    126630.67   -34032.729      2506.91   -36539.639    8.9664111    235.77694 
    1800    138.26762   -304.65128    126672.22   -33971.655    2607.6699   -36579.325    9.2187761     245.2535 
    1850     134.1392   -113.23938    126768.95   -33976.022    2529.8096   -36505.832    9.5183699    237.93067 
    1900    137.84953   -150.44421    126886.29    -33962.54     2599.785   -36562.325    9.8276506    244.51192 
    1950    134.62893   -286.23538       126958   -33978.722    2539.0459   -36517.768    10.041167    238.79935 
    2000    137.70924     -414.183     126919.8   -33985.284    2597.1392   -36582.423    10.206846    244.26308 
    2050    132.27845   -377.30876    126871.73   -34037.846    2494.7167   -36532.563    10.481483    234.63015 
    2100    133.37858   -448.17507    126815.33   -34032.107    2515.4647   -36547.571    10.741621    236.58152 
    2150    134.59316   -278.59132    126848.03   -34013.801    2538.3711   -36552.172    10.987604    238.73589 
    2200    133.91625   -411.11539    126884.73   -33983.207    2525.6049   -36508.812    11.193589    237.53521 
    2250     136.6039   -212.17205    126967.15   -33936.236    2576.2929   -36512.529    11.463804    242.30246 
    2300    134.98291   -521.14338    127069.76   -33934.574    2545.7217   -36480.295    11.728654    239.42722 
    2350    138.86327    -247.2406    127123.53   -33884.881    2618.9037   -36503.785    12.020691    246.31004 
    2400    137.83365    -77.67002    127113.72   -33884.294    2599.4854    -36483.78    12.374494    244.48374 
    2450    137.79011   -265.49844    127247.53    -33903.04    2598.6643   -36501.704    12.703205    244.40651 
    2500    135.22395   -338.89369    127266.94   -33960.229    2550.2676   -36510.496    13.033166    239.85476 
    2550    136.86456   -146.65988    127194.75   -33937.328    2581.2089   -36518.537    13.252754    242.76481 
    2600    134.94881   -232.81305    127195.46   -33902.591    2545.0785    -36447.67    13.533297    239.36672 
    2650    137.61389   -47.758549    127137.94   -33891.779    2595.3409   -36487.119    13.832575    244.09394 
    2700    137.53205   -49.182286    127223.23   -33931.701    2593.7974   -36525.498    14.197776    243.94877 
    2750    139.01972   -105.56122    127278.73   -33935.076    2621.8542    -36556.93    14.488079    246.58754 
    2800    139.00301    120.03666     127439.5   -33964.773    2621.5391   -36586.312    14.688794     246.5579 
    2850    135.92506   -236.70336    127574.14   -34006.633    2563.4902   -36570.124    14.958425    241.09836 
    2900    136.16889   -246.32409    127486.57   -34030.211    2568.0888     -36598.3    15.190759    241.53085 
    2950    135.57939   -48.860783    127484.79   -34043.829     2556.971     -36600.8     15.48195    240.48522 
    3000    135.37463   -391.06725    127402.65   -34047.115    2553.1094   -36600.225    15.704509    240.12203 
    3050    136.03165   -227.76092    127298.39   -34054.377    2565.5005   -36619.877    15.968693    241.28742 
    3100    137.90431   -121.84988     127313.8   -33979.836     2600.818   -36580.654    16.275655    244.60907 
    3150    134.17984   -320.59346    127307.89   -33997.314    2530.5762    -36527.89    16.629171    238.00277 
    3200    138.15905   -154.84239    127240.77    -34018.61    2605.6224   -36624.233    16.802562    245.06092 
    3250    136.55587   -395.52914       127228    -33969.71     2575.387   -36545.097    17.041919    242.21726 
    3300    138.38324   -285.20658    127263.73   -33973.346    2609.8505   -36583.197    17.197692    245.45859 
    3350    135.51427   -210.02083    127296.62   -33983.777    2555.7428   -36539.519    17.475256    240.36971 
    3400    133.47126   -67.637355    127329.88   -34001.912    2517.2126   -36519.125    17.741568    236.74591 
    3450    133.79845   -38.055314     127375.1   -34024.275    2523.3833   -36547.659    17.945394    237.32627 
    3500    135.44536   -126.19817     127322.1   -34049.418    2554.4432   -36603.861    18.111266    240.24748 
    3550     135.9974   -211.75718    127274.42   -34028.931    2564.8545   -36593.785    18.334108    241.22667 
    3600      133.731   -478.28776    127242.93   -34039.391    2522.1111   -36561.502    18.529493    237.20662 
    3650    132.25612   -384.82386    127090.89   -34017.022    2494.2956   -36511.317    18.769757    234.59055 
    3700    134.19944   -414.69723    127020.86   -34071.631    2530.9457   -36602.577    18.926825    238.03752 
    3750    133.00528    -590.1003    126997.28   -34081.287    2508.4245   -36589.712     19.15867    235.91938 
    3800    133.54981   -386.62571    126946.33   -34060.559     2518.694   -36579.253     19.36856    236.88524 
    3850    135.60028    47.516997    127038.31   -34017.965    2557.3651   -36575.331    19.656504    240.52228 
    3900    138.11803   -391.13981    127094.91   -33977.399    2604.8488   -36582.248    19.998603    244.98817 
    3950    135.83069   -238.10715     127077.4   -34037.656    2561.7104   -36599.366    20.338724    240.93096 
    4000     133.7646   -258.63374    127040.53    -34040.41    2522.7449   -36563.155    20.533851    237.26623 
    4050    135.42077   -32.266033    127076.15   -34027.545    2553.9795   -36581.524    20.884105    240.20387 
    4100    133.67532    21.711897    127154.57   -34037.659     2521.061    -36558.72    21.320802    237.10786 
    4150    137.23059   -241.49125    127241.57    -34054.12    2588.1119   -36642.232    21.543896    243.41405 
    4200    129.76988   -48.636806    127319.19   -34155.724     2447.406    -36603.13    21.819454    230.18055 
    4250    132.91669   -151.64922     127324.5   -34119.092    2506.7536   -36625.845     22.07542    235.76223 
    4300    135.27532   -12.118652    127351.63   -34096.984    2551.2364    -36648.22    22.347097    239.94588 
    4350    134.75434   -259.04191    127432.07   -34052.195     2541.411   -36593.605    22.645932    239.02179 
    4400    133.82462   -394.16534    127410.47   -34025.685    2523.8768   -36549.561    22.661594    237.37269 
    4450    135.43057    -598.3522    127398.96   -34016.236    2554.1643     -36570.4    22.803033    240.22125 
    4500    138.95352   -479.35852     127411.9    -33973.79    2620.6057   -36594.395    23.027969    246.47011 
    4550    137.43773   -500.72619    127316.02   -33987.624    2592.0186   -36579.643    23.400279    243.78147 
    4600     137.7657   -500.58927    127278.63   -33970.902    2598.2039   -36569.106    23.703503    244.36321 
    4650    135.34667   -212.38648    127266.65   -33986.603     2552.582   -36539.185    24.020136    240.07243 
    4700    136.77057   -157.57992    127248.29   -33995.264    2579.4362     -36574.7    24.149474    242.59809 
    4750    138.18264   -181.40141    127224.74   -33990.625    2606.0673   -36596.692    24.324926    245.10276 
    4800     134.7923   -146.92455     127359.8   -33997.473    2542.1268     -36539.6    24.459545    239.08911 
    4850    135.26633   -305.02419    127361.02   -33987.448    2551.0668   -36538.515     24.70836    239.92993 
    4900    137.26665   -59.463294    127413.37   -33967.028     2588.792    -36555.82    24.797324    243.47801 
    4950    134.75736   -414.41541     127423.5   -33982.003    2541.4679   -36523.471    24.900791    239.02714 
    5000    135.03391    -369.8864    127343.16   -34013.159    2546.6836   -36559.842    25.114146    239.51768 
    5050    136.18862   -277.01266    127338.41   -34026.991    2568.4609   -36595.452    25.110953    241.56586 
    5100    133.91292   -97.808637    127385.68   -34020.029    2525.5421   -36545.571    25.266494    237.52931 
    5150    138.15392   0.19054081    127433.89   -33999.807    2605.5255   -36605.332    25.545126    245.05181 
    5200    134.86978    28.987244    127547.27   -34055.382    2543.5882    -36598.97    25.978839    239.22656 
    5250    133.91673   -96.458048    127640.87   -34045.561     2525.614   -36571.175    26.412944    237.53607 
    5300    138.13976   -386.77523    127633.52   -34008.922    2605.2586   -36614.181    26.664125    245.02671 
    5350     134.4071   -272.92311    127614.15   -34058.165    2534.8621   -36593.027    26.970082    238.40586 
    5400    135.39636   -207.37907    127590.64   -34053.483    2553.5193   -36607.002     27.17701    240.16058 
    5450    135.91378    23.997647    127547.35     -34020.7    2563.2775   -36583.978    27.478361    241.07836 
    5500    137.51784     49.83957    127600.52   -34015.223    2593.5295   -36608.752    27.653036    243.92358 
    5550    139.83197   -142.26524    127690.67   -33993.338     2637.173   -36630.511    28.053595    248.02829 
    5600    136.32808   -405.92491    127691.43   -33971.798     2571.091   -36542.889    28.399962    241.81322 
    5650    135.56193   -168.33103    127625.97   -33976.505    2556.6417   -36533.147    28.708054    240.45425 
    5700    134.45399   -491.62963    127602.06   -34048.851    2535.7465   -36584.598    28.943017    238.48904 
    5750    136.26319    -501.4344    127483.24   -34014.634    2569.8672   -36584.502    29.229734    241.69812 
    5800    133.82797   -202.66982    127411.99   -34034.605      2523.94   -36558.545    29.539765    237.37863 
    5850    134.00823   -127.74344    127413.62   -34062.645    2527.3396   -36589.984    29.874711    237.69837 
    5900    133.57337   -336.64006    127273.52   -34069.938    2519.1384   -36589.077    30.233055    236.92704 
    5950    134.16038   -70.117855    127242.35   -34078.553    2530.2092   -36608.763    30.489271    237.96825 
    6000    133.38187   -82.092237    127280.22   -34106.535    2515.5268   -36622.062    30.854551    236.58736 
    6050     131.6098   -298.00606    127263.55   -34140.421    2482.1062   -36622.528    31.102733    233.44413 
    6100    134.58555    -279.9966    127279.91   -34126.532    2538.2276    -36664.76    31.314296    238.72239 
    6150    134.28785   -174.49935    127231.84   -34126.656    2532.6132   -36659.269    31.666544    238.19435 
    6200    133.44917   -155.09006    127286.81   -34107.336    2516.7959   -36624.132    32.028061    236.70672 
    6250    135.78897   -94.940055     127287.8   -34090.469    2560.9236   -36651.393    32.210215    240.85697 
    6300    133.04688     23.69791    127333.04   -34052.159     2509.209   -36561.368    32.476948    235.99316 
    6350     133.4482   -365.91215    127382.32   -34091.456    2516.7777   -36608.233    32.705108    236.70501 
    6400    135.95769   -257.25015     127506.5   -34052.942    2564.1057   -36617.048    33.094707    241.15624 
    6450    137.30199    -137.7649    127635.53   -34003.471    2589.4586   -36592.929    33.443058    243.54071 
    6500    135.25338   -255.92751    127604.86    -33989.66    2550.8227   -36540.482    33.781335    239.90697 
    6550    136.63137    -455.1183    127583.49   -34016.102    2576.8109   -36592.913    34.130633    242.35118 
    6600    133.64557   -150.47668    127518.09   -33996.771    2520.5001   -36517.271    34.419405     237.0551 
    6650    134.26192   -322.80838     127531.9   -34016.098    2532.1242   -36548.222    34.552529    238.14835 
    6700    133.53296    -209.6557    127535.92   -34023.525    2518.3763   -36541.901     34.80193    236.85535 
    6750    135.70653   -502.32069    127540.55   -33990.074    2559.3689   -36549.443    35.015895    240.71074 
    6800    134.60295   -301.06632    127437.77   -33991.609    2538.5558   -36530.165    35.144819    238.75325 
    6850    138.36038   -165.12897    127350.35   -33930.834    2609.4193   -36540.253    35.333584    245.41803 
    6900    135.35785   -434.94033    127280.27   -33947.853    2552.7928   -36500.645    35.450775    240.09226 
    6950    137.75782   -329.67887    127281.71   -33956.068    2598.0553   -36554.123    35.528587    244.34924 
    7000    136.66971   -18.461812    127325.39   -34026.118     2577.534   -36603.652    35.763116    242.41919 
    7050    135.33059   -154.77577     127423.3   -34035.653    2552.2787   -36587.931    36.160274    240.04391 
    7100    134.79593   -230.58475    127513.12   -34010.519    2542.1953   -36552.715    36.456132    239.09556 
    7150    137.06541    -461.0863    127559.74   -34026.533    2584.9968   -36611.529    36.645183    243.12107 
    7200    132.57348   -314.51106    127490.29   -34062.709    2500.2809    -36562.99    36.860785    235.15347 
    7250    135.16442   -204.31117    127478.14   -34105.638    2549.1449   -36654.783    37.113324    239.74917 
    7300    131.55589   -444.84609    127475.86   -34079.599    2481.0895   -36560.689    37.373756    233.34851 
    7350    135.21385   -426.28679    127457.73   -34058.885    2550.0772   -36608.963    37.417269    239.83685 
    7400    132.92998   -289.01848    127482.06   -34013.642    2507.0043   -36520.646    37.630043    235.78582 
    7450    135.04574   -440.11003    127462.18   -34010.117    2546.9067   -36557.024    37.812396    239.53867 
    7500    137.81556   -121.96915    127573.33    -33936.89    2599.1442   -36536.035    38.138143    244.45164 
    7550    136.33685   -583.53909     127483.8   -33939.419    2571.2564   -36510.675    38.298884    241.82877 
    7600    135.17048   -273.65877     127436.7   -33947.095    2549.2592   -36496.354    38.481789    239.75992 
    7650    137.03884   -435.04651     127393.6    -33892.35    2584.4956   -36476.846    38.535041    243.07393 
    7700     137.4654     -284.937    127301.24   -33932.812    2592.5405   -36525.353    38.689137    243.83056 
    7750    138.24792   -343.80994    127343.53   -33961.626    2607.2983   -36568.925    39.181506    245.21855 
    7800    134.73882   -225.82141    127228.23   -34000.782    2541.1183     -36541.9    39.325121    238.99427 
    7850     134.7309   -459.53362    127129.54   -34009.769    2540.9689   -36550.737     39.54206    238.98021 
    7900    133.62493   -258.99717    127171.47   -33974.672    2520.1108   -36494.782    39.818479    237.01849 
    7950    135.68343   -435.73671    127073.56   -33988.813    2558.9333   -36547.746    40.096067    240.66977 
    8000    137.65382   -394.90284    126974.83   -33971.788     2596.094   -36567.882    40.330811    244.16477 
    8050    136.42735   -315.92953     127025.4    -34018.75    2572.9632   -36591.714    40.657154     241.9893 
    8100    139.66297   -172.99022     126963.3   -33973.424    2633.9857    -36607.41    40.958187    247.72851 
    8150    139.05208   -18.840232    127061.91   -33972.298    2622.4645   -36594.762    41.268272    246.64494 
    8200    138.61158   -317.58058    127137.56   -33966.777    2614.1568   -36580.934    41.616692     245.8636 
    8250    138.22722   -105.87265    127183.19   -33954.959     2606.908   -36561.867    41.819452    245.18184 
    8300    137.95719   -208.66724    127256.14   -33971.302    2601.8153   -36573.117    41.937126    244.70287 
    8350    137.77585   -26.104068    127346.84   -33987.223    2598.3953   -36585.619    42.269649    244.38121 
    8400    135.08131    -16.81286    127522.41   -33976.589    2547.5776   -36524.166     42.44993    239.60176 
    8450    138.41364    -211.3633    127570.91   -33959.501    2610.4239   -36569.925    42.793251    245.51251 
    8500    138.31074   -164.77732    127669.41   -33986.113    2608.4832   -36594.596    43.058125    245.32999 
    8550    137.45514   -394.53161    127619.49   -34029.416     2592.347   -36621.763    43.245828    243.81236 
    8600    133.36653   -441.37595    127615.93   -34049.492    2515.2374    -36564.73    43.463395    236.56014 
    8650     133.1457   -185.96685    127694.64   -34055.418    2511.0728   -36566.491    43.570346    236.16845 
    8700    133.66172   -505.64701    127710.72   -34052.898    2520.8045   -36573.702     43.74276    237.08374 
    8750    136.88401   -463.30403    127699.72   -34066.215    2581.5757   -36647.791    43.796929    242.79931 
    8800    135.47096   -224.88023    127703.05   -34082.051     2554.926   -36636.977    44.011269    240.29289 
    8850    133.03901   -145.02972    127679.88   -34083.356    2509.0605   -36592.416     44.39022     235.9792 
    8900    130.99048   -280.07827    127588.27   -34076.764    2470.4262    -36547.19    44.749485    232.34561 
    8950    137.57697   -206.19068    127572.25   -34084.525    2594.6447    -36679.17     45.08656    244.02846 
    9000    137.84371   -72.701356    127646.59   -34076.506    2599.6753   -36676.182    45.417346    244.50159 
    9050    131.45245   -258.26584    127600.05   -34162.953    2479.1386   -36642.092    45.613785    233.16502 
    9100    136.27547   -173.62485    127590.14   -34147.149    2570.0989   -36717.248     45.74752    241.71991 
    9150    135.19661   -437.49957    127584.29   -34095.253     2549.752   -36645.005    45.925825    239.80627 
    9200    133.78367    -254.4789    127599.45   -34100.664    2523.1044   -36623.769    46.114711    237.30004 
    9250    135.76798   -107.85116    127694.53   -34020.454    2560.5278   -36580.981    46.315175    240.81974 
    9300    140.45068   -142.93356    127744.69    -33985.79    2648.8416   -36634.631    46.553281    249.12572 
    9350     134.3327   -110.60174    127689.73   -34046.022     2533.459   -36579.481    46.470797     238.2739 
    9400    139.06786    -25.52356    127803.75   -34018.506    2622.7621   -36641.268    46.799801    246.67293 
    9450    137.01286   -180.37629    127859.87   -34035.799    2584.0057   -36619.805    47.041599    243.02786 
    9500    132.99446   -458.00034    127775.79   -34115.208    2508.2203   -36623.428    47.194346    235.90017 
    9550    133.06935   -452.11464    127748.39    -34144.88    2509.6328   -36654.513    47.414583    236.03302 
    9600    134.76908   -332.87927    127697.32   -34166.859    2541.6889   -36708.548    47.585584    239.04793 
    9650    134.34826   -365.40712    127752.83   -34152.627    2533.7525    -36686.38    47.807015     238.3015 
    9700    132.19367   -188.14398    127808.38   -34191.756    2493.1177   -36684.874    47.855588    234.47976 
    9750    132.27927   -294.85732    127872.87   -34143.174    2494.7322   -36637.906    48.217405    234.63161 
    9800    133.57285   -144.10864    127892.63    -34154.74    2519.1286   -36673.869     48.38805    236.92611 
    9850    131.74588   -320.89333    127924.41   -34154.166    2484.6726   -36638.838    48.677725     233.6855 
    9900    134.00436   -424.07328    127956.35   -34113.158    2527.2666   -36640.425    48.885404     237.6915 
    9950    135.02296   -112.14215    127882.63   -34091.733     2546.477    -36638.21    49.168216    239.49826 
   10000    133.19394   -290.30444    127921.83   -34147.329    2511.9825   -36659.311     49.51425    236.25401 
   10050    131.86208   -218.88742    127844.74   -34139.855    2486.8641   -36626.719    49.660124    233.89161 
   10100    133.92596   -408.06703    127715.76   -34141.755    2525.7881   -36667.543    49.862584    237.55244 
   10150    131.21405   -256.97944    127623.58   -34126.806    2474.6425   -36601.449    50.156854    232.74216 
   10200    130.31975   -271.58628    127596.34   -34139.414    2457.7764    -36597.19    50.338917    231.15589 
   10250    133.75055   -333.59297    127527.32   -34119.894    2522.4799   -36642.374    50.529416    237.24131 
   10300    134.00599   -226.83086    127537.72   -34101.902    2527.2974   -36629.199     50.64183    237.69439 
   10350    133.34457   -395.99729    127500.63   -34136.437    2514.8232   -36651.261    50.842752    236.52119 
   10400    131.45544   -75.591881    127565.16   -34153.725    2479.1951    -36632.92    50.782902    233.17033 
   10450    135.56547   -419.24283     127559.1   -34160.062    2556.7085    -36716.77    50.984571    240.46053 
   10500    131.34279   -291.36014    127542.53   -34160.662    2477.0704   -36637.733    51.210574    232.97051 
   10550    137.78273   -244.32041    127552.73    -34098.57    2598.5251   -36697.095    51.354686    244.39341 
   10600    136.34555   -477.32405    127505.95   -34116.549    2571.4206   -36687.969    51.384209    241.84422 
   10650    135.56058   -291.60154    127464.86   -34141.612    2556.6163   -36698.228       51.503    240.45186 
   10700    133.11408   -182.46195    127542.37   -34234.965    2510.4763   -36745.441      51.8113    236.11236 
   10750    133.22235   -311.88713    127548.49   -34228.023    2512.5183   -36740.541    51.791432    236.30441 
   10800     134.2644   -356.03318    127624.75   -34214.512     2532.171   -36746.683     52.02019    238.15276 
   10850    133.59656   -161.03188    127565.64   -34201.673    2519.5757   -36721.248     52.25124    236.96816 
   10900    134.78988   -32.920116    127671.93   -34168.031    2542.0813   -36710.112    52.433699    239.08483 
   10950    135.44045   -185.08506    127621.29   -34144.369    2554.3506   -36698.719    52.572226    240.23877 
   11000    137.16642    45.838302    127612.39   -34109.227    2586.9017   -36696.128    52.927843    243.30023 
   11050    132.83424   -144.90528    127649.98   -34130.033    2505.1987   -36635.232    53.150562    235.61599 
   11100    135.38655   -233.29555    127631.86   -34131.072    2553.3341   -36684.406    53.379039    240.14317 
   11150    132.20554   -436.74213     127617.3   -34190.526    2493.3417   -36683.868     53.30594    234.50083 
   11200    135.52953    90.341979    127706.53   -34142.725    2556.0306   -36698.755    53.312445    240.39678 
   11250    133.23436   -274.09771    127632.15   -34181.908    2512.7447   -36694.653    53.513928     236.3257 
   11300    132.59467    -332.0093     127582.8   -34180.557    2500.6805   -36681.238     53.79172    235.19105 
   11350    133.14372   -394.03905    127523.73    -34181.93    2511.0353   -36692.966    53.982964    236.16493 
   11400     136.7223    64.991303    127528.22   -34192.813    2578.5259   -36771.339    54.338531    242.51248 
   11450    136.28299   -253.19954    127597.67   -34129.643    2570.2407   -36699.883    54.754279    241.73325 
   11500    133.03451   -409.87388    127560.94   -34172.102    2508.9757   -36681.078     54.95002    235.97122 
   11550    136.03376   -47.334094    127598.77   -34126.365    2565.5403   -36691.905    55.086132    241.29117 
   11600    135.92356   -79.134609    127668.46    -34122.04     2563.462   -36685.502    55.508936    241.09571 
   11650      137.492   -323.05884     127808.5    -34059.34    2593.0421   -36652.382    55.770983    243.87773 
   11700    134.73365   -258.46674    127818.86   -34071.392    2541.0208   -36612.413    55.960134    238.98509 
   11750    136.22658    -338.4166    127809.41   -34034.193    2569.1768    -36603.37    56.128165    241.63319 
   11800    137.43928   -222.73113    127790.95   -34006.024    2592.0477   -36598.072    56.356447    243.78422 
   11850    139.08135   -661.80717     127756.1   -34030.196    2623.0167   -36653.212     56.59018    246.69687 
   11900    133.66915   -371.65461    127642.44   -34057.304    2520.9448   -36578.249    56.640714    237.09693 
   11950    134.28827   -334.70748    127603.41   -34099.725    2532.6211   -36632.346    56.821453    238.19509 
   12000    134.98797   -260.41281    127637.22   -34130.223    2545.8171    -36676.04    57.074209    239.43619 
   12050    135.55284   -307.70517    127772.39   -34076.553    2556.4703   -36633.024    57.419138    240.43813 
   12100    134.11224   -346.81598    127749.18   -34105.861    2529.3013   -36635.162    57.686612    237.88286 
   12150    133.84722   -251.61465    127779.39   -34130.802     2524.303   -36655.105     58.06127    237.41277 
   12200    134.12033   -511.62045    127786.96   -34156.568    2529.4538   -36686.022    58.552897    237.89721 
   12250    133.67967   -55.427414    127807.25   -34170.454    2521.1431   -36691.598     58.94331    237.11558 
   12300    134.30818   -546.26399     127854.1   -34125.181    2532.9966   -36658.178     59.25699    238.23041 
   12350    133.52144   -387.26709    127743.94   -34158.341     2518.159     -36676.5     59.64014    236.83492 
   12400    134.16448   -464.92304    127657.13   -34118.145    2530.2865   -36648.431    60.006622    237.97552 
   12450    135.15493   -357.94165    127635.96   -34093.645    2548.9658   -36642.611    60.431302    239.73233 
   12500    134.49802   -274.80979    127602.93   -34108.008    2536.5768   -36644.585    60.717079    238.56713 
   12550     135.4144   -393.13581    127550.28    -34090.17    2553.8594    -36644.03    61.311689    240.19257 
   12600    137.04382   -434.92248    127409.24    -34050.67    2584.5897    -36635.26    61.623921    243.08278 
   12650    134.82224   -278.97214    127383.08   -34011.275    2542.6915   -36553.967    61.988555    239.14222 
   12700     136.9876   -456.00788    127347.39   -34019.137    2583.5294   -36602.666    62.331594    242.98306 
   12750    135.87652   -548.08692    127262.95   -34056.723    2562.5748   -36619.298     62.65328    241.01226 
   12800    134.13132   -299.50937    127184.66   -34053.481     2529.661   -36583.142    63.114808    237.91669 
   12850    132.87796    -360.3314    127092.26   -34048.902    2506.0232   -36554.925    63.546785    235.69353 
   12900    133.02641   -131.58744    127062.68   -34050.696     2508.823   -36559.519    63.824559    235.95686 
   12950    137.77952   -229.20307    127118.03   -34024.907    2598.4646   -36623.372    64.021366    244.38773 
   13000    136.18682    -83.91263    127131.59   -34028.192    2568.4269   -36596.618    64.326004    241.56266 
   13050    133.60893   -240.44062    127261.99   -34079.947     2519.809   -36599.756    64.563698    236.99011 
   13100    136.40329   -102.21315    127217.84   -34067.122    2572.5095   -36639.631    64.662414    241.94663 
   13150    136.81202   -329.10918    127251.57   -34001.017     2580.218   -36581.235    64.993219    242.67162 
   13200    135.78666   -446.70246    127280.05   -34009.916    2560.8801   -36570.796    65.190629    240.85287 
   13250    132.93239   -201.65174    127281.53   -34065.259    2507.0497   -36572.309    65.312791    235.79008 
   13300    131.98807   -188.73789     127293.2   -34107.601    2489.2403   -36596.841    65.657782    234.11509 
   13350    131.49401   -289.62893    127261.61   -34093.083    2479.9225   -36573.005    66.102391    233.23874 
   13400    134.03001   -72.669657    127252.31   -34072.252    2527.7503   -36600.002    66.346022    237.73699 
   13450    131.79289   -156.36577    127400.31    -34152.65    2485.5592   -36638.209    66.658148    233.76888 
   13500    134.60414   -242.00259    127444.18   -34107.285    2538.5783   -36645.863    66.807277    238.75537 
   13550     134.4125    152.83374    127429.54   -34127.413    2534.9641   -36662.377    66.820301    238.41545 
   13600    133.72634   -279.69932    127397.65   -34089.363    2522.0234   -36611.386    66.926472    237.19837 
   13650    136.20607   -224.11719    127364.63   -34066.542    2568.7899   -36635.332    67.120607     241.5968 
   13700    135.46441   -153.03999    127413.09   -34047.213    2554.8027   -36602.016    67.694071    240.28129 
   13750    135.71714   -80.569681    127432.83    -33970.36    2559.5689   -36529.929    68.017733    240.72956 
   13800    136.12182   -224.55799    127434.36   -33983.862    2567.2011   -36551.063    68.209824    241.44737 
   13850    138.95227   -222.12252    127534.64   -33969.206    2620.5822   -36589.789    68.366145    246.46791 
   13900    132.78154    -279.4794    127494.84   -34062.356    2504.2047    -36566.56    68.644979    235.52251 
   13950    136.44113   -185.72578    127448.51     -34037.6    2573.2232   -36610.823     68.88258    242.01375 
   14000     136.6711   -222.68547    127534.54   -34067.056    2577.5602   -36644.616    69.210724    242.42165 
   14050    135.68437    -442.3586    127558.05   -34039.039    2558.9509    -36597.99    69.356878    240.67143 
   14100    133.52858   -237.55475    127608.09   -34086.744    2518.2936   -36605.038     69.58862    236.84758 
   14150    130.52195   -618.16008    127582.24   -34105.221    2461.5899   -36566.811    70.045451    231.51455 
   14200    134.60732   -110.02842     127506.8   -34072.205    2538.6382   -36610.843     70.17233    238.76101 
   14250    135.03982   -220.06564    127402.46   -34070.953     2546.795   -36617.748    70.351895    239.52816 
   14300    139.20367   -169.39274    127417.58   -34029.565    2625.3234   -36654.888    70.433089    246.91382 
   14350     136.0545   -84.965041    127444.74   -34054.867    2565.9315   -36620.799    70.495756    241.32796 
   14400    139.94298   -104.02901     127463.3   -34021.573    2639.2665   -36660.839    70.700299    248.22518 
   14450    136.41787   -63.970704    127615.14   -34004.683    2572.7845   -36577.468    70.760521    241.97249 
   14500    133.30965   -371.73571    127586.68   -34096.898    2514.1647   -36611.062    70.961783    236.45925 
   14550     135.8667   -230.04858    127496.35   -34105.353    2562.3895   -36667.742    71.370973    240.99484 
   14600    135.73695   -304.89437    127474.98   -34034.066    2559.9426   -36594.008    71.878471     240.7647 
   14650    134.51679   -279.88521    127395.84   -34054.314    2536.9309   -36591.245    72.072055    238.60043 
   14700    136.33746   -259.82724    127382.12   -34066.703     2571.268   -36637.971    72.496459    241.82987 
   14750    135.99149   -75.004189     127458.4   -34051.497    2564.7431    -36616.24    72.608863     241.2162 
   14800    133.74004   -78.435254    127488.03   -34071.205    2522.2816   -36593.487    72.936712    237.22266 
   14850    134.74232   -346.28903    127559.68   -34092.301    2541.1842   -36633.485    73.309523    239.00046 
   14900    135.83361   -63.706726    127500.53   -34104.291    2561.7656   -36666.056    73.362911    240.93616 
   14950    138.10024   -353.31156    127413.27   -34095.195    2604.5132   -36699.708    73.467499    244.95661 
   15000    134.71484   -225.69438    127393.13   -34083.923     2540.666   -36624.589    73.795824    238.95172 
   15050    138.00096   -49.611748    127502.59   -34093.457    2602.6409   -36696.098    74.074097    244.78052 
   15100    131.13841   -485.71589    127515.69   -34114.007     2473.216   -36587.223    74.341818    232.60799 
   15150    132.86654   -236.53684    127437.71   -34137.024    2505.8079   -36642.832    74.592477    235.67329 
   15200    133.52748   -184.11739    127410.64   -34123.344    2518.2728   -36641.616    75.025855    236.84562 
   15250    133.49003   -330.16605    127397.71   -34105.657    2517.5666   -36623.224    75.200108     236.7792 
   15300    138.01747   -176.88654    127459.98   -34051.925    2602.9522   -36654.877    75.633155    244.80979 
   15350    134.85119   -325.68997    127423.12   -34006.013    2543.2374    -36549.25    76.148915    239.19357 
   15400    137.20444   -410.11971     127412.3   -33946.519    2587.6189   -36534.138    76.647913    243.36768 
   15450    135.36555   -231.07349    127444.25   -33905.688    2552.9381   -36458.626    76.847263    240.10593 
   15500    134.73289    -36.45307    127462.67   -33948.737    2541.0064   -36489.743     76.97425    238.98374 
   15550    135.39518   -233.76188    127560.62   -33904.734    2553.4969   -36458.231    77.221706    240.15848 
   15600    135.62622   -139.84672    127509.82   -33895.906    2557.8542   -36453.761    77.386029    240.56828 
   15650    135.92945     18.30545    127600.67   -33896.995     2563.573   -36460.568    77.570359    241.10614 
   15700    136.71082   -314.70031    127561.44   -33952.514    2578.3093   -36530.823     77.64522     242.4921 
   15750    137.70631   -32.137494    127498.66   -33866.191    2597.0838   -36463.275     77.79829    244.25787 
   15800    138.94538   -222.30085    127596.01   -33874.998    2620.4523    -36495.45    77.917987    246.45569 
   15850    136.30435   -235.52324    127569.84   -33876.971    2570.6435   -36447.615    78.002751    241.77113 
   15900    138.37558   -639.70312    127510.87   -33878.465    2609.7061   -36488.171    78.375587      245.445 
   15950    137.60099   -131.10293    127490.73   -33913.065    2595.0976   -36508.163    78.313248    244.07106 
   16000    136.83482   -368.18896    127535.84   -33953.581     2580.648   -36534.229    78.304534    242.71206 
   16050    135.78343   -326.58304    127478.98   -34030.985    2560.8191   -36591.804    78.147549    240.84714 
   16100    136.24345   -116.73124     127504.8   -34069.108    2569.4949   -36638.603    78.247139     241.6631 
   16150    136.83473    -214.7633    127523.17    -34037.91    2580.6462   -36618.557    78.454593     242.7119 
   16200    135.05064   -323.74715    127507.01    -34016.65     2546.999   -36563.649     78.52199    239.54735 
   16250    134.23817   -504.58971    127451.03   -34040.696    2531.6763   -36572.373     78.93671    238.10623 
   16300    135.96813   -247.30611    127397.57   -34000.919    2564.3025   -36565.222    78.969014    241.17475 
   16350    135.11828   -353.92662    127413.53   -34030.621    2548.2746   -36578.895    79.309194    239.66732 
   16400    133.15493   -448.48641    127357.11   -34062.545    2511.2467   -36573.791    79.319019    236.18481 
   16450    134.17112   -107.19193    127405.08   -34043.599    2530.4116   -36574.011    79.370751    237.98729 
   16500    134.97188    31.912817    127535.04   -34043.897    2545.5137   -36589.411    79.538343    239.40765 
   16550    137.91882   -116.46016    127586.08   -34018.408    2601.0918     -36619.5    79.843099    244.63482 
   16600    133.93837   -572.42776    127557.16   -34074.919    2526.0222   -36600.942    80.352842    237.57446 
   16650    136.72783   -308.44352    127439.95   -34078.201    2578.6301   -36656.831    80.410511    242.52228 
   16700    136.28482   -246.91083    127485.59   -34081.801    2570.2751   -36652.076     80.41879    241.73648 
   16750    133.20164    -298.3758     127498.6   -34094.297    2512.1277   -36606.424    80.394689    236.26768 
   16800    135.88711   -92.157421    127542.75   -34028.471    2562.7746   -36591.246    80.964391    241.03105 
   16850    136.28718   -546.01335    127616.62   -34033.722    2570.3198   -36604.041    81.291124    241.74068 
   16900    137.55123   -277.30601    127648.79   -34048.175    2594.1591   -36642.334    81.370319    243.98279 
   16950    137.29253   -272.25852    127656.62   -34001.949    2589.2801    -36591.23     81.82896    243.52392 
   17000     136.7737   -442.87186    127665.37   -33994.186    2579.4953   -36573.681    82.067005    242.60365 
   17050    134.04121   -164.65232    127698.36   -34040.812    2527.9616   -36568.773    82.287938    237.75686 
   17100    132.65298   -207.88235     127777.7   -34049.498    2501.7801   -36551.278    82.299021    235.29447 
   17150    138.72676   -247.40381    127846.06   -33987.742    2616.3291   -36604.071    82.251415     246.0679 
   17200    137.40437   -341.18297    127835.69   -34022.504    2591.3894   -36613.893    82.478838     243.7223 
   17250    137.50097   -465.74513    127757.98   -33956.963    2593.2113   -36550.174    83.094575    243.89365 
   17300    137.65244   -404.61545    127644.53   -34003.883     2596.068   -36599.951    83.215204    244.16233 
   17350    136.58166   -223.54792    127659.31   -34030.532    2575.8735   -36606.406    83.489729    242.26301 
   17400    135.57701   -329.45302    127662.75   -34087.357    2556.9262   -36644.283    83.533396    240.48101 
   17450    134.26858   -239.06237    127722.85   -34072.364    2532.2497   -36604.614    83.566172    238.16017 
   17500    136.27767   -502.57041    127642.39   -34111.413    2570.1404   -36681.553    83.577682    241.72381 
   17550    136.04069   -402.89078    127594.59    -34097.63     2565.671   -36663.301    83.859509    241.30346 
   17600    136.41095     -63.9877    127571.17   -34098.826    2572.6538    -36671.48    83.750958     241.9602 
   17650    135.68617   -46.105931    127631.76   -34103.895     2558.985    -36662.88     83.65679    240.67464 
   17700    135.72752   -319.95097    127689.21   -34091.497    2559.7647   -36651.262    83.769713    240.74797 
   17750     134.4822   -118.07602    127714.46   -34134.967    2536.2785   -36671.245    83.949177    238.53907 
   17800    135.19687    75.420354    127718.14   -34142.252    2549.7568   -36692.009    84.119056    239.80672 
   17850    133.26721   -148.67374    127704.98   -34120.298    2513.3643   -36633.662    84.384858    236.38398 
   17900    135.31384   -186.85632    127699.49   -34098.133    2551.9629   -36650.096     84.45131     240.0142 
   17950    133.40984   -332.91493    127640.02   -34099.231    2516.0543   -36615.286    84.597848    236.63697 
   18000    134.21212    -418.3756    127653.59   -34078.016    2531.1848   -36609.201    84.803933    238.06001 
   18050    134.29492   -106.30157    127648.07   -34078.895    2532.7465   -36611.641     85.00262    238.20689 
   18100     135.3927   -134.08356    127703.11   -34051.678    2553.4502   -36605.128    85.167481    240.15409 
   18150    138.91309    -163.7333    127697.62   -34051.492    2619.8432   -36671.336    85.414948     246.3984 
   18200    138.39298   -196.31724    127839.03    -34030.59    2610.0343   -36640.624    85.448154    245.47587 
   18250    137.27567   -209.51343    127807.73   -33990.661    2588.9623   -36579.624    85.444045    243.49402 
   18300    133.38148   -323.23814    127668.84   -34043.606    2515.5194   -36559.126    85.482924    236.58666 
   18350     137.6385   -165.40349    127613.21    -34030.17    2595.8049   -36625.974    85.440083    244.13758 
   18400    136.22648   -203.85086    127692.86   -34057.515    2569.1749    -36626.69    85.706591    241.63301 
   18450    138.82313   -229.98459    127728.46   -34039.129    2618.1467   -36657.275    86.135089    246.23884 
   18500    134.50006     -356.395    127727.61   -34085.645    2536.6153    -36622.26    86.306803    238.57075 
   18550    136.60139   -167.32157     127702.9   -34123.527    2576.2456   -36699.772    86.384348    242.29801 
   18600    134.96107   -31.504169    127825.93   -34192.526    2545.3099   -36737.836     86.49413    239.38848 
   18650    135.29113   -342.81988     127821.9   -34185.165    2551.5345   -36736.699     86.69385    239.97391 
   18700    132.44666   -365.17689    127702.51   -34145.975     2497.889   -36643.864    86.631915    234.92851 
   18750    133.64017   -350.64391    127646.88   -34132.913    2520.3981   -36653.311    86.593493    237.04551 
   18800    133.82624    -455.5117    127554.74    -34140.71    2523.9073   -36664.617     86.36618    237.37555 
   18850    134.13382   -126.76295    127454.68   -34151.744    2529.7083   -36681.453    86.629295    237.92114 
   18900    132.05724   -222.26198    127423.41   -34225.571    2490.5448   -36716.115    86.781526    234.23778 
   18950    135.30532   -111.80392    127459.93   -34223.584    2551.8022   -36775.387     86.95047    239.99909 
   19000     136.5486   -45.345079     127507.5   -34218.484    2575.2499   -36793.733    87.138405    242.20437 
   19050    131.82935   -249.01206     127668.5   -34173.829    2486.2468   -36660.075    87.135933    233.83355 
   19100    132.90421   -164.82593    127707.03   -34155.835    2506.5183   -36662.353    87.232317    235.74011 
   19150    135.06009   -71.252609    127714.02   -34124.474    2547.1773   -36671.652    87.368888    239.56412 
   19200    131.52118   -26.361521    127743.21   -34169.166    2480.4349   -36649.601    87.595142    233.28694 
   19250    136.34244    -409.9169    127698.24   -34111.671    2571.3618   -36683.033    87.920893    241.83869 
   19300    134.77381   -479.49531    127707.88   -34148.656    2541.7781   -36690.434    88.006364    239.05631 
   19350     132.9336   -414.21145    127741.72   -34124.304    2507.0726   -36631.377    88.205488    235.79224 
   19400    133.96267   -97.340949     127775.1   -34076.346    2526.4805   -36602.827    88.581881    237.61756 
   19450    134.52495   -379.13392    127732.36   -34109.859    2537.0848   -36646.944     89.08353     238.6149 
   19500    135.93926   -378.97425    127697.89   -34070.691     2563.758   -36634.449    89.318146    241.12354 
   19550    140.84668    45.162925    127777.15   -34043.576    2656.3099   -36699.886    89.764784    249.82813 
   19600     135.3888   -205.32144    127831.78   -34076.458    2553.3766   -36629.835    90.045747    240.14717 
   19650    136.71119   -273.44938    127892.28   -34073.526    2578.3164   -36651.842    90.474324    242.49277 
   19700    136.02549   -226.45388    127884.02    -34084.52    2565.3843   -36649.904    90.955931     241.2765 
   19750    135.12501    -141.7552     127849.4   -34095.593    2548.4016   -36643.995    90.999733    239.67926 
   19800    135.64468   -26.973105    127952.53   -34075.136    2558.2025   -36633.338    91.169156    240.60104 
   19850    135.43001   -360.18822    127975.89   -34128.595    2554.1539   -36682.749    91.389914    240.22027 
   19900    132.75214   -290.12469    127889.37   -34110.728    2503.6503   -36614.379    91.821431    235.47037 
   19950    133.55057   -112.47796    127756.25   -34106.011    2518.7083   -36624.719    91.571372    236.88659 
   20000    135.98303   -56.658406    127746.33     -34085.1    2564.5836   -36649.683     91.52328    241.20119 
   20050    136.18604   -167.52405    127733.69   -34103.331    2568.4121   -36671.743    91.561544    241.56127 
   20100    131.91465   -56.261298    127739.53    -34138.22    2487.8556   -36626.076    91.893065    233.98486 
   20150    133.33339   -315.85735    127737.92    -34135.11    2514.6123   -36649.722     92.08941    236.50135 
   20200    133.00728   -112.88008    127682.36   -34179.088     2508.462    -36687.55     92.22563    235.92291 
   20250    135.43696   -228.49803    127756.92   -34113.844     2554.285   -36668.129    92.545681     240.2326 
   20300     134.1251   -192.85841    127847.34   -34124.411    2529.5438   -36653.955     92.73866    237.90567 
   20350    137.11882    1.3216758    127915.11   -34119.895    2586.0041   -36705.899    93.151577    243.21581 
   20400    132.74857   -517.46327    127926.55   -34119.245     2503.583   -36622.828    93.411718    235.46404 
   20450    135.85594   -127.48618    128011.39   -34081.501    2562.1866   -36643.688    93.830314    240.97575 
   20500    138.08408   -310.31921    128091.89   -34043.029    2604.2085   -36647.238    93.951296    244.92794 
   20550     136.8689   -94.412972    128154.47   -34032.844    2581.2907   -36614.135     94.26414     242.7725 
   20600    134.59923   -461.12605     128081.1   -34004.766    2538.4857   -36543.252    94.587044    238.74667 
   20650    136.07745   -200.43922    128093.79   -33972.208    2566.3642   -36538.572    95.011436    241.36866 
   20700    134.73794   -436.39681    128024.61   -34027.445    2541.1017   -36568.547    95.193893     238.9927 
   20750    134.05323   -162.95826    127984.82   -34006.653    2528.1883   -36534.842    95.667493    237.77819 
   20800    137.21733    -309.0509     127979.5   -33967.473    2587.8619   -36555.335    95.794331    243.39054 
   20850    135.07295   -502.76056    127970.56    -33963.04    2547.4197   -36510.459    95.779632    239.58692 
   20900    134.50713    -347.4927    128022.24     -34016.8    2536.7486   -36553.549    95.686364    238.58329 
   20950    134.68658   -319.57503    127927.52   -34020.905    2540.1331   -36561.038    96.000177     238.9016 
   21000    132.84754   -351.21842    127908.04   -34052.227    2505.4496   -36557.676    96.476504    235.63959 
   21050    134.93431   -215.61572    127896.68   -34020.249    2544.8051   -36565.054     96.91025    239.34101 
   21100    136.58324    -146.3868    127826.26   -33969.765    2575.9033   -36545.668    96.970528    242.26582 
   21150    136.43898   -191.73181    127879.65   -34005.035    2573.1825   -36578.218    97.309934    242.00992 
   21200    139.55015   -427.28833    127854.93   -33955.076     2631.858   -36586.934     97.51998     247.5284 
   21250     135.5576   -214.69682    127748.86    -34055.15      2556.56    -36611.71    97.454793    240.44657 
   21300    132.49544   -269.84741    127758.08   -34086.206     2498.809   -36585.015     97.80442    235.01503 
   21350    136.30585   -209.11651    127788.89   -34035.334    2570.6718   -36606.006    98.324523    241.77379 
   21400    137.16695   -152.27948    127865.92   -34044.759    2586.9117   -36631.671    98.595082    243.30117 
   21450    135.86698   -400.37378     127949.8   -34041.338    2562.3948   -36603.733    98.795623    240.99534 
   21500    136.66609   -381.77305    127941.45   -34013.318    2577.4658   -36590.784    98.882249    242.41278 
   21550    134.99878    155.93487    127947.34   -34078.853     2546.021   -36624.874    99.096458    239.45536 
   21600    132.30844   -316.75088    127975.48   -34090.678    2495.2822    -36585.96    99.487871    234.68334 
   21650    133.95873    77.795191    128046.74    -34079.03    2526.4061   -36605.436    99.688864    237.61057 
   21700     133.1638    -470.7499    128067.42   -34099.759     2511.414   -36611.173    100.01216    236.20055 
   21750    136.57373   -257.14253    128008.26   -34043.441     2575.724   -36619.165    100.31178    242.24895 
   21800    135.60732   -171.26366    128013.48    -34067.86    2557.4978   -36625.358    100.82444    240.53476 
   21850    135.36725   -284.52877    127985.75   -34056.059    2552.9703    -36609.03    101.02291    240.10895 
   21900    137.51694   -464.29614     127955.1   -34024.906    2593.5125   -36618.418    101.20872    243.92198 
   21950    136.43927   -245.44151    127963.15   -34070.488    2573.1879   -36643.676    101.30392    242.01044 
   22000     135.5753   -460.40428    127838.49   -34087.871    2556.8939   -36644.764    101.23167    240.47797 
   22050    132.62692   -239.32476    127813.74   -34135.259    2501.2887   -36636.548    101.49424    235.24825 
   22100    132.65734   -28.492415    127905.05   -34130.316    2501.8625   -36632.179    101.59721    235.30222 
   22150    134.59237   -267.04872    127926.92   -34152.308    2538.3562   -36690.665    102.10954    238.73448 
   22200    134.41448   -317.75366    127939.31    -34161.64    2535.0014   -36696.641    102.42955    238.41896 
   22250    133.61699   -312.08597    127881.49   -34153.439     2519.961     -36673.4    102.65981     237.0044 
   22300    136.31628   -250.61271    127844.37   -34148.545    2570.8686   -36719.414    102.97372     241.7923 
   22350    134.26951   -237.49543    127907.65   -34080.216    2532.2672   -36612.483    103.30161    238.16181 
   22400    136.06418   -324.98526     127998.7   -34082.621     2566.114   -36648.735    103.44609    241.34513 
   22450    135.51385   -281.71282    128105.31   -34049.428    2555.7349   -36605.163    103.56488    240.36897 
   22500    134.43553   -71.052221    128190.35   -34013.227    2535.3983   -36548.626    104.00349    238.45629 
   22550    135.94245   -119.75181     128223.1   -33969.266    2563.8181   -36533.084    104.16298     241.1292 
   22600    133.40003   -261.34784    128213.64   -34042.907    2515.8691   -36558.776    104.53104    236.61956 
   22650    133.34465   -399.81571    128187.74   -34047.052    2514.8248   -36561.877    105.06032    236.52134 
   22700    132.80773   -469.34324    128099.65   -34070.267    2504.6987   -36574.965    104.91751    235.56896 
   22750    132.84892   -372.48417    128096.14   -34083.972    2505.4755   -36589.448    105.14778    235.64203 
   22800    134.40424    15.846269    128110.32   -34113.379    2534.8082   -36648.187    105.25488    238.40079 
   22850    132.60099   -206.73437    128116.78    -34132.65    2500.7996   -36633.449    105.57614    235.20226 
   22900    132.22448   -232.64927    128113.64   -34129.283    2493.6989   -36622.981    105.69266    234.53442 
   22950    131.60764   -201.62314    128125.35    -34163.34    2482.0654   -36645.405    105.93317    233.44029 
   23000    137.42503   -352.99866     128095.9   -34127.794    2591.7791   -36719.574     106.2172    243.75895 
   23050    135.34314   -285.15467    128101.03   -34101.301    2552.5156   -36653.817    106.63784    240.06618 
   23100    134.94569   -337.19715    128216.32   -34048.828    2545.0197   -36593.848    106.50664    239.36119 
   23150    134.70367   -244.34174     128231.4   -34057.751    2540.4554   -36598.206    106.57046    238.93192 
   23200    133.08045   -42.224147     128171.1   -34019.174     2509.842   -36529.016    107.00795     236.0527 
   23250    135.72898   -234.52272    128129.41   -34060.049    2559.7923   -36619.842    107.10389    240.75056 
   23300    135.01959   -137.43483    128180.68   -34027.592    2546.4134   -36574.006     107.2485    239.49227 
   23350    135.80839   -363.65411    128058.98   -34020.935    2561.2898   -36582.225    107.16839    240.89141 
   23400    134.85463   -311.88726    128032.12   -34038.936    2543.3024   -36582.238    107.06333    239.19967 
   23450    133.60606   -335.57291    127942.86   -34087.266    2519.7548   -36607.021    107.04508    236.98501 
   23500    132.62989   -390.60351    127852.81   -34110.874    2501.3448   -36612.218    107.19226    235.25353 
   23550    134.96715   -298.64672    127826.78   -34121.234    2545.4244   -36666.658    107.25367    239.39925 
   23600    134.88142   -363.83069    127800.37   -34066.265    2543.8076   -36610.072    107.51386     239.2472 
   23650    134.03703   -218.05952    127802.69   -34064.162    2527.8827   -36592.045    107.88185    237.74945 
   23700    133.69792   -281.91003     127833.6   -34084.356    2521.4872   -36605.844    108.24558    237.14794 
   23750    134.22859   -443.36738    127794.79   -34047.719    2531.4954   -36579.214    108.07405    238.08922 
   23800     133.1856   -205.42731    127741.18   -34034.471    2511.8253   -36546.297    108.21775    236.23923 
   23850     133.3637   -438.56085    127676.06   -34018.932     2515.184   -36534.116    108.35651    236.55512 
   23900     136.0071   -35.017382    127700.83     -34018.2    2565.0374   -36583.237    108.47507    241.24387 
   23950    135.24556   -53.347492    127744.46   -34055.596    2550.6751   -36606.272     108.8739    239.89308 
   24000    135.28635   -173.04736    127711.49   -34035.604    2551.4445   -36587.048    109.18299    239.96545 
   24050     133.9152   -291.94563    127640.96   -34014.518    2525.5851   -36540.103    109.39268    237.53335 
   24100     136.3885   -173.70839    127639.95   -34014.998    2572.2306   -36587.228    109.77673     241.9204 
   24150    135.74884   -214.78328    127624.41   -34008.284    2560.1668   -36568.451    110.09125    240.78579 
   24200    135.69185   -9.1538423    127609.68   -34026.449     2559.092   -36585.541     110.4875     240.6847 
   24250    136.22144    149.70204    127626.48   -34038.093    2569.0798   -36607.173    111.02755    241.62407 
   24300    134.15331   -11.799761    127742.64   -34036.485    2530.0758   -36566.561    111.20827     237.9557 
   24350    135.39596   -362.81691    127671.89   -34023.246    2553.5117   -36576.758     111.2181    240.15987 
   24400    137.34954   -292.64639    127709.41   -33991.474    2590.3554   -36581.829    111.24872    243.62505 
   24450    137.27653   -248.88446    127736.99   -33970.493    2588.9784   -36559.472     111.4878    243.49554 
   24500    136.60873   -279.80198    127756.88   -33948.385    2576.3839   -36524.769    111.64705    242.31102 
   24550    135.33814   -197.39836    127779.09   -33984.057    2552.4212   -36536.478    111.62934    240.05731 
   24600    136.39196    -42.92116    127774.05   -34019.932    2572.2958   -36592.227      111.582    241.92653 
   24650     135.3295   -237.28013    127821.99   -33981.757    2552.2581   -36534.016    112.05832    240.04197 
   24700    133.14841   -359.67367    127795.87   -33997.032    2511.1238   -36508.156    111.98113    236.17325 
   24750    131.82776   -225.18201    127720.63    -34032.65    2486.2169   -36518.867    111.88651    233.83074 
   24800    134.84677    -435.2275    127717.18   -34018.727    2543.1541   -36561.882    112.10377    239.18573 
   24850    133.66453   -611.92516    127667.23   -34013.482    2520.8576    -36534.34    112.23778    237.08872 
   24900      133.943   -784.53488    127560.95    -34024.04    2526.1093   -36550.149    112.66957    237.58266 
   24950    134.57773    -781.0806    127431.57   -34059.205    2538.0802   -36597.285    112.71494    238.70852 
   25000    135.16866   -646.30841    127276.57   -34086.629    2549.2248   -36635.854    112.47815    239.75669 
   25050    134.31158   -129.21059    127238.51    -34091.45    2533.0608   -36624.511    112.52669    238.23644 
   25100    136.20908   -288.65308    127393.75   -34040.344    2568.8468   -36609.191    112.82738    241.60215 
   25150    136.83302   -163.57498    127445.22   -34016.652    2580.6139   -36597.266    113.05466    242.70886 
   25200    136.21562   -308.21589    127425.09   -34031.252    2568.9701   -36600.222    113.08776    241.61374 
   25250    134.36499   -171.87463    127490.05    -34040.89    2534.0679   -36574.958    113.06715    238.33117 
   25300    138.72753   -101.80982    127534.58   -34039.834    2616.3437   -36656.178    113.36605    246.06928 
   25350    134.97825   -275.91454    127655.19   -34055.942    2545.6338   -36601.576    113.66063    239.41894 
   25400    135.43266   -222.29316    127679.07   -34006.708    2554.2038   -36560.912    113.81064    240.22497 
   25450    135.24304   -265.33471    127709.08   -33965.271    2550.6277   -36515.898    113.95551    239.88863 
   25500    136.53784   -157.51205    127711.74   -33948.296     2575.047   -36523.343    114.14349    242.18528 
   25550    138.67708   -282.04765    127693.84   -33904.367    2615.3923   -36519.759    114.39145    245.97979 
   25600    136.39484   -148.17717    127711.61   -33962.415    2572.3502   -36534.765    114.89141    241.93165 
   25650     133.7926   -162.81708    127718.32   -33969.925     2523.273   -36493.198    115.23822     237.3159 
   25700    135.88244   -284.40304    127720.34   -33929.967    2562.6864   -36492.654    115.34691    241.02276 
   25750    137.37382   -99.563193    127717.28   -33935.944    2590.8132   -36526.757    115.44154    243.66811 
   25800    139.40722   -196.07831    127753.51   -33944.507    2629.1623    -36573.67    115.44666    247.27487 
   25850    134.42473   -231.90824    127821.61   -33954.753    2535.1946   -36489.947    115.62479    238.43714 
   25900    136.86335   -10.171404    127779.34   -33909.608     2581.186   -36490.794    115.54765    242.76266 
   25950    138.04634   -403.21645    127806.08   -33906.472    2603.4967   -36509.968     115.8206      244.861 
   26000    135.97195   -59.997342    127818.24   -33943.974    2564.3745   -36508.349    116.06649    241.18153 
   26050    136.90942   -763.67799    127760.03   -33991.526    2582.0549    -36573.58    115.96474    242.84438 
   26100    134.82073    -19.82664    127700.98   -33970.603     2542.663   -36513.266    116.06834    239.13954 
   26150    134.57326   -420.84786    127710.19   -34022.957    2537.9958   -36560.953    116.53102    238.70059 
   26200    133.44566   -356.12351    127669.67   -33963.087    2516.7298   -36479.817    116.87145     236.7005 
   26250    137.10292   -328.50116    127703.65   -33921.696    2585.7042     -36507.4    117.54197     243.1876 
   26300    133.86053   -268.76903    127675.94   -33934.147    2524.5541   -36458.701    117.74111    237.43638 
   26350    132.58203   -502.35538    127632.37   -33977.682    2500.4421   -36478.125    117.86293    235.16863 
   26400    134.89171   -186.85579    127562.01   -33947.818    2544.0016    -36491.82    118.15388    239.26544 
   26450    134.35251   -418.00381    127566.55   -33994.146    2533.8326   -36527.979    118.55277    238.30904 
   26500    134.40701   -374.10558    127511.53   -34010.074    2534.8604   -36544.935    118.51696     238.4057 
   26550    135.85829   -575.18087    127414.11   -34025.734    2562.2309   -36587.965    118.70473    240.97992 
   26600    132.25365    28.178704    127377.66   -34024.545     2494.249   -36518.794    119.00123    234.58617 
   26650     133.9016   -229.90752    127354.49   -34042.329    2525.3286   -36567.657     119.5431    237.50923 
   26700    131.80939   -190.91091    127444.95   -34062.905    2485.8705   -36548.775     119.9102    233.79816 
   26750    136.74975   -557.01163    127444.38   -34000.232    2579.0435   -36579.276    120.45561    242.56116 
   26800    137.07016   -282.52568    127387.61   -33965.238    2585.0863   -36550.324    120.80098    243.12949 
   26850    135.34119   -324.87512    127396.26   -34006.792    2552.4786   -36559.271    120.90025    240.06271 
   26900    132.15298   -199.21596    127293.37   -33995.755    2492.3504   -36488.105    121.08705     234.4076 
   26950    134.57988   -461.13392    127167.62   -34023.542    2538.1207   -36561.663    121.29498    238.71233 
   27000    133.82623   -196.81896    127130.01   -34054.268    2523.9071   -36578.176    121.53246    237.37554 
   27050    134.86199   -356.05557    127080.78   -33993.646    2543.4412   -36537.087    121.89643    239.21273 
   27100    135.59154   -66.146014    127062.63   -34026.533    2557.2003   -36583.734    122.09499    240.50678 
   27150    135.35502   -172.83832    127212.06   -34007.012    2552.7396   -36559.752    122.43396    240.08725 
   27200    135.74819   -30.575809    127231.79   -34003.035    2560.1545   -36563.189    122.84921    240.78463 
   27250     137.0342   -181.49473    127285.88   -33986.685    2584.4083   -36571.093    123.28025    243.06572 
   27300    136.97323   -289.47518    127253.35   -33970.944    2583.2584   -36554.202    123.74298    242.95757 
   27350    133.79192   -387.76355    127261.64   -33981.907    2523.2601   -36505.167    123.92751    237.31468 
   27400    136.74731   -159.67315    127327.06   -33994.082    2578.9976    -36573.08    124.09056    242.55684 
   27450    134.53135    245.97681    127483.75   -34005.288    2537.2054   -36542.493    124.17613    238.62625 
   27500    133.21944   -168.17894    127568.97   -34034.787    2512.4634    -36547.25    124.21704    236.29925 
   27550    137.20989   -196.44672    127611.78   -34016.788    2587.7215   -36604.509    124.67388    243.37733 
   27600     135.5334   -258.21927    127577.55   -34038.469    2556.1038   -36594.573    124.78021    240.40366 
   27650    136.99471   -329.87552    127533.28   -33999.007    2583.6635   -36582.671    124.96179    242.99567 
   27700    136.39213   -331.83096    127497.53   -34029.031     2572.299    -36601.33    125.19036    241.92683 
   27750    135.18755   -38.329213    127512.82   -34000.611    2549.5811   -36550.192    125.24231     239.7902 
   27800    136.03374    139.01585    127468.72   -33971.354    2565.5399   -36536.894     125.5421    241.29113 
   27850    131.65061   -137.96551    127535.15   -34016.994    2482.8759    -36499.87    126.02352    233.51652 
   27900    134.68966   -26.608195    127549.26   -33994.264    2540.1912   -36534.455    126.40019    238.90707 
   27950    131.76566   -387.44514    127565.76    -34047.91    2485.0457   -36532.956    126.76309    233.72059 
   28000    135.80992   -405.65606    127565.33   -34028.932    2561.3188   -36590.251    126.83148    240.89414 
   28050    137.22955   -353.87158    127550.95   -33989.715    2588.0924   -36577.808    126.68134    243.41222 
   28100    134.87846   -120.45276    127575.47   -33998.495    2543.7518   -36542.247    126.68771    239.24194 
   28150    136.85978    -300.8117    127496.27   -34017.616    2581.1186   -36598.734    126.97988    242.75632 
   28200    138.49805   -342.43798     127469.2   -34015.316    2612.0159   -36627.332    127.17853    245.66224 
   28250    135.98155   -109.37032     127527.8   -33998.783    2564.5557   -36563.338    127.38381    241.19857 
   28300    133.82839    -210.8379    127605.25   -34054.999    2523.9479   -36578.947    127.51817    237.37937 
   28350    134.82431   -176.43575    127702.27   -34065.762    2542.7306   -36608.493    127.59184     239.1459 
   28400    134.47936   -362.66968    127622.01   -34100.586    2536.2249   -36636.811    127.25386    238.53403 
   28450    135.45577   -60.030789     127620.2   -34123.406    2554.6396   -36678.046    127.22129    240.26595 
   28500    133.09052   -360.44769    127674.05    -34206.62    2510.0319   -36716.652    127.55438    236.07056 
   28550    137.10776   -270.99492    127681.09   -34137.334    2585.7955   -36723.129    127.35775    243.19619 
   28600     133.4422   -91.160861    127580.66   -34107.022    2516.6646   -36623.686      127.487    236.69437 
   28650    133.07965    11.357081    127658.41   -34144.301    2509.8269   -36654.128    127.72072    236.05128 
   28700    136.12106   -120.46644    127719.93   -34056.493    2567.1867   -36623.679    128.04156    241.44601 
   28750    135.76389   -433.48206    127677.08   -34055.252    2560.4507   -36615.702    128.24476    240.81249 
   28800    134.35977    -415.5146    127664.98   -34040.767    2533.9695   -36574.736    128.66108    238.32191 
   28850    137.15792   -152.23964    127643.44   -34036.493    2586.7415   -36623.234    128.98194    243.28516 
   28900    139.40463   -97.832334    127701.51   -34007.918    2629.1136   -36637.032     129.2364    247.27029 
   28950    139.11415   -141.02418    127815.75   -33978.314    2623.6352   -36601.949    129.60459    246.75504 
   29000     134.9861   -465.05114    127829.57   -34034.687    2545.7818   -36580.469    129.73433    239.43286 
   29050    135.22044   -169.36401    127794.27   -34056.544    2550.2014   -36606.745     129.6445    239.84853 
   29100    135.67679   -162.00102    127764.91   -34032.108    2558.8079   -36590.916    129.84181    240.65799 
   29150     137.5763   -414.41807    127722.85   -34044.716    2594.6319   -36639.348    129.93589    244.02726 
   29200    140.73164   -138.67833     127761.4   -34045.672    2654.1404   -36699.812    130.15207    249.62409 
   29250    136.33025    306.22032    127833.64   -33972.939     2571.132   -36544.071    130.40245    241.81707 
   29300    136.81103   -28.323725    127964.51   -33999.648    2580.1993   -36579.847    130.40852    242.66986 
   29350    136.42938   -611.97321    127985.73   -34081.494    2573.0016   -36654.496    130.16035    241.99291 
   29400    135.14159   -83.214874     127939.8   -34093.173    2548.7143   -36641.887    129.98153    239.70867 
   29450    132.41826   -206.45742    127933.86    -34097.36    2497.3534   -36594.714    130.10281    234.87814 
   29500    136.17352   -357.80521    127966.06   -34050.201    2568.1762   -36618.377    130.34613    241.53908 
   29550    135.78554    -160.8888    127942.04   -34061.133    2560.8589   -36621.991    130.30898    240.85088 
   29600    134.57562    -82.52834    127913.19   -34079.702    2538.0404   -36617.742    130.71124    238.70478 
   29650    134.87524   -121.34104    127943.37   -34041.831    2543.6911   -36585.522    131.21311    239.23623 
   29700    136.84856   -367.21312    127845.46    -34005.88    2580.9071   -36586.788    131.51994    242.73643 
   29750    137.71793   -329.61236    127848.49   -34030.089    2597.3031   -36627.392    131.59674    244.27849 
   29800    135.29275   -383.41014    127725.13   -34028.349    2551.5651   -36579.915    131.60117    239.97679 
   29850     135.8797   -224.87359    127744.26   -34055.743    2562.6348   -36618.378    131.87668     241.0179 
   29900    133.68389   -114.74696     127816.7   -34077.546    2521.2228   -36598.769    132.10847    237.12307 
   29950    135.38635   -91.017844    127872.06   -34105.446    2553.3305   -36658.777    132.36505    240.14283 
   30000    132.31599   -230.87475    127944.42   -34146.537    2495.4246   -36641.961    132.93071    234.69673 
   30050    133.37558   -276.64556     127941.5   -34108.278    2515.4082   -36623.686    132.97267     236.5762 
   30100    139.11119   -172.46545    127973.53   -34086.472    2623.5794   -36710.051    132.81349     246.7498 
   30150    136.25571   -291.50643    128035.19   -34091.698    2569.7261   -36661.424    133.17005    241.68485 
   30200     134.0167   -405.50106     128018.3    -34114.88    2527.4993   -36642.379    133.45502    237.71339 
   30250    134.03721   -345.72169    128022.64   -34145.477    2527.8863   -36673.363    133.40995    237.74978 
   30300    134.63013    10.241663    128044.42   -34197.326    2539.0684   -36736.394    133.66998    238.80147 
   30350    133.39146   -237.34675    128087.12   -34170.668    2515.7076   -36686.376    133.76556    236.60437 
   30400    133.06961   -391.39693    128100.27   -34163.553    2509.6376   -36673.191    134.05777    236.03347 
   30450    134.09524   -694.22179     128084.1   -34141.679    2528.9805   -36670.659    134.14041     237.8527 
   30500    134.39549   -179.26843    128050.69    -34178.82    2534.6432   -36713.463    134.10769    238.38527 
   30550    134.20706   -53.000492    128051.16   -34172.657    2531.0895   -36703.746    134.29499    238.05104 
   30600    132.14504   -252.14425     128090.1   -34196.288    2492.2006   -36688.489    134.19982    234.39351 
   30650    135.10727   -99.703471    128127.48   -34164.176     2548.067   -36712.243    134.09745    239.64779 
   30700    132.52577   -273.60283     128185.7   -34207.385     2499.381   -36706.767    134.54956    235.06884 
   30750    132.69117   -573.14575     128140.2   -34212.397    2502.5004   -36714.898    134.56599    235.36222 
   30800    130.58875   -623.92176    128058.19   -34205.933    2462.8497   -36668.783    134.26129    231.63304 
   30850    133.41782   -445.14025    128011.98   -34196.441    2516.2048   -36712.646    134.55938    236.65112 
   30900    132.16828   -106.67492    127964.53   -34171.139    2492.6389   -36663.778    134.59661    234.43473 
   30950    133.68427   -97.533143    128002.14    -34205.38    2521.2299   -36726.609    134.57885    237.12374 
   31000    133.57055   -268.93783    128023.26   -34254.349    2519.0853   -36773.435     134.5511    236.92204 
   31050     131.6132   -244.44964    127990.09   -34233.684    2482.1703   -36715.854     134.3582    233.45015 
   31100    135.51812   -132.12735     127945.8   -34229.073    2555.8155   -36784.888    134.43303    240.37655 
   31150    129.12963   -246.07309    127908.13    -34293.64    2435.3312   -36728.971    134.72695     229.0449 
   31200    133.90865   -225.93926    128007.55   -34295.075    2525.4616   -36820.537     135.0924    237.52173 
   31250    133.20352   -357.88854     128009.2   -34248.631    2512.1632   -36760.794    135.16343    236.27101 
   31300     132.0991   -135.94661    127970.03   -34206.237    2491.3342   -36697.571    134.82863    234.31203 
   31350     134.8693    -247.4817    127950.16   -34215.475    2543.5791   -36759.054    135.07569    239.22571 
   31400    135.83357   -164.65643    127963.55   -34191.448    2561.7647   -36753.212    135.01004    240.93607 
   31450    135.30189   -200.80748    127949.14   -34190.553    2551.7376    -36742.29    135.02114    239.99301 
   31500    133.77558   -156.45452    128016.89   -34170.984    2522.9519   -36693.936    135.20606     237.2857 
   31550    134.13135   -83.993799     128021.8   -34151.387    2529.6615   -36681.049    135.54199    237.91674 
   31600     135.3738   -429.84402    128049.82   -34122.581    2553.0937   -36675.674     135.8623    240.12056 
   31650    134.82387   -74.468797    128078.64   -34065.147    2542.7223   -36607.869    135.97771    239.14512 
   31700    132.76814    -213.5879    128154.41   -34060.384    2503.9521   -36564.336    136.43334    235.49875 
   31750    134.72223   -41.628656    128184.84   -34048.727    2540.8054   -36589.533    136.60295    238.96483 
   31800    132.81028    15.445209    128205.65   -34039.848    2504.7468   -36544.594    137.21736    235.57349 
   31850    135.83496   -326.61309    128137.33   -34023.279    2561.7911    -36585.07    137.29677    240.93855 
   31900    134.92014   -491.16072    128087.76   -34053.662    2544.5379     -36598.2    137.43995    239.31587 
   31950     135.3886   -96.233594     128094.5   -34046.291    2553.3729   -36599.664    137.53663    240.14681 
   32000    133.03803   -272.19282    128141.03    -34080.95     2509.042   -36589.992    137.77118    235.97746 
   32050     136.8425   -169.85485    128181.91   -34104.327    2580.7927    -36685.12    138.08276    242.72567 
   32100    132.29613   -224.35437    128223.32   -34121.545    2495.0502   -36616.595    138.28228    234.66152 
   32150    132.69816   -504.84128    128121.71   -34154.042    2502.6323   -36656.675    138.18401    235.37462 
   32200    132.55212   -324.24424    128037.61   -34165.906    2499.8779   -36665.784    138.96417    235.11557 
   32250    132.39203   -223.56591    128074.41   -34144.681    2496.8587    -36641.54    138.76026    234.83161 
   32300    132.35231   -519.29073    128028.74   -34147.685    2496.1097   -36643.795    138.88502    234.76117 
   32350    132.56578    -523.6682     127925.9   -34123.998    2500.1356   -36624.134     138.9564     235.1398 
   32400    134.42789   -750.64204    127836.26     -34096.8    2535.2543   -36632.055    139.41948    238.44275 
   32450    133.73293   -529.07613    127780.56     -34153.6    2522.1475   -36675.748    139.62718    237.21004 
   32500    133.64752   -400.88073    127748.64   -34145.762    2520.5368   -36666.299    139.88583    237.05855 
   32550    135.76511   -378.55023    127650.17   -34120.271    2560.4737   -36680.745    140.23343    240.81465 
   32600    132.37629   -276.56918    127579.25   -34154.079     2496.562   -36650.641    140.11656     234.8037 
   32650    133.96311   -237.61067    127542.29   -34118.808    2526.4886   -36645.296    140.11371    237.61833 
   32700    133.78682    -276.0916    127527.69   -34114.616     2523.164    -36637.78    140.29967    237.30564 
   32750    132.37388    -185.2624     127522.9    -34114.92    2496.5165   -36611.437    140.44232    234.79943 
   32800    133.42847     -212.628    127541.83   -34127.982    2516.4057   -36644.387    140.57012    236.67002 
   32850    133.30409   -524.12453    127533.76   -34115.587    2514.0598   -36629.646     140.6384    236.44938 
   32900    134.37616    -435.3133    127477.34   -34082.927    2534.2786   -36617.206    141.00869    238.35098 
   32950    132.20979   -336.32095    127472.85   -34071.994    2493.4217   -36565.415    141.08698    234.50836 
   33000    135.24273   -396.71855    127502.84    -34055.72    2550.6218   -36606.342    141.21036    239.88808 
   33050    135.22423   -356.29952    127475.62   -34055.361    2550.2729   -36605.634    141.74359    239.85526 
   33100    132.78766   -261.59728    127425.84   -34053.608    2504.3202   -36557.928    141.95009    235.53337 
   33150    134.82722    -503.6868    127308.21   -34039.331    2542.7854   -36582.116    141.79725    239.15105 
   33200    133.73012   -491.27676    127327.42   -34070.483    2522.0946   -36592.578     141.8819    237.20507 
   33250    134.28835   -240.14566     127316.3   -34059.756    2532.6226   -36592.379    142.36732    238.19523 
   33300    135.55357    -308.1291    127326.73   -34045.304    2556.4841   -36601.788    142.66349    240.43942 
   33350     134.7973   -551.51868    127292.84   -34030.924    2542.2213   -36573.146    143.08305    239.09799 
   33400    137.50195   -176.63032    127343.27   -33975.534    2593.2297   -36568.764    143.40319    243.89538 
   33450    137.37678   -99.006406    127320.03   -33966.769    2590.8691   -36557.638    143.14663    243.67337 
   33500    137.80458    -174.2889     127333.1   -33929.055    2598.9372   -36527.992      143.227    244.43217 
   33550    138.23979   -110.67708    127401.49   -33887.275     2607.145    -36494.42    143.49221    245.20413 
   33600    136.32022   -135.87949    127421.56   -33886.627    2570.9427    -36457.57    143.58021    241.79928 
   33650    136.52962   -117.73219     127492.5   -33891.165    2574.8919   -36466.057    143.69637     242.1707 
   33700    135.12616   -153.11807    127534.29   -33962.155    2548.4233   -36510.578    144.12619    239.68131 
   33750     136.7827   -202.22254    127481.24   -34004.312     2579.665   -36583.977    144.15404    242.61961 
   33800    135.46757   -363.86095    127418.81   -33977.356    2554.8623   -36532.218    144.22046    240.28689 
   33850     133.3656    -254.5025    127384.22   -34027.879    2515.2199   -36543.099    144.27743    236.55849 
   33900    133.23599   -208.24175    127367.18   -34019.301    2512.7755   -36532.076    144.63852     236.3286 
   33950    136.33349   -176.46831    127324.16   -34024.713    2571.1931   -36595.906    144.81423    241.82282 
[...]
   92000    135.69717   -462.53143    127447.04   -34001.974    2559.1922   -36561.166    394.11828    240.69413 
   92050    139.85832   -157.43569    127449.85   -33985.587    2637.6699   -36623.257    394.13796    248.07502 
   92100    134.49826   -475.80875    127414.83   -33995.326    2536.5813   -36531.907    394.36329    238.56756 
   92150    137.32574   -158.24471     127354.1   -33973.969    2589.9064   -36563.875    394.34702    243.58283 
   92200    133.35262   -403.98158    127314.66   -33964.716     2514.975   -36479.691    394.94487    236.53546 
   92250    137.03635   -418.36321    127341.77    -34055.41    2584.4488   -36639.859    395.22027    243.06953 
   92300    139.20061   -254.91424     127323.5   -34005.752    2625.2658   -36631.018    396.02116    246.90841 
   92350    137.27591   -394.05844    127308.92   -34018.487    2588.9667   -36607.454    396.27874    243.49445 
   92400     134.8553   -137.05075    127296.22   -34073.009     2543.315   -36616.324    396.57219    239.20087 
   92450    134.47616    -258.3941    127321.48   -34052.816    2536.1646   -36588.981    396.80603    238.52836 
   92500    136.34825   -232.29447    127330.95   -34016.535    2571.4715   -36588.006    397.61971      241.849 
   92550    138.09904    47.965799    127424.32   -34005.433    2604.4905   -36609.923    398.46008    244.95447 
   92600    139.04305   -196.40959    127479.65   -33978.187    2622.2942   -36600.481    398.57483    246.62892 
   92650    136.80024    -368.3228    127295.06   -33947.287    2579.9957   -36527.283    398.63437    242.65071 
   92700    138.75104   -265.23186     127200.8   -33967.285    2616.7871   -36584.072    399.12068    246.11097 
   92750    136.69331   -146.63743    127138.89   -34003.927     2577.979   -36581.906    399.46386    242.46104 
   92800    139.25001   -139.56747    127204.99   -33951.311    2626.1974   -36577.508    399.72474    246.99602 
   92850    138.44908    15.670074    127249.61   -33916.189    2611.0923   -36527.281    399.92664    245.57537 
   92900    139.59483   -30.746109    127254.86   -33924.283    2632.7005   -36556.984    399.81753    247.60764 
   92950    139.63793   -292.52913    127337.26   -33961.135    2633.5135   -36594.648    400.39744     247.6841 
   93000    138.68225   -321.62065    127332.66   -33984.941    2615.4897   -36600.431    400.45095    245.98895 
   93050    133.99559   -340.41486    127297.02   -34033.105    2527.1013   -36560.206    400.13743    237.67595 
   93100    136.26632   -294.05985     127224.6   -34058.541    2569.9262   -36628.467    400.52716    241.70367 
   93150     135.5167   -130.33904    127240.96   -34115.843    2555.7887   -36671.632    401.39018    240.37403 
   93200    134.98684   -289.79619    127249.04   -34050.142    2545.7959   -36595.938    401.70855    239.43419 
   93250    135.59924    -378.4467    127089.72    -34085.37    2557.3454   -36642.716    401.64998    240.52043 
   93300    135.33624   -8.6571589    127122.36   -34112.721    2552.3853   -36665.107    401.09687    240.05394 
   93350    134.09625   -179.55669    127149.32   -34169.461    2528.9996   -36698.461    401.37152    237.85449 
   93400    132.18798   -308.54274     127247.4   -34162.431    2493.0104   -36655.441    401.50262    234.46968 
   93450    134.06321   -180.06373    127226.48   -34133.974    2528.3766   -36662.351    401.56671     237.7959 
   93500    137.57943   -389.01995    127266.21   -34093.168    2594.6909   -36687.859     401.9343    244.03281 
   93550    129.58218   -438.85452    127206.88   -34106.268    2443.8661   -36550.134    401.86695    229.84761 
   93600    134.00941   -163.04102    127224.43   -34101.507    2527.3618   -36628.869    402.22927    237.70045 
   93650    132.48593   -383.10008    127202.61   -34075.266    2498.6298   -36573.896     402.1183    234.99818 
   93700    134.43169   -326.08606    127233.56   -34093.462    2535.3259   -36628.788    402.69003    238.44948 
   93750    130.36448    -32.35064    127250.37   -34079.964      2458.62   -36538.584    402.47438    231.23523 
   93800     133.7146   -195.60772    127279.97   -34094.847    2521.8019   -36616.649     402.6812    237.17754 
   93850    131.20418   -456.36039    127212.24   -34177.026    2474.4564   -36651.482    402.37791    232.72465 
   93900    133.43487   -256.45932    127194.38   -34139.208    2516.5263   -36655.734    402.78384    236.68136 
   93950     133.8729   -182.48234    127180.83   -34114.376    2524.7873   -36639.163     402.7352    237.45832 
   94000    135.51084   -185.47833    127260.82   -34050.438    2555.6782   -36606.116    402.59191    240.36363 
   94050    132.88226   -255.60269    127231.77   -34108.204    2506.1044   -36614.308     402.9999    235.70117 
   94100    133.86366   -104.68342     127312.9     -34050.3    2524.6131   -36574.913    403.20512    237.44193 
   94150    135.15178   -244.55791    127355.29   -33986.265    2548.9065   -36535.171    403.01172    239.72675 
   94200    134.32054   -352.74816    127303.55   -34033.263    2533.2296   -36566.493    403.22131    238.25232 
   94250    133.92675   -529.22717    127322.65    -34024.43    2525.8029   -36550.233    403.55042    237.55384 
   94300    133.88137   -222.47284    127289.06   -34003.513    2524.9471    -36528.46    403.34504    237.47335 
   94350    135.99051   -94.372944    127225.57   -33996.123    2564.7245   -36560.848    403.53601    241.21445 
   94400    134.78092   -246.94944    127215.99   -34009.043    2541.9123   -36550.956    403.73417    239.06894 
   94450     132.6061   -426.79565    127232.68   -33983.704    2500.8961     -36484.6    404.39161    235.21133 
   94500     134.5311   -81.599786    127190.44    -34000.18    2537.2008   -36537.381    403.89597    238.62582 
   94550    135.80339   -382.37052    127153.81   -33984.414    2561.1957   -36545.609    403.75159    240.88256 
   94600    131.81133   -424.42468     127070.5   -33979.887    2485.9069   -36465.794    403.56753    233.80159 
   94650    136.91899   -25.728527    127090.05    -33978.71    2582.2354   -36560.945    404.01031    242.86136 
   94700     136.7854   -64.839265    127219.01   -33944.876    2579.7158   -36524.592    403.99591    242.62439 
   94750    133.73581   -11.586342    127258.98   -33963.633    2522.2018   -36485.834    403.86202    237.21515 
   94800    137.56159   -269.28399    127268.52   -33929.421    2594.3545   -36523.776    403.61335    244.00117 
   94850    136.40997   -421.17466    127227.74   -33951.393    2572.6354   -36524.028     403.4881    241.95847 
   94900     137.1098   -261.57583    127314.37   -33948.146    2585.8339    -36533.98    403.76758     243.1998 
   94950    135.82845   -215.98508    127247.39    -33944.75    2561.6681   -36506.418    404.01603    240.92699 
   95000     138.0214   -277.34274    127288.78   -33918.315    2603.0263   -36521.342    404.47076    244.81676 
   95050    138.65239   -531.48643     127256.4   -33901.124    2614.9265    -36516.05    404.08874    245.93598 
   95100    136.05533   -306.98144    127129.52   -33899.978     2565.947   -36465.925    404.18464    241.32943 
   95150    135.47001   -509.05631    127083.79    -33922.99    2554.9083   -36477.898    404.40651    240.29122 
   95200    137.35829   -265.09127    127056.18    -33898.34    2590.5203    -36488.86    405.04155    243.64056 
   95250    135.08211   -324.23457    127140.36   -33898.423    2547.5925   -36446.016    405.16583    239.60316 
   95300    138.03105   -397.51302    127129.56   -33888.736    2603.2084   -36491.944     405.6397    244.83389 
   95350    137.46795   -268.12256    127145.56   -33863.798    2592.5885   -36456.386    406.19979    243.83507 
   95400     134.8309   -277.80375     127049.2   -33930.937    2542.8548   -36473.792    406.62752    239.15758 
   95450    134.25771   -465.95964    126925.01   -33970.731    2532.0447   -36502.775    406.89516    238.14088 
   95500    135.80454    -147.5978    126893.72   -33989.055    2561.2173   -36550.272    407.44631    240.88459 
   95550    131.27675   -270.61042    126856.01   -34041.481    2475.8251   -36517.306    407.61145    232.85338 
   95600     133.3659   -158.52647    126906.13   -34058.403    2515.2256   -36573.629    407.65486    236.55903 
   95650    134.57201   -383.25324    126850.07   -34028.651    2537.9722   -36566.623    407.41983    238.69837 
   95700    138.69223   -107.56324    126925.32   -33983.914     2615.678   -36599.592    407.56211    246.00666 
   95750    137.40401   -190.91721    127014.61   -33941.019    2591.3826   -36532.402    407.48975    243.72166 
   95800    136.99115   -392.27049    127055.68   -33997.889    2583.5963   -36581.485    407.53777    242.98935 
   95850    137.69495    78.837693    127135.22   -33965.859    2596.8697   -36562.729    407.70924    244.23772 
   95900    136.46402   -224.29402    127189.26   -33978.449    2573.6549   -36552.104    408.25339    242.05436 
   95950    136.32201   -295.64814     127152.1   -33971.877    2570.9766   -36542.854    407.88253    241.80246 
   96000    136.04649   -228.34765    127202.27   -33949.329    2565.7803   -36515.109    408.00978    241.31374 
   96050    135.53546   -289.37213    127147.28   -33946.357    2556.1425     -36502.5    407.84596     240.4073 
   96100    133.98311   -298.07194    127038.95     -33959.7    2526.8658   -36486.566    408.38739     237.6538 
   96150    133.49719   -133.12765    127091.06   -34009.139    2517.7016    -36526.84      408.567    236.79191 
   96200    136.21065   -330.69291    127130.98   -33976.583    2568.8763   -36545.459    408.51714    241.60492 
   96250    134.64806   -296.53701    127127.55   -33994.633    2539.4065    -36534.04    408.96608    238.83327 
   96300    135.93441   -348.32072    127198.98   -33958.615    2563.6665   -36522.282    409.61843    241.11494 
   96350    135.77355   -375.84425    127169.39   -33956.434    2560.6329   -36517.067    410.14704    240.82963 
   96400    136.75989   -316.43351    127128.82   -33981.511    2579.2348   -36560.746    410.04279    242.57915 
   96450     135.3423   -52.485478    127191.96     -33977.7    2552.4996   -36530.199    410.34498    240.06468 
   96500    136.45709    -97.62762     127201.4    -33979.94    2573.5241   -36553.464    410.30681    242.04206 
   96550    135.28201    -235.9311    127200.84   -33936.211    2551.3626   -36487.573    410.85442    239.95775 
   96600     134.8705   -77.426567    127122.73   -33943.242    2543.6018   -36486.844     411.1209    239.22783 
   96650      133.974   -208.59806    127080.45   -33981.294    2526.6941   -36507.988    410.81078    237.63765 
   96700    134.97867   -278.53307    127040.47   -33999.084    2545.6416   -36544.725    410.83067    239.41969 
   96750    137.88467   -22.367551     127107.7   -33986.518    2600.4476   -36586.966    410.66179    244.57423 
   96800    138.70856   -105.14018    127104.71   -33979.664     2615.986    -36595.65    411.02295    246.03563 
   96850    136.65185   -257.50365    127062.16   -33945.241    2577.1972   -36522.439    411.04596    242.38751 
   96900    137.09599   -195.82891    127064.58   -33965.434    2585.5735   -36551.007    411.44749    243.17531 
   96950    137.52342   -232.89874    126975.05   -33938.127    2593.6347   -36531.762    411.29355    243.93347 
   97000    136.46417   -154.77396    126934.06   -33991.169    2573.6576   -36564.827    412.02703    242.05461 
   97050    133.79851   -327.06495    126914.97    -34078.15    2523.3843   -36601.535    412.48621    237.32637 
   97100    135.63713    -249.8425    126966.43   -34029.779      2558.06   -36587.839    412.69852    240.58764 
   97150    133.72291   -123.29161    126996.89   -34051.213    2521.9586   -36573.171    412.74953    237.19227 
   97200    134.66787   -130.08696    126970.89   -34021.006    2539.7801   -36560.786    412.77506     238.8684 
   97250    135.16851   -398.01653    126984.24    -33993.11    2549.2221   -36542.332    412.57282    239.75643 
   97300    136.02384   -232.24287    126967.57   -33975.394    2565.3531   -36540.747    413.10676    241.27356 
   97350    132.69893   -558.87852    126873.24   -33996.409    2502.6467   -36499.055    413.10004    235.37598 
   97400    136.53886   -338.80122    126763.82   -33998.554    2575.0662    -36573.62    413.13479    242.18709 
   97450    131.69629   -217.70623     126700.9   -34036.889    2483.7375   -36520.626    412.89713    233.59755 
   97500    134.65473   -10.823341    126741.93   -34023.641    2539.5323   -36563.174    412.75659     238.8451 
   97550    135.24581   -327.63337    126852.55    -34007.81    2550.6799    -36558.49    413.25268    239.89354 
   97600    135.36287   -284.55067    126843.04   -33995.613    2552.8876   -36548.501    413.22744    240.10117 
   97650    139.85933   -25.785405     126947.1   -33941.829     2637.689   -36579.518    413.61147    248.07681 
   97700    138.46864   -34.898714     127070.9   -33986.602    2611.4612   -36598.063    414.49276    245.61007 
   97750    137.39331   -447.00573    127113.41   -33934.928    2591.1809   -36526.108    414.77402    243.70269 
   97800     138.2672   -481.63046    127042.07   -33928.037    2607.6621   -36535.699    415.02681    245.25276 
   97850      138.266   -240.60757    126986.59   -33948.654    2607.6394   -36556.293    415.72772    245.25062 
   97900     133.9898    -183.0498    127092.98   -33973.384    2526.9921   -36500.376    415.63074    237.66568 
   97950    136.29007   -56.435533    127247.94   -33986.612    2570.3742   -36556.986    415.61457     241.7458 
   98000    136.48947   -88.305355    127242.43   -34009.693    2574.1348   -36583.828    415.98834    242.09949 
   98050    136.22985   -372.57162    127244.78   -33989.894    2569.2385   -36559.133    416.50255    241.63899 
   98100    135.96523   -172.27938    127265.81   -33997.586    2564.2478   -36561.834     416.2326    241.16961 
   98150    136.20535   -55.726879    127375.86   -33960.645    2568.7765   -36529.422     416.2478    241.59554 
   98200    133.96505   -539.67854    127351.76    -34052.87    2526.5253   -36579.395      416.397    237.62178 
   98250    133.04457    -339.7709    127435.01   -34050.033    2509.1654   -36559.199    416.95412    235.98906 
   98300    136.15807   -364.62619    127434.83   -34001.992    2567.8847   -36569.876    417.14458    241.51166 
   98350    134.83721   -235.46038    127377.42   -33953.891    2542.9738   -36496.865    416.91713    239.16877 
   98400    138.02142   -218.20154    127338.82   -33969.982    2603.0266   -36573.008    416.58194    244.81679 
   98450     135.1324   -296.19379    127439.53   -34033.741     2548.541   -36582.282    416.93397    239.69237 
   98500    136.12958   -320.86747    127497.02   -34014.877    2567.3474   -36582.225    416.88779    241.46113 
   98550    136.76406   -390.53634    127505.43     -33978.5    2579.3134   -36557.814    416.79114    242.58654 
   98600    137.02068   -491.76268    127545.88   -33980.607    2584.1532    -36564.76    417.45581    243.04173 
   98650    136.19534   -382.78199    127594.61   -33970.096    2568.5876   -36538.683    417.70169    241.57777 
   98700    133.97068   -603.92793    127518.56   -34007.776    2526.6315   -36534.407    417.15527    237.63176 
   98750    133.35672   -457.03994    127321.72   -34037.919    2515.0524   -36552.971     417.1609    236.54275 
   98800     135.0199   -386.45503    127194.79   -34042.591    2546.4193   -36589.011     417.5702    239.49283 
   98850    134.93629   -391.97073    127085.51   -34010.681    2544.8424   -36555.523    417.78336    239.34452 
   98900    136.77532   -272.57301    127026.08   -33997.622    2579.5258   -36577.147    418.15662    242.60652 
   98950    135.61891   -131.33989    126910.73   -34040.216    2557.7165   -36597.933    418.06531    240.55533 
   99000    132.48154   -319.18861    126896.95   -34073.498    2498.5468   -36572.045    418.07063    234.99038 
   99050    133.79408    -595.6691       126845   -34030.739    2523.3009    -36554.04    418.75288    237.31852 
   99100    134.04663   -351.59833    126870.05   -34047.067    2528.0639   -36575.131    419.41129    237.76648 
   99150    135.42249    -513.7706    126838.24   -34073.343     2554.012   -36627.355    419.85703    240.20692 
   99200    135.39606   -502.63387    126816.46    -34049.93    2553.5134   -36603.443    420.11683    240.16003 
   99250    134.32735   -345.04676    126839.03   -34103.654    2533.3582   -36637.012    420.31982    238.26442 
   99300    133.03651   -303.68722     126748.7   -34118.311    2509.0134   -36627.325    420.30286    235.97477 
   99350     133.1371   -445.20379    126721.69   -34114.268    2510.9105   -36625.178    420.45323    236.15319 
   99400    132.47351    -107.8368    126736.33   -34139.529    2498.3955   -36637.924    420.96616    234.97615 
   99450    131.80223   -93.762857     126829.9   -34119.191    2485.7353   -36604.927    421.18931    233.78545 
   99500    130.73899     -18.2125    126869.49   -34175.751    2465.6831   -36641.434    421.70069    231.89952 
   99550    131.72699    -311.7824    127014.25   -34135.362    2484.3164   -36619.679     421.6905    233.65199 
   99600    132.90616   -458.88697    127078.39   -34074.198    2506.5551   -36580.753    422.24654    235.74357 
   99650    135.03209   -213.89463    127055.61   -34087.746    2546.6491   -36634.396    422.71446    239.51444 
   99700    135.51644   -281.85905    127112.04    -34038.05    2555.7839   -36593.834    423.00461    240.37357 
   99750    133.64098   -387.05694    127146.87   -34021.774    2520.4135   -36542.187    423.64489    237.04695 
   99800    133.03826   -394.55435    127163.92   -33989.447    2509.0464   -36498.494    423.73868    235.97787 
   99850    133.07801   -263.21903    127204.66   -34010.943    2509.7961   -36520.739    423.93813    236.04838 
   99900    132.14468    -257.0232     127199.5     -34053.7    2492.1938   -36545.894    423.96562    234.39287 
   99950    133.51135    -430.5411    127245.16    -34053.71    2517.9687   -36571.678    424.64928    236.81702 
  100000    134.50286   -268.15463    127233.53   -34002.342    2536.6682    -36539.01    424.64913    238.57572 
Loop time of 89.1146 on 64 procs for 100000 steps with 6328 atoms

Performance: 484.769 ns/day, 0.050 hours/ns, 1122.151 timesteps/s
100.0% CPU use with 64 MPI tasks x no OpenMP threads

MPI task timing breakdown:
Section |  min time  |  avg time  |  max time  |%varavg| %total
---------------------------------------------------------------
Pair    | 18.076     | 39.689     | 65.322     | 336.1 | 44.54
Neigh   | 0.89575    | 1.9039     | 3.8366     |  79.7 |  2.14
Comm    | 14.393     | 39.38      | 63.114     | 323.8 | 44.19
Output  | 0.12268    | 0.1241     | 0.13498    |   0.4 |  0.14
Modify  | 4.5812     | 7.3298     | 13.069     | 109.3 |  8.23
Other   |            | 0.6883     |            |       |  0.77

Nlocal:    98.875 ave 169 max 58 min
Histogram: 30 2 0 6 10 0 0 0 5 11
Nghost:    767.031 ave 1071 max 485 min
Histogram: 32 0 0 0 0 0 0 0 14 18
Neighs:    0 ave 0 max 0 min
Histogram: 64 0 0 0 0 0 0 0 0 0
FullNghs:  8136.91 ave 18823 max 2289 min
Histogram: 32 0 0 0 16 0 0 0 3 13

Total # of neighbors = 520762
Ave neighs/atom = 82.2949
Neighbor list builds = 5991
Dangerous builds = 0

write_data		${DIR}/data.eq-${NAME}-${TEMP}
write_data		run_30/data.eq-${NAME}-${TEMP}
write_data		run_30/data.eq-het_freeze_30-${TEMP}
write_data		run_30/data.eq-het_freeze_30-240
undump          1

reset_timestep  0

unfix           2
unfix           3
unfix           4


################################################
#######         Run Simulation         #########
################################################

log				${DIR}/log.run_${NAME}
log				run_30/log.run_${NAME}
log				run_30/log.run_het_freeze_30
