LAMMPS data file via write_data, version 16 Mar 2018, timestep = 8000000

4560 atoms
2 atom types

0.0000000000000000e+00 4.9219999999999999e+01 xlo xhi
0.0000000000000000e+00 4.9019635930410494e+01 ylo yhi
7.4916757147029855e-01 3.3190832428539494e+01 zlo zhi

Masses

1 18.015
2 12.01

Atoms # atomic

147 2 0.0000000000000000e+00 2.8417180249513345e+00 2.8997097549634816e+00 0 0 0
149 2 0.0000000000000000e+00 0.0000000000000000e+00 2.8997097549634816e+00 0 0 0
151 2 1.2305000000000001e+00 7.1042950623783474e-01 2.8997097549634816e+00 0 0 0
158 2 1.2305000000000001e+00 2.1312885187134998e+00 2.8997097549634816e+00 0 0 0
160 2 2.4610000000000003e+00 2.8417180249513345e+00 2.8997097549634816e+00 0 0 0
162 2 2.4610000000000003e+00 0.0000000000000000e+00 2.8997097549634816e+00 0 0 0
164 2 3.6915000000000004e+00 7.1042950623783474e-01 2.8997097549634816e+00 0 0 0
179 2 3.6914999999999996e+00 2.1312885187134998e+00 2.8997097549634816e+00 0 0 0
181 2 4.9220000000000006e+00 2.8417180249513332e+00 2.8997097549634816e+00 0 0 0
183 2 4.9220000000000006e+00 0.0000000000000000e+00 2.8997097549634816e+00 0 0 0
185 2 6.1524999999999999e+00 7.1042950623783407e-01 2.8997097549634816e+00 0 0 0
208 2 6.1524999999999999e+00 2.1312885187134989e+00 2.8997097549634816e+00 0 0 0
210 2 7.3829999999999991e+00 2.8417180249513345e+00 2.8997097549634816e+00 0 0 0
212 2 7.3829999999999991e+00 0.0000000000000000e+00 2.8997097549634816e+00 0 0 0
214 2 8.6134999999999984e+00 7.1042950623783407e-01 2.8997097549634816e+00 0 0 0
245 2 8.6134999999999984e+00 2.1312885187135002e+00 2.8997097549634816e+00 0 0 0
247 2 9.8440000000000012e+00 2.8417180249513332e+00 2.8997097549634816e+00 0 0 0
249 2 9.8440000000000012e+00 0.0000000000000000e+00 2.8997097549634816e+00 0 0 0
251 2 1.1074500000000002e+01 7.1042950623783330e-01 2.8997097549634816e+00 0 0 0
290 2 1.1074500000000002e+01 2.1312885187135002e+00 2.8997097549634816e+00 0 0 0
154 2 0.0000000000000000e+00 4.2625770374269996e+00 2.8997097549634816e+00 0 0 0
156 2 1.2305000000000001e+00 4.9730065436648339e+00 2.8997097549634816e+00 0 0 0
171 2 1.2305000000000001e+00 6.3938655561404980e+00 2.8997097549634816e+00 0 0 0
175 2 2.4610000000000003e+00 4.2625770374269996e+00 2.8997097549634816e+00 0 0 0
177 2 3.6914999999999996e+00 4.9730065436648339e+00 2.8997097549634816e+00 0 0 0
200 2 3.6914999999999996e+00 6.3938655561404980e+00 2.8997097549634816e+00 0 0 0
152 2 0.0000000000000000e+00 7.1042950623783341e+00 2.8997097549634816e+00 0 0 0
173 2 2.4610000000000003e+00 7.1042950623783341e+00 2.8997097549634816e+00 0 0 0
204 2 4.9220000000000006e+00 4.2625770374269978e+00 2.8997097549634816e+00 0 0 0
206 2 6.1524999999999999e+00 4.9730065436648339e+00 2.8997097549634816e+00 0 0 0
237 2 6.1524999999999999e+00 6.3938655561404980e+00 2.8997097549634816e+00 0 0 0
241 2 7.3829999999999991e+00 4.2625770374269996e+00 2.8997097549634816e+00 0 0 0
202 2 4.9220000000000006e+00 7.1042950623783341e+00 2.8997097549634816e+00 0 0 0
239 2 7.3830000000000009e+00 7.1042950623783341e+00 2.8997097549634816e+00 0 0 0
243 2 8.6135000000000002e+00 4.9730065436648339e+00 2.8997097549634816e+00 0 0 0
282 2 8.6135000000000002e+00 6.3938655561404980e+00 2.8997097549634816e+00 0 0 0
286 2 9.8440000000000012e+00 4.2625770374270004e+00 2.8997097549634816e+00 0 0 0
288 2 1.1074500000000002e+01 4.9730065436648339e+00 2.8997097549634816e+00 0 0 0
329 2 1.1074500000000002e+01 6.3938655561404980e+00 2.8997097549634816e+00 0 0 0
284 2 9.8440000000000012e+00 7.1042950623783341e+00 2.8997097549634816e+00 0 0 0
167 2 0.0000000000000000e+00 8.5251540748539991e+00 2.8997097549634816e+00 0 0 0
169 2 1.2305000000000001e+00 9.2355835810918343e+00 2.8997097549634816e+00 0 0 0
196 2 2.4610000000000003e+00 8.5251540748539991e+00 2.8997097549634816e+00 0 0 0
198 2 3.6915000000000004e+00 9.2355835810918343e+00 2.8997097549634816e+00 0 0 0
165 2 0.0000000000000000e+00 1.1366872099805333e+01 2.8997097549634816e+00 0 0 0
192 2 1.2305000000000001e+00 1.0656442593567498e+01 2.8997097549634816e+00 0 0 0
194 2 2.4610000000000003e+00 1.1366872099805333e+01 2.8997097549634816e+00 0 0 0
229 2 3.6914999999999996e+00 1.0656442593567499e+01 2.8997097549634816e+00 0 0 0
233 2 4.9220000000000006e+00 8.5251540748539991e+00 2.8997097549634816e+00 0 0 0
235 2 6.1524999999999999e+00 9.2355835810918343e+00 2.8997097549634816e+00 0 0 0
278 2 7.3830000000000009e+00 8.5251540748539991e+00 2.8997097549634816e+00 0 0 0
231 2 4.9220000000000006e+00 1.1366872099805333e+01 2.8997097549634816e+00 0 0 0
274 2 6.1524999999999999e+00 1.0656442593567499e+01 2.8997097549634816e+00 0 0 0
276 2 7.3829999999999991e+00 1.1366872099805333e+01 2.8997097549634816e+00 0 0 0
280 2 8.6134999999999984e+00 9.2355835810918343e+00 2.8997097549634816e+00 0 0 0
325 2 9.8440000000000012e+00 8.5251540748539956e+00 2.8997097549634816e+00 0 0 0
327 2 1.1074500000000002e+01 9.2355835810918343e+00 2.8997097549634816e+00 0 0 0
321 2 8.6134999999999984e+00 1.0656442593567498e+01 2.8997097549634816e+00 0 0 0
323 2 9.8440000000000012e+00 1.1366872099805333e+01 2.8997097549634816e+00 0 0 0
368 2 1.1074500000000002e+01 1.0656442593567498e+01 2.8997097549634816e+00 0 0 0
370 2 1.2304999999999998e+01 1.1366872099805333e+01 2.8997097549634816e+00 0 0 0
148 2 0.0000000000000000e+00 1.4208590124756650e+00 5.9855499094037592e+00 0 0 0
150 2 0.0000000000000000e+00 0.0000000000000000e+00 5.9855499094037592e+00 0 0 0
159 2 1.2305000000000001e+00 2.1312885187134998e+00 5.9855499094037592e+00 0 0 0
161 2 2.4610000000000003e+00 1.4208590124756650e+00 5.9855499094037592e+00 0 0 0
163 2 2.4610000000000003e+00 0.0000000000000000e+00 5.9855499094037592e+00 0 0 0
180 2 3.6914999999999996e+00 2.1312885187134998e+00 5.9855499094037592e+00 0 0 0
157 2 1.2305000000000001e+00 3.5521475311891644e+00 5.9855499094037592e+00 0 0 0
178 2 3.6914999999999996e+00 3.5521475311891644e+00 5.9855499094037592e+00 0 0 0
182 2 4.9220000000000006e+00 1.4208590124756650e+00 5.9855499094037592e+00 0 0 0
184 2 4.9220000000000006e+00 0.0000000000000000e+00 5.9855499094037592e+00 0 0 0
209 2 6.1524999999999999e+00 2.1312885187134989e+00 5.9855499094037592e+00 0 0 0
211 2 7.3829999999999991e+00 1.4208590124756659e+00 5.9855499094037592e+00 0 0 0
213 2 7.3829999999999991e+00 0.0000000000000000e+00 5.9855499094037592e+00 0 0 0
207 2 6.1524999999999999e+00 3.5521475311891644e+00 5.9855499094037592e+00 0 0 0
246 2 8.6134999999999984e+00 2.1312885187135002e+00 5.9855499094037592e+00 0 0 0
248 2 9.8440000000000012e+00 1.4208590124756659e+00 5.9855499094037592e+00 0 0 0
250 2 9.8440000000000012e+00 0.0000000000000000e+00 5.9855499094037592e+00 0 0 0
291 2 1.1074500000000002e+01 2.1312885187135002e+00 5.9855499094037592e+00 0 0 0
244 2 8.6134999999999984e+00 3.5521475311891657e+00 5.9855499094037592e+00 0 0 0
289 2 1.1074500000000002e+01 3.5521475311891644e+00 5.9855499094037592e+00 0 0 0
153 2 0.0000000000000000e+00 5.6834360499026637e+00 5.9855499094037592e+00 0 0 0
155 2 0.0000000000000000e+00 4.2625770374269996e+00 5.9855499094037592e+00 0 0 0
172 2 1.2305000000000001e+00 6.3938655561404980e+00 5.9855499094037592e+00 0 0 0
174 2 2.4610000000000003e+00 5.6834360499026637e+00 5.9855499094037592e+00 0 0 0
176 2 2.4610000000000003e+00 4.2625770374269996e+00 5.9855499094037592e+00 0 0 0
201 2 3.6914999999999996e+00 6.3938655561404980e+00 5.9855499094037592e+00 0 0 0
170 2 1.2305000000000001e+00 7.8147245686161639e+00 5.9855499094037592e+00 0 0 0
199 2 3.6914999999999996e+00 7.8147245686161639e+00 5.9855499094037592e+00 0 0 0
203 2 4.9220000000000006e+00 5.6834360499026637e+00 5.9855499094037592e+00 0 0 0
205 2 4.9220000000000006e+00 4.2625770374269978e+00 5.9855499094037592e+00 0 0 0
238 2 6.1524999999999999e+00 6.3938655561404980e+00 5.9855499094037592e+00 0 0 0
240 2 7.3829999999999991e+00 5.6834360499026637e+00 5.9855499094037592e+00 0 0 0
242 2 7.3829999999999991e+00 4.2625770374269996e+00 5.9855499094037592e+00 0 0 0
236 2 6.1524999999999999e+00 7.8147245686161639e+00 5.9855499094037592e+00 0 0 0
283 2 8.6135000000000002e+00 6.3938655561404980e+00 5.9855499094037592e+00 0 0 0
285 2 9.8440000000000012e+00 5.6834360499026637e+00 5.9855499094037592e+00 0 0 0
287 2 9.8440000000000012e+00 4.2625770374270004e+00 5.9855499094037592e+00 0 0 0
330 2 1.1074500000000002e+01 6.3938655561404980e+00 5.9855499094037592e+00 0 0 0
281 2 8.6135000000000002e+00 7.8147245686161639e+00 5.9855499094037592e+00 0 0 0
328 2 1.1074500000000002e+01 7.8147245686161639e+00 5.9855499094037592e+00 0 0 0
166 2 0.0000000000000000e+00 9.9460130873296642e+00 5.9855499094037592e+00 0 0 0
168 2 0.0000000000000000e+00 8.5251540748539991e+00 5.9855499094037592e+00 0 0 0
195 2 2.4610000000000003e+00 9.9460130873296642e+00 5.9855499094037592e+00 0 0 0
197 2 2.4610000000000003e+00 8.5251540748539991e+00 5.9855499094037592e+00 0 0 0
191 2 1.2305000000000001e+00 1.2077301606043163e+01 5.9855499094037592e+00 0 0 0
193 2 1.2305000000000001e+00 1.0656442593567498e+01 5.9855499094037592e+00 0 0 0
228 2 3.6914999999999996e+00 1.2077301606043163e+01 5.9855499094037592e+00 0 0 0
230 2 3.6914999999999996e+00 1.0656442593567499e+01 5.9855499094037592e+00 0 0 0
232 2 4.9220000000000006e+00 9.9460130873296642e+00 5.9855499094037592e+00 0 0 0
234 2 4.9220000000000006e+00 8.5251540748539991e+00 5.9855499094037592e+00 0 0 0
277 2 7.3830000000000009e+00 9.9460130873296642e+00 5.9855499094037592e+00 0 0 0
279 2 7.3830000000000009e+00 8.5251540748539991e+00 5.9855499094037592e+00 0 0 0
273 2 6.1524999999999999e+00 1.2077301606043163e+01 5.9855499094037592e+00 0 0 0
275 2 6.1524999999999999e+00 1.0656442593567499e+01 5.9855499094037592e+00 0 0 0
367 2 1.1074500000000002e+01 1.2077301606043163e+01 5.9855499094037592e+00 0 0 0
326 2 9.8440000000000012e+00 8.5251540748539956e+00 5.9855499094037592e+00 0 0 0
369 2 1.1074500000000002e+01 1.0656442593567498e+01 5.9855499094037592e+00 0 0 0
320 2 8.6135000000000002e+00 1.2077301606043163e+01 5.9855499094037592e+00 0 0 0
324 2 9.8440000000000012e+00 9.9460130873296642e+00 5.9855499094037592e+00 0 0 0
322 2 8.6134999999999984e+00 1.0656442593567498e+01 5.9855499094037592e+00 0 0 0
476 2 0.0000000000000000e+00 2.8417180249513345e+00 9.0713900638435838e+00 0 0 0
477 2 0.0000000000000000e+00 0.0000000000000000e+00 9.0713900638435838e+00 0 0 0
478 2 1.2305000000000001e+00 7.1042950623783474e-01 9.0713900638435838e+00 0 0 0
482 2 1.2305000000000001e+00 2.1312885187134998e+00 9.0713900638435838e+00 0 0 0
483 2 2.4610000000000003e+00 2.8417180249513345e+00 9.0713900638435838e+00 0 0 0
484 2 2.4610000000000003e+00 0.0000000000000000e+00 9.0713900638435838e+00 0 0 0
485 2 3.6915000000000004e+00 7.1042950623783474e-01 9.0713900638435838e+00 0 0 0
493 2 3.6914999999999996e+00 2.1312885187134998e+00 9.0713900638435838e+00 0 0 0
3212 1 1.0315940031560471e+01 1.2203186756434501e+01 1.1369933602178207e+01 0 0 0
4270 1 5.0120043291776781e+00 9.3087863906323172e+00 1.4494465662717088e+01 2 2 0
3543 1 5.2538261784274471e+00 1.6045503983912108e+00 1.2339065720945319e+01 -2 1 0
494 2 4.9220000000000006e+00 2.8417180249513332e+00 9.0713900638435838e+00 0 0 0
495 2 4.9220000000000006e+00 0.0000000000000000e+00 9.0713900638435838e+00 0 0 0
496 2 6.1524999999999999e+00 7.1042950623783407e-01 9.0713900638435838e+00 0 0 0
508 2 6.1524999999999999e+00 2.1312885187134989e+00 9.0713900638435838e+00 0 0 0
509 2 7.3829999999999991e+00 2.8417180249513345e+00 9.0713900638435838e+00 0 0 0
510 2 7.3829999999999991e+00 0.0000000000000000e+00 9.0713900638435838e+00 0 0 0
2265 1 7.2706847141743278e+00 8.1366943929468931e+00 1.5310015197740402e+01 1 -1 0
3322 1 1.0002393796178056e+01 1.5339846277747473e+00 1.1788241282348110e+01 0 2 0
511 2 8.6134999999999984e+00 7.1042950623783407e-01 9.0713900638435838e+00 0 0 0
527 2 8.6134999999999984e+00 2.1312885187135002e+00 9.0713900638435838e+00 0 0 0
528 2 9.8440000000000012e+00 2.8417180249513332e+00 9.0713900638435838e+00 0 0 0
529 2 9.8440000000000012e+00 0.0000000000000000e+00 9.0713900638435838e+00 0 0 0
530 2 1.1074500000000002e+01 7.1042950623783330e-01 9.0713900638435838e+00 0 0 0
550 2 1.1074500000000002e+01 2.1312885187135002e+00 9.0713900638435838e+00 0 0 0
1167 1 1.0101146170099023e+01 4.4616059980972560e+00 1.1438372476622524e+01 2 -1 0
3328 1 2.5012777699782545e+00 5.5014502070319642e+00 1.1871655607364694e+01 1 1 0
480 2 0.0000000000000000e+00 4.2625770374269996e+00 9.0713900638435838e+00 0 0 0
481 2 1.2305000000000001e+00 4.9730065436648339e+00 9.0713900638435838e+00 0 0 0
489 2 1.2305000000000001e+00 6.3938655561404980e+00 9.0713900638435838e+00 0 0 0
491 2 2.4610000000000003e+00 4.2625770374269996e+00 9.0713900638435838e+00 0 0 0
492 2 3.6914999999999996e+00 4.9730065436648339e+00 9.0713900638435838e+00 0 0 0
504 2 3.6914999999999996e+00 6.3938655561404980e+00 9.0713900638435838e+00 0 0 0
479 2 0.0000000000000000e+00 7.1042950623783341e+00 9.0713900638435838e+00 0 0 0
490 2 2.4610000000000003e+00 7.1042950623783341e+00 9.0713900638435838e+00 0 0 0
3429 1 7.6549200105966815e+00 1.8191997191736969e-01 1.1906562102954538e+01 5 1 -1
2035 1 4.9635481117300086e+00 4.3866003700482912e+00 1.2044130520857053e+01 0 2 -1
506 2 4.9220000000000006e+00 4.2625770374269978e+00 9.0713900638435838e+00 0 0 0
507 2 6.1524999999999999e+00 4.9730065436648339e+00 9.0713900638435838e+00 0 0 0
523 2 6.1524999999999999e+00 6.3938655561404980e+00 9.0713900638435838e+00 0 0 0
525 2 7.3829999999999991e+00 4.2625770374269996e+00 9.0713900638435838e+00 0 0 0
505 2 4.9220000000000006e+00 7.1042950623783341e+00 9.0713900638435838e+00 0 0 0
524 2 7.3830000000000009e+00 7.1042950623783341e+00 9.0713900638435838e+00 0 0 0
4554 1 7.5676517870113740e+00 5.2355299896922354e+00 1.2067782822743361e+01 0 0 0
526 2 8.6135000000000002e+00 4.9730065436648339e+00 9.0713900638435838e+00 0 0 0
546 2 8.6135000000000002e+00 6.3938655561404980e+00 9.0713900638435838e+00 0 0 0
548 2 9.8440000000000012e+00 4.2625770374270004e+00 9.0713900638435838e+00 0 0 0
549 2 1.1074500000000002e+01 4.9730065436648339e+00 9.0713900638435838e+00 0 0 0
570 2 1.1074500000000002e+01 6.3938655561404980e+00 9.0713900638435838e+00 0 0 0
547 2 9.8440000000000012e+00 7.1042950623783341e+00 9.0713900638435838e+00 0 0 0
1003 1 2.5668084657675458e+00 8.3793201933297823e+00 1.1921175185143703e+01 0 -2 0
487 2 0.0000000000000000e+00 8.5251540748539991e+00 9.0713900638435838e+00 0 0 0
488 2 1.2305000000000001e+00 9.2355835810918343e+00 9.0713900638435838e+00 0 0 0
502 2 2.4610000000000003e+00 8.5251540748539991e+00 9.0713900638435838e+00 0 0 0
503 2 3.6915000000000004e+00 9.2355835810918343e+00 9.0713900638435838e+00 0 0 0
486 2 0.0000000000000000e+00 1.1366872099805333e+01 9.0713900638435838e+00 0 0 0
500 2 1.2305000000000001e+00 1.0656442593567498e+01 9.0713900638435838e+00 0 0 0
501 2 2.4610000000000003e+00 1.1366872099805333e+01 9.0713900638435838e+00 0 0 0
519 2 3.6914999999999996e+00 1.0656442593567499e+01 9.0713900638435838e+00 0 0 0
3192 1 1.2045218890359759e+01 7.9122147383797969e+00 1.5652911303022847e+01 0 -2 -1
1277 1 7.5573680912819876e+00 7.9812920833873786e+00 1.1697266644710153e+01 -2 2 0
132 1 5.1448047605663509e+00 9.4865553857948886e+00 1.1463360319153722e+01 0 0 1
521 2 4.9220000000000006e+00 8.5251540748539991e+00 9.0713900638435838e+00 0 0 0
522 2 6.1524999999999999e+00 9.2355835810918343e+00 9.0713900638435838e+00 0 0 0
544 2 7.3830000000000009e+00 8.5251540748539991e+00 9.0713900638435838e+00 0 0 0
520 2 4.9220000000000006e+00 1.1366872099805333e+01 9.0713900638435838e+00 0 0 0
542 2 6.1524999999999999e+00 1.0656442593567499e+01 9.0713900638435838e+00 0 0 0
543 2 7.3829999999999991e+00 1.1366872099805333e+01 9.0713900638435838e+00 0 0 0
2129 1 9.9859800992628731e+00 9.4305859522517608e+00 1.1678454410829888e+01 -2 -2 0
545 2 8.6134999999999984e+00 9.2355835810918343e+00 9.0713900638435838e+00 0 0 0
568 2 9.8440000000000012e+00 8.5251540748539956e+00 9.0713900638435838e+00 0 0 0
569 2 1.1074500000000002e+01 9.2355835810918343e+00 9.0713900638435838e+00 0 0 0
566 2 8.6134999999999984e+00 1.0656442593567498e+01 9.0713900638435838e+00 0 0 0
567 2 9.8440000000000012e+00 1.1366872099805333e+01 9.0713900638435838e+00 0 0 0
590 2 1.1074500000000002e+01 1.0656442593567498e+01 9.0713900638435838e+00 0 0 0
591 2 1.2304999999999998e+01 1.1366872099805333e+01 9.0713900638435838e+00 0 0 0
4234 1 4.9919999176956651e+00 1.2152640297282520e+01 1.2207999641053888e+01 1 1 -1
1067 1 9.7870363319602429e+00 9.2508380575611362e+00 1.4527534267985491e+01 4 1 0
3388 1 5.0765042985749185e+00 1.4361645859035026e+00 1.4917917665675283e+01 3 -2 0
4524 1 9.9944131765457449e+00 1.0213863865463666e+00 1.4851733909058373e+01 -2 0 0
3444 1 2.4461708174384236e+00 8.2108442022947390e+00 1.4751836680637245e+01 -1 -1 0
103 1 2.4946474255795996e+00 5.5163819384122625e+00 1.4599872275722175e+01 3 2 0
2011 1 4.8036362127678389e+00 4.0236111045235869e+00 1.5176116937483789e+01 0 2 0
3247 1 7.3367964903141143e+00 5.0857702052912677e+00 1.4867556147702906e+01 -1 -1 0
5 1 9.6673344087448960e+00 3.8493718958872782e+00 1.5292216461368525e+01 2 -3 -1
1179 1 1.1851583671916478e+01 5.3593281852309804e+00 1.4485554951004106e+01 1 2 0
3527 1 1.0034242818573848e+01 1.2168615679593849e+01 1.5184673912946874e+01 1 1 -1
2345 1 1.0666868087356685e-01 1.1888244630718409e+01 1.4837568970231992e+01 2 1 0
4516 1 1.6049950512751629e-01 4.1627550428011926e+00 1.1977264675301049e+01 -1 -1 0
3245 1 2.4726305603245119e-01 1.5372114732607607e+00 1.1604592937110734e+01 1 -3 0
2314 1 5.2421698752652910e+00 1.2101094178677050e+01 1.5199802600204574e+01 1 2 1
983 1 2.8494024882161999e+00 5.0192513473656830e-01 1.1757494991239861e+01 1 -1 0
998 1 9.6789229665524459e-02 9.5675500724215645e+00 1.1741760168168701e+01 -1 -1 -1
4445 1 1.5484340789559292e-01 3.9712829884264584e+00 1.5106267259373066e+01 2 1 0
2389 1 3.5922202464707248e-01 1.2083287984457798e+00 1.4319108439652307e+01 1 2 0
1108 1 2.4668741127263636e+00 2.6972570276278587e+00 1.8602475150460265e+01 0 -1 0
1284 1 7.2303923016419587e+00 2.8356382813881704e+00 1.8741960255557700e+01 3 -1 0
2379 1 1.1522642245527047e+01 2.8408951128335098e+00 1.9037050643823644e+01 1 3 0
2081 1 4.6813414981110375e+00 1.2254240391137422e+01 1.7908016982683741e+01 1 0 0
4389 1 2.9227474611639477e+00 1.3500234270000291e-01 1.7710617174628364e+01 -3 1 0
4349 1 1.8524474304245248e-01 1.3413900610686924e+00 2.2191686680666624e+01 2 2 0
3426 1 4.6932133831815523e+00 4.0410692410263627e+00 1.7951453662557380e+01 1 0 -1
2149 1 4.7427628014694969e+00 6.7144815914666918e+00 1.8681023032428037e+01 1 0 0
997 1 9.4267574155022569e+00 4.1257708679278000e+00 1.7947069179260946e+01 1 0 0
16 1 9.3989648903888856e+00 6.7824768425463278e+00 1.9136296763072799e+01 -1 1 0
2422 1 2.5377749238874436e+00 8.1685048861239178e+00 1.7789805923608441e+01 -1 -1 1
4351 1 2.4168625083153747e+00 1.0863610515088116e+01 1.8647317704223770e+01 2 0 0
4558 1 6.9158303722752716e+00 7.9656181337910876e+00 1.8094077522543255e+01 -3 0 -1
847 1 6.7744720721997833e+00 1.0728916949720954e+01 1.8871149560200681e+01 1 -1 -1
2212 1 4.1261189081099436e-02 9.4375158827593157e+00 2.2125674793559174e+01 -1 -1 0
3335 1 1.1703669913111888e+01 8.4716742598489283e+00 1.8354065930753091e+01 -1 -1 0
984 1 1.1177893692965222e+01 1.1103945412876444e+01 1.8896669167355636e+01 1 -1 0
1996 1 2.5672337058703283e+00 2.3603607825535953e+00 2.1393229360315125e+01 -2 -1 0
2357 1 8.9733139336140244e+00 1.2155231178703751e+01 1.7884053308319082e+01 0 1 0
1999 1 6.7140955235912712e+00 1.0512987186481762e+01 2.1615307555538561e+01 2 -1 0
4548 1 9.0930400694487155e+00 9.3332917998524998e+00 2.2477569335168528e+01 0 -1 0
3391 1 7.2928772369444896e+00 2.7599517709691344e+00 2.1381459597076272e+01 -3 1 0
1207 1 4.9503931523204781e+00 1.2057491561424991e+00 2.2230850691795759e+01 1 1 0
11 1 1.1522467663441596e+01 2.5454256369167236e+00 2.1834698793783744e+01 -2 2 -1
1972 1 9.4453404047780438e+00 1.1707834134494961e+00 2.2577264377660622e+01 1 0 0
2423 1 4.3488319859411524e+00 9.1542867513846105e+00 2.2370739594782375e+01 1 0 0
2203 1 2.2328686829902136e+00 5.2583162324332209e+00 2.1696005218934630e+01 0 -2 0
4489 1 2.2522289231015313e+00 1.0665862176582083e+01 2.1484725948512786e+01 -1 -3 0
1045 1 1.1350474116923106e+01 1.0698028142693099e+01 2.1638932208271772e+01 0 1 0
1129 1 6.8333159490056001e+00 5.4512837116403512e+00 2.2158446945403643e+01 1 -3 0
3356 1 4.6602908437293422e+00 6.5695218389705827e+00 2.1340960550830626e+01 3 0 0
3134 1 1.1622631442265376e+01 5.3880570999787540e+00 2.2739699729042488e+01 0 0 -1
4237 1 9.3733202911433082e+00 6.7877675572977365e+00 2.1892212694305076e+01 0 -1 0
34 1 8.2667865512027733e-02 6.7954652551445678e+00 2.1081773065199371e+01 1 -1 0
1294 1 1.1862836784492965e+01 1.1937116001451266e-01 1.8268641008304627e+01 1 -1 0
4262 1 4.3812005649176173e+00 1.2558742278959312e+00 2.4788297162177816e+01 -4 -1 -1
828 1 1.4149008343446354e-01 3.9545278022174521e+00 1.7966562936746161e+01 1 2 0
2262 1 2.2537461020047894e-01 6.7100148050139961e+00 1.8459030124911557e+01 2 2 -1
2276 1 1.2212806139415655e-01 9.2566887830789657e+00 2.4855923512965568e+01 3 0 0
920 1 2.7198083536189710e+00 5.6146666072167557e+00 2.4527657003003931e+01 2 -2 -1
911 1 7.0261277844498764e+00 5.4261077041238783e+00 2.4813544605264934e+01 0 -2 1
1303 1 2.4859545210100609e+00 2.7606560720619258e+00 2.8355152097030242e+01 -1 -2 0
3452 1 2.2959630210031476e+00 2.9886612812436009e+00 2.5564746165032822e+01 3 -3 0
2117 1 2.7923999394402899e-01 6.7668135939170586e+00 2.5963759478922267e+01 1 -1 0
2388 1 6.9448186801283036e+00 2.8009499719423823e+00 2.5723556017669925e+01 0 -1 -1
2088 1 6.9936928778200933e+00 2.6981012402204465e+00 2.8423193224962180e+01 2 -1 0
2331 1 1.1613603234790336e+01 2.5094939300765366e+00 2.6372829050440334e+01 1 -1 0
3578 1 1.1326768194827027e+01 2.4506046854517596e+00 2.8954124430115769e+01 -2 1 0
4291 1 2.5199945750952497e+00 2.7039800579028095e-01 2.9427578807105171e+01 -3 1 -1
1273 1 2.8275984756783461e+00 7.8034519738669861e+00 3.1709811784326490e+01 3 -1 0
4238 1 4.7277317849215672e+00 6.9868518110764271e+00 2.5966433522408856e+01 0 0 0
144 1 4.8883913637859600e+00 6.7948183399022506e+00 2.8653535099375834e+01 0 0 0
2122 1 5.2301381031144990e-02 3.8476549760501850e+00 2.9449342358257486e+01 0 -3 -1
4382 1 9.3091185194314399e+00 6.9053680871732475e+00 2.5613876260023101e+01 2 4 0
3468 1 9.3805096463446986e+00 6.8137681210457171e+00 2.8508125765489542e+01 2 2 0
4458 1 2.4348547738422655e+00 2.9315047324224528e+00 3.2709149891143305e+01 -1 1 0
1076 1 2.3743740866788485e+00 1.0994507316792424e+01 2.5390941276400447e+01 1 -1 -1
1966 1 2.4368965200452499e+00 1.0860082705834381e+01 2.8430659371089501e+01 0 0 0
3205 1 6.7839373266254137e+00 1.0794532761218811e+01 2.8754304358670890e+01 2 1 -1
3570 1 6.9290828680399601e+00 1.1363135414226218e+01 2.6016815967103604e+01 -1 1 0
3246 1 1.1632145662222348e+01 8.2433382566560045e+00 2.9539384007789764e+01 -3 1 0
4316 1 1.1232058995039324e+01 1.1012776288625099e+01 2.8846616626525343e+01 0 1 0
4307 1 1.1356829841365133e+01 1.0927694433860124e+01 2.5952048328914969e+01 2 2 0
3168 1 7.0254417318494369e+00 7.9686224162366015e+00 3.2157043731120346e+01 0 0 0
2295 1 1.1134999127250092e+01 1.1264979463154834e+01 3.2808371356602564e+01 0 2 0
1107 1 1.9417953105598151e-01 1.2206084049482389e+01 2.9464360411641117e+01 -1 -4 0
4388 1 9.6147324912281267e+00 6.9806107426077482e+00 3.2798172357420356e+01 1 -1 0
3502 1 1.1566079370848938e+01 5.2046881460271655e+00 2.5491829446799478e+01 -2 1 1
4430 1 1.9210872631715964e-01 3.9903218415429942e+00 3.2462773502181406e+01 4 3 0
872 1 7.1766575025865960e+00 8.1570780724161196e+00 2.9328099763681085e+01 1 2 0
937 1 4.9531440763389584e-01 6.7626367059286192e+00 3.2332934949501379e+01 2 1 0
2000 1 2.7668235424284484e+00 1.0304981142360031e+01 3.2953069015142717e+01 0 1 0
3283 1 7.0560522133123005e+00 1.0705062556662094e+01 3.2462242583279767e+01 -1 -3 0
4422 1 2.5944866553661754e+00 7.9967904310062377e+00 2.9096627611198368e+01 -3 2 0
2426 1 2.6403833417125711e-01 6.5947750601567714e+00 2.8943080936410716e+01 2 0 0
891 1 4.9143664195466057e+00 6.7010041921502497e+00 3.2776560519187910e+01 1 2 0
3376 1 4.9094921341888949e+00 4.2628782583089322e+00 2.9436068116534756e+01 1 1 -1
961 1 4.7180158181174576e+00 4.1495571332185728e+00 3.2286623269536861e+01 -1 1 -1
122 1 9.1926454153575285e+00 4.3689350083631542e+00 3.2071738274064423e+01 -2 -1 0
4427 1 9.3491192689364198e+00 4.0750170910481067e+00 2.9345456779180967e+01 0 0 0
3166 1 7.0066459561558370e+00 2.8455575976776983e+00 3.2938873320328767e+01 0 0 -1
3359 1 1.1711840361933733e+01 8.4799261588345214e+00 3.2348685813151143e+01 0 0 0
934 1 4.7570944090456146e+00 1.2007464780898616e+01 3.2324810926072331e+01 -1 0 0
2317 1 2.1512065748039353e+00 1.5382280092750386e-01 3.2400352207946284e+01 0 0 0
2305 1 6.6420943506490007e+00 1.4551596048949467e-01 2.9614424875892979e+01 0 0 0
4282 1 6.5187579904390747e+00 1.7951034032485949e-01 3.2271176589303408e+01 0 -1 -1
3409 1 1.1208029245184605e+01 3.1645181868930350e-01 3.2187086163751815e+01 0 -1 0
2100 1 1.1572570451413096e+01 2.9256416900060751e+00 3.2774321227290031e+01 3 -2 0
3473 1 9.2154219275275597e+00 9.7617908764957910e+00 2.5158462567821793e+01 1 0 0
4293 1 5.8586266646276952e-01 1.2050944353122638e+01 3.2182012160406416e+01 1 0 -1
883 1 9.2778434001420731e+00 1.4538029895460121e+00 2.5312499455066209e+01 -2 -1 0
4435 1 1.0837752654193729e-01 1.6895012138505658e+00 2.5130746311539845e+01 1 2 0
4535 1 4.8682897464666706e+00 9.6452694240811852e+00 2.5376884537504033e+01 3 5 -1
188 2 0.0000000000000000e+00 1.2787731112280996e+01 2.8997097549634816e+00 0 0 0
190 2 1.2305000000000001e+00 1.3498160618518829e+01 2.8997097549634816e+00 0 0 0
225 2 2.4610000000000003e+00 1.2787731112280996e+01 2.8997097549634816e+00 0 0 0
227 2 3.6915000000000004e+00 1.3498160618518829e+01 2.8997097549634816e+00 0 0 0
186 2 0.0000000000000000e+00 1.5629449137232333e+01 2.8997097549634816e+00 0 0 0
221 2 1.2305000000000001e+00 1.4919019630994494e+01 2.8997097549634816e+00 0 0 0
223 2 2.4610000000000003e+00 1.5629449137232328e+01 2.8997097549634816e+00 0 0 0
266 2 3.6915000000000004e+00 1.4919019630994494e+01 2.8997097549634816e+00 0 0 0
270 2 4.9220000000000006e+00 1.2787731112280996e+01 2.8997097549634816e+00 0 0 0
272 2 6.1524999999999990e+00 1.3498160618518829e+01 2.8997097549634816e+00 0 0 0
317 2 7.3829999999999991e+00 1.2787731112280996e+01 2.8997097549634816e+00 0 0 0
268 2 4.9220000000000006e+00 1.5629449137232333e+01 2.8997097549634816e+00 0 0 0
313 2 6.1524999999999990e+00 1.4919019630994494e+01 2.8997097549634816e+00 0 0 0
315 2 7.3829999999999991e+00 1.5629449137232333e+01 2.8997097549634816e+00 0 0 0
319 2 8.6135000000000002e+00 1.3498160618518835e+01 2.8997097549634816e+00 0 0 0
364 2 9.8440000000000012e+00 1.2787731112280996e+01 2.8997097549634816e+00 0 0 0
366 2 1.1074500000000002e+01 1.3498160618518829e+01 2.8997097549634816e+00 0 0 0
360 2 8.6135000000000002e+00 1.4919019630994494e+01 2.8997097549634816e+00 0 0 0
362 2 9.8440000000000012e+00 1.5629449137232328e+01 2.8997097549634816e+00 0 0 0
402 2 1.1074500000000002e+01 1.4919019630994494e+01 2.8997097549634816e+00 0 0 0
217 2 0.0000000000000000e+00 1.7050308149707998e+01 2.8997097549634816e+00 0 0 0
262 2 2.4610000000000003e+00 1.7050308149707998e+01 2.8997097549634816e+00 0 0 0
215 2 0.0000000000000000e+00 1.9892026174659328e+01 2.8997097549634816e+00 0 0 0
219 2 1.2305000000000001e+00 1.7760737655945832e+01 2.8997097549634816e+00 0 0 0
258 2 1.2305000000000001e+00 1.9181596668421495e+01 2.8997097549634816e+00 0 0 0
260 2 2.4610000000000003e+00 1.9892026174659328e+01 2.8997097549634816e+00 0 0 0
264 2 3.6914999999999996e+00 1.7760737655945832e+01 2.8997097549634816e+00 0 0 0
305 2 3.6914999999999996e+00 1.9181596668421495e+01 2.8997097549634816e+00 0 0 0
309 2 4.9220000000000006e+00 1.7050308149707998e+01 2.8997097549634816e+00 0 0 0
356 2 7.3830000000000009e+00 1.7050308149707998e+01 2.8997097549634816e+00 0 0 0
307 2 4.9220000000000006e+00 1.9892026174659328e+01 2.8997097549634816e+00 0 0 0
311 2 6.1524999999999999e+00 1.7760737655945832e+01 2.8997097549634816e+00 0 0 0
352 2 6.1524999999999999e+00 1.9181596668421495e+01 2.8997097549634816e+00 0 0 0
354 2 7.3829999999999991e+00 1.9892026174659328e+01 2.8997097549634816e+00 0 0 0
398 2 9.8440000000000012e+00 1.7050308149707998e+01 2.8997097549634816e+00 0 0 0
432 2 1.2304999999999998e+01 1.7050308149707998e+01 2.8997097549634816e+00 0 0 0
358 2 8.6134999999999984e+00 1.7760737655945832e+01 2.8997097549634816e+00 0 0 0
394 2 8.6135000000000002e+00 1.9181596668421495e+01 2.8997097549634816e+00 0 0 0
396 2 9.8440000000000012e+00 1.9892026174659335e+01 2.8997097549634816e+00 0 0 0
400 2 1.1074500000000002e+01 1.7760737655945835e+01 2.8997097549634816e+00 0 0 0
428 2 1.1074500000000002e+01 1.9181596668421495e+01 2.8997097549634816e+00 0 0 0
252 2 0.0000000000000000e+00 2.4154603212086325e+01 2.8997097549634816e+00 0 0 0
254 2 0.0000000000000000e+00 2.1312885187134999e+01 2.8997097549634816e+00 0 0 0
256 2 1.2304999999999993e+00 2.2023314693372832e+01 2.8997097549634816e+00 0 0 0
297 2 1.2304999999999993e+00 2.3444173705848499e+01 2.8997097549634816e+00 0 0 0
299 2 2.4610000000000003e+00 2.4154603212086325e+01 2.8997097549634816e+00 0 0 0
301 2 2.4610000000000003e+00 2.1312885187134995e+01 2.8997097549634816e+00 0 0 0
303 2 3.6914999999999996e+00 2.2023314693372832e+01 2.8997097549634816e+00 0 0 0
344 2 3.6915000000000004e+00 2.3444173705848499e+01 2.8997097549634816e+00 0 0 0
346 2 4.9220000000000006e+00 2.4154603212086325e+01 2.8997097549634816e+00 0 0 0
348 2 4.9220000000000006e+00 2.1312885187134995e+01 2.8997097549634816e+00 0 0 0
350 2 6.1524999999999990e+00 2.2023314693372832e+01 2.8997097549634816e+00 0 0 0
386 2 6.1524999999999999e+00 2.3444173705848499e+01 2.8997097549634816e+00 0 0 0
388 2 7.3830000000000009e+00 2.4154603212086336e+01 2.8997097549634816e+00 0 0 0
390 2 7.3829999999999991e+00 2.1312885187134999e+01 2.8997097549634816e+00 0 0 0