LAMMPS data file via write_data, version 16 Mar 2018, timestep = 100000

6768 atoms
2 atom types

0.0000000000000000e+00 4.9219999999999999e+01 xlo xhi
0.0000000000000000e+00 4.9019635930410494e+01 ylo yhi
-2.4412184118758518e-01 6.0306121841186652e+01 zlo zhi

Masses

1 18.015
2 12.01

Atoms # atomic

4950 1 7.6180387074223244e-01 1.3774156577889665e+01 3.5930733620575817e+00 0 1 1
210 1 1.1388361056270300e+01 1.5918715067963221e+01 7.2593271856571437e+00 0 0 0
3667 1 6.2614361140549883e+00 1.5912176495790045e+00 2.3855172188824083e+00 0 1 0
6711 1 8.7226794243138031e+00 9.9714462799601755e-01 1.5227012887376943e+00 2 -1 1
4862 1 1.1132223403190759e+01 3.0718808531564967e+00 3.0732587187417497e+00 1 0 0
5455 1 4.8112257133705709e+00 5.8401376174980300e+00 2.5865127387388038e+00 0 2 1
4724 1 2.2215536299785388e+00 2.9229732268893822e+00 3.8390184870939448e-01 1 1 1
500 1 6.6439257945779930e+00 4.6069873013079556e+00 9.8060023722591194e-01 -1 1 0
6715 1 7.0591766857622407e+00 6.8173808806443486e+00 3.7535281053126828e+00 0 0 1
94 1 1.1047223180979936e+01 4.6790687929457730e+00 5.1374047662185927e+00 0 0 0
5481 1 1.0542572875285153e+01 6.8515914564365552e+00 1.3772473000894905e+00 0 -1 0
3465 1 4.1937099149808441e+00 8.6722461639305415e+00 2.8915572475592204e+00 2 1 0
5585 1 2.0441675533029811e+00 1.3653178609652242e+01 6.4427871250948143e-01 2 -2 1
6550 1 8.4494742987628477e+00 8.1725842331595260e+00 1.7367728063753065e+00 0 -1 1
1323 1 5.4819282256414530e+00 1.1026622533175825e+01 2.7995213590344319e+00 1 0 1
1875 1 8.3794681575896082e+00 1.0617937913220334e+01 2.2289307587785108e+00 1 0 0
3184 1 9.9012842022565017e+00 2.0459128494556712e+01 9.2036644700565464e+00 0 -1 1
5584 1 6.0588526029144445e+00 2.2934082367887473e+01 8.9343652132412221e-01 2 0 1
578 1 9.0885074137144739e-01 1.0711805502486284e+01 5.7138220543445808e+00 0 -1 1
4720 1 2.2869847605002520e+00 1.3925298705603335e+01 1.1006757471294048e+01 2 0 1
252 1 3.8527948512780288e+00 1.5152966667892287e+01 1.8852187361395529e+00 0 0 0
3254 1 1.0053329596283721e+01 2.2474579028396679e+01 1.0958052825876997e+01 0 0 1
437 1 1.0889067695224313e+01 1.4031796133626502e+01 2.5848654700601741e+00 1 -1 0
2281 1 5.7495458657194369e+00 1.2161918257621440e-01 9.7201384865094553e+00 1 1 1
3287 1 4.6913240864988088e+00 1.9796546318718104e+01 2.7115739585706562e+00 0 1 0
5259 1 1.1565959387869841e+01 4.8977222996752712e+00 8.0851592642911445e+00 1 0 1
5279 1 8.0268125975365177e+00 1.7120107481301964e+01 1.4488871179462806e+00 -1 2 1
1633 1 7.4201870041332896e+00 1.9719199048871452e+01 2.0156232168203370e+00 0 -1 0
1939 1 2.7897774937734394e+00 7.1728513570785402e-01 9.7714036135530264e+00 0 0 0
3860 1 8.7714558387434973e+00 1.5436137767813655e+01 3.4339901902772860e+00 1 0 0
1505 1 1.1812422576318825e+01 2.2477817003302633e+01 3.4129153212336831e+00 1 1 1
4830 1 5.8510626638884409e+00 2.3883981412036412e+01 8.2128579533418158e+00 1 1 1
11 1 1.6418462475875251e+00 1.0650594090825106e+01 8.4733771741731339e+00 0 1 0
4945 1 9.2246875868567535e-01 1.8030969399842903e+01 4.6498011271581197e+00 1 2 1
1561 1 6.8526747549855294e-01 1.8797419396874592e+01 7.1123917145392967e+00 1 0 1
3529 1 7.0599646211734282e+00 6.8568138282330455e+00 1.0749061330004002e+01 0 0 0
6674 1 1.0299815033197264e+01 2.4343651213896127e+01 1.8703616640750953e+00 1 0 0
3936 1 7.9504597351307451e+00 2.2946495121094681e+01 3.1576809700904325e+00 0 -1 1
3524 1 2.1459779390081373e+00 1.5684403611143296e+00 2.9324124476810778e+00 1 0 0
228 1 3.9719285341829811e+00 4.2206440345164884e+00 4.8031221117043721e+00 0 1 0
4759 1 1.4614962824859077e+00 2.8028599029379757e+00 5.3373654137758511e+00 0 1 1
1903 1 7.0134970274355313e+00 1.7774336164988411e+00 8.2273480603390450e+00 0 0 0
1508 1 6.5071907255565291e+00 2.6470896579097003e+00 4.7524131599577997e+00 0 1 1
3751 1 1.0085163270555448e+01 1.9694327103743559e+00 6.7052851103739739e+00 1 0 0
2107 1 1.0680256632316258e+01 2.5885777339725822e+00 9.5715061214971175e+00 1 1 0
2170 1 1.9323996524600995e+00 5.7629321764873387e+00 1.2015339530288560e+00 0 1 0
5073 1 3.8310250719299135e+00 4.9556345652472231e+00 7.2706785655759383e+00 1 0 1
2111 1 3.5334374985572765e+00 7.5526293374364677e+00 6.8124493531732382e+00 0 1 0
439 1 8.0816412709383165e+00 4.9259820632480515e+00 5.0681889419213793e+00 1 1 1
4867 1 6.0737000753554629e+00 4.2860773794277565e+00 8.4377508961557020e+00 0 -1 1
211 1 6.1120168057327602e+00 8.3368500227087345e+00 5.8345123664637510e+00 0 0 0
1500 1 8.8357145775417170e+00 1.2295316458989690e+01 1.2465893597881755e-01 2 0 0
51 1 1.1773103251932461e+01 9.4176878832091386e+00 4.6602818156728096e+00 1 2 0
5317 1 4.0080845253321478e+00 1.1707942062731993e+01 7.2198896130912518e+00 0 0 0
503 1 2.2226268091255958e+00 8.6061006493201244e+00 4.6779579764744641e+00 0 0 0
5363 1 6.0541145048923850e+00 1.1036396756920610e+01 5.6508983746617343e+00 0 1 0
3136 1 1.2079946526075929e+01 1.9480862151439567e+01 -1.0910962326287910e-03 -1 0 0
4006 1 1.0253529215793369e+01 1.1616400375031272e+01 3.9091051396839287e+00 0 1 1
1941 1 1.0040560972298394e+01 7.0716441731254749e+00 8.3399858890983687e+00 1 0 0
2188 1 1.1464029972963855e+01 9.2181522729804897e+00 7.2864530460737669e+00 1 0 0
2005 1 1.1746737516421387e+01 6.8756132026067380e+00 3.7811033321027665e+00 0 0 0
5141 1 3.1687681854641840e+00 1.3453466610204147e+01 5.0494719778147532e+00 0 0 0
5375 1 3.4444553415131196e+00 1.5192039721418336e+01 7.0879016513495792e+00 0 0 0
3822 1 5.3670030957030788e+00 1.3833574285041374e+01 3.4531629591849411e+00 0 0 0
1376 1 8.5070743855446054e+00 1.1793136702844409e+01 6.0905560555379568e+00 2 0 1
4911 1 6.7548439365330051e+00 1.5406832313456521e+01 5.3240915317480368e+00 1 -1 0
4983 1 1.1795935269200969e+01 1.8740442711659181e+01 1.0476251251135791e+01 0 0 1
1814 1 3.1014671477420772e+00 8.2556490624393835e+00 5.5672111340257779e-01 1 2 0
2150 1 9.5045403984977739e+00 1.4842941245052016e+01 9.0236821194760406e+00 2 0 0
5192 1 3.2083445592543125e+00 1.7667970909171519e+01 3.2973761452736099e+00 2 0 0
4721 1 4.7023861967837597e+00 1.7414946729598455e+01 5.8776792582087918e+00 1 0 1
3280 1 6.7748976622076826e+00 1.9353102864527056e+01 6.4154552893206533e+00 0 0 1
5469 1 8.9132138994471468e+00 1.9621089511461999e+01 4.5400018633286132e+00 1 -1 0
405 1 1.0240642159743452e+01 1.7197907364450895e+01 5.0111492995431739e+00 -1 -1 0
3773 1 1.0227235305378169e+01 2.1731033277899435e+01 5.6183148580427220e+00 2 0 0
233 1 1.4810586465087630e+00 2.2366134615655685e+01 5.0881126586203749e+00 -1 0 0
3902 1 1.4549506934132661e+00 2.1395150671713399e+01 7.6543974770113223e+00 1 0 1
5482 1 4.2032440036320846e+00 2.1312906588566680e+01 8.4179322129798386e+00 1 1 0
2011 1 5.9340935863392685e+00 2.1790608236966683e+01 5.6879553322140008e+00 0 0 0
5350 1 3.9442671852263862e+00 2.2194502232222511e+01 3.8596469317839359e+00 1 0 0
1908 1 3.9546549620145757e+00 1.8405082715782953e+01 8.6565863146273525e+00 0 0 0
1336 1 9.3399255002454531e+00 3.8044531906226378e+00 1.0574437054926857e+00 1 1 1
4886 1 8.3914654854961945e+00 2.3377909035339581e+01 6.4106612311741822e+00 0 -1 1
1919 1 6.1070556192400547e+00 1.5850837954042882e+01 1.1556149588818804e-01 1 -1 0
1589 1 9.9154840997986837e-01 1.2817213606247915e+00 7.4780721580427478e+00 1 -1 0
6607 1 7.0903587500686358e+00 2.0240008465666001e+01 9.0308489844300404e+00 2 0 1
121 1 6.1585016641071437e+00 4.1166449959876976e+00 1.1258273595747966e+01 0 1 0
194 1 8.2575084623429884e+00 2.0866356718301398e+00 1.1058562069656761e+01 1 0 0
3375 1 8.4806213813185067e+00 2.4482384172661533e+01 9.0941234720057107e+00 0 1 1
589 1 2.1986545906016537e+00 1.8176348620504882e+01 4.1028098914487066e-01 1 0 1
5555 1 1.7083482796479430e+00 4.8722461213519512e+00 9.5240642728737495e+00 0 0 0
3864 1 3.3647531217952977e+00 7.6016425439573103e+00 1.1322039232440686e+01 -1 1 0
4016 1 9.5591137837187965e+00 8.0009383353991677e+00 1.1105810781937389e+01 1 0 1
1738 1 3.3336787446793519e+00 2.2363617791732011e+01 1.1331517306478753e+01 0 1 1
5663 1 1.6850548898339737e+00 7.8999964495216695e+00 8.8144051496442088e+00 -1 1 1
3779 1 3.1665573342053017e+00 1.0860472097633457e+01 1.0973301407171487e+01 0 0 0
2248 1 4.7773450656940168e+00 2.8173306256913078e+00 -1.5294156423625949e-01 0 1 1
1456 1 3.4245852446586866e+00 3.2851687468650459e+00 1.0944658026270989e+01 1 1 1
5668 1 7.4347820545459449e+00 6.7722195850770124e+00 7.6209566136371460e+00 0 0 1
3205 1 5.2913855783975015e+00 8.5777301295623172e+00 9.5345430623793046e+00 -1 2 1
3134 1 6.5537173379359928e+00 1.0906002592617366e+01 9.7906762543929506e+00 0 0 1
4727 1 1.0141207136942009e+01 1.1772881864873169e+01 8.1794432798122543e+00 1 0 1
330 1 9.1785636308432696e+00 1.0844767416559293e+01 1.0593086485689497e+01 0 0 0
249 1 1.2706225431511660e+00 1.6275601787857788e+01 8.4313583605696554e+00 2 0 0
2153 1 6.4990070756778078e+00 1.7648220680017555e+01 9.7974104760100822e+00 1 -1 0
3365 1 6.7687146008269492e+00 1.5205475334721569e+01 8.1986504975747643e+00 -2 1 0
284 1 5.0118125416991575e+00 1.3408513104961935e+01 9.3376113394434377e+00 1 0 0
5643 1 9.7885314957624434e+00 1.6667945845648813e+01 1.0927720129875718e+01 0 0 1
3694 1 2.6273848242355617e+00 1.6794724881749424e+01 1.0814316399519294e+01 2 0 0
5403 1 3.5945639674180665e+00 2.4176997160265582e+01 1.8491885108285349e+00 2 0 0
5518 1 4.1534558240958432e+00 1.1751603922574903e+01 1.8143779555397055e-01 0 0 0
1366 1 5.3894286416774551e-01 9.3684141843725506e+00 -1.9855181759906787e-01 -1 0 1
5235 1 2.0663000712732060e-01 2.0341024616507486e+01 3.8133142542035401e+00 1 1 0
2236 1 1.6305765459799852e+00 2.2556349827074879e+01 -1.0159871110564281e-01 -1 -1 1
1833 1 1.1974340022620742e+01 8.3971225402583709e+00 -1.9331353363518686e-01 0 1 0
4780 1 3.6263280603572272e+00 2.0479565220445032e+01 4.8147905207534547e-01 0 0 1
3835 1 9.1786588664657263e+00 2.0690308621546851e+01 3.3144649060111164e-01 0 0 1
422 1 1.2237871333525801e+01 1.1328551587235456e+01 1.1053683786726083e+01 1 0 0
6590 1 6.6688510174538906e-01 2.2685588105555354e+01 1.1511541095742240e+01 1 -1 0
155 1 1.1982036148436544e+01 6.6174050609780183e-02 7.2277307886830515e+00 0 1 0
1761 1 7.2629131159917826e-01 6.5819089228656411e+00 3.4836365425962263e+00 0 0 0
1537 1 8.0106834960707012e+00 3.0268392175186953e-01 5.7084978313055155e+00 0 -1 1
6540 1 1.7319078507218071e+00 2.9415276341678784e+00 1.3053315579188414e+01 1 1 0
3216 1 3.5381056236705937e+00 4.4444332612655053e+00 1.4433137794349387e+01 0 1 1
1974 1 1.0354258899740298e+01 1.6400493616523118e+01 2.3622498279200549e+01 0 1 0
1894 1 9.4342993375652782e+00 2.2506093959394420e+00 1.5568481386484649e+01 1 0 0
145 1 1.0372069854524726e+00 8.1648333026878070e+00 1.2922272102323159e+01 0 1 0
6373 1 1.2809516176646425e+00 5.7364804912764611e-01 1.4488384237185400e+01 2 2 0
4981 1 3.6697864221579399e+00 3.4451353609951498e+00 2.2740152712557425e+01 1 0 1
5651 1 7.2277218122032565e+00 4.6012715007691307e+00 1.3804846107313557e+01 0 0 0
5537 1 9.7719807584994722e+00 3.6952960203044309e+00 1.3040334012860745e+01 1 1 1
6661 1 4.9170946468477723e+00 6.6091606828449816e+00 1.3327308685077025e+01 0 -1 1
1406 1 4.6566859442010404e+00 2.3119631496701249e+01 2.1147374874305157e+01 0 0 1
3611 1 1.4289662321674574e+00 1.4594589368187033e-01 2.2691364051348984e+01 1 1 0
2277 1 3.9372734914133307e+00 2.3791511869163664e+01 2.3730564235286181e+01 1 1 1
1872 1 7.4407409526500050e+00 2.3759623489347774e+01 2.0951905217797368e+01 1 0 0
5593 1 5.1617844796730541e+00 1.2458212453335419e+01 1.2367564834845913e+01 0 0 1
5527 1 8.3348012525411530e+00 9.0768924904233295e+00 1.3936009858880718e+01 2 1 0
2239 1 6.0717228251783215e+00 1.0600795353729156e+01 1.4475929968341921e+01 0 0 0
3455 1 9.6792368836028295e+00 1.1260145211455420e+01 1.4891179010880016e+01 -1 2 0
424 1 1.1128798442110654e+01 9.9695768534210920e+00 2.3835145197840014e+01 0 0 0
1818 1 6.8796308850105348e-01 4.8882528459567558e+00 2.1014851866818628e+01 0 0 0
1757 1 1.7146950454535987e+00 1.2364665987040016e+01 1.3452118434996128e+01 0 0 0
4922 1 1.9974936152016332e+00 1.3512695215544715e+01 1.6202889963798704e+01 0 0 1
5472 1 9.1204294346366144e+00 1.2630289937717043e+01 1.2758973715564794e+01 0 1 0
3657 1 7.1585885935110989e+00 1.4102290807992151e+01 1.3070316186917081e+01 1 0 0
3585 1 9.9459647982024304e+00 1.5084605532012654e+01 1.5499872483101857e+01 -1 0 0
1494 1 1.1180236543598022e+01 6.4728816115995027e+00 1.5329485140057594e+01 0 1 1
5428 1 1.3727019499128486e+00 1.8223526480533803e+01 1.5106935890766923e+01 0 1 0
323 1 3.5919922702710934e+00 1.2115912925658530e+00 1.6172227801389813e+01 1 2 0
3392 1 4.6669229071187814e+00 1.7975373979815334e+01 1.2585148265048197e+01 1 0 1
5503 1 3.9138681025576250e+00 1.7287896640045155e+01 1.5321518962306135e+01 2 0 0
6670 1 3.4961530860913435e+00 1.2074666019061013e+01 2.3432088960433322e+01 2 -1 1
3637 1 7.7069461718494372e+00 2.4403383184505262e+01 1.2145275940658266e+01 1 -1 0
3140 1 7.1275054010611214e+00 2.2667752283293840e+01 1.6005867503208602e+01 1 2 1
6357 1 1.1673668781160560e+01 1.7968544107867039e+01 1.4435769920185058e+01 0 1 1
454 1 1.5358373494103852e-01 2.8736620551283547e+00 1.9278232556087936e+01 0 1 0
3737 1 1.4039089026803120e+00 2.1196652860428056e+01 1.4958808032060221e+01 0 1 0
1902 1 1.2177638195993227e+01 1.1975572346259964e+01 1.7297972334478818e+01 1 1 1
403 1 6.7490858456236342e+00 1.2593656141214915e+01 2.3930234472139837e+01 2 1 0
5089 1 3.4988442749734150e-01 1.7872833359208361e+01 1.9932685280519927e+01 1 1 1
3139 1 5.3426313432720711e+00 1.9733597556949189e+01 1.6533585578475329e+01 0 0 1
468 1 7.8663610601934444e+00 2.1663720918500882e+01 1.2717458464750836e+01 1 0 0
3951 1 1.1853353028121698e+00 3.8669802710482477e+00 2.3456533554716405e+01 0 1 1
1936 1 1.2145335379319798e+01 2.2812850754036635e+01 1.2798687159714234e+01 1 0 0
2124 1 1.1578902625244499e+01 1.2558594014517221e+01 2.3908924552223674e+01 1 2 0
1917 1 2.6495889164597686e+00 4.6554401714439866e+00 1.7068837048893283e+01 1 1 0
3051 1 6.0310230385276320e+00 2.8553480888542184e+00 1.5594116060819948e+01 0 1 1
1636 1 5.9425518221749636e+00 4.1036164737362171e+00 1.8279077544139419e+01 1 1 1
3541 1 9.0505671032016348e+00 4.1243198607237135e+00 1.7862737454962126e+01 2 0 0
3434 1 1.0865130538423951e+01 4.2126275882373893e-01 1.6582611756896718e+01 2 0 1
1873 1 4.3448410570665965e+00 8.1733775508928819e+00 1.5424719266048101e+01 0 0 0
4883 1 1.8270358291763329e+00 7.3306664815219067e+00 1.5411815316999569e+01 1 0 1
3606 1 3.8576205854346854e+00 7.4756269086240410e+00 2.0515238275905460e+01 1 1 0
487 1 7.9566341251511119e+00 7.1952867811598429e+00 1.8104582079257550e+01 -1 0 1
5298 1 5.3417110272789747e+00 7.2019732657420947e+00 1.7911648542929655e+01 1 -1 0
227 1 8.4596210777470056e+00 6.8620887983231329e+00 1.5432534066829763e+01 0 0 0
5534 1 9.1951398993099687e-01 1.0025564863637783e+01 1.8446269983132186e+01 1 1 0
5309 1 2.9185812910203150e+00 1.0944652469732951e+01 1.6855508731506035e+01 -2 1 0
2300 1 4.7276811571428032e+00 1.1846157779374531e+01 1.8579314370097826e+01 0 1 1
5649 1 7.1092173632991891e+00 1.1602765248246543e+01 1.6860183238007988e+01 1 2 1
1535 1 1.1423844473690441e+01 2.3356945321999330e+01 2.0177248985717419e+01 2 -1 1
456 1 1.1608867928603479e+01 2.2637313564807613e+01 1.5734121164819113e+01 0 -1 0
2119 1 4.0907223508524329e+00 5.6242682719344406e-01 2.3357260532069770e+01 0 1 0
528 1 8.4389508578926868e+00 9.9477856088835228e+00 1.8909044727914406e+01 0 1 0
3798 1 6.6095594734753105e+00 1.4428602755132957e+01 2.1604250684085176e+01 0 1 1
1709 1 4.9784550602445092e+00 1.7132681065470706e+01 1.8513914690233420e+01 1 0 1
2213 1 3.7857526190156360e-01 1.7581179067184483e+01 1.2248687515750470e+01 1 0 1
5377 1 4.5866074981448817e+00 1.4713851493088093e+01 1.6780657509685717e+01 1 0 0
2335 1 7.8155224224500781e+00 1.7214905973357027e+01 1.6183022320227014e+01 0 -1 1
3620 1 6.8566396959144811e+00 1.4094691908510608e+01 1.5666020999393254e+01 1 1 0
533 1 1.0839443838080678e+01 1.4915333021446575e+01 1.2811178845546896e+01 0 0 1
3131 1 9.5144250503869383e+00 1.3121723869785308e+01 1.7601066078582974e+01 0 1 1
3027 1 8.2660353655041625e+00 9.0285995078061294e+00 2.3953841356604475e+01 1 2 1
6474 1 5.0089174953398929e+00 2.0712726188423336e+01 1.2940435922297430e+01 0 1 0
577 1 7.5139384113744514e+00 1.7234808362902633e+01 1.9002489733956295e+01 0 0 1
6430 1 8.3175339951346636e+00 1.9945623492404660e+01 1.5788902263698347e+01 0 1 1
6415 1 1.1799420537986379e+01 4.4493212939518809e+00 1.6800790244428605e+01 0 0 1
3742 1 2.4740697335190118e+00 1.9458634641629967e+01 1.9260758248112115e+01 2 0 0
554 1 2.2905511949147583e+00 2.2186916226070771e+01 1.8146993627193961e+01 0 0 1
2202 1 3.8197434259798637e+00 2.2076759132686472e+01 1.5614380503734193e+01 0 0 0
337 1 5.6523828766840705e+00 2.0208334998806560e+01 2.0820096266425910e+01 -1 1 0
5224 1 9.3854290082266942e+00 2.4089446921139832e+01 1.6264315270347286e+01 -1 0 0
5564 1 1.0885376479292209e+01 2.0178651165803903e+01 1.6779089131886892e+01 0 -1 0
5408 1 1.0370390444003350e+01 2.0972409400875939e+01 1.9404406733937378e+01 2 1 0
2228 1 1.1424643447131499e+01 6.1463359439728160e+00 1.2686341825128405e+01 0 0 1
1320 1 3.4913226260256498e+00 4.6928071977935710e+00 1.9975150311603230e+01 1 0 1
1450 1 3.0572272692274036e+00 1.6467845216177288e+00 1.9093253923948211e+01 2 1 1
2257 1 7.1249222472440419e+00 2.5275539013626358e+00 2.0480848394973034e+01 1 1 0
357 1 1.0001203505954621e+01 3.0659387221707290e+00 2.0139665167060581e+01 1 -1 0
1673 1 7.3929356584310888e+00 4.6238355688206756e-01 1.4744256077294196e+01 1 1 0
495 1 7.1892313248662774e+00 2.1845060882139009e+01 1.8812335683147026e+01 -1 0 1
30 1 4.2500823017878897e+00 7.3787557906460748e+00 2.3403173330967707e+01 1 1 0
3409 1 1.1090914827036915e+01 2.4138046630002048e+01 2.3034788305242834e+01 0 0 0
3638 1 1.1224054072178424e+01 9.7310297139177120e+00 1.8646190717986389e+01 2 -1 0
5338 1 5.5719479752644414e+00 9.9314512606903520e+00 2.0405742238422754e+01 1 2 0
5365 1 8.3551737867469029e+00 1.1053890016367534e+01 2.1542259241606914e+01 1 0 0
3887 1 1.2206614746036607e+01 1.6425217249711153e+01 1.6715383496385808e+01 0 2 0
1655 1 8.7569323200115026e+00 6.3888416457776227e+00 2.3183886199710390e+01 0 1 1
5613 1 9.3164123035373887e+00 6.4601024195281251e+00 2.0540098881155412e+01 0 -1 1
6738 1 6.3067488606698960e+00 1.6652859188923536e+01 2.2995233375905940e+01 0 1 0
257 1 1.5926807329796624e+00 8.4421513548604050e+00 2.3571195775913235e+01 0 0 0
171 1 1.3389865213317933e+00 7.9395341028357018e+00 2.0656388643375543e+01 0 0 0
613 1 4.5176958248259087e+00 1.4462376963147159e+01 2.0091468250004354e+01 -2 0 1
3210 1 7.5323133664578368e+00 3.8047604682476339e+00 2.2835696168322283e+01 1 1 0
381 1 8.5082078790100812e+00 2.3389796563113663e+01 2.3588579040264527e+01 1 0 0
5445 1 8.3564491086000920e+00 1.9225266642541662e+01 2.0400318199396924e+01 0 1 1
3040 1 1.1660968460917729e+01 1.3457293213607522e+00 1.8928974777681642e+01 0 2 1
3292 1 2.1225450581360619e+00 1.3648673778198477e+01 2.1250800755988706e+01 0 0 0
3265 1 5.2141907404343835e+00 4.5962736903379520e-01 2.0561361591566083e+01 0 0 1
4710 1 8.5050273248932218e+00 1.8568903644509675e+01 2.3184257285485977e+01 1 0 1
3419 1 8.6657682260090780e+00 1.4980706957797308e+01 1.9705899959263526e+01 1 2 0
5316 1 1.0825249683893565e+01 1.5565070222692993e+01 2.1067390009537831e+01 1 1 0
5524 1 7.8370434372423237e-01 1.5759793577986514e+01 2.2124373323839745e+01 2 1 0
1506 1 2.8810783358597334e+00 1.7151821089874868e+01 2.3464381830209451e+01 0 1 1
5652 1 1.0845257299072330e+01 1.2213019099161139e+01 2.0793180643358287e+01 0 0 1
3879 1 2.2061340315577875e+00 2.1337990447310826e+01 2.1445381515639628e+01 1 1 1
5397 1 4.1167718207931738e+00 1.7906761125519893e+01 2.1000769203670124e+01 1 1 0
4901 1 5.4960088785709988e+00 9.8469555631433447e+00 2.3364695478822398e+01 1 1 0
3807 1 9.4221120591468175e+00 1.9228132983226157e+01 1.3310209304533766e+01 1 -2 0
1949 1 1.0182155778996151e+01 2.5538080125166900e+00 2.2804105426807286e+01 0 1 0
4956 1 7.4448694324265148e+00 1.7152437337744583e+01 1.2720379760251079e+01 1 0 1
3334 1 3.7130427228496649e-01 1.2557737350407383e+01 1.9665626200776540e+01 1 0 1
2306 1 2.4740812107715513e+00 1.9988308893574505e+01 2.3769401005754837e+01 1 0 1
13 1 1.5037991928745928e-01 3.8165872005124193e+00 1.6856606952423483e+01 0 1 0
3174 1 1.2219080434204274e+01 1.7149010974357886e+01 1.9290963607602166e+01 0 1 1
1647 1 1.2224287943425816e+01 6.6986155469891484e+00 2.0765490729968352e+01 1 1 0
1475 1 8.4912736634465702e+00 5.5545759539818107e-02 2.3468151484419828e+01 0 1 1
229 1 3.5285523739529738e+00 2.4497563562145704e+01 1.8854060406925964e+01 1 0 0
623 2 0.0000000000000000e+00 2.8417180249513345e+00 2.6796760249481110e+01 0 0 0
625 2 0.0000000000000000e+00 0.0000000000000000e+00 2.6796760249481110e+01 0 0 0
627 2 1.2305000000000001e+00 7.1042950623783474e-01 2.6796760249481110e+01 0 0 0
634 2 1.2305000000000001e+00 2.1312885187134998e+00 2.6796760249481110e+01 0 0 0
636 2 2.4610000000000003e+00 2.8417180249513345e+00 2.6796760249481110e+01 0 0 0
638 2 2.4610000000000003e+00 0.0000000000000000e+00 2.6796760249481110e+01 0 0 0
640 2 3.6915000000000004e+00 7.1042950623783474e-01 2.6796760249481110e+01 0 0 0
655 2 3.6914999999999996e+00 2.1312885187134998e+00 2.6796760249481110e+01 0 0 0
1334 1 1.5163350424282882e+00 2.4331576841238622e+01 2.4391636282672216e+01 -2 -1 1
3941 1 9.4494836296344502e+00 1.3869174212539974e+01 2.4402173020931475e+01 0 1 0
657 2 4.9220000000000006e+00 2.8417180249513332e+00 2.6796760249481110e+01 0 0 0
659 2 4.9220000000000006e+00 0.0000000000000000e+00 2.6796760249481110e+01 0 0 0
661 2 6.1524999999999999e+00 7.1042950623783407e-01 2.6796760249481110e+01 0 0 0
684 2 6.1524999999999999e+00 2.1312885187134989e+00 2.6796760249481110e+01 0 0 0
686 2 7.3829999999999991e+00 2.8417180249513345e+00 2.6796760249481110e+01 0 0 0
688 2 7.3829999999999991e+00 0.0000000000000000e+00 2.6796760249481110e+01 0 0 0
690 2 8.6134999999999984e+00 7.1042950623783407e-01 2.6796760249481110e+01 0 0 0
721 2 8.6134999999999984e+00 2.1312885187135002e+00 2.6796760249481110e+01 0 0 0
723 2 9.8440000000000012e+00 2.8417180249513332e+00 2.6796760249481110e+01 0 0 0
725 2 9.8440000000000012e+00 0.0000000000000000e+00 2.6796760249481110e+01 0 0 0
727 2 1.1074500000000002e+01 7.1042950623783330e-01 2.6796760249481110e+01 0 0 0
766 2 1.1074500000000002e+01 2.1312885187135002e+00 2.6796760249481110e+01 0 0 0
628 2 0.0000000000000000e+00 7.1042950623783341e+00 2.6796760249481110e+01 0 0 0
630 2 0.0000000000000000e+00 4.2625770374269996e+00 2.6796760249481110e+01 0 0 0
632 2 1.2305000000000001e+00 4.9730065436648339e+00 2.6796760249481110e+01 0 0 0
647 2 1.2305000000000001e+00 6.3938655561404980e+00 2.6796760249481110e+01 0 0 0
649 2 2.4610000000000003e+00 7.1042950623783341e+00 2.6796760249481110e+01 0 0 0
651 2 2.4610000000000003e+00 4.2625770374269996e+00 2.6796760249481110e+01 0 0 0
653 2 3.6914999999999996e+00 4.9730065436648339e+00 2.6796760249481110e+01 0 0 0
676 2 3.6914999999999996e+00 6.3938655561404980e+00 2.6796760249481110e+01 0 0 0
678 2 4.9220000000000006e+00 7.1042950623783341e+00 2.6796760249481110e+01 0 0 0
680 2 4.9220000000000006e+00 4.2625770374269978e+00 2.6796760249481110e+01 0 0 0
682 2 6.1524999999999999e+00 4.9730065436648339e+00 2.6796760249481110e+01 0 0 0
713 2 6.1524999999999999e+00 6.3938655561404980e+00 2.6796760249481110e+01 0 0 0
715 2 7.3830000000000009e+00 7.1042950623783341e+00 2.6796760249481110e+01 0 0 0
717 2 7.3829999999999991e+00 4.2625770374269996e+00 2.6796760249481110e+01 0 0 0
1095 2 1.1074500000000002e+01 2.2023314693372832e+01 3.3265239750520443e+01 0 0 0
719 2 8.6135000000000002e+00 4.9730065436648339e+00 2.6796760249481110e+01 0 0 0
758 2 8.6135000000000002e+00 6.3938655561404980e+00 2.6796760249481110e+01 0 0 0
760 2 9.8440000000000012e+00 7.1042950623783341e+00 2.6796760249481110e+01 0 0 0
762 2 9.8440000000000012e+00 4.2625770374270004e+00 2.6796760249481110e+01 0 0 0
764 2 1.1074500000000002e+01 4.9730065436648339e+00 2.6796760249481110e+01 0 0 0
805 2 1.1074500000000002e+01 6.3938655561404980e+00 2.6796760249481110e+01 0 0 0
1056 2 4.9220000000000006e+00 2.1312885187134995e+01 3.3265239750520443e+01 0 0 0
641 2 0.0000000000000000e+00 1.1366872099805333e+01 2.6796760249481110e+01 0 0 0
643 2 0.0000000000000000e+00 8.5251540748539991e+00 2.6796760249481110e+01 0 0 0
645 2 1.2305000000000001e+00 9.2355835810918343e+00 2.6796760249481110e+01 0 0 0
668 2 1.2305000000000001e+00 1.0656442593567498e+01 2.6796760249481110e+01 0 0 0
670 2 2.4610000000000003e+00 1.1366872099805333e+01 2.6796760249481110e+01 0 0 0
672 2 2.4610000000000003e+00 8.5251540748539991e+00 2.6796760249481110e+01 0 0 0
674 2 3.6915000000000004e+00 9.2355835810918343e+00 2.6796760249481110e+01 0 0 0
705 2 3.6914999999999996e+00 1.0656442593567499e+01 2.6796760249481110e+01 0 0 0
707 2 4.9220000000000006e+00 1.1366872099805333e+01 2.6796760249481110e+01 0 0 0
709 2 4.9220000000000006e+00 8.5251540748539991e+00 2.6796760249481110e+01 0 0 0
711 2 6.1524999999999999e+00 9.2355835810918343e+00 2.6796760249481110e+01 0 0 0
750 2 6.1524999999999999e+00 1.0656442593567499e+01 2.6796760249481110e+01 0 0 0
752 2 7.3829999999999991e+00 1.1366872099805333e+01 2.6796760249481110e+01 0 0 0
754 2 7.3830000000000009e+00 8.5251540748539991e+00 2.6796760249481110e+01 0 0 0
756 2 8.6134999999999984e+00 9.2355835810918343e+00 2.6796760249481110e+01 0 0 0
797 2 8.6134999999999984e+00 1.0656442593567498e+01 2.6796760249481110e+01 0 0 0
799 2 9.8440000000000012e+00 1.1366872099805333e+01 2.6796760249481110e+01 0 0 0
801 2 9.8440000000000012e+00 8.5251540748539956e+00 2.6796760249481110e+01 0 0 0
803 2 1.1074500000000002e+01 9.2355835810918343e+00 2.6796760249481110e+01 0 0 0
844 2 1.1074500000000002e+01 1.0656442593567498e+01 2.6796760249481110e+01 0 0 0
846 2 1.2304999999999998e+01 1.1366872099805333e+01 2.6796760249481110e+01 0 0 0
662 2 0.0000000000000000e+00 1.5629449137232333e+01 2.6796760249481110e+01 0 0 0
664 2 0.0000000000000000e+00 1.2787731112280996e+01 2.6796760249481110e+01 0 0 0
666 2 1.2305000000000001e+00 1.3498160618518829e+01 2.6796760249481110e+01 0 0 0
697 2 1.2305000000000001e+00 1.4919019630994494e+01 2.6796760249481110e+01 0 0 0
699 2 2.4610000000000003e+00 1.5629449137232328e+01 2.6796760249481110e+01 0 0 0
701 2 2.4610000000000003e+00 1.2787731112280996e+01 2.6796760249481110e+01 0 0 0
703 2 3.6915000000000004e+00 1.3498160618518829e+01 2.6796760249481110e+01 0 0 0
742 2 3.6915000000000004e+00 1.4919019630994494e+01 2.6796760249481110e+01 0 0 0
6524 1 1.0906546662514554e+01 5.0452584555064472e+00 2.4416900897556726e+01 1 1 1
744 2 4.9220000000000006e+00 1.5629449137232333e+01 2.6796760249481110e+01 0 0 0
746 2 4.9220000000000006e+00 1.2787731112280996e+01 2.6796760249481110e+01 0 0 0
748 2 6.1524999999999990e+00 1.3498160618518829e+01 2.6796760249481110e+01 0 0 0
789 2 6.1524999999999990e+00 1.4919019630994494e+01 2.6796760249481110e+01 0 0 0
791 2 7.3829999999999991e+00 1.5629449137232333e+01 2.6796760249481110e+01 0 0 0
793 2 7.3829999999999991e+00 1.2787731112280996e+01 2.6796760249481110e+01 0 0 0
3525 1 4.0366822885917300e+00 1.4634758555074972e+01 2.4306782366510397e+01 1 1 0
1427 1 2.6103541111528408e+00 1.7313818707324138e+01 3.5582685435313536e+01 -1 -1 0
4809 1 4.2638995544240519e+00 1.0533225281769504e+01 3.5517054549285838e+01 0 0 0
795 2 8.6135000000000002e+00 1.3498160618518835e+01 2.6796760249481110e+01 0 0 0
836 2 8.6135000000000002e+00 1.4919019630994494e+01 2.6796760249481110e+01 0 0 0
838 2 9.8440000000000012e+00 1.5629449137232328e+01 2.6796760249481110e+01 0 0 0
840 2 9.8440000000000012e+00 1.2787731112280996e+01 2.6796760249481110e+01 0 0 0
842 2 1.1074500000000002e+01 1.3498160618518829e+01 2.6796760249481110e+01 0 0 0
878 2 1.1074500000000002e+01 1.4919019630994494e+01 2.6796760249481110e+01 0 0 0
691 2 0.0000000000000000e+00 1.9892026174659328e+01 2.6796760249481110e+01 0 0 0
693 2 0.0000000000000000e+00 1.7050308149707998e+01 2.6796760249481110e+01 0 0 0
695 2 1.2305000000000001e+00 1.7760737655945832e+01 2.6796760249481110e+01 0 0 0
734 2 1.2305000000000001e+00 1.9181596668421495e+01 2.6796760249481110e+01 0 0 0
736 2 2.4610000000000003e+00 1.9892026174659328e+01 2.6796760249481110e+01 0 0 0
738 2 2.4610000000000003e+00 1.7050308149707998e+01 2.6796760249481110e+01 0 0 0
740 2 3.6914999999999996e+00 1.7760737655945832e+01 2.6796760249481110e+01 0 0 0
781 2 3.6914999999999996e+00 1.9181596668421495e+01 2.6796760249481110e+01 0 0 0
1057 2 6.1524999999999990e+00 2.2023314693372832e+01 3.3265239750520443e+01 0 0 0
783 2 4.9220000000000006e+00 1.9892026174659328e+01 2.6796760249481110e+01 0 0 0
785 2 4.9220000000000006e+00 1.7050308149707998e+01 2.6796760249481110e+01 0 0 0
787 2 6.1524999999999999e+00 1.7760737655945832e+01 2.6796760249481110e+01 0 0 0
828 2 6.1524999999999999e+00 1.9181596668421495e+01 2.6796760249481110e+01 0 0 0
830 2 7.3829999999999991e+00 1.9892026174659328e+01 2.6796760249481110e+01 0 0 0
832 2 7.3830000000000009e+00 1.7050308149707998e+01 2.6796760249481110e+01 0 0 0
1092 2 8.6134999999999984e+00 2.3444173705848499e+01 3.3265239750520443e+01 0 0 0
834 2 8.6134999999999984e+00 1.7760737655945832e+01 2.6796760249481110e+01 0 0 0
870 2 8.6135000000000002e+00 1.9181596668421495e+01 2.6796760249481110e+01 0 0 0
872 2 9.8440000000000012e+00 1.9892026174659335e+01 2.6796760249481110e+01 0 0 0
874 2 9.8440000000000012e+00 1.7050308149707998e+01 2.6796760249481110e+01 0 0 0
876 2 1.1074500000000002e+01 1.7760737655945835e+01 2.6796760249481110e+01 0 0 0
904 2 1.1074500000000002e+01 1.9181596668421495e+01 2.6796760249481110e+01 0 0 0
908 2 1.2304999999999998e+01 1.7050308149707998e+01 2.6796760249481110e+01 0 0 0
728 2 0.0000000000000000e+00 2.4154603212086325e+01 2.6796760249481110e+01 0 0 0
730 2 0.0000000000000000e+00 2.1312885187134999e+01 2.6796760249481110e+01 0 0 0