
# Create simulation box and atoms

read_data data.graphite_substrate_1000
  orthogonal box = (0 0 -1.03859) to (49.22 49.0196 61.1006)
  4 by 2 by 5 MPI processor grid
  reading atoms ...
  6768 atoms
  reading velocities ...
  6768 velocities
group water type 1
4008 atoms in group water
group graphite type 2
2760 atoms in group graphite

# Define potential

pair_style sw
pair_coeff * * mWC.sw mW C
Reading potential file mWC.sw with DATE: 2019-02-27


# Fix graphite atoms in place

fix 5 graphite setforce 0.0 0.0 0.0
velocity graphite set 0.0 0.0 0.0


# Equilibration of molecular water

# Add velocity/set timestep

velocity	    water create ${TEMP} ${SEED} rot yes dist gaussian
velocity	    water create 225 ${SEED} rot yes dist gaussian
velocity	    water create 225 12758 rot yes dist gaussian
timestep	    5.0

# Define output

compute			1 water msd
compute			3 water temp
thermo	    	50
thermo_style	custom step temp press vol etotal ke pe c_1[4] c_3

# Neighbor lists

neigh_modify    delay 0 every 1 check yes

# Set fixes

fix             1 water momentum 10 linear 1 1 1 rescale
fix             2 water nve
fix             3 water temp/csvr ${TEMP} ${TEMP} 500.0 ${SEED}
fix             3 water temp/csvr 225 ${TEMP} 500.0 ${SEED}
fix             3 water temp/csvr 225 225 500.0 ${SEED}
fix             3 water temp/csvr 225 225 500.0 12758
fix             4 water press/berendsen iso ${PRES} ${PRES} 1000.0 modulus 20000
fix             4 water press/berendsen iso -1000 ${PRES} 1000.0 modulus 20000
fix             4 water press/berendsen iso -1000 -1000 1000.0 modulus 20000

# Run 0.5 ns equilibration

dump		    1 all atom 2000 ${DIR}/eq.${NAME}-${TEMP}.dump
dump		    1 all atom 2000 run_2/eq.${NAME}-${TEMP}.dump
dump		    1 all atom 2000 run_2/eq.het_freeze_2-${TEMP}.dump
dump		    1 all atom 2000 run_2/eq.het_freeze_2-225.dump

reset_timestep  0

run	            100000
Neighbor list info ...
  update every 1 steps, delay 0 steps, check yes
  max neighbors/atom: 2000, page size: 100000
  master list distance cutoff = 7.76
  ghost atom cutoff = 7.76
  binsize = 3.88, bins = 13 13 17
  1 neighbor lists, perpetual/occasional/extra = 1 0 0
  (1) pair sw, perpetual
      attributes: full, newton on
      pair build: full/bin/atomonly
      stencil: full/bin/3d
      bin: standard
Per MPI rank memory allocation (min/avg/max) = 4.107 | 4.219 | 4.543 Mbytes
Step Temp Press Volume TotEng KinEng PotEng c_1[4] c_3 
       0    133.23112   -1309.3276    149926.08   -35971.017    2687.4238   -38658.441            0          225 
      50    174.65163   -1474.0982    148909.56    -36363.51    3522.9229   -39886.433   0.85649597    294.95074 
     100    170.39312   -1409.4716    148114.79   -36790.261    3437.0238   -40227.285    1.9546211    287.75898 
     150    167.04714    -1393.967    147207.96   -37135.029    3369.5316   -40504.561    2.7627715    282.10832 
     200    156.41564   -1312.5501    146555.91   -37531.033    3155.0819   -40686.115    3.5817543    264.15388 
     250    153.90504    -1091.368    146328.17   -37750.757    3104.4403   -40855.197    4.2326315      259.914 
     300    152.48049   -1219.5238     145880.8   -38008.058    3075.7056   -41083.764    4.9301568    257.50823 
     350    143.37773   -1073.8496    145406.21   -38239.666    2892.0925   -41131.759    5.5171416    242.13554 
     400    145.35156   -1231.2758     145058.6   -38378.938    2931.9069   -41310.845    6.0381625    245.46893 
     450    142.44108   -1061.7697    144692.16    -38577.81    2873.1992   -41451.009    6.6294212    240.55373 
     500    143.40109   -1022.5564    144693.82   -38624.026    2892.5637    -41516.59    7.0047835    242.17499 
     550    141.37562   -1031.8842    144536.57   -38752.137    2851.7076   -41603.845    7.5041926    238.75438 
     600    139.37957   -1073.0814     144288.5   -38840.041     2811.445   -41651.486    7.9849136    235.38347 
     650    143.54535   -1046.2309    144168.42   -38912.135    2895.4735   -41807.609    8.3333696    242.41861 
     700    138.48218   -831.28211    144116.02   -38985.391    2793.3436   -41778.735    8.6808376    233.86795 
     750    143.02237   -914.33488    144091.51   -38959.192    2884.9245   -41844.117    9.0123483    241.53541 
     800    141.01029   -929.74093     144105.4   -39022.111    2844.3385   -41866.449    9.3919016    238.13741 
     850    140.18693   -981.31357    144346.82   -39088.495    2827.7305   -41916.226    9.6656303    236.74694 
     900     136.2653   -881.88468    144422.42   -39175.416    2748.6266   -41924.042    10.034061     230.1241 
     950    136.41314   -1023.1234    144628.02   -39245.576    2751.6088   -41997.185    10.342506    230.37378 
    1000    135.77686   -1212.2157    144480.95   -39282.862    2738.7742   -42021.636    10.657148    229.29922 
    1050    138.73649    -1107.413     144331.8   -39287.365    2798.4733   -42085.838    10.958877    234.29743 
    1100    135.54075   -981.37301    144173.36   -39270.586    2734.0117   -42004.598    11.234196    228.90049 
    1150    136.41679   -976.86586    144142.24   -39291.524    2751.6825   -42043.206    11.459809    230.37995 
    1200    135.15977   -1160.6873    144052.55   -39275.122    2726.3268   -42001.449    11.698109    228.25709 
    1250    135.55163   -1115.2145    143796.48   -39366.176    2734.2311   -42100.407    12.085544    228.91886 
    1300    134.99486   -1060.1412    143830.98   -39431.201    2723.0004   -42154.201    12.354436    227.97859 
    1350    131.22438   -978.49853    143911.38   -39504.527    2646.9455   -42151.473    12.530216    221.61102 
    1400    131.60253   -953.35461    143982.61   -39551.415    2654.5733   -42205.989    12.811068    222.24965 
    1450    131.14997    -964.3741     143954.1   -39519.366    2645.4447   -42164.811    13.162645    221.48537 
    1500    133.59958   -967.14877     144038.6   -39512.671    2694.8561   -42207.527    13.420038    225.62225 
    1550    133.09512   -1023.3001    144089.38   -39509.629    2684.6806   -42194.309    13.584723    224.77032 
    1600    133.85734   -971.89101    144112.22   -39508.428    2700.0554   -42208.484    13.892233    226.05756 
    1650     134.7154   -1050.8706    144015.27   -39528.261    2717.3633   -42245.624    14.270709    227.50664 
    1700    133.65066    -1066.748    143984.26    -39511.23    2695.8863   -42207.116    14.518024    225.70851 
    1750    135.41374   -884.59958    143912.47   -39484.558    2731.4497   -42216.007    14.728043    228.68599 
    1800    135.64764   -968.44226    144044.64   -39487.812    2736.1677    -42223.98    14.997918      229.081 
    1850    134.89535   -1065.6593    143933.91   -39543.713    2720.9932   -42264.706    15.362396    227.81054 
    1900    134.43892   -1021.5276     143852.1   -39606.839    2711.7865   -42318.626    15.637481    227.03972 
    1950    131.62231   -1023.6238    143764.41    -39681.11    2654.9722   -42336.082    15.894857    222.28304 
    2000    133.39955   -920.18452    143828.43   -39645.229    2690.8212   -42336.051    16.039346    225.28444 
    2050    132.96069   -866.68905    143912.38   -39613.272    2681.9689   -42295.241    16.168795    224.54329 
    2100    133.98979   -1140.9701    143951.33   -39652.156    2702.7271   -42354.884    16.418993    226.28124 
    2150    134.69135   -1059.8987    143968.78   -39676.125    2716.8783   -42393.003    16.628543    227.46602 
    2200    130.73491   -1009.7904    143963.44   -39687.402    2637.0724   -42324.474    16.823509    220.78441 
    2250    131.45187   -903.62855     143962.4    -39728.01    2651.5342   -42379.544    16.986875     221.9952 
    2300    132.24739   -851.46554    144007.62   -39761.266    2667.5809   -42428.847    17.156861    223.33868 
    2350    134.22403   -1057.2471    144149.71   -39729.598    2707.4519   -42437.049    17.239507    226.67681 
    2400    131.86406   -995.10993    144026.01    -39730.98    2659.8487   -42390.829    17.396658    222.69132 
    2450    134.39093   -860.77295    144192.76   -39711.331    2710.8185   -42422.149    17.552314    226.95868 
    2500    134.38034   -880.56187    144176.58    -39729.28    2710.6049   -42439.885     17.62974    226.94079 
    2550    128.26115   -961.35138     144338.2    -39773.71    2587.1738   -42360.883    17.673746    216.60673 
    2600    131.36737   -805.14799    144563.77   -39777.685    2649.8299   -42427.515     17.83603    221.85251 
    2650    132.20044   -1046.5205    144496.09   -39772.565    2666.6337   -42439.199    18.099259    223.25939 
    2700     134.0069    -1009.909     144509.6   -39781.549    2703.0722   -42484.621    18.331286    226.31014 
    2750    134.29085   -1050.4586    144609.17   -39736.832    2708.7998   -42445.632    18.489221    226.78967 
    2800      134.037   -937.52719     144545.3    -39714.21    2703.6794    -42417.89    18.621852    226.36097 
    2850    134.39155   -947.13805    144499.99   -39749.371     2710.831   -42460.202    18.826451    226.95973 
    2900    134.78663   -802.69861     144591.2   -39722.504    2718.8002   -42441.304    18.928288    227.62694 
    2950    135.03625   -913.41259    144729.79   -39708.651    2723.8353   -42432.487    18.905129    228.04849 
    3000    133.09112    -1005.948    144773.78   -39755.178    2684.5999   -42439.778     19.04917    224.76357 
    3050    133.89193   -1019.7285    144872.05   -39793.881    2700.7531   -42494.634    19.150857    226.11597 
    3100     131.5623   -1012.6778    144800.19   -39835.178    2653.7618    -42488.94    19.315417    222.18171 
    3150    133.33428    -1037.976    144833.68   -39827.279    2689.5046   -42516.783    19.474089    225.17421 
    3200    133.82074   -1006.2863    144898.59   -39783.213    2699.3171    -42482.53    19.530461    225.99574 
    3250    135.74007   -1046.6737    144811.05   -39793.301    2738.0322   -42531.333    19.729377     229.2371 
    3300    132.03151   -847.76905    144817.62   -39756.523    2663.2262   -42419.749    19.924496     222.9741 
    3350    134.13411   -1015.7629    144874.07   -39755.234    2705.6382   -42460.872    20.020378    226.52497 
    3400    134.30571   -1193.2117    144835.78   -39757.455    2709.0994   -42466.554    20.236508    226.81475 
    3450    134.21537    -913.0799    144772.83   -39743.708    2707.2772   -42450.986    20.455996    226.66219 
    3500    134.06117   -843.91069    144905.87   -39760.136    2704.1669   -42464.303    20.634494    226.40178 
    3550    134.53308   -1068.1491    144905.29   -39780.061    2713.6858   -42493.747    20.862424    227.19874 
    3600    135.07103   -986.69562    144830.19   -39717.562    2724.5368   -42442.098    21.012553    228.10722 
    3650    133.09277   -1062.0372    144770.93   -39685.979    2684.6331   -42370.612    21.233919    224.76636 
    3700    136.23853   -1085.8359    144773.75   -39686.127    2748.0867   -42434.214     21.42988     230.0789 
    3750    133.30874     -1061.99       144717   -39708.957    2688.9894   -42397.946    21.600099    225.13107 
    3800    133.05261   -911.03488    144639.04   -39708.123    2683.8231   -42391.946    21.808816    224.69853 
    3850    132.40007   -878.82307    144681.07   -39768.497    2670.6606   -42439.157     22.11352    223.59653 
    3900    135.08719   -988.81944    144685.15   -39730.892    2724.8628   -42455.755    22.182442    228.13452 
    3950    130.48416   -775.78008     144802.2   -39744.681    2632.0145   -42376.695    22.337755    220.36094 
    4000     134.2592   -878.80931    145031.84   -39736.286    2708.1614   -42444.447    22.518361    226.73622 
    4050    131.93719   -1030.2819    145055.75   -39760.132    2661.3237   -42421.456    22.598827    222.81481 
    4100    129.74144   -841.04094    145058.81    -39767.49    2617.0329   -42384.523     22.65524    219.10664 
    4150    131.16594   -1086.0174    144838.41   -39767.692    2645.7667   -42413.458    22.718837    221.51233 
    4200     132.1804   -1080.9449    144772.48   -39734.757    2666.2295   -42400.986    22.972391    223.22554 
    4250     133.6045   -1052.0116    144673.47   -39718.611    2694.9553   -42413.566    23.135996    225.63056 
    4300    132.30373   -1174.2886     144580.2   -39736.369    2668.7173   -42405.086    23.218323    223.43383 
    4350    132.15451   -880.39232    144686.95    -39788.88    2665.7072   -42454.587    23.481717    223.18182 
    4400     133.1773   -915.59732    144807.71   -39768.386    2686.3382   -42454.724    23.694123    224.90911 
    4450    133.28077    -1024.502    144844.26   -39798.397    2688.4253   -42486.822    23.932024    225.08384 
    4500    131.78096   -842.56283    144981.93   -39818.055    2658.1724   -42476.227     23.93615    222.55097 
    4550    133.36165   -1067.3522    144997.47   -39826.179    2690.0567   -42516.235    24.022426    225.22043 
    4600    132.25509   -1174.7126     144850.5   -39825.191    2667.7362   -42492.927    24.199135    223.35169 
    4650    132.77158   -1029.4027    144745.69   -39852.897    2678.1543   -42531.051    24.410708    224.22393 
    4700    132.15233   -1050.5606    144878.85   -39831.367    2665.6633   -42497.031    24.702503    223.17814 
    4750    133.20036   -994.46985     144871.9   -39815.664    2686.8033   -42502.467    24.708082    224.94805 
    4800    132.13696   -1062.6364    144802.39   -39810.069    2665.3534   -42475.423    24.833057    223.15219 
    4850    132.72558   -871.36005    144918.73   -39838.181    2677.2264   -42515.407    25.019791    224.14624 
    4900    133.36121   -801.98245    145087.96   -39756.667    2690.0479   -42446.714    25.141664     225.2197 
    4950    132.94534   -1039.0957    145144.85   -39779.332    2681.6592   -42460.992    25.405313    224.51737 
    5000    134.44627   -1027.2209    145155.31   -39762.303    2711.9347   -42474.237    25.578963    227.05213 
    5050    134.63877   -974.53106    145258.27   -39735.863    2715.8178   -42451.681     25.78545    227.37723 
    5100    131.24254   -1091.6222    145167.76   -39769.314    2647.3118   -42416.626    25.870766    221.64169 
    5150    134.22576   -989.36167    145015.73   -39720.345    2707.4869   -42427.832    26.036216    226.67975 
    5200    134.34855   -1044.4996     145257.8   -39790.957    2709.9636   -42500.921    26.271455     226.8871 
    5250     132.5338    -990.3427    145111.26   -39810.495     2673.358   -42483.852    26.448082    223.82236 
    5300    132.98404   -868.80835    145179.64   -39804.773    2682.4398   -42487.213    26.588537    224.58272 
    5350    131.34478   -991.41097    145193.14    -39845.56    2649.3742   -42494.935    26.668503    221.81436 
    5400     132.3371   -1002.2292     145157.8   -39811.683    2669.3903   -42481.074    26.752604    223.49017 
    5450    132.62054   -1031.9063    145126.98   -39788.982    2675.1076   -42464.089    26.877615    223.96885 
    5500    132.14331   -986.90373     145007.2   -39773.581    2665.4814   -42439.063    27.180812    223.16291 
    5550    134.06614   -967.09115    145025.92   -39779.825    2704.2672   -42484.092    27.302052    226.41018 
    5600    134.02669   -1042.1835    144969.25   -39814.121    2703.4714   -42517.592    27.469764    226.34356 
    5650    133.08729   -952.00252    144849.49   -39823.314    2684.5225   -42507.837     27.84786    224.75709 
    5700      134.806   -1016.9163    144918.73   -39750.819    2719.1909    -42470.01     28.02053    227.65964 
    5750     132.8962    -1030.654    145060.62    -39775.03     2680.668   -42455.698    28.335454    224.43438 
    5800    134.82566   -1071.5357    145082.62   -39779.765    2719.5876   -42499.353    28.576399    227.69285 
    5850    134.27118   -986.56477    145112.06   -39760.483     2708.403   -42468.885    28.895487    226.75644 
    5900     135.2115   -864.58624    145054.81   -39726.452    2727.3703   -42453.822    29.018648    228.34445 
    5950    133.10682   -922.44642    144991.38   -39771.233    2684.9166    -42456.15    29.140807    224.79008 
    6000    134.04548   -1016.1937     145156.1   -39810.266    2703.8504   -42514.117    29.335508    226.37529 
    6050    131.37567   -834.27269    145229.35   -39827.189    2649.9973   -42477.187    29.452893    221.86653 
    6100    131.68628   -954.37813    145305.32   -39832.791    2656.2626   -42489.053    29.492764    222.39108 
    6150    131.73822   -1075.4129    145507.37   -39775.544    2657.3103   -42432.854    29.571527    222.47879 
    6200    133.30732   -1013.7457    145384.44   -39789.893    2688.9608   -42478.853    29.908271    225.12868 
    6250    134.79943   -1024.6575    145223.64   -39811.126    2719.0583   -42530.184    29.966266    227.64855 
    6300    134.64021   -939.75194     145278.1    -39782.59    2715.8467   -42498.436    30.030616    227.37966 
    6350    134.58621   -1021.3473     145235.4   -39808.486    2714.7576   -42523.244    30.204575    227.28847 
    6400    132.27457   -1066.0235    145187.18   -39818.527     2668.129   -42486.656    30.200512    223.38457 
    6450    131.90966   -952.97436    145129.77   -39837.986    2660.7685   -42498.755     30.33525    222.76833 
    6500    136.56122   -922.44231     145155.8   -39792.705    2754.5957   -42547.301    30.228768    230.62385 
    6550    134.08786   -934.06761    145246.75   -39829.965    2704.7053    -42534.67    30.339903    226.44686 
    6600    131.95228   -1035.9454    145196.26   -39837.221    2661.6282   -42498.849    30.632676    222.84031 
    6650    131.46334   -1042.5548    145082.89   -39865.415    2651.7656   -42517.181     30.71452    222.01457 
    6700    134.27755   -1048.7235    145007.42   -39807.312    2708.5315   -42515.844    31.087948     226.7672 
    6750    132.86742    -1039.069    144885.26   -39806.631    2680.0875   -42486.718    31.238986    224.38578 
    6800    131.98405   -995.85593    144812.86   -39826.123    2662.2689   -42488.392    31.131981    222.89395 
    6850    136.40823   -889.66859    145034.05   -39794.075    2751.5096   -42545.584    31.210412    230.36548 
    6900    138.71492   -1010.0881    145115.03   -39773.644    2798.0382   -42571.682    31.349358      234.261 
    6950    131.99398   -1092.7362    144989.93   -39832.618    2662.4693   -42495.088    31.588252    222.91073 
    7000    132.04616   -1217.7407    145061.96   -39841.354    2663.5218   -42504.876      31.7524    222.99884 
    7050    134.44738   -1097.4415     144849.8    -39865.98    2711.9572   -42577.938    31.727445    227.05402 
    7100    132.60278   -957.06966    144956.77   -39785.931    2674.7496   -42460.681    31.755666    223.93887 
    7150    132.80572   -988.84675    144895.13   -39793.207    2678.8429   -42472.049    31.792339    224.28158 
    7200    133.11964   -999.27701    144842.99   -39802.772    2685.1751   -42487.947    31.742994    224.81173 
    7250    133.53755   -924.19361    144640.88   -39810.307    2693.6048   -42503.912     31.89691    225.51749 
    7300    133.82946   -979.87973    144695.31   -39814.181    2699.4929   -42513.674    32.064211    226.01046 
    7350    136.64945   -947.05566     144663.1   -39812.483    2756.3753   -42568.858    32.192409    230.77285 
    7400    136.66863   -1019.3015    144474.49   -39817.053    2756.7623   -42573.815    32.532142    230.80525 
    7450     134.2364   -896.55492    144530.82   -39871.543    2707.7014   -42579.245    32.938825    226.69771 
    7500    133.45166   -961.27663    144537.79   -39875.597    2691.8722   -42567.469    33.044446    225.37244 
    7550    130.76084   -1104.9399    144698.19   -39926.578    2637.5953   -42564.174    33.208132    220.82819 
    7600    132.92512   -1031.2365    144619.38   -39937.413    2681.2513   -42618.664    33.267041    224.48322 
    7650    130.14956   -986.68878    144677.16     -39939.9    2625.2651   -42565.165    33.458679    219.79587 
    7700    131.38385   -1070.7584    144536.53   -39931.718    2650.1622    -42581.88    33.628362    221.88033 
    7750    134.70302   -1101.4188    144558.96   -39862.244    2717.1137   -42579.358    33.795284    227.48573 
    7800    134.40234   -813.30566    144752.73   -39829.567    2711.0486   -42540.616    33.823996    226.97794 
    7850    134.80854    -986.1877    144804.48   -39826.423    2719.2422   -42545.665    33.883663    227.66394 
    7900    132.75185   -851.96722    144781.44   -39845.983    2677.7563   -42523.739    33.955898    224.19061 
    7950    135.42086   -934.56826    144929.17   -39801.674    2731.5933   -42533.267    34.135474    228.69801 
    8000     134.6138   -1140.0788     144944.7   -39776.529     2715.314   -42491.843    34.351252    227.33506 
    8050    135.78368   -890.57632    144791.73   -39788.695    2738.9119   -42527.607    34.406583    229.31075 
    8100    134.91885   -1071.2527    144926.99   -39806.482    2721.4673    -42527.95    34.457778    227.85023 
    8150    134.59524   -1025.5206    144839.05   -39858.003    2714.9397   -42572.943    34.537657    227.30372 
    8200    136.05633   -959.03588    144764.16   -39886.804    2744.4115   -42631.216    34.576063     229.7712 
    8250    132.57962   -1014.8668    144956.32   -39898.156    2674.2823   -42572.438     34.72607    223.89975 
    8300    135.12943   -920.95487    144974.62   -39906.974    2725.7149   -42632.689    34.861769    228.20585 
    8350    134.39869   -1045.7192     145087.3   -39878.238     2710.975   -42589.213     34.93046    226.97178 
    8400    131.34821   -897.05495    145073.47   -39917.579    2649.4434   -42567.023    35.058624    221.82015 
    8450     133.2622   -907.05895     145125.3   -39924.054    2688.0508   -42612.104    35.108142    225.05249 
    8500    134.10577   -1055.0941    145245.28    -39885.14    2705.0664   -42590.206    35.279465     226.4771 
    8550    134.19733   -977.23329    145273.64    -39915.43    2706.9134   -42622.343    35.535718    226.63174 
    8600    134.43282   -1146.2653    145167.88   -39910.147    2711.6635    -42621.81    35.671086    227.02943 
    8650    133.20317   -1015.2848    145058.89   -39918.204    2686.8601   -42605.064    35.793261     224.9528 
    8700    133.51179   -951.76872    145014.44   -39908.022    2693.0852   -42601.107    35.784489    225.47399 
    8750    134.24143   -1093.8372    145033.96   -39910.699    2707.8029   -42618.502    35.814834     226.7062 
    8800    132.29632   -1038.5216    144934.11   -39938.643    2668.5677   -42607.211    36.011663    223.42131 
    8850    134.20374   -1055.0907    144748.36   -39928.526    2707.0427   -42635.569    36.159957    226.64256 
    8900    133.37965   -961.57587    144670.09   -39907.697    2690.4198   -42598.116    36.171534    225.25083 
    8950    132.16615   -942.14794    144811.65    -39911.37    2665.9422   -42577.313    36.245181    223.20148 
    9000    132.77026   -1085.8953    144720.12   -39911.929    2678.1277   -42590.057     36.36486    224.22169 
    9050     133.1554   -958.84849    144656.15   -39907.099    2685.8965   -42592.996    36.665117    224.87213 
    9100    133.65121   -941.18648    144857.61   -39868.138    2695.8974   -42564.035    36.762898    225.70944 
    9150    131.79075    -1003.515    145004.62   -39898.578    2658.3699   -42556.948    36.851886    222.56751 
    9200    131.65378   -977.52393    145151.14   -39885.808    2655.6071   -42541.415    36.937921     222.3362 
    9250    133.82813   -986.25149    145120.11    -39867.23    2699.4663   -42566.696    37.278038    226.00823 
    9300    131.75777   -840.21941    145188.96    -39902.41    2657.7046   -42560.115    37.436575    222.51181 
    9350    132.20873   -994.43518    145250.89   -39884.868    2666.8011    -42551.67    37.492003     223.2734 
    9400    131.40959   -1073.9663    145134.98   -39941.557    2650.6815   -42592.238    37.662825    221.92381 
    9450    132.47511   -1131.9466    145086.43    -39943.58    2672.1743   -42615.754    37.926593    223.72326 
    9500    133.14067   -965.67001    145063.37   -39924.129    2685.5994   -42609.728    38.065083    224.84725 
    9550    133.98201    -1018.969    145071.79    -39873.65    2702.5701    -42576.22    38.434707     226.2681 
    9600    135.20407   -1059.4207    144999.15   -39805.819    2727.2204    -42533.04    38.424441     228.3319 
    9650    135.83677   -999.33458    145010.27   -39816.779    2739.9828   -42556.762    38.644827    229.40041 
    9700    133.68975   -957.34909    145087.08   -39819.248    2696.6748   -42515.923    38.934331    225.77452 
    9750     133.6363   -823.97527    145250.29   -39828.866    2695.5967   -42524.463    39.040672    225.68426 
    9800    134.59784   -1088.2864    145148.36   -39787.474     2714.992   -42502.466    39.193545     227.3081 
    9850     138.1969   -999.78448    145047.52   -39712.158    2787.5893   -42499.748    39.393949    233.38619 
    9900    136.99117   -864.91184     145113.5   -39704.426    2763.2683   -42467.694    39.848251    231.34995 
    9950    135.27417   -1041.3854    145138.77    -39719.05    2728.6344   -42447.685    40.222811    228.45029 
   10000    136.00108   -1074.3999     145079.4   -39654.958     2743.297   -42398.255    40.423032    229.67789 
   10050    136.63259   -1007.8279    144909.51   -39658.934    2756.0353    -42414.97    40.641133    230.74438 
   10100    136.27047   -931.58697    144947.63   -39621.938    2748.7309   -42370.669    40.681557    230.13283 
   10150    138.09878   -996.11988    144834.45   -39661.939      2785.61   -42447.549    40.837078    233.22047 
   10200    137.10831   -1109.8586    145049.34   -39620.437    2765.6311   -42386.068    40.873874    231.54777 
   10250    136.19695    -1062.935    144853.28   -39635.555    2747.2479   -42382.803    40.924517    230.00867 
   10300    134.97697    -896.7956    144713.38   -39688.589    2722.6396   -42411.228    40.823837    227.94838 
   10350    133.68199   -959.98804    144636.26   -39720.827    2696.5184   -42417.346    40.825726    225.76143 
   10400    136.07279   -1132.3993     144574.8   -39699.016    2744.7435    -42443.76    41.008123    229.79899 
   10450    136.51916   -830.33698    144566.87   -39754.212    2753.7474   -42507.959     41.17939    230.55283 
   10500    136.08261   -927.99984    144719.42   -39718.184    2744.9417   -42463.125    41.469179    229.81559 
   10550    133.59746    -917.9727    144688.66   -39727.169    2694.8132   -42421.982    41.698424    225.61866 
   10600    133.63814    -1139.416    144656.16   -39722.931    2695.6338   -42418.564    41.924402    225.68736 
   10650    134.55607   -933.33893    144613.62   -39696.575    2714.1496   -42410.724     41.81403    227.23757 
   10700    135.23556   -980.66042    144590.72   -39718.518    2727.8557   -42446.373    42.125826    228.38509 
   10750    135.34034   -1088.0504    144562.74   -39763.993    2729.9692   -42493.962     42.26766    228.56204 
   10800    135.61217   -974.27562    144476.63   -39814.909    2735.4522   -42550.361    42.252811     229.0211 
   10850    131.26129   -1054.2719    144432.07   -39827.967      2647.69   -42475.657    42.539985    221.67336 
   10900    136.05571   -993.82723    144494.14   -39761.949     2744.399   -42506.348    42.753044    229.77015 
   10950    137.39921   -936.03098    144548.78   -39733.321    2771.4988    -42504.82    42.771848    232.03904 
   11000    134.88673   -1102.5966    144624.37   -39747.895    2720.8194   -42468.715    42.976939    227.79599 
   11050    132.77504   -1069.0936    144582.13   -39761.705    2678.2241   -42439.929    43.252226    224.22977 
   11100    134.37176    -1088.605    144541.06    -39775.49    2710.4318   -42485.921    43.612516    226.92631 
   11150    135.27692   -1019.7967    144590.98   -39778.825    2728.6899   -42507.515    43.690104    228.45493 
   11200    133.83303   -865.13803    144730.06   -39788.927    2699.5651   -42488.492    43.613577    226.01651 
   11250    135.06948   -937.89784    144794.69   -39779.676    2724.5057   -42504.182    43.663324    228.10462 
   11300    136.57593   -1057.8687    144809.11   -39753.303    2754.8924   -42508.195    43.984213    230.64869 
   11350    134.33913   -1054.6402    144769.22    -39821.79    2709.7736   -42531.564    44.126597    226.87119 
   11400    132.68761   -1067.9104    144708.11   -39808.726    2676.4607   -42485.186    44.301937    224.08213 
   11450    131.59106   -921.90705    144684.48   -39841.444    2654.3418   -42495.786    44.473803    222.23026 
   11500     129.6734   -998.76505    144745.44   -39879.467    2615.6605   -42495.127    44.663517    218.99173 
   11550    131.17369   -931.92493     144706.2   -39867.986     2645.923   -42513.909    45.070192    221.52541 
   11600    127.46768   -1139.2295    144593.39   -39873.802    2571.1686    -42444.97    45.077421    215.26673 
   11650    130.10006   -1073.0868    144479.64   -39834.224    2624.2667    -42458.49    45.071992    219.71228 
   11700    131.85909    -986.4359    144443.95     -39865.1    2659.7484   -42524.849    45.240747    222.68292 
   11750    133.68448   -1102.6407    144464.22   -39866.705    2696.5687   -42563.274    45.402715    225.76564 
   11800    132.66565    -981.2928    144515.15   -39831.742    2676.0176    -42507.76    45.604146    224.04503 
   11850    133.90345   -958.19765    144529.66   -39783.241    2700.9855   -42484.226    45.797905    226.13543 
   11900    134.24147    -1052.025    144604.52   -39806.892    2707.8037   -42514.696    45.728882    226.70627 
   11950    133.91371   -897.30338    144640.71   -39826.731    2701.1925   -42527.924    45.978511    226.15276 
   12000    134.60154   -951.04919    144715.27   -39766.001    2715.0668   -42481.068    46.222863    227.31436 
   12050     133.8276   -801.58417    144969.07   -39759.883    2699.4554   -42459.338     46.38398    226.00732 
   12100    133.56123   -1163.8265     144859.2   -39792.867    2694.0824    -42486.95    46.583638    225.55748 
   12150    131.14319   -931.96159    144823.28   -39820.377    2645.3078   -42465.685    46.809333    221.47391 
   12200    133.51426   -1029.9392    144833.04   -39751.646    2693.1349   -42444.781    47.011441    225.47815 
   12250    134.28285   -933.21321    144837.66   -39740.329    2708.6383   -42448.967    47.189069    226.77615 
   12300    132.66247   -1061.2663    144762.25   -39767.357    2675.9534    -42443.31    47.218308    224.03966 
   12350    132.73128   -926.28311    144819.36    -39780.21    2677.3415   -42457.552    47.304862    224.15587 
   12400    132.40202   -1118.6914    144778.76   -39786.595    2670.6999   -42457.295     47.43299    223.59982 
   12450    133.48687   -841.15006    144881.76   -39762.231    2692.5826   -42454.814    47.565809    225.43191 
   12500    133.33662   -1029.3926     144994.5   -39812.683    2689.5518   -42502.234     47.88621    225.17816 
   12550    133.44125   -978.29589    144896.55    -39825.18    2691.6623   -42516.843    48.222843    225.35486 
   12600    131.34458   -978.10124    144772.67   -39835.024      2649.37   -42484.394    48.353126    221.81401 
   12650    130.77692    -974.4731    144779.02   -39826.383    2637.9197   -42464.303    48.345818    220.85535 
   12700    134.07558   -1044.6268    144891.77   -39783.814    2704.4575   -42488.272    48.410949    226.42612 
   12750    135.11163   -1063.7828    144933.53   -39777.732    2725.3558   -42503.088    48.618614    228.17579 
   12800     132.5953   -1144.8274    144706.49   -39855.846    2674.5986   -42530.444    48.734559    223.92623 
   12850     134.3895   -971.95545    144643.64   -39870.116    2710.7896   -42580.905    48.944251    226.95626 
   12900    136.14339   -1101.3947    144700.81   -39860.085    2746.1675   -42606.252    49.026382    229.91822 
   12950     131.9235   -1034.5865     144645.4   -39823.313    2661.0476   -42484.361    49.257828     222.7917 
   13000    134.04253   -954.79061     144738.4   -39845.153    2703.7908   -42548.944    49.539203     226.3703 
   13050    134.72021   -1133.9201    144773.45   -39874.803    2717.4604   -42592.263    49.540122    227.51477 
   13100    133.77577   -965.19095     144608.6   -39869.061    2698.4099   -42567.471    49.712997    225.91979 
   13150    132.99284   -891.16861    144684.05   -39849.293    2682.6174    -42531.91    50.032094    224.59759 
   13200    133.35385   -1011.0237    144711.08   -39898.776    2689.8995   -42588.675    50.274536    225.20727 
   13250    132.24995   -922.52186    144697.04   -39903.452    2667.6325   -42571.084    50.307413      223.343 
   13300    132.99057   -1039.1927    144788.23   -39896.283    2682.5715   -42578.855    50.439579    224.59375 
   13350    132.33823   -1028.5172    144776.32   -39834.051    2669.4131   -42503.464    50.482364    223.49209 
   13400    132.25357   -1029.0737    144836.07   -39830.883    2667.7054   -42498.589    50.615856    223.34911 
   13450    131.43496   -1020.2966    144701.35   -39897.922    2651.1932   -42549.115    50.894584    221.96665 
   13500    130.55101   -993.25332    144672.24   -39903.901     2633.363   -42537.264    51.076593    220.47385 
   13550    131.83616    -965.5808     144800.4   -39889.699    2659.2858   -42548.985     51.09656    222.64419 
   13600    131.09378   -1002.8129     144848.1   -39944.941    2644.3112   -42589.253    51.115962    221.39047 
   13650    134.20111    -967.9746    144928.61   -39918.055    2706.9896   -42625.045    51.481196    226.63811 
   13700    131.69724   -1082.5623    144808.96    -39917.78    2656.4836   -42574.264    51.491319    222.40958 
   13750    134.38048   -950.72862     144831.1   -39894.295    2710.6077   -42604.903    51.725652    226.94103 
   13800    132.49835   -1029.7715    144871.18    -39845.75    2672.6431   -42518.393    51.948094    223.76251 
   13850    134.95256   -859.40761     144896.7   -39841.156    2722.1472   -42563.303    52.010921    227.90715 
   13900    133.81345    -857.3698    145058.55   -39829.777    2699.1701   -42528.947    52.235771    225.98344 
   13950     133.7517   -968.37621    145164.87   -39859.806    2697.9244   -42557.731    52.323248    225.87914 
   14000    134.90387   -975.00235    145179.54   -39862.985     2721.165    -42584.15     52.31301    227.82493 
   14050     132.7329   -1172.9269    145253.07   -39854.226    2677.3741     -42531.6    52.595045    224.15861 
   14100    132.72175   -1069.8352    145223.62   -39890.756    2677.1493   -42567.905    52.704314    224.13978 
   14150    134.00143   -1022.9737    145025.09   -39936.663    2702.9619   -42639.625    52.803283     226.3009 
   14200    133.96981   -1141.9189    144991.33   -39881.135    2702.3241   -42583.459    52.910674     226.2475 
   14250    134.85992   -1018.4849     144781.8   -39866.932    2720.2786   -42587.211    53.009262    227.75071 
   14300    131.17082   -982.96592    144875.48   -39848.894    2645.8652   -42494.759    53.200435    221.52057 
   14350    130.69755   -952.83711    144883.95   -39871.192    2636.3188    -42507.51    53.432572    220.72132 
   14400    132.56436    -991.9949    145014.84   -39846.783    2673.9745   -42520.757    53.490629    223.87398 
   14450    132.61826   -1084.0957    144956.47   -39809.708    2675.0616    -42484.77    53.600311      223.965 
   14500    134.08445   -1011.5115    144780.47   -39857.121    2704.6363   -42561.757     53.52496    226.44109 
   14550    133.95626   -928.18097    144812.15    -39886.05    2702.0507     -42588.1    53.513975    226.22461 
   14600    133.35452   -990.40253    144845.97   -39886.822     2689.913   -42576.735    53.656849     225.2084 
   14650    134.92872   -996.55465    144653.15   -39887.358    2721.6662   -42609.025    53.653167    227.86689 
   14700    134.92726   -928.26994     144718.3   -39859.549     2721.637   -42581.186    53.802905    227.86444 
   14750    133.80471   -1080.6806    144746.14   -39842.683    2698.9937   -42541.677    54.119305    225.96866 
   14800    136.25843   -940.25301    144912.57   -39815.724    2748.4882   -42564.212    54.278165    230.11251 
   14850    134.23616   -1062.0724    144940.53   -39820.029    2707.6965   -42527.726    54.367769     226.6973 
   14900    133.16591   -896.26958    144968.51   -39823.316    2686.1084   -42509.424    54.647573    224.88987 
   14950    131.31222   -992.81526    144973.85    -39783.75    2648.7174   -42432.468     54.59631    221.75937 
   15000    134.86062   -847.80181    144906.85   -39780.837    2720.2927    -42501.13    54.803002    227.75189 
   15050    134.61174   -941.73576    144922.28   -39759.641    2715.2726   -42474.913    55.095039    227.33159 
   15100    137.34261   -957.66159    144804.46   -39772.622    2770.3573    -42542.98    55.114246    231.94346 
   15150    133.86147   -961.33547    144974.29   -39778.637    2700.1388   -42478.776    55.384935    226.06454 
   15200     133.6136   -1025.6716    144845.18   -39782.797    2695.1389   -42477.936     55.40345    225.64593 
   15250    133.85977   -1164.4916    144862.71    -39830.57    2700.1043   -42530.674    55.577952    226.06165 
   15300    132.79517   -997.03648    144814.51   -39837.362    2678.6302   -42515.992    55.912882    224.26377 
   15350    136.15807   -972.70704     144896.3   -39864.404    2746.4638   -42610.867    56.182773    229.94302 
   15400    133.57444   -902.15571       144965    -39821.25     2694.349   -42515.599    56.438959     225.5798 
   15450    137.12476   -909.05586     145102.9    -39747.16     2765.963   -42513.123     56.41575    231.57556 
   15500    135.97219   -1044.2427    145109.97   -39750.202    2742.7143   -42492.916    56.509765     229.6291 
   15550    132.60474   -1081.1884     145062.9   -39759.521     2674.789    -42434.31    56.730805    223.94217 
   15600    134.36816    -798.3703    145199.22   -39762.934    2710.3591   -42473.293    56.909109    226.92022 
   15650    136.67962    -949.8205    145385.04   -39777.166     2756.984    -42534.15     57.21968    230.82381 
   15700    133.79362   -1038.0047    145362.77   -39831.583    2698.7701   -42530.353    57.445625    225.94995 
   15750    135.99244   -905.31335    145393.77    -39830.17    2743.1228   -42573.293     57.38492     229.6633 
   15800     134.2852   -1136.9165    145389.63   -39819.225    2708.6858   -42527.911     57.60039    226.78012 
   15850    133.01105   -1046.9261    145317.92   -39846.726    2682.9846   -42529.711    57.737698    224.62834 
   15900    132.24743   -909.32543    145346.68   -39882.693    2667.5816   -42550.274    57.897664    223.33875 
   15950    133.65583   -1140.8305    145297.83   -39889.975    2695.9907   -42585.966    57.964278    225.71725 
   16000    133.04744   -921.40926    145164.66   -39869.571    2683.7187   -42553.289    58.238569    224.68979 
   16050    134.76957   -1021.7428    145114.23    -39878.68    2718.4561   -42597.136    58.511129    227.59812 
   16100    132.74372   -1034.7707    145113.48    -39845.92    2677.5923   -42523.512    58.617054    224.17687 
   16150    133.30544   -934.55641    145113.74    -39820.92    2688.9229   -42509.843    58.855123    225.12551 
   16200    133.44427   -975.54489    145168.29   -39802.775    2691.7232   -42494.498    58.852257    225.35996 
   16250    134.95305   -940.54092    145227.21   -39803.368    2722.1571   -42525.525    58.890862    227.90799 
   16300    133.38499   -1065.3826    145209.53   -39827.565    2690.5276   -42518.092    59.046644    225.25985 
   16350    131.83463   -984.94325    145143.21    -39861.14     2659.255   -42520.395    59.172518    222.64161 
   16400    131.65785   -943.00685    145114.33    -39836.55    2655.6891    -42492.24    59.623347    222.34307 
   16450    133.81533   -1078.0316    145108.72   -39847.564     2699.208   -42546.772    59.831821    225.98661 
   16500    134.38207   -1169.8189    145045.23   -39832.742    2710.6397   -42543.381    59.882306    226.94371 
   16550    135.44874   -1003.5523    144924.33   -39857.278    2732.1557   -42589.434    59.842904     228.7451 
   16600    133.47452   -1138.1556    144892.45   -39876.857    2692.3335    -42569.19    59.916262    225.41105 
   16650    131.04513   -1056.9066    144766.71   -39911.617      2643.33   -42554.947    60.000502    221.30832 
   16700    131.79585   -927.45642    144788.52   -39931.871    2658.4728   -42590.344    60.050584    222.57612 
   16750    133.45681    -971.9432     145057.2   -39910.011    2691.9762   -42601.987    60.415434    225.38114 
   16800    132.29311   -1060.0101    144891.36   -39864.469     2668.503   -42532.972     60.44278    223.41589 
   16850    132.51138   -1010.5817    144779.94   -39895.149    2672.9058   -42568.055    60.513956     223.7845 
   16900    133.78607   -1078.1114    144726.87   -39855.699    2698.6179   -42554.316    60.746452     225.9372 
   16950     133.1925   -965.85573    144767.73   -39907.612    2686.6448   -42594.257    60.841503    224.93478 
   17000    130.64298   -825.61307    144761.64   -39930.603    2635.2181   -42565.821     61.05043    220.62916 
   17050    132.90628   -1107.3734    144819.17   -39924.516    2680.8714   -42605.388    61.183649    224.45141 
   17100    132.05144   -969.98068    144931.41   -39904.004    2663.6282   -42567.632    61.353662    223.00776 
   17150     133.5449   -952.00159    144930.95   -39889.888    2693.7532   -42583.641    61.391469    225.52991 
   17200    132.79968   -878.12873    144822.35   -39862.189    2678.7212    -42540.91    61.275896    224.27139 
   17250    134.68961   -1049.5361    144792.03   -39826.626    2716.8432   -42543.469    61.161376    227.46309 
   17300    131.90271   -1020.2661    144694.61   -39827.502    2660.6282   -42488.131    61.333336    222.75658 
   17350    133.75107   -1191.4595    144653.52   -39859.584    2697.9119   -42557.496    61.642506    225.87809 
   17400     131.7137   -887.87965    144741.63   -39888.933    2656.8157   -42545.749    61.756785    222.43738 
   17450    133.33729   -835.83601    144824.07   -39889.168    2689.5654   -42578.734    62.060446     225.1793 
   17500    133.02643   -1038.9609       144835   -39891.891    2683.2949   -42575.186    62.250309    224.65432 
   17550    134.26597    -984.5396    144802.31   -39890.273    2708.2978   -42598.571    62.195629    226.74764 
   17600    134.81787     -848.865     144964.9   -39873.103    2719.4303   -42592.534    62.453849    227.67969 
   17650    134.45405   -1094.0116    145120.91   -39824.926    2712.0916   -42537.017    62.470852    227.06527 
   17700    134.43674   -1029.6281    144969.26   -39864.348    2711.7424    -42576.09    62.708232    227.03604 
   17750    131.98828   -990.57997    145003.96   -39854.754    2662.3544   -42517.109    62.837576     222.9011 
   17800    136.65297   -923.23462    145107.27   -39795.651    2756.4463   -42552.098    63.139986    230.77879 
   17850    136.01576   -1055.7134     145090.5   -39783.703    2743.5933   -42527.296    63.234267    229.70269 
   17900     134.0734   -974.79394    145093.46   -39830.359    2704.4135   -42534.772    63.407456    226.42243 
   17950    134.87304   -1044.8337    145088.77   -39854.123    2720.5432   -42574.666    63.494545    227.77286 
   18000     133.3619   -1015.8618    145058.78   -39847.716    2690.0619   -42537.778    63.713229    225.22086 
   18050    133.29483   -950.66149    144993.27   -39841.841    2688.7089    -42530.55    63.789837    225.10759 
   18100    134.64586   -1047.6435    145006.66   -39849.977    2715.9608   -42565.938    63.907033    227.38921 
   18150    137.48242   -939.19601    145034.61   -39800.117    2773.1774   -42573.295    63.988288    232.17957 
   18200    130.26693   -1038.3218    145052.15   -39853.871    2627.6327   -42481.504    64.065776    219.99409 
   18250    133.28854   -1005.6169    144926.15   -39891.295    2688.5821   -42579.877    64.157271    225.09698 
   18300    134.95984   -1006.6685    144946.97   -39911.402    2722.2941   -42633.696    64.355222    227.91946 
   18350    135.18393   -1007.0641    144896.47   -39893.115    2726.8143   -42619.929     64.77228     228.2979 
   18400    132.39373   -1052.4831    144734.87   -39907.861    2670.5327   -42578.393    65.000852    223.58582 
   18450    133.28524   -855.59113    144777.45   -39935.421    2688.5154   -42623.936    65.189954    225.09139 
   18500    130.26196   -955.89665    144813.97     -39918.6    2627.5324   -42546.132    65.176865    219.98569 
   18550    134.52255   -1049.1917    144868.64   -39907.944    2713.4735   -42621.418    65.136895    227.18096 
   18600    130.28646   -987.81111    144848.16    -39892.51    2628.0266   -42520.536    65.459449    220.02707 
   18650    133.45377   -984.37141     144849.7    -39888.93    2691.9149   -42580.845    65.795477    225.37601 
   18700    132.73905   -1123.1078    144885.67   -39869.868    2677.4981   -42547.366    66.080084    224.16899 
   18750    135.74265   -869.26626    144968.81   -39853.346    2738.0842    -42591.43    66.348188    229.24146 
   18800    134.43071   -943.23588    145141.18   -39852.726    2711.6209   -42564.347    66.458326    227.02586 
   18850    134.12483   -1061.5661    145101.56   -39891.821     2705.451   -42597.272    66.696875     226.5093 
   18900    132.39423   -992.21611    144980.43   -39864.584    2670.5428   -42535.127    66.662387    223.58666 
   18950    129.98096   -1136.4513    144866.66   -39917.497    2621.8644   -42539.361    66.821113    219.51115 
   19000     133.2126   -1180.4568    144751.42   -39959.694    2687.0503   -42646.745    66.974144    224.96873 
   19050    132.66911   -829.18382    144873.03   -39962.625    2676.0874   -42638.713    66.993687    224.05088 
   19100    133.71178   -1086.5489    144888.14   -39929.844    2697.1193   -42626.963    67.233691    225.81174 
   19150    130.14233    -837.4416    144773.78   -39921.059    2625.1194   -42546.179    67.095783    219.78367 
   19200    135.55249   -1099.6634     144800.2   -39893.436    2734.2485   -42627.685    67.214927    228.92032 
   19250    135.41695   -1012.9268    144734.12   -39916.183    2731.5145   -42647.698    67.687094    228.69142 
   19300    132.76888   -1051.2029    144727.46   -39892.105    2678.0999   -42570.205     68.07418    224.21937 
   19350    133.39843   -933.05909    144671.05   -39893.739    2690.7987   -42584.537    68.270593    225.28256 
   19400    132.51003   -862.87745    144719.44   -39886.035    2672.8787   -42558.914    68.556621    223.78223 
   19450    132.89634   -898.27975    144879.59   -39900.066    2680.6709   -42580.737    68.585244    224.43463 
   19500    130.51597   -1053.0016    144773.39   -39911.884    2632.6562   -42544.541    68.788019    220.41467 
   19550    132.40588    -1084.935    144751.33   -39892.092    2670.7777   -42562.869    68.797373    223.60633 
   19600    132.72993   -1004.7137    144733.82   -39883.791    2677.3143   -42561.105    69.150075     224.1536 
   19650    128.43613   -1165.7868    144531.27   -39890.951    2590.7034   -42481.655    69.140355    216.90225 
   19700    133.42833   -933.51402    144487.98   -39865.586    2691.4017   -42556.988    69.546696    225.33304 
   19750    133.94301   -907.21981    144504.29   -39888.403    2701.7834   -42590.186    69.496149    226.20223 
   19800    133.87199    -931.6526    144567.13   -39863.349    2700.3509     -42563.7    69.374374     226.0823 
   19850    131.44993    -813.1211    144618.21   -39848.231    2651.4952   -42499.726    69.686373    221.99194 
   19900     134.2463   -1004.9664    144699.47   -39900.098    2707.9012   -42607.999    69.848297    226.71443 
   19950    131.37457   -1112.6959    144722.62   -39889.111    2649.9751   -42539.086    70.089742    221.86467 
   20000    129.08233   -1006.9347    144737.97   -39923.218    2603.7379   -42526.956    70.276377    217.99354 
   20050    133.15401   -1013.9695    144533.99   -39908.499    2685.8684   -42594.367    70.233273    224.86978 
   20100    130.54723   -980.89224    144417.82   -39901.049    2633.2867   -42534.336    70.495993    220.46746 
   20150    130.95217   -957.15501    144499.85   -39907.451    2641.4548   -42548.906    70.509744    221.15132 
   20200    131.34748   -1009.8929    144453.81    -39881.11    2649.4286   -42530.539    70.919076    221.81891 
   20250    133.34081    -995.2177    144389.98   -39896.404    2689.6363    -42586.04    70.873974    225.18523 
   20300    133.21315   -1049.3371    144397.71    -39877.06    2687.0613   -42564.121    71.078612    224.96965 
   20350    134.48821   -1113.8195    144302.74   -39861.921    2712.7807   -42574.702    71.315642    227.12296 
   20400    128.77385   -964.82731    144359.15   -39841.196    2597.5157   -42438.712    71.325568    217.47259 
   20450    133.29982    -950.6719     144425.3   -39793.744    2688.8096   -42482.554    71.659441    225.11602 
   20500    136.81478   -1018.8606     144369.8   -39742.911    2759.7103   -42502.622    71.942104    231.05206 
   20550    133.00801   -957.20952    144398.43   -39800.902    2682.9234   -42483.825    72.016351    224.62321 
   20600    132.71078   -850.42855    144592.29   -39803.412     2676.928    -42480.34    72.179375    224.12126 
   20650    133.05327   -1026.7749    144698.63   -39777.893    2683.8363   -42461.729    72.529286    224.69964 
   20700    133.27912   -1136.6733    144578.77   -39759.712    2688.3921   -42448.104    72.700748    225.08106 
   20750    132.58075   -1131.5125    144464.62   -39787.469    2674.3051   -42461.774     73.06377    223.90166 
   20800    134.73559   -817.39543    144463.97   -39774.714    2717.7707   -42492.484    73.431214    227.54074 
   20850    133.30369   -948.42091    144644.63   -39740.084    2688.8876   -42428.971    73.491191    225.12256 
   20900    133.05237   -1074.7767    144577.48   -39747.664    2683.8183   -42431.482    73.546595    224.69813 
   20950    133.99017   -855.52994    144616.88   -39711.548    2702.7346   -42414.282     73.66798    226.28187 
   21000    134.24521   -1096.7854    144691.62   -39769.098    2707.8791   -42476.977    73.643483    226.71259 
   21050    134.15584   -1130.4042    144788.19   -39751.496    2706.0764   -42457.572    73.843592    226.56166 
   21100     132.1635   -983.49777    144746.28   -39765.879    2665.8887   -42431.768    73.902011    223.19701 
   21150    132.96084    -966.9081    144777.64   -39755.598     2681.972    -42437.57    74.141381    224.54355 
   21200    134.64899   -909.10639    144827.45   -39724.902    2716.0239   -42440.926    74.447183    227.39449 
   21250    133.50734   -957.13886    144920.22   -39754.736    2692.9954   -42447.731    74.757689    225.46647 
   21300    135.54131   -1090.8246    144987.81    -39768.22     2734.023   -42502.243    74.971215    228.90143 
   21350    133.83065   -809.65489    144953.66   -39732.671     2699.517   -42432.188    75.237591    226.01248 
   21400    133.21702   -1014.8917     145038.4   -39700.782    2687.1395   -42387.922    75.389168    224.97619 
   21450    132.84774   -994.83249     145051.7   -39638.676    2679.6905   -42318.367    75.402632    224.35254 
   21500    134.53524   -1001.1194    145096.34   -39621.045    2713.7293   -42334.774     75.59923    227.20238 
   21550    132.96296   -1199.8316     144879.8   -39642.135    2682.0147    -42324.15    75.466919    224.54713 
   21600    134.66246   -1121.4026    144831.44   -39722.876    2716.2955   -42439.172    75.664548    227.41723 
   21650    136.13148   -775.69476    144910.76   -39702.799    2745.9274   -42448.727    75.932478    229.89811 
   21700    131.39945   -1040.3975    144957.84   -39789.461     2650.477   -42439.938    76.105938    221.90669 
   21750    132.16641   -995.59678    144919.73   -39780.063    2665.9473   -42446.011    76.262113    223.20192 
   21800    136.10395    -1022.086    144806.66   -39739.849     2745.372   -42485.221     76.35357    229.85161 
   21850    133.99742   -881.27633    144746.69   -39761.265    2702.8809   -42464.146    76.400948    226.29412 
   21900    133.97245   -939.29452    144718.57    -39812.12    2702.3772   -42514.497    76.637429    226.25195 
   21950    134.05913   -983.84028    144746.48   -39785.676    2704.1256   -42489.801    76.892299    226.39833 
   22000    132.64538   -1059.3119    144706.34   -39744.009    2675.6088   -42419.618    76.972153    224.01081 
   22050    134.49158   -929.11341    144839.81   -39720.285    2712.8486   -42433.133    77.039639    227.12865 
   22100     129.8493   -1007.5441    144848.72    -39731.27    2619.2086   -42350.479    77.279111     219.2888 
   22150    132.45795   -999.54156    144698.53   -39776.992    2671.8281    -42448.82    77.484385    223.69428 
   22200    134.53542   -1054.5932     144666.7   -39774.388     2713.733   -42488.121    77.516435    227.20269 
   22250    132.48614    -1058.194    144678.16    -39820.92    2672.3967   -42493.316    77.681912    223.74188 
   22300    131.55817   -1093.0921    144666.38   -39786.174    2653.6784   -42439.853    77.779816    222.17472 
   22350    132.70849   -1057.5777    144613.69   -39791.594    2676.8818   -42468.476    78.090326    224.11739 
   22400    132.33707   -1036.6688    144638.68   -39793.319    2669.3897   -42462.709    77.993286    223.49012 
   22450    133.98551   -1051.8873     144541.9   -39793.617    2702.6407   -42496.257    78.029377    226.27401 
   22500    132.05352   -1153.5913    144493.82   -39791.018    2663.6702   -42454.688    78.394423    223.01127 
   22550    132.58911   -986.44985    144354.96   -39815.112    2674.4736   -42489.586    78.547218    223.91577 
   22600    132.27671   -1083.5133    144391.36   -39834.685    2668.1723   -42502.857    78.675392     223.3882 
   22650    131.51619   -1058.8958    144293.29   -39875.143    2652.8318   -42527.975    78.814245    222.10384 
   22700    131.96757   -951.13242    144335.48   -39828.455    2661.9366   -42490.392    78.965794    222.86612 
   22750    134.00238   -898.68264    144530.46   -39784.975    2702.9811   -42487.956    79.432521     226.3025 
   22800    134.35273   -1061.4804    144368.31    -39733.22    2710.0479   -42443.268    79.547386    226.89417 
   22850     133.1222   -1051.1028    144240.99   -39774.708    2685.2268   -42459.935    79.692031    224.81606 
   22900    133.10463   -1087.6135    144101.88   -39784.979    2684.8723   -42469.851    79.764136    224.78638 
   22950    131.90716   -1192.3296    144012.38   -39825.182    2660.7179     -42485.9    80.108456    222.76409 
   23000    131.07801   -841.46511    144015.27   -39856.088    2643.9932   -42500.081    80.217228    221.36384 
   23050    131.09007   -1016.4421    144190.28   -39815.878    2644.2364   -42460.114    80.574952     221.3842 
   23100    131.52426   -1080.6607     144159.9   -39866.976    2652.9946    -42519.97    80.766549    222.11747 
   23150    132.38283   -1009.6239    144225.41   -39846.638    2670.3129   -42516.951    80.818961    223.56741 
   23200    133.94578    -803.0146    144371.95   -39791.702    2701.8393   -42493.542    80.937226    226.20691 
   23250    133.14801   -964.82208    144348.81    -39770.99    2685.7473   -42456.737    80.960394    224.85964 
   23300     132.4775   -984.33418     144398.3   -39783.916    2672.2224   -42456.139    81.286666    223.72729 
   23350    134.24067   -1222.3207     144120.6   -39760.623    2707.7876   -42468.411    81.492656    226.70493 
   23400    133.70256   -911.49573    144150.94    -39775.67    2696.9333   -42472.603    81.569012    225.79616 
   23450    133.41993   -951.97576    144324.19   -39752.953    2691.2324   -42444.185    81.704875    225.31886 
   23500    132.84095   -969.47713     144468.4    -39746.86    2679.5536   -42426.413    82.032765    224.34108 
   23550    132.19395   -1075.2361    144404.59   -39775.064    2666.5029   -42441.567    82.464139    223.24843 
   23600    132.67759   -1199.8287    144277.38   -39739.843    2676.2585   -42416.101    82.593688     224.0652 
   23650    134.81428   -1040.5358     144204.1   -39767.646    2719.3579   -42487.004    82.730083    227.67363 
   23700    132.01179   -985.01326    144172.87   -39769.808    2662.8285   -42432.636    82.892283     222.9408 
   23750    131.12708   -895.78164    144285.59   -39780.078    2644.9829   -42425.061    82.907195     221.4467 
   23800    133.94066   -1027.2959    144240.81   -39735.406    2701.7361   -42437.142    83.103156    226.19827 
   23850    133.60378   -804.48395    144311.58   -39673.379    2694.9408    -42368.32    83.382855    225.62935 
   23900     133.4538   -1185.7822    144380.43   -39661.508    2691.9155   -42353.424    83.724452    225.37606 
   23950    133.59355   -1147.1614    144168.06   -39700.873    2694.7345   -42395.607    83.911584    225.61207 
   24000    133.70506    -1012.413    144104.08   -39699.294    2696.9837   -42396.277    84.091451    225.80038 
   24050    134.64884    -1107.949    144174.74   -39730.768    2716.0209   -42446.789    84.346205    227.39424 
   24100    132.99653   -1028.8822     143999.7   -39739.311    2682.6919   -42422.003    84.449782    224.60383 
   24150    132.10617   -904.93516    144177.52   -39731.408    2664.7322    -42396.14    84.772387    223.10019 
   24200    135.61561   -1007.0621    144263.02   -39762.112    2735.5217   -42497.633    84.842744    229.02691 
   24250    135.51473     -1006.15    144297.81   -39786.025    2733.4868   -42519.512    84.933716    228.85654 
   24300    134.08982   -970.95703    144393.35   -39738.117    2704.7448   -42442.861    85.260916    226.45017 
   24350    133.83497   -1174.5477    144310.15   -39768.793    2699.6042   -42468.397    85.519025    226.01978 
   24400    130.43738   -930.31778    144339.06   -39775.211    2631.0709   -42406.282    85.529608    220.28194 
   24450    134.00555     -1023.23    144375.74   -39826.828    2703.0449   -42529.873    85.695197    226.30785 
   24500    131.57844   -1087.3899    144411.75   -39832.977    2654.0874   -42487.064    85.823152    222.20897 
   24550    130.33825   -946.08648    144470.65   -39848.253    2629.0714   -42477.324    85.921336    220.11454 
   24600    133.59365   -935.23097     144569.3   -39839.873    2694.7364    -42534.61    85.998569    225.61224 
   24650    131.60587   -1071.9506     144606.4   -39848.692    2654.6407   -42503.333    85.973587    222.25529 
   24700    131.50079   -915.44136    144516.41   -39848.065    2652.5211   -42500.587    86.141015    222.07783 
   24750    133.16376   -920.14928    144432.02   -39856.137    2686.0651   -42542.202    86.147327    224.88624 
   24800     134.9791   -1014.7521    144516.73    -39811.52    2722.6826   -42534.202    86.335945    227.95198 
   24850    132.88138   -960.36803    144532.29     -39819.3    2680.3691    -42499.67    86.758243    224.40936 
   24900    132.63939   -1062.0599    144592.54   -39819.942     2675.488    -42495.43    86.850311    224.00069 
   24950    133.49173   -807.98422    144786.86   -39792.489    2692.6805    -42485.17    86.971145    225.44011 
   25000    131.78539   -1016.4739    144813.13   -39765.407    2658.2617   -42423.669    87.146307    222.55845 
   25050    133.22797    -1144.465    144844.89   -39784.822    2687.3602   -42472.182    87.341971    224.99467 
   25100    129.57226    -1065.531    144628.13   -39756.912    2613.6203   -42370.532    87.895214    218.82093 
   25150    136.59404   -1131.4003    144466.15   -39735.174    2755.2577   -42490.432    88.066539    230.67928 
   25200     134.0928   -829.22466    144604.81   -39795.899    2704.8049   -42500.704    88.051361     226.4552 
   25250    136.91372   -1038.0326    144764.35   -39752.825     2761.706   -42514.531    88.331048    231.21915 
   25300    137.10774    -973.6762    144689.23   -39774.167    2765.6197   -42539.786    88.698521    231.54682 
   25350    134.61989   -854.63394     144771.4   -39816.126     2715.437   -42531.563    89.074202    227.34535 
   25400    134.53668   -1032.6184    144847.57   -39828.985    2713.7585   -42542.744    89.314281    227.20482 
   25450    133.23466   -1026.1627    144876.18   -39830.567    2687.4952   -42518.062    89.654461    225.00597 
   25500    130.33726   -1024.8869     144873.1    -39851.17    2629.0514   -42480.221    89.554156    220.11287 
   25550    132.57444   -1005.9474    144884.06   -39837.694    2674.1778   -42511.872    89.623108      223.891 
   25600    135.58573    -823.4197    145005.86   -39771.124     2734.919   -42506.043    89.542964    228.97645 
   25650    133.78723   -953.59242    145070.95   -39816.777    2698.6412   -42515.418    89.662297    225.93915 
   25700    133.80337   -941.62644    145112.32   -39852.049    2698.9667   -42551.016    89.758698    225.96641 
   25750    133.00516   -1151.1809    145075.49   -39819.107     2682.866   -42501.973    89.991122     224.6184 
   25800    132.56166   -1075.1955    144878.66   -39797.199      2673.92   -42471.118    90.211578    223.86941 
   25850    136.51327    -1008.002    144794.04   -39756.725    2753.6285   -42510.353    90.244446    230.54287 
   25900    134.95928   -992.01286    144815.36    -39834.14    2722.2828   -42556.423    90.355462    227.91851 
   25950    133.80166   -1123.4994    144731.37   -39863.058    2698.9322    -42561.99    90.308803    225.96352 
   26000     133.5608   -978.13429    144587.51   -39790.876    2694.0738    -42484.95    90.318346    225.55676 
   26050    132.38779   -1096.5254    144706.78    -39782.39    2670.4128   -42452.803    90.427215    223.57578 
   26100     136.6816   -1031.3178    144639.88   -39721.755    2757.0239   -42478.779    90.830576    230.82714 
   26150      135.731   -988.23682    144617.34   -39746.557    2737.8492   -42484.406    90.851871    229.22178 
   26200    132.32191   -1076.3702    144495.45   -39785.129    2669.0839   -42454.213    90.805342    223.46452 
   26250    133.08532   -914.72306    144458.54   -39822.094    2684.4829   -42506.577    91.161398    224.75378 
   26300    135.89742   -975.57164    144563.14   -39810.609    2741.2061   -42551.815    91.026357    229.50283 
   26350    130.67734   -974.44269    144624.53   -39895.583    2635.9111   -42531.494    91.051187    220.68719 
   26400    131.97112   -1151.5155     144558.2   -39904.849    2662.0082   -42566.858     91.04854    222.87212 
   26450    134.26911   -987.63616    144440.35   -39850.905    2708.3613   -42559.266    91.185603    226.75295 
   26500    136.69057   -1020.6643    144404.36   -39790.735    2757.2048    -42547.94    91.145688     230.8423 
   26550    136.28657   -1050.7678    144357.45   -39815.914    2749.0558    -42564.97    91.521276    230.16003 
   26600    133.80407    -913.1582    144521.19   -39769.653    2698.9809   -42468.634    91.885089     225.9676 
   26650    134.26798   -1093.1343    144437.83   -39822.994    2708.3385   -42531.332    92.092596    226.75104 
   26700    134.36314   -1079.1228    144589.06   -39812.461    2710.2578   -42522.719    92.276148    226.91174 
   26750    131.91461    -1020.634    144573.79   -39838.221    2660.8683    -42499.09    92.569229    222.77669 
   26800    129.48875   -1083.1065    144635.94   -39893.285    2611.9359   -42505.221    92.961672     218.6799 
   26850    136.41678    -1017.372     144398.7   -39820.087    2751.6822   -42571.769    93.149282    230.37992 
   26900    132.14587   -1073.6075    144318.77   -39831.625    2665.5331   -42497.158    93.424178    223.16724 
   26950     136.2817    -996.5598    144223.95   -39800.064    2748.9576   -42549.021    93.442176    230.15181 
   27000    130.58301   -909.63103    144346.36   -39869.812    2634.0085    -42503.82    93.717556    220.52789 
   27050    135.57738   -1057.6758    144346.52   -39824.491    2734.7505   -42559.241    93.760492    228.96235 
   27100    132.80137   -1047.4215    144287.64   -39774.153    2678.7553   -42452.909    93.886984    224.27424 
   27150    135.14946   -921.14065    144476.23   -39767.663    2726.1188   -42493.781    93.973693    228.23967 
   27200    133.82396   -1095.1509    144489.35   -39724.379     2699.382   -42423.761    94.319537    226.00118 
   27250    133.42692   -1001.8052    144468.42   -39767.927    2691.3733     -42459.3    94.428141    225.33066 
   27300    133.41914    -989.9295    144535.01   -39768.331    2691.2164   -42459.547     94.37245    225.31752 
   27350    133.27089   -1081.0135    144371.87   -39810.356     2688.226   -42498.582    94.687148    225.06716 
   27400    132.29794   -1012.2842    144242.63   -39836.888    2668.6004   -42505.488    94.952585    223.42404 
   27450    132.54626   -838.27196    144232.91   -39792.545    2673.6093   -42466.155    95.030024     223.8434 
   27500    132.12615   -1055.0333    144257.91   -39777.137    2665.1354   -42442.272    95.335805    223.13394 
   27550    137.51569   -945.59955    144310.68   -39821.845    2773.8485   -42595.694    95.670089    232.23576 
   27600    132.06895   -963.37217    144340.97   -39867.375    2663.9814   -42531.357    95.961578    223.03733 
   27650    131.48758   -1021.8714    144247.83   -39848.076    2652.2547    -42500.33     96.21526    222.05552 
   27700    134.50816   -1040.3509     144161.1    -39854.24    2713.1832   -42567.423    96.489606    227.15666 
   27750     134.0573   -1017.3571     144072.4   -39881.814    2704.0888   -42585.903     96.97444    226.39525 
   27800    133.02125   -912.12401    144219.28   -39836.426    2683.1905   -42519.616    97.152362    224.64557 
   27850    134.01834    -977.1534    144342.27   -39840.894    2703.3028   -42544.197    97.575354    226.32944 
   27900    133.89633   -972.74539     144386.8   -39867.136    2700.8418   -42567.978    97.655794     226.1234 
   27950    135.52313   -910.31401    144406.36   -39801.689    2733.6563   -42535.345    97.842651    228.87074 
   28000    135.53873   -873.12679    144531.51   -39793.301    2733.9709   -42527.272    98.098609    228.89708 
   28050    133.55725   -993.13481    144523.88   -39820.868    2694.0023    -42514.87    97.867726    225.55077 
   28100    132.52528   -1018.5681     144471.7   -39869.471    2673.1862   -42542.658    97.943202    223.80798 
   28150     135.4901   -692.58895    144529.24   -39879.075    2732.9901   -42612.065    97.892001    228.81496 
   28200    135.50967   -851.29192    144839.21   -39837.043    2733.3848   -42570.428    98.062842    228.84801 
   28250    134.41036    -1032.614    144915.72   -39878.506    2711.2104   -42589.716     98.18404    226.99149 
   28300    132.82344    -924.0278    144904.19   -39853.285    2679.2004   -42532.486    98.287413    224.31151 
   28350    134.20902   -796.35014    144939.12   -39802.225    2707.1491   -42509.374    98.373815    226.65146 
   28400    134.28577   -1209.7534    144988.35   -39804.864    2708.6974   -42513.562    98.807892    226.78109 
   28450     135.7694   -900.67562    144957.92   -39801.764    2738.6237   -42540.387    99.007802    229.28662 
   28500    132.78703   -1100.1521    145021.03   -39826.364    2678.4661    -42504.83    99.314296    224.25003 
   28550    133.91678   -1091.8428    144974.07   -39822.395    2701.2543   -42523.649    99.599816    226.15793 
   28600    136.61419   -762.62274    144959.69   -39800.376    2755.6643   -42556.041    99.834654    230.71332 
   28650    138.20815   -957.41791    144988.49   -39786.749    2787.8162   -42574.565    100.06961    233.40518 
   28700     135.4698   -924.70542    145008.98   -39834.646    2732.5806   -42567.227    100.24785    228.78067 
   28750      133.209   -1046.0473     145039.7   -39912.791    2686.9777   -42599.769    100.31145    224.96265 
   28800    131.89827    -940.0752    144989.86   -39869.783    2660.5386   -42530.322    100.41412    222.74908 
   28850    135.16345   -1209.2751    144830.72   -39811.279    2726.4011    -42537.68    100.74503     228.2633 
   28900    131.28029   -1143.0421    144806.06   -39877.539    2648.0734   -42525.613    100.94915    221.70545 
   28950    132.65411   -1100.4464    144712.55    -39885.91    2675.7848   -42561.695    100.96659    224.02555 
   29000     132.1315   -1056.5329    144616.78   -39870.741    2665.2431   -42535.984    101.15323    223.14296 
   29050    129.76895   -1023.7677    144779.43   -39899.743    2617.5879   -42517.331    101.23338    219.15311 
   29100    132.26854   -1121.2055    144616.71   -39889.633    2668.0075   -42557.641    101.33927     223.3744 
   29150    131.86951   -1006.6676    144555.53   -39902.585    2659.9585   -42562.544    101.52565    222.70051 
   29200    132.78213   -1013.1439    144561.26   -39871.621    2678.3671   -42549.988     101.6061    224.24174 
   29250    133.88046    -919.2048     144530.4    -39866.87    2700.5218   -42567.391     101.8414     226.0966 
   29300    135.31364   -774.92768       144523   -39854.496    2729.4307   -42583.926    102.00791    228.51695 
   29350    132.87364   -1003.8266    144620.76   -39860.541     2680.213   -42540.754    102.10814    224.39629 
   29400     132.2826   -917.79463    144641.36   -39840.562     2668.291   -42508.854    102.18005    223.39814 
   29450     134.5367   -986.33312    144632.54       -39864    2713.7589   -42577.759    102.46056    227.20486 
   29500     133.8001   -1043.0395    144496.96   -39805.448    2698.9007   -42504.348    102.59096    225.96088 
   29550    134.13901   -1070.2575    144344.79   -39804.982     2705.737   -42510.719    102.58097    226.53324 
   29600    132.16855   -1039.7859    144309.23   -39826.045    2665.9905   -42492.035    102.85781    223.20553 
   29650    134.03484   -879.70744    144336.06    -39820.55    2703.6357   -42524.186     102.9826    226.35731 
   29700    136.30084   -867.72358    144513.95   -39805.795    2749.3435   -42555.139    103.32759    230.18412 
   29750      134.405   -1069.7103    144463.47   -39850.865    2711.1024   -42561.967    103.40046    226.98245 
   29800    134.55505   -1079.2365    144300.19   -39836.567    2714.1291   -42550.696    103.58691    227.23585 
   29850    130.98942   -924.17623    144325.86   -39843.245    2642.2062   -42485.451     103.4006    221.21423 
   29900    133.68779   -952.25211    144298.53   -39816.605    2696.6352   -42513.241    103.60804    225.77121 
   29950    131.68653   -1121.2768    144225.13   -39805.743    2656.2677   -42462.011    103.99316    222.39151 
   30000    132.55465   -944.35275    144148.06   -39805.373    2673.7786   -42479.152    104.15462    223.85758 
   30050    130.93949   -965.51949    144150.83    -39793.59     2641.199   -42434.789    104.27766     221.1299 
   30100     132.3444   -918.89399    144220.69   -39812.141    2669.5376   -42481.679    104.31141    223.50251 
   30150    134.15479   -1063.0245    144251.64   -39778.301    2706.0552   -42484.356    104.24219    226.55988 
   30200    135.45955   -954.76996    144288.63    -39772.69    2732.3738   -42505.064    104.50977    228.76336 
   30250     133.5927   -1007.8205    144342.78   -39757.149    2694.7172   -42451.866    104.96571    225.61063 
   30300    131.75158   -1329.4423    144087.02   -39782.922    2657.5798   -42440.502    105.02286    222.50136 
   30350     135.9253    -1037.727    143952.28   -39771.623    2741.7686   -42513.392    105.20434    229.54992 
   30400    132.41837   -835.51359    143922.55   -39832.127    2671.0296   -42503.157    105.06723    223.62742 
   30450    135.87125   -973.68443    144110.59   -39783.285    2740.6783   -42523.964    105.18019    229.45864 
   30500    132.66614   -1057.4231    144098.47    -39812.88    2676.0274   -42488.908     105.6188    224.04585 
   30550    134.01917   -858.45376    144096.15   -39770.827    2703.3197   -42474.146    105.85018    226.33085 
   30600    133.57323   -1056.2497    144162.51   -39775.236    2694.3246    -42469.56    106.08716    225.57775 
   30650    133.92651   -983.23517    144239.05   -39790.741    2701.4507   -42492.192    106.11579    226.17437 
   30700    132.36758   -969.84034    144297.33   -39801.983    2670.0053   -42471.989    106.31802    223.54166 
   30750    134.91786   -865.53143    144258.02    -39785.33    2721.4473   -42506.778    106.24056    227.84856 
   30800    136.41154   -844.45713    144391.18   -39779.732    2751.5765   -42531.308     106.5766    230.37107 
   30850    133.75295   -981.13604    144522.64   -39813.899    2697.9497   -42511.849    106.76108    225.88126 
   30900     132.1461   -1022.0272    144438.98   -39859.416    2665.5377   -42524.954    106.80105    223.16762 
   30950    132.88069   -1069.8081    144396.55   -39869.883    2680.3552   -42550.238     106.9501    224.40819 
   31000    131.28312   -1050.1647    144279.88   -39840.253    2648.1304   -42488.384    107.05497    221.71023 
   31050    133.63688   -852.41075    144327.27   -39828.098    2695.6083   -42523.706    107.23162    225.68524 
   31100    130.55933   -1022.2146    144430.02     -39878.8    2633.5306    -42512.33    107.36333    220.48789 
   31150     130.9255    -1006.381    144337.72   -39852.208    2640.9167   -42493.125    107.60832    221.10627 
   31200    134.14376   -979.46841    144431.27   -39856.558    2705.8328   -42562.391    107.80602    226.54126 
   31250     130.8537   -1012.0632    144446.94   -39879.295    2639.4684   -42518.764    107.97167    220.98502 
   31300    132.72787   -1098.0696     144481.4   -39835.003    2677.2727   -42512.276    107.87199    224.15012 
   31350    133.39779   -972.51963    144370.45   -39847.443    2690.7857   -42538.228    107.94788    225.28146 
   31400    130.76847   -1028.7021    144443.11   -39871.139    2637.7493   -42508.888    108.05746    220.84108 
   31450    132.39174   -915.91343    144401.05   -39860.616    2670.4925   -42531.109    108.20702    223.58245 
   31500    131.12199   -940.25174    144325.71   -39850.595    2644.8802   -42495.475    108.31512    221.43811 
   31550    133.70997   -980.33119    144433.66   -39851.968    2697.0827   -42549.051    108.73073    225.80867 
   31600     130.6279   -1098.0377    144556.17   -39909.683    2634.9139   -42544.597    108.94889    220.60369 
   31650    134.98912   -1180.3298    144334.97   -39885.941    2722.8847   -42608.826    108.95052     227.9689 
   31700    131.66133    -899.8146    144296.42   -39869.731    2655.7594   -42525.491    108.85761    222.34895 
   31750    134.14822   -906.06744    144374.47   -39872.435    2705.9227   -42578.358    109.15802    226.54879 
   31800    134.88888   -816.78494    144497.79   -39848.569    2720.8627   -42569.431    109.22665    227.79962 
   31850     135.1582   -1110.2033       144529   -39816.412    2726.2952   -42542.707    109.27017    228.25444 
   31900    133.30554   -802.99162    144553.68   -39820.056    2688.9249   -42508.981    109.55006    225.12568 
   31950    132.39124   -1018.8966    144646.54   -39851.509    2670.4824   -42521.991     109.6399    223.58161 
   32000    135.83225   -911.67546    144663.13    -39863.12    2739.8916   -42603.011    109.87513    229.39278 
   32050    132.87144   -962.09826       144649   -39878.247    2680.1687   -42558.415    109.77716    224.39258 
   32100    135.01521   -972.98959    144785.81   -39902.489    2723.4109     -42625.9    109.93493    228.01296 
   32150    133.27213   -941.21459     144856.9   -39870.259     2688.251    -42558.51    110.01301    225.06926 
   32200    132.83745   -1095.0601    144802.05   -39846.377     2679.483    -42525.86    110.36828    224.33517 
   32250    133.73648   -1139.3792    144699.87   -39872.675    2697.6174   -42570.293     110.2495    225.85344 
   32300    135.30055   -891.73825    144639.49    -39890.32    2729.1666   -42619.487    110.40143    228.49484 
   32350    133.35104   -870.99328    144600.49   -39875.899    2689.8427   -42565.742    110.42742    225.20252 
   32400    133.67177   -986.79447    144761.61   -39850.938    2696.3122    -42547.25    110.42934    225.74417 
   32450    134.35637   -1065.9725    144766.42   -39850.418    2710.1214    -42560.54    110.50975    226.90031 
   32500    134.01458    -1007.041    144745.51   -39850.583    2703.2271    -42553.81    110.39935     226.3231 
   32550    136.15662   -1153.2854    144752.37   -39865.336    2746.4345    -42611.77    110.46614    229.94056 
   32600    135.26533   -1001.2613    144849.49   -39905.827    2728.4561   -42634.283    110.36811    228.43536 
   32650    133.40197   -917.35156    144806.77   -39904.405    2690.8701   -42595.275    110.80471    225.28853 
   32700    132.98354   -1091.8667    144840.58   -39913.249    2682.4298   -42595.679    111.03646    224.58188 
   32750     133.1472   -1029.5314    144795.22   -39942.357     2685.731   -42628.088    111.18199    224.85827 
   32800    134.58431     -853.905    144942.36   -39968.741    2714.7192    -42683.46    111.30304    227.28526 
   32850    130.65301   -1073.4514    145032.64   -39977.257    2635.4204   -42612.678    111.44357     220.6461 
   32900    130.62545   -979.89667    145025.19   -39981.881    2634.8645   -42616.745    111.64439    220.59956 
   32950    131.73493   -912.70022    144977.39    -39943.84     2657.244   -42601.084    111.41395    222.47324 
   33000    132.02961   -1234.7514    144829.51   -39915.947     2663.188   -42579.135    111.57443    222.97089 
   33050    131.67635   -953.86835       144724   -39907.302    2656.0624   -42563.364    111.86239    222.37432 
   33100    133.44061   -1014.9552    144784.21   -39898.929    2691.6494   -42590.579    112.02563    225.35378 
   33150    134.96897   -1034.8474    144878.36   -39887.974    2722.4782   -42610.453    112.18677    227.93487 
   33200    133.27549   -958.33997    144897.46   -39897.455    2688.3188   -42585.774    112.65384    225.07493 
   33250     133.5063   -963.39684    144827.26   -39909.588    2692.9746   -42602.562    112.74653    225.46473 
   33300    132.71228   -933.97587    144887.49   -39889.529    2676.9581   -42566.487    112.76712    224.12378 
   33350    131.53613   -948.05571    144829.54   -39901.238    2653.2338   -42554.471    113.05244     222.1375 
   33400    133.22634   -964.08427    144849.48   -39882.781    2687.3273   -42570.108    113.16993    224.99192 
   33450     134.7499   -1050.2139    144977.74   -39844.635    2718.0592   -42562.694     113.4034     227.5649 
   33500    133.94115    -1060.331    145002.82   -39840.356    2701.7459   -42542.102    113.82593    226.19909 
   33550    132.16613   -1164.0453    144867.34   -39873.515    2665.9417   -42539.456    113.73233    223.20145 
   33600     134.8272   -926.15799    144916.81   -39823.713    2719.6186   -42543.332    113.87063    227.69545 
   33650    135.53689   -1015.8872    144990.16   -39856.971    2733.9339   -42590.905    113.57882    228.89398 
   33700    135.69697   -990.51822    145075.67   -39805.141    2737.1628   -42542.303    113.91242    229.16431 
   33750    136.56117   -1089.2171    144985.29   -39873.597    2754.5947   -42628.192    114.21497    230.62377 
   33800    131.60864   -866.52676    144875.22   -39916.013    2654.6966   -42570.709    114.26842    222.25996 
   33850    131.50516   -903.42609    144812.32   -39908.393    2652.6092   -42561.003    114.37125     222.0852 
   33900    132.22282   -955.39794    144732.16   -39911.693    2667.0852   -42578.778    114.50739    223.29719 
   33950    133.72819   -910.83535    144769.99   -39876.592    2697.4502   -42574.042    114.61285    225.83944 
[...]
   92000    136.76562   -854.07546     144910.6   -39722.718    2758.7187   -42481.437    286.99361    230.96905 
   92050    135.15364   -1055.9144    144921.49   -39737.082    2726.2032   -42463.285    287.28289    228.24674 
   92100    135.92353   -907.67017    144948.72   -39787.693    2741.7327   -42529.426    287.16417    229.54692 
   92150    133.88088   -997.67712    145033.03   -39811.893    2700.5303   -42512.423    287.08144    226.09732 
   92200    134.37699   -983.43252    145032.89    -39759.48    2710.5372   -42470.017    287.16449    226.93513 
   92250    134.49991    -1000.189    145002.35   -39773.736    2713.0167   -42486.752    287.31323    227.14272 
   92300     135.4815   -878.15887    145034.83   -39694.378    2732.8166   -42427.195    287.56538    228.80043 
   92350    133.66623   -1019.0046     145073.1   -39754.973    2696.2005   -42451.173    288.48094    225.73481 
   92400    131.71632   -1001.6987     145079.9   -39766.425    2656.8685   -42423.293     288.5726    222.44181 
   92450    135.65656   -1072.0966    145221.96   -39735.153    2736.3476   -42471.501    288.86304    229.09606 
   92500     133.4256   -1093.4554     145114.1   -39791.137    2691.3466   -42482.483    289.13919    225.32843 
   92550    134.67062   -864.95176    145074.38   -39832.502    2716.4602   -42548.962    288.86078    227.43102 
   92600    131.04222   -970.73268    145176.83    -39822.35    2643.2711   -42465.621    289.20756    221.30339 
   92650    134.19588    -1057.104    145256.05   -39849.963    2706.8841   -42556.847    289.42908    226.62928 
   92700    130.34847   -1044.8949    145267.53   -39858.868    2629.2774   -42488.145    289.71638    220.13179 
   92750    131.54321   -1201.3237    145234.51   -39829.183    2653.3767    -42482.56    289.65695    222.14946 
   92800     132.8676   -971.54463    145052.79   -39812.747    2680.0912   -42492.839    289.82572    224.38609 
   92850    133.34001   -1019.2697     144962.3   -39810.161    2689.6202   -42499.781    290.06377    225.18389 
   92900    134.28632   -986.73568    145162.59   -39822.625    2708.7083   -42531.333     290.5714    226.78201 
   92950    130.50464   -966.00535    145070.13   -39914.978    2632.4276   -42547.405    290.56743    220.39554 
   93000    131.07512   -1040.5536     145003.9   -39896.509    2643.9348   -42540.444    290.48216    221.35895 
   93050    132.00233   -1035.7432    144997.62   -39847.931    2662.6378   -42510.569    290.27487    222.92483 
   93100    132.44822    -879.3607    145014.51   -39832.457    2671.6318   -42504.089    290.44972    223.67784 
   93150    132.73232   -993.39422    145016.97   -39836.855    2677.3623   -42514.217    290.63444    224.15762 
   93200    130.95047   -1038.3398    144968.54    -39823.23    2641.4205    -42464.65    290.59879    221.14845 
   93250    134.95013   -1013.3274    144812.13   -39803.506    2722.0982   -42525.604    290.56975    227.90305 
   93300    132.62393   -1164.3235    144841.53   -39799.998     2675.176   -42475.174    291.02974    223.97457 
   93350    131.28989   -1021.5257    144762.52   -39788.996     2648.267   -42437.263    291.24034    221.72166 
   93400    132.40993   -978.75702    144710.26   -39772.581    2670.8595   -42443.441    291.15552    223.61318 
   93450    133.54939   -901.84354    144764.29   -39777.819    2693.8436   -42471.663    291.10301    225.53749 
   93500    134.31315   -932.91536    144883.86   -39787.658    2709.2496   -42496.908    291.69405    226.82732 
   93550    136.97069   -1088.1296    144890.07   -39794.632    2762.8553   -42557.487    292.14315    231.31537 
   93600    134.16964   -1070.9316    144881.56   -39865.998    2706.3549   -42572.353    292.65404    226.58497 
   93650    134.11717   -1019.2744    144879.97   -39810.819    2705.2964   -42516.115    292.49472    226.49635 
   93700    134.57488   -1010.6616     144955.5   -39813.313    2714.5291   -42527.842    292.61938    227.26934 
   93750    131.87791   -1174.4857    144776.02   -39826.417    2660.1281   -42486.545    292.63151    222.71471 
   93800    132.74443   -1006.1869    144677.09   -39882.193    2677.6067   -42559.799    292.05847    224.17808 
   93850    133.50887   -1065.6112    144645.41   -39880.738    2693.0263   -42573.765    292.11413    225.46906 
   93900    133.30479   -1074.8493    144580.47    -39891.83    2688.9099    -42580.74    292.65428    225.12442 
   93950    131.79401   -966.87707    144620.95    -39867.01    2658.4356   -42525.445    292.89052    222.57301 
   94000    135.78012   -912.96901    144718.25    -39856.16    2738.8401       -42595    293.44008    229.30474 
   94050    133.81949   -988.26045    144755.87   -39872.597     2699.292   -42571.889      293.821    225.99364 
   94100    134.76108   -1041.2499    144766.64    -39851.44    2718.2848   -42569.725    294.06348    227.58378 
   94150    135.13083   -993.24171    144751.34   -39821.091    2725.7432   -42546.835     294.2171    228.20822 
   94200    131.96599   -981.29858    144795.75   -39858.287    2661.9046   -42520.191    294.23205    222.86345 
   94250    131.40268   -909.94444    144764.56   -39869.586     2650.542   -42520.128    294.25254    221.91213 
   94300    133.13749   -1075.2362    144870.48   -39881.311    2685.5352   -42566.846    294.77418    224.84188 
   94350    132.92318    -1087.918    144751.24   -39859.625    2681.2124   -42540.837    294.79687    224.47996 
   94400    134.40076    -1107.675    144688.66   -39820.996    2711.0167   -42532.013    295.04394    226.97528 
   94450    132.51372   -1046.4843    144687.65   -39869.018    2672.9531   -42541.971    295.11276    223.78846 
   94500    132.85218   -1003.8856     144580.7   -39875.494    2679.7802   -42555.275    295.03668    224.36005 
   94550    133.14199   -1191.1835    144586.02   -39851.946    2685.6259   -42537.572    295.62742    224.84947 
   94600      133.979   -1065.0774    144551.85   -39846.127    2702.5094   -42548.637    295.96402    226.26301 
   94650    132.21033   -929.15344    144661.34   -39847.118    2666.8334   -42513.951    296.11837     223.2761 
   94700    133.39193   -1039.1689    144606.32   -39857.154    2690.6675   -42547.821    296.55038    225.27157 
   94750    132.80031   -1112.5857    144574.77   -39906.967    2678.7339   -42585.701    296.43563    224.27245 
   94800    132.51147   -1053.0997    144494.29   -39896.143    2672.9076    -42569.05    296.78526    223.78465 
   94850    132.60669   -1003.0823    144394.27   -39847.615    2674.8283   -42522.443    296.75285    223.94546 
   94900     132.2056   -985.90146    144382.59   -39841.833    2666.7379   -42508.571    296.38772    223.26811 
   94950    131.38084   -931.99303    144569.57   -39798.622    2650.1014   -42448.724    296.53015    221.87525 
   95000    134.36425   -861.27975    144681.28   -39755.159    2710.2803   -42465.439    297.15794    226.91362 
   95050    134.88656   -933.45373    144858.62   -39727.168     2720.816   -42447.984    297.37802     227.7957 
   95100    134.53931   -1073.9154    144936.81   -39735.151    2713.8115   -42448.962    297.50666    227.20926 
   95150    134.09395   -917.94976    145025.81   -39771.943    2704.8281   -42476.771     297.7299    226.45715 
   95200    133.85723   -1130.4283    144922.83   -39805.905    2700.0532   -42505.958    297.83041    226.05737 
   95250    134.42513   -1016.1706     144860.4   -39785.522    2711.5083   -42497.031    298.08365    227.01643 
   95300    134.89319   -943.94234    144902.13   -39813.374    2720.9496   -42534.324    298.69487    227.80689 
   95350    131.03416   -1085.9702    144839.88   -39844.702    2643.1086    -42487.81    298.96397    221.28978 
   95400    130.67118      -1010.8    144708.28   -39845.773    2635.7868   -42481.559    299.09904    220.67678 
   95450     132.3818   -1100.1786    144695.44   -39885.035     2670.292   -42555.327    299.10084    223.56567 
   95500     131.9334   -1017.3701    144539.49   -39895.196    2661.2473   -42556.444    299.26273    222.80841 
   95550      130.253   -1145.1797    144565.36   -39900.512    2627.3516   -42527.864    299.26222    219.97056 
   95600    132.82202   -881.93789    144501.04   -39902.793    2679.1718   -42581.965     299.0528    224.30911 
   95650    133.00431    -933.2004    144648.85   -39881.726    2682.8487   -42564.575    299.57703    224.61696 
   95700    131.95348   -860.10959    144626.25   -39843.567    2661.6522   -42505.219    299.50318    222.84232 
   95750     135.3594   -1095.0649    144660.97   -39905.684    2730.3537   -42636.037    299.65461    228.59423 
   95800    130.83492   -962.17228    144696.25   -39883.052    2639.0896   -42522.142    299.68185     220.9533 
   95850    135.73373   -971.50773    144686.34   -39853.982    2737.9043   -42591.886    299.78562    229.22639 
   95900     135.2258   -1039.3275    144592.31   -39819.785    2727.6587   -42547.444      299.651     228.3686 
   95950    136.88033   -976.67241    144670.42   -39748.291    2761.0326   -42509.323    300.04797    231.16277 
   96000    134.49813   -881.20985       144698   -39820.882    2712.9808   -42533.863    300.20459    227.13972 
   96050    136.80022   -865.22256    144849.36   -39788.506    2759.4166   -42547.923    300.54256    231.02747 
   96100    133.67705   -1182.3255    144743.16   -39814.806    2696.4186   -42511.225    300.80585    225.75308 
   96150    135.64273   -1052.1773    144611.65   -39900.984    2736.0686   -42637.052    300.77755     229.0727 
   96200    134.14337   -1049.0837    144616.43   -39882.315     2705.825    -42588.14    300.57774    226.54061 
   96250    131.28663   -971.40643    144507.86   -39858.571    2648.2013   -42506.772    300.44001    221.71616 
   96300    133.09844   -947.52005     144745.8   -39863.579    2684.7474   -42548.327    300.71796    224.77592 
   96350    133.53722   -883.98621    144738.93   -39862.582    2693.5982    -42556.18    300.68731    225.51694 
   96400    135.09923   -1024.5906    144764.51   -39837.834    2725.1058    -42562.94     301.1585    228.15486 
   96450    132.71985   -948.36224    144777.57    -39891.38    2677.1109   -42568.491    301.19404    224.13656 
   96500    130.96567   -918.82631    144817.78   -39904.419    2641.7272   -42546.146    301.20615    221.17413 
   96550    134.48532   -896.62472    144951.76   -39921.954    2712.7224   -42634.676    301.50979    227.11808 
   96600    135.63992   -1042.5357    145176.61   -39873.081     2736.012   -42609.092    301.75594    229.06796 
   96650    133.75436   -1028.7536     145192.5     -39851.6    2697.9781   -42549.579    301.95939    225.88364 
   96700    136.58271   -940.98593    145157.77   -39811.405    2755.0293   -42566.434    302.40593    230.66015 
   96750    134.63561   -1072.7633    145196.65   -39852.062    2715.7539   -42567.816    302.60951    227.37188 
   96800    136.48872   -961.75966    145100.34   -39860.698    2753.1334   -42613.831    302.74867    230.50142 
   96850    135.68459   -1063.9724    145015.93   -39832.158    2736.9131   -42569.071    303.09248     229.1434 
   96900    136.63061   -1042.9163    144965.45   -39857.889    2755.9954   -42613.884    303.17499    230.74104 
   96950    131.47942   -1116.0803    144918.51   -39854.326    2652.0899   -42506.416     303.1825    222.04173 
   97000    133.30232   -969.16872    144921.03   -39916.822    2688.8599   -42605.682     303.5071    225.12024 
   97050    132.28868   -956.03871    144930.32   -39948.639    2668.4137   -42617.053    303.84425    223.40841 
   97100    137.01141   -1033.3292     144884.7   -39910.882    2763.6765   -42674.558    304.28412    231.38413 
   97150    135.84948   -953.48853    144943.15    -39877.91     2740.239   -42618.149    304.94503    229.42186 
   97200    134.06142    -979.6818    144969.93   -39845.918     2704.172    -42550.09    305.24939    226.40221 
   97250    134.78987   -1065.6181    145005.25   -39833.292    2718.8655   -42552.158    305.95548     227.6324 
   97300    133.20302   -1046.5794     144918.1   -39826.083     2686.857    -42512.94    306.17756    224.95254 
   97350    132.31503   -983.08471    144846.03   -39847.122    2668.9453   -42516.068     306.5545    223.45292 
   97400      133.428   -1016.4175    144872.46   -39901.596    2691.3951   -42592.991    306.75758    225.33249 
   97450    132.06549   -1014.0753    144788.46   -39936.042    2663.9118   -42599.954    307.38168    223.03149 
   97500    136.12599   -1056.0217    144713.94    -39882.03    2745.8166   -42627.847    307.53249    229.88884 
   97550    134.70986   -928.86987    144837.17   -39840.544    2717.2516   -42557.796    307.80894    227.49728 
   97600    135.77076   -836.24352    144952.31   -39841.162    2738.6512   -42579.813    307.75281    229.28893 
   97650    134.23921   -1168.5237    144946.01   -39875.683     2707.758   -42583.441    308.08618    226.70245 
   97700    133.78713    -1197.988    144831.25   -39941.735    2698.6391   -42640.374    308.30942    225.93898 
   97750    132.28527   -1046.0215    144717.01   -39918.234    2668.3448   -42586.579    308.46171    223.40264 
   97800    134.24914   -930.70553    144671.71   -39908.965    2707.9584   -42616.924    308.57433    226.71923 
   97850    132.82488   -996.50147    144847.44   -39879.594    2679.2294   -42558.823    309.17361    224.31394 
   97900    132.97001   -1073.1371    144781.68   -39823.598    2682.1569   -42505.755    309.60422    224.55904 
   97950    135.11621   -948.74199    144766.27   -39815.128    2725.4482   -42540.576    309.66463    228.18353 
   98000    133.25122   -1185.8362    144684.53    -39863.14    2687.8293   -42550.969    310.28406    225.03395 
   98050    131.81545   -929.12519    144600.11    -39906.56    2658.8681   -42565.428    310.67133    222.60922 
   98100    134.44225   -1056.7136    144619.95   -39862.967    2711.8537   -42574.821    310.76303    227.04535 
   98150    131.75216   -1013.6343    144678.36   -39903.961    2657.5915   -42561.552    311.23399    222.50234 
   98200    131.24442   -1101.7233    144575.21   -39889.819    2647.3497   -42537.169     311.5405    221.64486 
   98250    134.42704   -936.80237    144565.61   -39849.197    2711.5469   -42560.744    311.54515    227.01966 
   98300    134.30077   -1124.7752    144538.94   -39875.572    2708.9998   -42584.572    311.74593    226.80641 
   98350    133.59509   -953.02973     144573.7   -39879.576    2694.7654   -42574.341    312.01204    225.61466 
   98400    133.46821   -1113.5873    144658.51   -39874.384    2692.2061    -42566.59    312.21666    225.40039 
   98450    133.61333   -1126.6196    144466.71   -39828.449    2695.1333   -42523.582    312.18666    225.64546 
   98500    135.31846   -996.19377    144529.31   -39848.066    2729.5277   -42577.593    311.95735    228.52508 
   98550    133.25095    -777.6959    144668.35   -39877.123    2687.8238   -42564.947     312.4572    225.03349 
   98600    132.81532   -1080.1704    144778.56   -39858.687    2679.0367   -42537.723    312.69479     224.2978 
   98650    135.32381   -1032.3647    144771.68   -39864.641    2729.6357   -42594.276    312.53401    228.53412 
   98700    133.03792   -847.02444    144697.74   -39908.129    2683.5268   -42591.656    312.69199    224.67373 
   98750    133.36722   -1060.9234     144768.8   -39894.678    2690.1691   -42584.847    312.75394    225.22984 
   98800    132.06065    -945.5134    144752.99   -39887.726    2663.8142   -42551.541    312.56532    223.02332 
   98850    135.31554   -1006.3199    144911.01   -39879.819    2729.4688   -42609.288    312.70843    228.52015 
   98900    131.71377   -1021.3696    145077.49   -39917.207    2656.8171   -42574.024    313.29303     222.4375 
   98950    134.00043    -1133.417    144918.16   -39904.221    2702.9415   -42607.162    313.36419     226.2992 
   99000    134.41583   -998.57345    144689.03   -39886.081    2711.3207   -42597.402    313.20008    227.00073 
   99050    134.50397   -950.32039    144614.04   -39868.557    2713.0986   -42581.656    313.10103    227.14958 
   99100    134.24376   -953.53853    144735.55   -39856.338    2707.8499   -42564.188    313.29625    226.71013 
   99150     132.1878   -1038.8904    144678.82    -39881.36    2666.3789   -42547.739    313.66155    223.23805 
   99200    132.37553   -1005.7845    144587.09   -39912.764    2670.1656    -42582.93    313.30875    223.55509 
   99250    132.63128   -1033.0943    144546.22   -39930.797    2675.3243   -42606.122    313.43975    223.98698 
   99300    133.00951   -999.18041    144519.92   -39955.985    2682.9537   -42638.939    313.80514    224.62575 
   99350    130.37691    -955.4651    144586.86   -39916.772     2629.851   -42546.623     314.1297    220.17981 
   99400    133.65477   -1048.6378     144657.3   -39920.351    2695.9694    -42616.32    314.25104    225.71546 
   99450    133.47947   -1111.7505    144544.11   -39956.658    2692.4333   -42649.092    314.44374    225.41941 
   99500    131.12837   -848.37152    144602.41   -39956.572     2645.009   -42601.581    314.94491    221.44889 
   99550    131.45452   -1073.9818    144629.89   -39882.328    2651.5877   -42533.916    315.01517    221.99968 
   99600    129.80427   -1042.0124    144617.83     -39923.6    2618.3003   -42541.901    315.60641    219.21275 
   99650    131.61937   -869.46349    144520.71   -39895.162    2654.9129   -42550.075    315.59341    222.27808 
   99700     133.7887   -971.78262    144536.04    -39911.34    2698.6709   -42610.011    316.16787    225.94164 
   99750    131.71001   -1122.6815    144564.68   -39935.031    2656.7412   -42591.772    316.39706    222.43115 
   99800    133.30215   -1062.8525    144506.76   -39938.439    2688.8565   -42627.296    316.91176    225.11995 
   99850    132.36803   -1018.1502    144479.69   -39914.934    2670.0143   -42584.948    316.98734    223.54242 
   99900     137.2157   -864.34037    144544.55    -39841.71    2767.7972   -42609.507     317.2741    231.72913 
   99950    132.25012   -1048.1223    144492.98   -39907.691    2667.6359   -42575.327    317.45122    223.34329 
  100000     132.6916   -1020.7265    144501.73   -39898.288     2676.541   -42574.829    318.03784    224.08886 
Loop time of 340.674 on 40 procs for 100000 steps with 6768 atoms

Performance: 126.807 ns/day, 0.189 hours/ns, 293.536 timesteps/s
99.6% CPU use with 40 MPI tasks x no OpenMP threads

MPI task timing breakdown:
Section |  min time  |  avg time  |  max time  |%varavg| %total
---------------------------------------------------------------
Pair    | 50.84      | 137.35     | 285.02     | 678.0 | 40.32
Neigh   | 1.925      | 4.1432     | 12.399     | 170.5 |  1.22
Comm    | 32.24      | 129.95     | 175.02     | 381.3 | 38.14
Output  | 0.17215    | 0.17655    | 0.19209    |   0.7 |  0.05
Modify  | 6.9502     | 67.725     | 153.42     | 831.2 | 19.88
Other   |            | 1.33       |            |       |  0.39

Nlocal:    169.2 ave 407 max 112 min
Histogram: 32 0 0 0 0 0 0 2 2 4
Nghost:    1285.15 ave 1672 max 865 min
Histogram: 16 0 0 0 0 0 0 1 16 7
Neighs:    0 ave 0 max 0 min
Histogram: 40 0 0 0 0 0 0 0 0 0
FullNghs:  20167.9 ave 74495 max 7009 min
Histogram: 32 0 0 0 0 0 0 1 3 4

Total # of neighbors = 806716
Ave neighs/atom = 119.196
Neighbor list builds = 6140
Dangerous builds = 0

write_data		${DIR}/data.eq-${NAME}-${TEMP}
write_data		run_2/data.eq-${NAME}-${TEMP}
write_data		run_2/data.eq-het_freeze_2-${TEMP}
write_data		run_2/data.eq-het_freeze_2-225
undump          1

reset_timestep  0

unfix           2
unfix           3
unfix           4


################################################
#######         Run Simulation         #########
################################################

log				${DIR}/log.run_${NAME}
log				run_2/log.run_${NAME}
log				run_2/log.run_het_freeze_2
