LAMMPS data file via write_data, version 16 Mar 2018, timestep = 6000000

6337 atoms
2 atom types

0.0000000000000000e+00 4.9219999999999999e+01 xlo xhi
0.0000000000000000e+00 4.9019635930410494e+01 ylo yhi
1.8893466077728789e+00 5.8172653392221619e+01 zlo zhi

Masses

1 18.015
2 12.01

Atoms # atomic

4829 1 2.0753496431852563e+00 2.0958797448448276e+00 5.6488129598484820e+00 -2 3 0
3553 1 2.7836220231148529e-01 5.1205830810895664e-02 9.0696548777509669e+00 1 1 1
5011 1 4.6022196493135956e+00 1.8074914856986375e+00 6.6491113772048349e+00 2 0 0
4659 1 2.3792255102024891e+00 2.1989774894862286e+00 3.0510099312569139e+00 -2 0 1
4439 1 1.5533892743414306e+00 8.9215572253645110e+00 8.6357427099785085e+00 -1 1 1
4886 1 6.1622635772802496e+00 3.7881255471264863e+00 5.7025857130057362e+00 3 -2 0
5074 1 8.8606034504703715e+00 3.2052697277384254e+00 6.2560216868666760e+00 3 2 0
494 1 6.5860600563155112e+00 3.7501586368845916e+00 2.8208986183092515e+00 -1 2 1
4882 1 1.1523780326794542e+00 4.6716371661238130e+00 6.3484382389212035e+00 5 5 0
3315 1 2.6859778802416860e+00 6.4785596175557378e+00 5.3271643842247522e+00 -1 -3 0
4498 1 2.9226205827153446e+00 6.6951909603506392e+00 2.7167371510331404e+00 2 0 1
4572 1 6.9207862304065371e+00 8.0078616503367250e+00 5.2456018143338117e+00 -2 -2 0
1282 1 7.3593199264598095e+00 8.1547459246071945e+00 2.4555723199651638e+00 0 -2 1
1512 1 5.2518983282360017e+00 6.1946316685938116e+00 6.4360900207525402e+00 0 0 1
1268 1 3.3779756402579468e+00 1.0804238980067892e+01 4.9844024624006105e+00 -2 2 1
1261 1 3.6811851400223055e+00 1.1136090636939679e+01 2.1749614623644322e+00 -1 1 1
1444 1 1.6416939572712497e+00 8.8550704265333344e+00 5.7328034144922810e+00 1 -2 1
6188 1 5.9209859011004395e+00 1.0399435659182036e+01 6.1415475127755794e+00 -1 -2 1
4521 1 7.8257531570854972e+00 1.2175355982705121e+01 5.3592414965578747e+00 1 -1 1
5009 1 8.0377051189336903e+00 1.2285192397253187e+01 2.6103316446545959e+00 2 -2 0
4634 1 4.4304880937404976e+00 1.4871790043549915e+01 2.9063025666122928e+00 4 0 1
1623 1 4.6415919935972809e+00 1.5059042958966545e+01 5.5259626168375782e+00 3 -1 0
1537 1 2.5560324584332341e+00 1.3057001605400416e+01 6.0709477269506404e+00 1 1 1
296 1 5.9022340514805682e+00 1.0361868975072273e+01 9.2075235528420301e+00 0 -2 1
3086 1 4.2614772447515907e+00 1.4946761598597185e+01 9.9648858100893456e+00 2 0 1
3067 1 7.2818520059022882e+00 1.4622344996405241e+01 6.2714897256661128e+00 2 -2 1
485 1 3.2009261003320897e+00 1.0712015097287102e+01 9.6969843076150326e+00 -2 0 1
3726 1 7.8881708912737816e+00 1.2148855622612913e+01 9.9379590125624979e+00 0 1 1
4684 1 1.9878787515474770e+00 2.0357743208528332e+00 1.0123701953697092e+01 1 -1 1
538 1 4.5020061133289175e+00 1.3984035283976943e+00 9.4427229636729422e+00 0 0 0
2945 1 2.3236774248400147e+00 1.3054698337832004e+01 8.7805591544939272e+00 5 2 0
1754 1 8.7199564374031109e+00 2.7442431718390607e+00 8.9532575737969324e+00 1 3 0
4567 1 5.9971976869350039e+00 3.5389902413493322e+00 1.0313819944550881e+01 1 -2 0
1951 1 8.9670018007705732e-01 4.7809796406867520e+00 9.0538321317810020e+00 2 1 0
4957 1 2.6609990634108489e+00 6.5763312602039257e+00 9.6726954007454413e+00 2 4 1
4871 1 6.9285085443778822e+00 1.4531578898482509e+01 9.2145383506896934e+00 0 4 0
3621 1 5.4164908827206677e+00 6.2122117885367878e+00 9.2860304840221115e+00 1 -1 0
1592 1 6.9141833100326462e+00 8.1369014621253228e+00 1.0202999120440435e+01 1 3 1
4455 1 4.1828816477504061e-01 3.8950683352790089e-01 6.4645898306087721e+00 0 -1 1
3653 1 9.7241823323482079e-02 1.3461798381097310e+01 5.3104683593023143e+00 2 -3 0
1435 1 9.3221038872676960e+00 7.3746878811690220e+00 6.4139264882387526e+00 -4 0 1
6337 1 9.4574580890646356e+00 7.4469006006239153e+00 9.1531067978451830e+00 1 1 1
1887 1 4.9826129570547408e+00 1.8871840869929615e+00 1.9371770660560255e+00 2 0 0
2135 1 7.4199915744177902e-01 4.5972768814268594e-01 1.9342429554113210e+00 1 0 1
5992 1 2.0468784382024285e+00 2.0070562537997030e+00 1.2946284151515382e+01 2 3 1
1811 1 3.8743307239092637e+00 3.8038765799757464e+00 1.3757117656576041e+01 0 -1 0
6269 1 7.6370917460329322e+00 7.7684403195188723e-01 1.3906958569225711e+01 -1 2 1
6218 1 6.6063248648405324e+00 3.2941765883551573e+00 1.3107304514599109e+01 0 0 1
2150 1 2.8490516629715357e+00 6.0594331352855404e+00 1.2372814374474208e+01 0 -1 1
4847 1 4.3351023967019300e+00 8.0263826958737869e+00 1.3639556108953204e+01 0 -2 0
1789 1 6.6605059123148740e+00 3.4882871093627705e+00 2.0044452363106782e+01 1 3 0
1715 1 8.2575048879469151e+00 5.2928924726147155e+00 1.3636522353064002e+01 3 0 1
4844 1 7.0683412079485315e+00 7.6968590855007317e+00 1.2898343332364513e+01 0 0 0
5995 1 3.6716061002169762e+00 1.0162914915828326e+01 1.2404270150844006e+01 3 2 1
283 1 1.2297633634591894e+00 1.1061735023746754e+01 1.3332918364879561e+01 -4 -1 0
4675 1 8.9472617049039354e+00 9.6685117076727654e+00 1.3689034267239165e+01 -3 1 1
3046 1 7.7989184699212357e+00 1.2052572768971856e+01 1.2704520189936723e+01 1 1 0
4943 1 4.4220069706342766e+00 1.4726152121369365e+01 1.2727132540116637e+01 -1 -2 0
6282 1 1.7887670563123428e+00 1.5492721918081264e+01 1.3612407900779781e+01 0 1 1
124 1 5.2689305492526133e+00 1.2169522144221409e+01 1.3620953420244357e+01 2 1 0
4488 1 4.0555418457327913e-01 6.8467826186881755e+00 1.3508189622954516e+01 1 0 1
6316 1 2.7894412651296148e+00 6.4650967342744767e+00 2.0115540419781606e+01 3 0 0
536 1 2.1331616254695995e+00 1.5525857534889231e+00 1.7438571196742590e+01 0 1 1
21 1 3.6686992493103245e+00 3.7155513636731130e+00 1.6454263887320153e+01 -1 2 1
5969 1 2.0668155980788656e+00 1.9233214246393076e+00 1.9950393956524344e+01 -1 2 0
3004 1 3.6919847318787560e+00 1.0490290861242585e+01 2.0575731448760987e+01 1 0 1
1271 1 7.5785456177205441e+00 1.2314691836341989e+00 1.6554681379844247e+01 -2 4 1
3537 1 6.5624115323319270e+00 3.5883539297197595e+00 1.7443624048685706e+01 -1 2 0
1673 1 2.9351485737979948e+00 6.2419020224591160e+00 1.7433713469171373e+01 1 1 0
2072 1 7.1481237668243605e+00 7.6781482684851943e+00 1.9929182266562627e+01 1 0 0
2838 1 4.2933243016054874e+00 8.3552081832449527e+00 1.6293725271525716e+01 0 0 0
3532 1 1.2348199364184165e-01 1.3497188451411363e+01 2.0119966563956698e+01 2 3 0
3560 1 3.9292138471502114e-01 6.3553703686989174e+00 1.6311602367115569e+01 1 1 0
1629 1 5.3952679677958209e+00 1.2543391727879895e+01 1.6350652452272882e+01 1 0 0
4547 1 8.4331248896227446e+00 5.3961620654346349e+00 1.6569999383899489e+01 0 0 1
4493 1 7.0399327820485134e+00 7.8753519736911892e+00 1.7096657696666846e+01 0 -1 1
4818 1 4.2979385880273950e+00 1.4829704922799365e+01 1.7286592663644100e+01 2 -1 1
6141 1 3.4165666881173453e+00 1.0927484136923390e+01 1.7561069783393410e+01 -1 -1 0
5078 1 8.9171886288369639e-01 1.1341218470895404e+01 1.6171202682088619e+01 2 0 0
2897 1 7.9215821021026178e+00 1.2379361019410741e+01 1.7355378439902410e+01 0 2 1
3484 1 8.9644102759424609e+00 9.7523434342691750e+00 1.6435907464670148e+01 -1 0 0
3559 1 4.3033662853687007e+00 1.4262177074515591e+01 1.9989737655940377e+01 0 0 0
3511 1 1.6752700863091794e+00 1.5432911916142615e+01 1.6178518126619977e+01 1 3 0
384 1 8.3147015078782562e+00 1.1889354435818776e+01 2.0026886226897869e+01 -1 2 1
5986 1 9.4600223658260703e+00 1.4049202044617573e+01 1.3608624944115597e+01 -1 3 1
5135 1 9.6735653940856015e+00 1.4183480317047490e+01 1.6364319730526944e+01 3 0 0
1700 1 8.4068571108682804e+00 1.6329456331846373e+01 2.0145968258150269e+01 0 1 1
1916 1 8.5211872029002382e+00 1.6275700987624152e+01 1.2601659211232871e+01 -1 1 0
1333 1 2.7911686585215278e+00 2.5051297117513411e+00 2.4442755556441202e+01 -2 3 0
3082 1 8.6842930787678281e+00 1.6195180935043879e+01 2.4133789707544988e+01 1 1 1
3431 1 9.7093242496947563e-01 4.4225425614897257e-01 2.3941674202530972e+01 -1 -1 0
4600 1 6.6186438930026981e+00 3.7109485889166005e+00 2.3966487086568272e+01 -1 -1 1
396 1 4.7259294966746026e+00 1.6301447606097141e+00 2.0767517011468776e+01 0 1 0
767 2 8.6135000000000002e+00 1.4919019630994494e+01 2.6789818211966796e+01 0 0 0
1800 1 1.6291354046420881e+00 8.5064128113184427e+00 2.1004988736493253e+01 -2 0 0
679 2 6.1524999999999990e+00 1.3498160618518829e+01 2.6789818211966796e+01 0 0 0
677 2 4.9220000000000006e+00 1.2787731112280996e+01 2.6789818211966796e+01 0 0 0
6084 1 1.2208723942375435e+00 4.5459731307765816e+00 2.3603374623546344e+01 0 0 1
3471 1 2.7595096557705774e+00 6.7589749808054558e+00 2.4425384394415065e+01 1 -2 0
4504 1 9.3215217086183930e+00 3.4897664962495916e+00 2.3666548533984020e+01 -1 1 1
1713 1 5.7708854123950903e+00 6.2987227424732897e+00 2.3454865637405138e+01 0 -3 0
726 2 8.6135000000000002e+00 1.3498160618518835e+01 2.6789818211966796e+01 0 0 0
1837 1 1.1508070477514982e+00 8.8111294547601879e+00 2.3793618062020997e+01 -1 -1 0
1266 1 5.9635780734619157e+00 1.1218133685878101e+01 2.4226643084011307e+01 -2 -1 0
5088 1 5.1786144410477890e+00 1.5695392176333383e+00 2.3414641357799315e+01 1 4 0
3400 1 6.4560750602985406e+00 1.0204613247418658e+01 2.1301918637596309e+01 -1 5 0
390 1 1.1244247187902332e+00 4.3808523172213301e+00 2.0797024113953071e+01 1 -2 0
2018 1 7.0712414043920564e+00 8.5701024975960785e+00 2.3780456118714199e+01 -2 2 0
90 1 2.4438368339095922e+00 1.2752124333173052e+01 2.1817106939804351e+01 2 -2 0
2108 1 3.5753421267364254e+00 1.4341415900053798e+01 2.4295942857676259e+01 -2 3 1
1612 1 9.7575244073683916e+00 7.9734658887941654e+00 2.3855415301212492e+01 1 1 1
3644 1 6.2864849973419288e+00 1.4311576165925041e+01 2.3680977206535832e+01 0 -2 0
4873 1 1.9715159161932527e+00 1.1748324071569931e+01 2.4504370898757934e+01 0 -3 0
720 2 6.1524999999999990e+00 1.4919019630994494e+01 2.6789818211966796e+01 0 0 0
554 2 0.0000000000000000e+00 2.8417180249513345e+00 2.6789818211966796e+01 0 0 0
556 2 0.0000000000000000e+00 0.0000000000000000e+00 2.6789818211966796e+01 0 0 0
558 2 1.2305000000000001e+00 7.1042950623783474e-01 2.6789818211966796e+01 0 0 0
565 2 1.2305000000000001e+00 2.1312885187134998e+00 2.6789818211966796e+01 0 0 0
567 2 2.4610000000000003e+00 2.8417180249513345e+00 2.6789818211966796e+01 0 0 0
569 2 2.4610000000000003e+00 0.0000000000000000e+00 2.6789818211966796e+01 0 0 0
571 2 3.6915000000000004e+00 7.1042950623783474e-01 2.6789818211966796e+01 0 0 0
586 2 3.6914999999999996e+00 2.1312885187134998e+00 2.6789818211966796e+01 0 0 0
588 2 4.9220000000000006e+00 2.8417180249513332e+00 2.6789818211966796e+01 0 0 0
590 2 4.9220000000000006e+00 0.0000000000000000e+00 2.6789818211966796e+01 0 0 0
592 2 6.1524999999999999e+00 7.1042950623783407e-01 2.6789818211966796e+01 0 0 0
615 2 6.1524999999999999e+00 2.1312885187134989e+00 2.6789818211966796e+01 0 0 0
617 2 7.3829999999999991e+00 2.8417180249513345e+00 2.6789818211966796e+01 0 0 0
619 2 7.3829999999999991e+00 0.0000000000000000e+00 2.6789818211966796e+01 0 0 0
621 2 8.6134999999999984e+00 7.1042950623783407e-01 2.6789818211966796e+01 0 0 0
652 2 8.6134999999999984e+00 2.1312885187135002e+00 2.6789818211966796e+01 0 0 0
561 2 0.0000000000000000e+00 4.2625770374269996e+00 2.6789818211966796e+01 0 0 0
563 2 1.2305000000000001e+00 4.9730065436648339e+00 2.6789818211966796e+01 0 0 0
578 2 1.2305000000000001e+00 6.3938655561404980e+00 2.6789818211966796e+01 0 0 0
582 2 2.4610000000000003e+00 4.2625770374269996e+00 2.6789818211966796e+01 0 0 0
584 2 3.6914999999999996e+00 4.9730065436648339e+00 2.6789818211966796e+01 0 0 0
607 2 3.6914999999999996e+00 6.3938655561404980e+00 2.6789818211966796e+01 0 0 0
559 2 0.0000000000000000e+00 7.1042950623783341e+00 2.6789818211966796e+01 0 0 0
580 2 2.4610000000000003e+00 7.1042950623783341e+00 2.6789818211966796e+01 0 0 0
611 2 4.9220000000000006e+00 4.2625770374269978e+00 2.6789818211966796e+01 0 0 0
613 2 6.1524999999999999e+00 4.9730065436648339e+00 2.6789818211966796e+01 0 0 0
644 2 6.1524999999999999e+00 6.3938655561404980e+00 2.6789818211966796e+01 0 0 0
648 2 7.3829999999999991e+00 4.2625770374269996e+00 2.6789818211966796e+01 0 0 0
650 2 8.6135000000000002e+00 4.9730065436648339e+00 2.6789818211966796e+01 0 0 0
689 2 8.6135000000000002e+00 6.3938655561404980e+00 2.6789818211966796e+01 0 0 0
609 2 4.9220000000000006e+00 7.1042950623783341e+00 2.6789818211966796e+01 0 0 0
646 2 7.3830000000000009e+00 7.1042950623783341e+00 2.6789818211966796e+01 0 0 0
574 2 0.0000000000000000e+00 8.5251540748539991e+00 2.6789818211966796e+01 0 0 0
576 2 1.2305000000000001e+00 9.2355835810918343e+00 2.6789818211966796e+01 0 0 0
603 2 2.4610000000000003e+00 8.5251540748539991e+00 2.6789818211966796e+01 0 0 0
605 2 3.6915000000000004e+00 9.2355835810918343e+00 2.6789818211966796e+01 0 0 0
572 2 0.0000000000000000e+00 1.1366872099805333e+01 2.6789818211966796e+01 0 0 0
599 2 1.2305000000000001e+00 1.0656442593567498e+01 2.6789818211966796e+01 0 0 0
601 2 2.4610000000000003e+00 1.1366872099805333e+01 2.6789818211966796e+01 0 0 0
636 2 3.6914999999999996e+00 1.0656442593567499e+01 2.6789818211966796e+01 0 0 0
640 2 4.9220000000000006e+00 8.5251540748539991e+00 2.6789818211966796e+01 0 0 0
642 2 6.1524999999999999e+00 9.2355835810918343e+00 2.6789818211966796e+01 0 0 0
685 2 7.3830000000000009e+00 8.5251540748539991e+00 2.6789818211966796e+01 0 0 0
687 2 8.6134999999999984e+00 9.2355835810918343e+00 2.6789818211966796e+01 0 0 0
638 2 4.9220000000000006e+00 1.1366872099805333e+01 2.6789818211966796e+01 0 0 0
681 2 6.1524999999999999e+00 1.0656442593567499e+01 2.6789818211966796e+01 0 0 0
683 2 7.3829999999999991e+00 1.1366872099805333e+01 2.6789818211966796e+01 0 0 0
728 2 8.6134999999999984e+00 1.0656442593567498e+01 2.6789818211966796e+01 0 0 0
673 2 3.6915000000000004e+00 1.4919019630994494e+01 2.6789818211966796e+01 0 0 0
630 2 2.4610000000000003e+00 1.5629449137232328e+01 2.6789818211966796e+01 0 0 0
634 2 3.6915000000000004e+00 1.3498160618518829e+01 2.6789818211966796e+01 0 0 0
632 2 2.4610000000000003e+00 1.2787731112280996e+01 2.6789818211966796e+01 0 0 0
595 2 0.0000000000000000e+00 1.2787731112280996e+01 2.6789818211966796e+01 0 0 0
597 2 1.2305000000000001e+00 1.3498160618518829e+01 2.6789818211966796e+01 0 0 0
593 2 0.0000000000000000e+00 1.5629449137232333e+01 2.6789818211966796e+01 0 0 0
628 2 1.2305000000000001e+00 1.4919019630994494e+01 2.6789818211966796e+01 0 0 0
724 2 7.3829999999999991e+00 1.2787731112280996e+01 2.6789818211966796e+01 0 0 0
722 2 7.3829999999999991e+00 1.5629449137232333e+01 2.6789818211966796e+01 0 0 0
675 2 4.9220000000000006e+00 1.5629449137232333e+01 2.6789818211966796e+01 0 0 0
1794 1 9.3352843718430041e+00 3.3973037645152218e+00 2.1069243995324889e+01 0 4 1
3425 1 5.3578018030715135e+00 5.7092136653976446e+00 2.0898253393208098e+01 1 3 0
4624 1 6.5993841998492386e-01 2.5532472900975994e-01 2.1121961175691425e+01 3 -4 1
5142 1 6.9463260509923890e+00 1.4060756024375893e+01 2.0927720778189478e+01 2 0 0
3696 1 9.7604522925276864e+00 7.4637094978977032e+00 2.1180136857004864e+01 2 -3 1
555 2 0.0000000000000000e+00 1.4208590124756650e+00 3.0030999999997288e+01 0 0 0
557 2 0.0000000000000000e+00 0.0000000000000000e+00 3.0030999999997288e+01 0 0 0
566 2 1.2305000000000001e+00 2.1312885187134998e+00 3.0030999999997288e+01 0 0 0
568 2 2.4610000000000003e+00 1.4208590124756650e+00 3.0030999999997288e+01 0 0 0
570 2 2.4610000000000003e+00 0.0000000000000000e+00 3.0030999999997288e+01 0 0 0
587 2 3.6914999999999996e+00 2.1312885187134998e+00 3.0030999999997288e+01 0 0 0
564 2 1.2305000000000001e+00 3.5521475311891644e+00 3.0030999999997288e+01 0 0 0
585 2 3.6914999999999996e+00 3.5521475311891644e+00 3.0030999999997288e+01 0 0 0
883 2 0.0000000000000000e+00 2.8417180249513345e+00 3.3272181788030828e+01 0 0 0
884 2 0.0000000000000000e+00 0.0000000000000000e+00 3.3272181788030828e+01 0 0 0
885 2 1.2305000000000001e+00 7.1042950623783474e-01 3.3272181788030828e+01 0 0 0
889 2 1.2305000000000001e+00 2.1312885187134998e+00 3.3272181788030828e+01 0 0 0
890 2 2.4610000000000003e+00 2.8417180249513345e+00 3.3272181788030828e+01 0 0 0
891 2 2.4610000000000003e+00 0.0000000000000000e+00 3.3272181788030828e+01 0 0 0
892 2 3.6915000000000004e+00 7.1042950623783474e-01 3.3272181788030828e+01 0 0 0
900 2 3.6914999999999996e+00 2.1312885187134998e+00 3.3272181788030828e+01 0 0 0
589 2 4.9220000000000006e+00 1.4208590124756650e+00 3.0030999999997288e+01 0 0 0
591 2 4.9220000000000006e+00 0.0000000000000000e+00 3.0030999999997288e+01 0 0 0
616 2 6.1524999999999999e+00 2.1312885187134989e+00 3.0030999999997288e+01 0 0 0
618 2 7.3829999999999991e+00 1.4208590124756659e+00 3.0030999999997288e+01 0 0 0
620 2 7.3829999999999991e+00 0.0000000000000000e+00 3.0030999999997288e+01 0 0 0
653 2 8.6134999999999984e+00 2.1312885187135002e+00 3.0030999999997288e+01 0 0 0
614 2 6.1524999999999999e+00 3.5521475311891644e+00 3.0030999999997288e+01 0 0 0
651 2 8.6134999999999984e+00 3.5521475311891657e+00 3.0030999999997288e+01 0 0 0
901 2 4.9220000000000006e+00 2.8417180249513332e+00 3.3272181788030828e+01 0 0 0
902 2 4.9220000000000006e+00 0.0000000000000000e+00 3.3272181788030828e+01 0 0 0
903 2 6.1524999999999999e+00 7.1042950623783407e-01 3.3272181788030828e+01 0 0 0
915 2 6.1524999999999999e+00 2.1312885187134989e+00 3.3272181788030828e+01 0 0 0
916 2 7.3829999999999991e+00 2.8417180249513345e+00 3.3272181788030828e+01 0 0 0
917 2 7.3829999999999991e+00 0.0000000000000000e+00 3.3272181788030828e+01 0 0 0
918 2 8.6134999999999984e+00 7.1042950623783407e-01 3.3272181788030828e+01 0 0 0
934 2 8.6134999999999984e+00 2.1312885187135002e+00 3.3272181788030828e+01 0 0 0
560 2 0.0000000000000000e+00 5.6834360499026637e+00 3.0030999999997288e+01 0 0 0
562 2 0.0000000000000000e+00 4.2625770374269996e+00 3.0030999999997288e+01 0 0 0
579 2 1.2305000000000001e+00 6.3938655561404980e+00 3.0030999999997288e+01 0 0 0
581 2 2.4610000000000003e+00 5.6834360499026637e+00 3.0030999999997288e+01 0 0 0
583 2 2.4610000000000003e+00 4.2625770374269996e+00 3.0030999999997288e+01 0 0 0
608 2 3.6914999999999996e+00 6.3938655561404980e+00 3.0030999999997288e+01 0 0 0
577 2 1.2305000000000001e+00 7.8147245686161639e+00 3.0030999999997288e+01 0 0 0
606 2 3.6914999999999996e+00 7.8147245686161639e+00 3.0030999999997288e+01 0 0 0
887 2 0.0000000000000000e+00 4.2625770374269996e+00 3.3272181788030828e+01 0 0 0
888 2 1.2305000000000001e+00 4.9730065436648339e+00 3.3272181788030828e+01 0 0 0
896 2 1.2305000000000001e+00 6.3938655561404980e+00 3.3272181788030828e+01 0 0 0
898 2 2.4610000000000003e+00 4.2625770374269996e+00 3.3272181788030828e+01 0 0 0
899 2 3.6914999999999996e+00 4.9730065436648339e+00 3.3272181788030828e+01 0 0 0
911 2 3.6914999999999996e+00 6.3938655561404980e+00 3.3272181788030828e+01 0 0 0
886 2 0.0000000000000000e+00 7.1042950623783341e+00 3.3272181788030828e+01 0 0 0
897 2 2.4610000000000003e+00 7.1042950623783341e+00 3.3272181788030828e+01 0 0 0
610 2 4.9220000000000006e+00 5.6834360499026637e+00 3.0030999999997288e+01 0 0 0
612 2 4.9220000000000006e+00 4.2625770374269978e+00 3.0030999999997288e+01 0 0 0
645 2 6.1524999999999999e+00 6.3938655561404980e+00 3.0030999999997288e+01 0 0 0
647 2 7.3829999999999991e+00 5.6834360499026637e+00 3.0030999999997288e+01 0 0 0
649 2 7.3829999999999991e+00 4.2625770374269996e+00 3.0030999999997288e+01 0 0 0
690 2 8.6135000000000002e+00 6.3938655561404980e+00 3.0030999999997288e+01 0 0 0
643 2 6.1524999999999999e+00 7.8147245686161639e+00 3.0030999999997288e+01 0 0 0
688 2 8.6135000000000002e+00 7.8147245686161639e+00 3.0030999999997288e+01 0 0 0
913 2 4.9220000000000006e+00 4.2625770374269978e+00 3.3272181788030828e+01 0 0 0
914 2 6.1524999999999999e+00 4.9730065436648339e+00 3.3272181788030828e+01 0 0 0
930 2 6.1524999999999999e+00 6.3938655561404980e+00 3.3272181788030828e+01 0 0 0
932 2 7.3829999999999991e+00 4.2625770374269996e+00 3.3272181788030828e+01 0 0 0
933 2 8.6135000000000002e+00 4.9730065436648339e+00 3.3272181788030828e+01 0 0 0
953 2 8.6135000000000002e+00 6.3938655561404980e+00 3.3272181788030828e+01 0 0 0
912 2 4.9220000000000006e+00 7.1042950623783341e+00 3.3272181788030828e+01 0 0 0
931 2 7.3830000000000009e+00 7.1042950623783341e+00 3.3272181788030828e+01 0 0 0
573 2 0.0000000000000000e+00 9.9460130873296642e+00 3.0030999999997288e+01 0 0 0
575 2 0.0000000000000000e+00 8.5251540748539991e+00 3.0030999999997288e+01 0 0 0
602 2 2.4610000000000003e+00 9.9460130873296642e+00 3.0030999999997288e+01 0 0 0
604 2 2.4610000000000003e+00 8.5251540748539991e+00 3.0030999999997288e+01 0 0 0
598 2 1.2305000000000001e+00 1.2077301606043163e+01 3.0030999999997288e+01 0 0 0
600 2 1.2305000000000001e+00 1.0656442593567498e+01 3.0030999999997288e+01 0 0 0
635 2 3.6914999999999996e+00 1.2077301606043163e+01 3.0030999999997288e+01 0 0 0
637 2 3.6914999999999996e+00 1.0656442593567499e+01 3.0030999999997288e+01 0 0 0
894 2 0.0000000000000000e+00 8.5251540748539991e+00 3.3272181788030828e+01 0 0 0
895 2 1.2305000000000001e+00 9.2355835810918343e+00 3.3272181788030828e+01 0 0 0
909 2 2.4610000000000003e+00 8.5251540748539991e+00 3.3272181788030828e+01 0 0 0
910 2 3.6915000000000004e+00 9.2355835810918343e+00 3.3272181788030828e+01 0 0 0
893 2 0.0000000000000000e+00 1.1366872099805333e+01 3.3272181788030828e+01 0 0 0
907 2 1.2305000000000001e+00 1.0656442593567498e+01 3.3272181788030828e+01 0 0 0
908 2 2.4610000000000003e+00 1.1366872099805333e+01 3.3272181788030828e+01 0 0 0
926 2 3.6914999999999996e+00 1.0656442593567499e+01 3.3272181788030828e+01 0 0 0
639 2 4.9220000000000006e+00 9.9460130873296642e+00 3.0030999999997288e+01 0 0 0
641 2 4.9220000000000006e+00 8.5251540748539991e+00 3.0030999999997288e+01 0 0 0
684 2 7.3830000000000009e+00 9.9460130873296642e+00 3.0030999999997288e+01 0 0 0
686 2 7.3830000000000009e+00 8.5251540748539991e+00 3.0030999999997288e+01 0 0 0
680 2 6.1524999999999999e+00 1.2077301606043163e+01 3.0030999999997288e+01 0 0 0
682 2 6.1524999999999999e+00 1.0656442593567499e+01 3.0030999999997288e+01 0 0 0
727 2 8.6135000000000002e+00 1.2077301606043163e+01 3.0030999999997288e+01 0 0 0
729 2 8.6134999999999984e+00 1.0656442593567498e+01 3.0030999999997288e+01 0 0 0
928 2 4.9220000000000006e+00 8.5251540748539991e+00 3.3272181788030828e+01 0 0 0
929 2 6.1524999999999999e+00 9.2355835810918343e+00 3.3272181788030828e+01 0 0 0
951 2 7.3830000000000009e+00 8.5251540748539991e+00 3.3272181788030828e+01 0 0 0
952 2 8.6134999999999984e+00 9.2355835810918343e+00 3.3272181788030828e+01 0 0 0
927 2 4.9220000000000006e+00 1.1366872099805333e+01 3.3272181788030828e+01 0 0 0
949 2 6.1524999999999999e+00 1.0656442593567499e+01 3.3272181788030828e+01 0 0 0
950 2 7.3829999999999991e+00 1.1366872099805333e+01 3.3272181788030828e+01 0 0 0
973 2 8.6134999999999984e+00 1.0656442593567498e+01 3.3272181788030828e+01 0 0 0
596 2 0.0000000000000000e+00 1.2787731112280996e+01 3.0030999999997288e+01 0 0 0
633 2 2.4610000000000003e+00 1.2787731112280996e+01 3.0030999999997288e+01 0 0 0
594 2 0.0000000000000000e+00 1.4208590124756663e+01 3.0030999999997288e+01 0 0 0
629 2 1.2305000000000001e+00 1.4919019630994494e+01 3.0030999999997288e+01 0 0 0
631 2 2.4610000000000003e+00 1.4208590124756663e+01 3.0030999999997288e+01 0 0 0
674 2 3.6915000000000004e+00 1.4919019630994494e+01 3.0030999999997288e+01 0 0 0
905 2 0.0000000000000000e+00 1.2787731112280996e+01 3.3272181788030828e+01 0 0 0
906 2 1.2305000000000001e+00 1.3498160618518829e+01 3.3272181788030828e+01 0 0 0
924 2 2.4610000000000003e+00 1.2787731112280996e+01 3.3272181788030828e+01 0 0 0
925 2 3.6915000000000004e+00 1.3498160618518829e+01 3.3272181788030828e+01 0 0 0
904 2 0.0000000000000000e+00 1.5629449137232333e+01 3.3272181788030828e+01 0 0 0
922 2 1.2305000000000001e+00 1.4919019630994494e+01 3.3272181788030828e+01 0 0 0
923 2 2.4610000000000003e+00 1.5629449137232328e+01 3.3272181788030828e+01 0 0 0
945 2 3.6915000000000004e+00 1.4919019630994494e+01 3.3272181788030828e+01 0 0 0
678 2 4.9220000000000006e+00 1.2787731112280996e+01 3.0030999999997288e+01 0 0 0
725 2 7.3829999999999991e+00 1.2787731112280996e+01 3.0030999999997288e+01 0 0 0
676 2 4.9220000000000006e+00 1.4208590124756663e+01 3.0030999999997288e+01 0 0 0
721 2 6.1524999999999990e+00 1.4919019630994494e+01 3.0030999999997288e+01 0 0 0
723 2 7.3830000000000009e+00 1.4208590124756663e+01 3.0030999999997288e+01 0 0 0
768 2 8.6135000000000002e+00 1.4919019630994494e+01 3.0030999999997288e+01 0 0 0
947 2 4.9220000000000006e+00 1.2787731112280996e+01 3.3272181788030828e+01 0 0 0
948 2 6.1524999999999990e+00 1.3498160618518829e+01 3.3272181788030828e+01 0 0 0
971 2 7.3829999999999991e+00 1.2787731112280996e+01 3.3272181788030828e+01 0 0 0
972 2 8.6135000000000002e+00 1.3498160618518835e+01 3.3272181788030828e+01 0 0 0
946 2 4.9220000000000006e+00 1.5629449137232333e+01 3.3272181788030828e+01 0 0 0
969 2 6.1524999999999990e+00 1.4919019630994494e+01 3.3272181788030828e+01 0 0 0
970 2 7.3829999999999991e+00 1.5629449137232333e+01 3.3272181788030828e+01 0 0 0
993 2 8.6135000000000002e+00 1.4919019630994494e+01 3.3272181788030828e+01 0 0 0
2860 1 1.8892988391426164e+00 2.2471943394822658e+00 3.5597897528380678e+01 -5 -2 0
391 1 4.6676358667709694e+00 2.2264432454240226e+00 3.6653606848002887e+01 1 -1 -1
4613 1 4.0215453528488796e+00 1.5214581565361197e+01 3.5890696753022667e+01 1 -2 0
2148 1 6.6526826991249992e+00 1.4537900563224605e+01 3.6502933831504542e+01 2 3 0
6114 1 9.0067885439056106e+00 3.3789590264303384e+00 3.6513108529617682e+01 -4 0 0
1912 1 6.3558420132344642e+00 4.1749249907189521e+00 3.5782187647826561e+01 1 4 -1
3747 1 9.4579554790194500e+00 7.5338051716429044e+00 3.6811345291963804e+01 3 0 0
6036 1 1.1027935574153522e+00 4.5395000327445647e+00 3.6629140783245610e+01 1 2 0
3135 1 2.8067791180721784e+00 6.4607488968026772e+00 3.5668752324330917e+01 -2 1 0
5031 1 5.0734039080283004e+00 6.1127507275440607e+00 3.6753862606408312e+01 1 -1 -1
3150 1 7.0244259241903304e+00 7.7760152707044767e+00 3.5773615569276728e+01 1 2 -1
4649 1 6.8220183423764000e+00 1.4484079889982848e+01 3.9340116217132078e+01 3 -2 0
202 1 2.1304434509986567e+00 1.3066984580800096e+01 3.9221852447637026e+01 -1 2 -1
2976 1 3.5481556082294765e+00 1.0978036750375965e+01 3.6162774489568967e+01 -1 1 0
2881 1 1.7483067188730486e+00 8.9243375412851353e+00 3.6336821739475404e+01 -1 2 0
3176 1 2.3114298179161339e+00 1.3343531082980292e+01 3.6465527350218032e+01 1 -3 0
217 1 6.6017476006706657e+00 1.0321476877560338e+01 3.6497365696192695e+01 -3 -3 0
1400 1 8.0224992723720909e+00 1.2363717144583052e+01 3.5813350014457384e+01 1 0 0
1332 1 2.7215541010646199e-01 4.0068809268970162e-01 3.6856873168305036e+01 1 -1 0
213 1 6.2049924388014022e+00 1.0373039049971501e+01 3.9372272499643650e+01 -1 -1 -1
4976 1 1.8183748827285786e+00 8.7063037845550095e+00 3.9288103373384892e+01 -2 -3 -1
5147 1 9.1442732019512629e+00 3.2799955076542386e+00 3.9403203338303314e+01 3 -1 -1
3083 1 3.1853815901194342e+00 4.3302926166887925e+00 4.0596457545674426e+01 0 3 0
2052 1 3.5557881978970074e+00 3.9996345046141908e+00 4.3212718142640533e+01 0 -3 -1
4874 1 1.6453650237189790e-01 7.0238626842063852e+00 4.2875497067915610e+01 0 0 -1
1401 1 1.7594285006839321e+00 2.3724787766059054e+00 4.4470808130780718e+01 1 1 0
2829 1 7.7832635763335629e+00 1.1885378352537240e+01 4.7098597357477132e+01 1 0 0
1349 1 7.0158579541420734e+00 1.4209129205358528e+00 4.2997934244107377e+01 1 0 0
5287 1 7.0106550309843261e+00 1.5297586977647453e+00 4.0276000393114543e+01 -2 0 0
1635 1 9.3490980813885276e+00 7.7477551126153776e-01 4.4170317053606922e+01 4 0 0
3654 1 5.8244477093576110e+00 3.4001075304860522e+00 4.4303021329005929e+01 3 -1 0
6157 1 6.9248748071139055e+00 1.4448770336992183e+01 4.7835681623176733e+01 4 -2 0
4939 1 2.6854705496682363e+00 6.4671186126742946e+00 4.4267621008940530e+01 0 2 -1
274 1 4.4181338822321621e+00 8.5398717642918029e+00 4.3128004000144898e+01 0 2 -1
4973 1 9.6061749742714451e+00 7.5682986512249704e+00 4.8128187442032349e+01 1 0 0
2100 1 7.7004110578016158e+00 5.5492032761607355e+00 4.0776707675856493e+01 1 2 0
1514 1 7.7418144005612088e+00 5.4516583728119139e+00 4.3527514542847250e+01 0 -2 0
223 1 4.4844136711508895e+00 1.4884416926589152e+01 4.6655865050698260e+01 -3 2 -1
6094 1 4.4904696217838431e+00 8.5499312660504252e+00 4.0454089511709611e+01 -1 -2 -1
2958 1 9.1004692623009142e-01 1.1048491192512175e+01 4.2963172275603753e+01 0 -1 0
2047 1 5.4365699525941757e-01 1.0961881704077905e+01 4.0263173990799238e+01 1 3 -1
5006 1 3.6737291391693194e+00 1.0928803233594040e+01 4.3938365391236232e+01 3 1 -1
4789 1 8.7931011992844397e+00 9.8080553064621796e+00 4.3294383998688645e+01 0 -1 -1
3054 1 8.6741340719464084e+00 9.6410641707181117e+00 4.0653586803483762e+01 2 1 0
5184 1 3.8334548612417989e+00 1.4780813218407868e+01 4.4011055271373316e+01 4 -1 -1
4777 1 1.4244176598745888e+00 1.5343258211440880e+01 4.3471036319198056e+01 3 0 -1
192 1 1.5831611236893013e+00 1.5359883799650277e+01 4.0801416006049593e+01 -2 0 -1
4928 1 7.7526011930079601e+00 1.2353323751514278e+01 4.4094274255357206e+01 -1 2 0
1414 1 5.4574040252650011e+00 1.2702639967498245e+01 4.2821403906171007e+01 3 -3 -1
3259 1 4.7292301092997535e+00 1.2815630538351765e+01 4.0255311137577088e+01 0 0 -1
2951 1 2.7591768494041160e+00 1.2952763149017038e+01 4.7749606884262299e+01 1 1 -1
6189 1 9.2491012634245795e+00 1.4180093383151629e+01 4.0502589883101727e+01 1 0 0
3242 1 1.9646931745235761e+00 2.3240992552832069e+00 4.7194719649695458e+01 3 0 -1
1571 1 4.4878123073880154e+00 1.4821022345481560e+00 4.7842404673785595e+01 1 -2 -1
1757 1 8.7464413344011238e-01 4.5981840719094054e+00 4.7836969150304682e+01 4 3 -1
1583 1 8.7543193250534923e+00 3.1064844705670498e+00 4.7928340536626848e+01 3 1 0
4791 1 6.2740236656269133e+00 3.5439312247165233e+00 4.7104644550740005e+01 2 -2 0
4889 1 2.5822072922865145e+00 6.3590077309651898e+00 4.7058886318833423e+01 -1 0 0
1466 1 6.8933475398974053e+00 7.8305215534217796e+00 4.4218029488656221e+01 0 0 0
4496 1 5.1493080377747384e+00 5.8419909100124583e+00 4.7717652657527999e+01 -1 0 0
3044 1 7.0793122114131695e+00 7.6544615874101156e+00 4.6966209325457179e+01 2 1 0