LAMMPS data file via write_data, version 16 Mar 2018, timestep = 100000

6337 atoms
2 atom types

0.0000000000000000e+00 4.9219999999999999e+01 xlo xhi
0.0000000000000000e+00 4.9019635930410494e+01 ylo yhi
2.4809085039350940e+00 5.7581091496061646e+01 zlo zhi

Masses

1 18.015
2 12.01

Atoms # atomic

523 1 5.6057656550687618e+00 2.2586088629656729e+00 3.0501922070474716e+00 0 0 1
6186 1 3.8662790970977881e+00 1.0918424315720650e+01 3.3648126796858522e+00 0 0 0
3746 1 1.5773722572175555e+00 4.0662558249453493e+00 7.1368170512560081e+00 1 1 1
1941 1 5.8155060704599402e+00 5.7328968603657362e+00 7.0316041490837247e+00 1 0 0
2071 1 6.2404086008852069e+00 2.5212687357932930e+00 7.4274725669646777e+00 1 0 1
3579 1 3.4731317847041270e+00 9.4611308336764943e-01 4.4427460932988341e+00 1 0 0
205 1 1.9223952541801541e+00 5.9219982920876539e+00 4.9220379340721045e+00 0 0 0
3574 1 4.6984751538838019e+00 6.2318292530029193e+00 4.7003394759520347e+00 0 0 0
124 1 8.9805789399884333e+00 1.3311644256983097e+01 4.2806355930547006e+00 0 1 0
3299 1 9.1554598865627597e+00 1.1550371512744594e+01 7.1544918462722027e+00 1 0 0
1782 1 4.6377131237081821e+00 1.1625989151842051e+01 1.1249460046439117e+01 1 1 0
1385 1 5.0052054321657256e+00 9.0344919474321763e+00 5.2750913646443962e+00 0 0 1
3482 1 9.3876406139873385e+00 8.5817084020309569e+00 6.5635644958055082e+00 0 1 0
1401 1 5.8619490975752093e+00 1.6228351275970521e+01 8.8377166158462259e+00 0 0 1
5198 1 3.3202341868059770e+00 1.5673848254372931e+01 1.0794064374924355e+01 1 1 0
1644 1 2.9219341196895736e+00 1.2432650519228041e+01 7.1734311158434432e+00 0 0 0
4499 1 4.5582975222269448e+00 1.0075227223823680e+01 7.6395320891348391e+00 0 1 1
3189 1 7.8650146642702348e+00 9.1877481734705757e+00 4.0428112815574231e+00 1 1 1
3119 1 9.8007064322303918e+00 3.5060000929366115e+00 1.0017242064057168e+01 0 1 0
24 1 2.7385238730675829e+00 1.4319928354291134e+01 5.0933895104600442e+00 0 1 1
6195 1 1.3973692487377718e+00 1.5406363649524286e+00 2.9484148111948620e+00 -1 1 1
1710 1 4.1493824806548387e+00 1.3672294724340658e+01 2.6078385865604234e+00 1 0 1
3490 1 9.6315683540733605e+00 2.5907962198494530e+00 4.8648182401967173e+00 0 0 0
1606 1 1.8427340890680055e-01 3.8414571427663078e+00 4.1640321509812122e+00 0 0 0
4747 1 6.7564379581065834e+00 1.2225372609088263e+00 1.1570327822817468e+01 0 0 0
1362 1 7.5584360280012248e+00 1.0046080587468633e+00 4.3993395236077975e+00 1 0 0
3506 1 2.7840911068409206e+00 9.4613100477351004e+00 1.1178676057980528e+01 0 0 0
4941 1 3.2904229549773265e+00 1.8674880166424244e+00 6.9581238184858600e+00 1 0 0
1248 1 6.6200706660594024e+00 3.4102900391363584e+00 9.9016971070619988e+00 1 0 1
5056 1 8.3756026909175940e+00 4.2980279259510095e+00 6.8306530137896910e+00 1 0 1
6266 1 7.5014153988662180e+00 1.3787368079270596e+01 9.3708033909997752e+00 1 0 1
5128 1 3.4959816466498115e+00 5.4694097061999907e+00 9.1799494769845040e+00 1 0 1
2956 1 3.8127821128548323e-01 8.1042600087526679e+00 7.3233486746221432e+00 0 1 1
3046 1 3.0518489532693431e+00 8.1747501707173278e+00 8.8134854286164490e+00 0 0 0
3412 1 9.3676747364574471e+00 6.5390540050970829e+00 8.6374843952715707e+00 1 0 0
3177 1 5.7075891472349882e+00 5.9337804079102057e+00 1.0772553656368169e+01 -1 1 0
5059 1 3.5329007442300409e-01 1.1315916418903189e+01 7.4155319433381752e+00 0 0 0
48 1 6.8311827655691397e+00 7.8335157491240457e+00 8.4349198696690699e+00 0 1 0
1455 1 7.0292029635877018e+00 1.1064623070836568e+01 8.7260339668970577e+00 0 0 1
4864 1 1.0037953118990988e+00 4.6457352019664055e+00 1.0802029534318645e+01 0 0 0
3512 1 9.1496460851403789e+00 7.1821117089348316e+00 2.9483694526358315e+00 1 0 0
4985 1 2.8126542490937205e+00 1.3263613917004470e+01 9.9397366629021828e+00 -1 1 0
3229 1 1.3780179896349823e-01 1.0632816553400236e+01 1.0456615694869415e+01 1 0 0
1328 1 7.5011154413107013e+00 1.0406443393383455e+01 1.1597824072420096e+01 1 0 1
4621 1 1.3631608258110928e+00 9.8941621039230156e+00 2.4836337674458235e+00 1 0 0
1810 1 2.2803414618085966e+00 3.5926760533237614e+00 1.3219728149859300e+01 0 0 0
1711 1 3.1995363349786848e-01 9.5714938788218973e+00 1.5640831710189596e+01 0 0 0
3451 1 6.6987595662750063e+00 4.6678728002927405e+00 1.4590377894161026e+01 0 0 0
3504 1 9.2728600777784465e+00 1.6144617542661472e+01 1.4491764172659577e+01 0 1 0
1988 1 3.7957345255721413e+00 8.3679042107681081e+00 1.3744875384708097e+01 0 0 0
3104 1 2.1688932454840323e-01 5.4206969149066850e+00 1.4391740278666012e+01 2 1 1
2957 1 1.1648239239758635e+00 3.3624747687913237e-01 1.4688670209869020e+01 0 1 0
288 1 8.2525348040208186e+00 1.4176910546965313e+01 1.1752235639568704e+01 0 0 0
347 1 8.4374660182094239e+00 4.8974145961798889e+00 1.8237706800595603e+01 0 -1 0
3638 1 4.3002283088828896e+00 5.4251281884495839e+00 1.3289904282355916e+01 1 0 1
3092 1 6.9148752239940068e+00 1.6377958668834847e+00 1.4321157672357661e+01 0 1 1
3183 1 9.3635918797602713e+00 2.9153537586734179e-01 1.2775770869686983e+01 0 1 1
4973 1 8.8042246721566855e+00 6.4763097369391671e+00 1.4393495706884675e+01 0 0 1
3480 1 2.8135900414176707e+00 1.2972035355879060e+01 1.5911466159272111e+01 1 0 0
3250 1 3.0821548692815715e-02 1.6252263301636383e+01 1.4604498910648239e+01 -1 -1 0
4667 1 9.3414788591229154e+00 7.4015598403785017e+00 1.6955406753525601e+01 0 1 1
4467 1 6.7052081509345882e+00 1.1130675515866674e+01 1.4507538244591972e+01 0 0 1
3425 1 9.1239243539008061e+00 1.2823413684065310e+01 1.4865556370877743e+01 -1 0 0
139 1 4.6794616496151056e+00 1.2409912570029741e+01 1.3728657038498651e+01 0 1 0
1397 1 4.8388001651175410e+00 1.0981831543832903e+00 1.6458008986177006e+01 0 0 0
5281 1 2.2003953131900968e+00 1.5076144757284570e+01 1.3725898653056328e+01 1 0 1
1515 1 3.7870096055843838e+00 1.4883567247551637e+01 1.7612722193475157e+01 1 1 1
1829 1 7.5174868541620699e+00 9.3508241441078237e+00 1.7335431759915160e+01 0 0 0
251 1 3.4239341393903229e+00 1.3979546325372684e+01 2.0305549475369126e+01 1 0 0
6006 1 6.6635309743217990e+00 1.4830064074009611e+01 1.4043378365031018e+01 0 0 1
3269 1 8.9479854006524064e+00 1.3745873074338878e+01 1.7477598300311868e+01 1 0 1
2022 1 6.3286595468453832e-01 2.5747330328534339e+00 1.8333694421112117e+01 1 0 0
3475 1 2.9170044067303968e+00 2.8729923005312354e+00 1.5940580873435060e+01 1 0 0
1554 1 9.1510835626716087e+00 2.6789972651762572e+00 1.6687192225739942e+01 0 0 0
89 1 7.3346328534281602e+00 1.4635622959619090e+00 1.9869199807248066e+01 0 0 1
389 1 5.1889531867283356e+00 7.7288443092142440e+00 1.8418868158135545e+01 1 0 0
5320 1 5.0619831363279060e+00 9.4067564762677112e+00 1.5795429191972874e+01 0 0 0
4457 1 8.1770355339904521e-01 1.4962854199373472e+01 1.9695439077720458e+01 0 1 1
3606 1 5.2840397637028529e+00 4.3306383887884667e+00 1.6756739699107364e+01 1 0 1
3289 1 6.6101066356071847e+00 1.5243340182302274e+01 1.6845314232233775e+01 1 0 1
1680 1 1.9304787971938544e+00 7.3847620375562215e+00 1.5278442958273143e+01 0 0 0
4919 1 2.8145011819091152e+00 1.0189077201058936e+01 1.7206116640459342e+01 0 0 0
3287 1 3.1788242843478720e+00 9.1739228102667170e+00 1.9922216065368215e+01 1 0 0
337 1 7.3284406030452898e+00 9.2227879196856630e+00 2.0398137750918323e+01 0 0 0
5238 1 6.4473619776313584e-01 1.3826286028952319e+00 1.1859416322733260e+01 1 0 1
2870 1 9.6512050158193652e-01 5.4641483418266885e+00 1.9288263238796954e+01 0 1 1
371 1 7.5392585413763031e+00 3.5468739586010067e-01 1.7348765842165889e+01 0 1 0
3643 1 2.9867595909297280e+00 6.1160589160157057e+00 1.7278494905094821e+01 1 1 0
5145 1 6.2049725563060818e+00 3.8822731119393512e+00 1.9393773676559860e+01 1 1 1
152 1 1.8821772161099588e+00 1.1904837018557737e-01 1.7621915797956405e+01 0 0 0
4884 1 5.9366680419152162e-01 1.2227985534837321e+01 1.4676641548812672e+01 0 1 0
4834 1 8.1762736959268789e+00 7.6599508816518274e+00 1.1878169392526276e+01 1 -1 0
5101 1 7.6204861776939015e-01 1.3189509659099517e+01 1.1840993267097904e+01 1 0 0
1907 1 2.1471390743236540e+00 1.1774987260786752e+01 2.1577027656988985e+01 1 0 1
4853 1 3.2732829617390875e+00 5.8845419356764195e-01 2.1250533930493916e+01 0 0 1
1503 1 1.8708825164721894e+00 3.5051570082220902e+00 2.3840911051336825e+01 1 0 1
5190 1 9.2834898702948774e+00 4.7904639110770013e+00 2.4018006962193770e+01 0 1 0
726 2 8.6135000000000002e+00 1.3498160618518835e+01 2.6857950656699796e+01 0 0 0
420 1 5.8780712340367769e+00 5.2319521767246002e-01 2.2060624760966807e+01 0 0 0
5062 1 6.0041520435839546e+00 2.6459936092557639e+00 2.4280820932322886e+01 1 1 0
1713 1 8.8908247923633201e+00 1.7651273879219314e+00 2.4102594805765236e+01 0 0 0
2 1 4.5618493104524784e+00 5.0967150192799400e+00 2.3792788241742912e+01 1 0 0
3382 1 6.1215742645362017e+00 1.3365985954161211e+01 2.1512502827518976e+01 1 0 1
141 1 3.0053382787142660e+00 7.5830540229858663e+00 2.4242340235684054e+01 0 0 0
3208 1 9.4620482963690442e+00 4.4109692747772993e+00 2.1443311644190540e+01 0 1 0
1785 1 2.4912447898148211e+00 3.1496889527880776e+00 2.1078972518362669e+01 1 1 0
1984 1 7.1363243940537879e+00 6.3572122085039631e+00 2.3447331247393038e+01 0 1 0
724 2 7.3829999999999991e+00 1.2787731112280996e+01 2.6857950656699796e+01 0 0 0
4938 1 4.1877226008811368e+00 5.1876678800345895e+00 2.1006421541867272e+01 0 1 0
722 2 7.3829999999999991e+00 1.5629449137232333e+01 2.6857950656699796e+01 0 0 0
2036 1 1.7451919437541025e-01 1.2904018647497365e+01 2.4115867194415646e+01 1 1 0
450 1 3.3335841972492908e+00 1.2410463056507277e+01 2.3870804506680006e+01 1 0 0
3050 1 4.5937692039774385e+00 9.8492557160209984e+00 2.4245502069170040e+01 1 1 1
675 2 4.9220000000000006e+00 1.5629449137232333e+01 2.6857950656699796e+01 0 0 0
679 2 6.1524999999999990e+00 1.3498160618518829e+01 2.6857950656699796e+01 0 0 0
3516 1 7.7285651015819390e+00 9.1175857882986495e+00 2.4362289743705485e+01 0 0 0
720 2 6.1524999999999990e+00 1.4919019630994494e+01 2.6857950656699796e+01 0 0 0
3741 1 8.9823886951400649e+00 1.3645616079671209e+01 2.1305890629360572e+01 -1 0 0
3479 1 5.3485762617578780e+00 1.0672821735189432e+01 2.1669235024550243e+01 0 0 0
677 2 4.9220000000000006e+00 1.2787731112280996e+01 2.6857950656699796e+01 0 0 0
1433 1 7.9234206708012831e+00 1.4569322485150789e+01 2.4039014814433472e+01 1 0 1
1666 1 5.1169154682029792e+00 1.4556310970360160e+01 2.3648375171728517e+01 0 0 1
554 2 0.0000000000000000e+00 2.8417180249513345e+00 2.6857950656699796e+01 0 0 0
556 2 0.0000000000000000e+00 0.0000000000000000e+00 2.6857950656699796e+01 0 0 0
558 2 1.2305000000000001e+00 7.1042950623783474e-01 2.6857950656699796e+01 0 0 0
565 2 1.2305000000000001e+00 2.1312885187134998e+00 2.6857950656699796e+01 0 0 0
567 2 2.4610000000000003e+00 2.8417180249513345e+00 2.6857950656699796e+01 0 0 0
569 2 2.4610000000000003e+00 0.0000000000000000e+00 2.6857950656699796e+01 0 0 0
571 2 3.6915000000000004e+00 7.1042950623783474e-01 2.6857950656699796e+01 0 0 0
586 2 3.6914999999999996e+00 2.1312885187134998e+00 2.6857950656699796e+01 0 0 0
588 2 4.9220000000000006e+00 2.8417180249513332e+00 2.6857950656699796e+01 0 0 0
590 2 4.9220000000000006e+00 0.0000000000000000e+00 2.6857950656699796e+01 0 0 0
592 2 6.1524999999999999e+00 7.1042950623783407e-01 2.6857950656699796e+01 0 0 0
615 2 6.1524999999999999e+00 2.1312885187134989e+00 2.6857950656699796e+01 0 0 0
617 2 7.3829999999999991e+00 2.8417180249513345e+00 2.6857950656699796e+01 0 0 0
619 2 7.3829999999999991e+00 0.0000000000000000e+00 2.6857950656699796e+01 0 0 0
621 2 8.6134999999999984e+00 7.1042950623783407e-01 2.6857950656699796e+01 0 0 0
652 2 8.6134999999999984e+00 2.1312885187135002e+00 2.6857950656699796e+01 0 0 0
561 2 0.0000000000000000e+00 4.2625770374269996e+00 2.6857950656699796e+01 0 0 0
563 2 1.2305000000000001e+00 4.9730065436648339e+00 2.6857950656699796e+01 0 0 0
578 2 1.2305000000000001e+00 6.3938655561404980e+00 2.6857950656699796e+01 0 0 0
582 2 2.4610000000000003e+00 4.2625770374269996e+00 2.6857950656699796e+01 0 0 0
584 2 3.6914999999999996e+00 4.9730065436648339e+00 2.6857950656699796e+01 0 0 0
607 2 3.6914999999999996e+00 6.3938655561404980e+00 2.6857950656699796e+01 0 0 0
559 2 0.0000000000000000e+00 7.1042950623783341e+00 2.6857950656699796e+01 0 0 0
580 2 2.4610000000000003e+00 7.1042950623783341e+00 2.6857950656699796e+01 0 0 0
611 2 4.9220000000000006e+00 4.2625770374269978e+00 2.6857950656699796e+01 0 0 0
613 2 6.1524999999999999e+00 4.9730065436648339e+00 2.6857950656699796e+01 0 0 0
644 2 6.1524999999999999e+00 6.3938655561404980e+00 2.6857950656699796e+01 0 0 0
648 2 7.3829999999999991e+00 4.2625770374269996e+00 2.6857950656699796e+01 0 0 0
650 2 8.6135000000000002e+00 4.9730065436648339e+00 2.6857950656699796e+01 0 0 0
689 2 8.6135000000000002e+00 6.3938655561404980e+00 2.6857950656699796e+01 0 0 0
609 2 4.9220000000000006e+00 7.1042950623783341e+00 2.6857950656699796e+01 0 0 0
646 2 7.3830000000000009e+00 7.1042950623783341e+00 2.6857950656699796e+01 0 0 0
574 2 0.0000000000000000e+00 8.5251540748539991e+00 2.6857950656699796e+01 0 0 0
576 2 1.2305000000000001e+00 9.2355835810918343e+00 2.6857950656699796e+01 0 0 0
603 2 2.4610000000000003e+00 8.5251540748539991e+00 2.6857950656699796e+01 0 0 0
605 2 3.6915000000000004e+00 9.2355835810918343e+00 2.6857950656699796e+01 0 0 0
572 2 0.0000000000000000e+00 1.1366872099805333e+01 2.6857950656699796e+01 0 0 0
599 2 1.2305000000000001e+00 1.0656442593567498e+01 2.6857950656699796e+01 0 0 0
601 2 2.4610000000000003e+00 1.1366872099805333e+01 2.6857950656699796e+01 0 0 0
636 2 3.6914999999999996e+00 1.0656442593567499e+01 2.6857950656699796e+01 0 0 0
640 2 4.9220000000000006e+00 8.5251540748539991e+00 2.6857950656699796e+01 0 0 0
642 2 6.1524999999999999e+00 9.2355835810918343e+00 2.6857950656699796e+01 0 0 0
685 2 7.3830000000000009e+00 8.5251540748539991e+00 2.6857950656699796e+01 0 0 0
687 2 8.6134999999999984e+00 9.2355835810918343e+00 2.6857950656699796e+01 0 0 0
638 2 4.9220000000000006e+00 1.1366872099805333e+01 2.6857950656699796e+01 0 0 0
681 2 6.1524999999999999e+00 1.0656442593567499e+01 2.6857950656699796e+01 0 0 0
683 2 7.3829999999999991e+00 1.1366872099805333e+01 2.6857950656699796e+01 0 0 0
728 2 8.6134999999999984e+00 1.0656442593567498e+01 2.6857950656699796e+01 0 0 0
595 2 0.0000000000000000e+00 1.2787731112280996e+01 2.6857950656699796e+01 0 0 0
597 2 1.2305000000000001e+00 1.3498160618518829e+01 2.6857950656699796e+01 0 0 0
632 2 2.4610000000000003e+00 1.2787731112280996e+01 2.6857950656699796e+01 0 0 0
593 2 0.0000000000000000e+00 1.5629449137232333e+01 2.6857950656699796e+01 0 0 0
634 2 3.6915000000000004e+00 1.3498160618518829e+01 2.6857950656699796e+01 0 0 0
628 2 1.2305000000000001e+00 1.4919019630994494e+01 2.6857950656699796e+01 0 0 0
630 2 2.4610000000000003e+00 1.5629449137232328e+01 2.6857950656699796e+01 0 0 0
673 2 3.6915000000000004e+00 1.4919019630994494e+01 2.6857950656699796e+01 0 0 0
767 2 8.6135000000000002e+00 1.4919019630994494e+01 2.6857950656699796e+01 0 0 0
3326 1 2.2303073417618191e+00 6.5408241896728836e-01 2.4113542571681798e+01 1 1 0
552 1 1.8300892261832287e+00 7.2708211207913598e+00 2.1542466666035864e+01 0 0 0
477 1 7.0874819127037973e+00 6.5113125754245074e+00 2.0873688218562275e+01 1 0 0
195 1 1.5699404089583879e-01 8.2953950607290032e+00 2.4519100077322644e+01 0 1 0
2165 1 7.8169786301764077e-02 1.0023482705365890e+01 2.1892280018929842e+01 1 1 1
6150 1 4.8294567480638273e+00 1.4077475134719464e-02 2.4511298429583203e+01 1 0 0
555 2 0.0000000000000000e+00 1.4208590124756650e+00 3.0030999999998404e+01 0 0 0
557 2 0.0000000000000000e+00 0.0000000000000000e+00 3.0030999999998404e+01 0 0 0
566 2 1.2305000000000001e+00 2.1312885187134998e+00 3.0030999999998404e+01 0 0 0
568 2 2.4610000000000003e+00 1.4208590124756650e+00 3.0030999999998404e+01 0 0 0
570 2 2.4610000000000003e+00 0.0000000000000000e+00 3.0030999999998404e+01 0 0 0
587 2 3.6914999999999996e+00 2.1312885187134998e+00 3.0030999999998404e+01 0 0 0
564 2 1.2305000000000001e+00 3.5521475311891644e+00 3.0030999999998404e+01 0 0 0
585 2 3.6914999999999996e+00 3.5521475311891644e+00 3.0030999999998404e+01 0 0 0
883 2 0.0000000000000000e+00 2.8417180249513345e+00 3.3204049343296816e+01 0 0 0
884 2 0.0000000000000000e+00 0.0000000000000000e+00 3.3204049343296816e+01 0 0 0
885 2 1.2305000000000001e+00 7.1042950623783474e-01 3.3204049343296816e+01 0 0 0
889 2 1.2305000000000001e+00 2.1312885187134998e+00 3.3204049343296816e+01 0 0 0
890 2 2.4610000000000003e+00 2.8417180249513345e+00 3.3204049343296816e+01 0 0 0
891 2 2.4610000000000003e+00 0.0000000000000000e+00 3.3204049343296816e+01 0 0 0
892 2 3.6915000000000004e+00 7.1042950623783474e-01 3.3204049343296816e+01 0 0 0
900 2 3.6914999999999996e+00 2.1312885187134998e+00 3.3204049343296816e+01 0 0 0
589 2 4.9220000000000006e+00 1.4208590124756650e+00 3.0030999999998404e+01 0 0 0
591 2 4.9220000000000006e+00 0.0000000000000000e+00 3.0030999999998404e+01 0 0 0
616 2 6.1524999999999999e+00 2.1312885187134989e+00 3.0030999999998404e+01 0 0 0
618 2 7.3829999999999991e+00 1.4208590124756659e+00 3.0030999999998404e+01 0 0 0
620 2 7.3829999999999991e+00 0.0000000000000000e+00 3.0030999999998404e+01 0 0 0
653 2 8.6134999999999984e+00 2.1312885187135002e+00 3.0030999999998404e+01 0 0 0
614 2 6.1524999999999999e+00 3.5521475311891644e+00 3.0030999999998404e+01 0 0 0
651 2 8.6134999999999984e+00 3.5521475311891657e+00 3.0030999999998404e+01 0 0 0
901 2 4.9220000000000006e+00 2.8417180249513332e+00 3.3204049343296816e+01 0 0 0
902 2 4.9220000000000006e+00 0.0000000000000000e+00 3.3204049343296816e+01 0 0 0
903 2 6.1524999999999999e+00 7.1042950623783407e-01 3.3204049343296816e+01 0 0 0
915 2 6.1524999999999999e+00 2.1312885187134989e+00 3.3204049343296816e+01 0 0 0
916 2 7.3829999999999991e+00 2.8417180249513345e+00 3.3204049343296816e+01 0 0 0
917 2 7.3829999999999991e+00 0.0000000000000000e+00 3.3204049343296816e+01 0 0 0
918 2 8.6134999999999984e+00 7.1042950623783407e-01 3.3204049343296816e+01 0 0 0
934 2 8.6134999999999984e+00 2.1312885187135002e+00 3.3204049343296816e+01 0 0 0
560 2 0.0000000000000000e+00 5.6834360499026637e+00 3.0030999999998404e+01 0 0 0
562 2 0.0000000000000000e+00 4.2625770374269996e+00 3.0030999999998404e+01 0 0 0
579 2 1.2305000000000001e+00 6.3938655561404980e+00 3.0030999999998404e+01 0 0 0
581 2 2.4610000000000003e+00 5.6834360499026637e+00 3.0030999999998404e+01 0 0 0
583 2 2.4610000000000003e+00 4.2625770374269996e+00 3.0030999999998404e+01 0 0 0
608 2 3.6914999999999996e+00 6.3938655561404980e+00 3.0030999999998404e+01 0 0 0
577 2 1.2305000000000001e+00 7.8147245686161639e+00 3.0030999999998404e+01 0 0 0
606 2 3.6914999999999996e+00 7.8147245686161639e+00 3.0030999999998404e+01 0 0 0
887 2 0.0000000000000000e+00 4.2625770374269996e+00 3.3204049343296816e+01 0 0 0
888 2 1.2305000000000001e+00 4.9730065436648339e+00 3.3204049343296816e+01 0 0 0
896 2 1.2305000000000001e+00 6.3938655561404980e+00 3.3204049343296816e+01 0 0 0
898 2 2.4610000000000003e+00 4.2625770374269996e+00 3.3204049343296816e+01 0 0 0
899 2 3.6914999999999996e+00 4.9730065436648339e+00 3.3204049343296816e+01 0 0 0
911 2 3.6914999999999996e+00 6.3938655561404980e+00 3.3204049343296816e+01 0 0 0
886 2 0.0000000000000000e+00 7.1042950623783341e+00 3.3204049343296816e+01 0 0 0
897 2 2.4610000000000003e+00 7.1042950623783341e+00 3.3204049343296816e+01 0 0 0
610 2 4.9220000000000006e+00 5.6834360499026637e+00 3.0030999999998404e+01 0 0 0
612 2 4.9220000000000006e+00 4.2625770374269978e+00 3.0030999999998404e+01 0 0 0
645 2 6.1524999999999999e+00 6.3938655561404980e+00 3.0030999999998404e+01 0 0 0
647 2 7.3829999999999991e+00 5.6834360499026637e+00 3.0030999999998404e+01 0 0 0
649 2 7.3829999999999991e+00 4.2625770374269996e+00 3.0030999999998404e+01 0 0 0
690 2 8.6135000000000002e+00 6.3938655561404980e+00 3.0030999999998404e+01 0 0 0
643 2 6.1524999999999999e+00 7.8147245686161639e+00 3.0030999999998404e+01 0 0 0
688 2 8.6135000000000002e+00 7.8147245686161639e+00 3.0030999999998404e+01 0 0 0
913 2 4.9220000000000006e+00 4.2625770374269978e+00 3.3204049343296816e+01 0 0 0
914 2 6.1524999999999999e+00 4.9730065436648339e+00 3.3204049343296816e+01 0 0 0
930 2 6.1524999999999999e+00 6.3938655561404980e+00 3.3204049343296816e+01 0 0 0
932 2 7.3829999999999991e+00 4.2625770374269996e+00 3.3204049343296816e+01 0 0 0
933 2 8.6135000000000002e+00 4.9730065436648339e+00 3.3204049343296816e+01 0 0 0
953 2 8.6135000000000002e+00 6.3938655561404980e+00 3.3204049343296816e+01 0 0 0
912 2 4.9220000000000006e+00 7.1042950623783341e+00 3.3204049343296816e+01 0 0 0
931 2 7.3830000000000009e+00 7.1042950623783341e+00 3.3204049343296816e+01 0 0 0
573 2 0.0000000000000000e+00 9.9460130873296642e+00 3.0030999999998404e+01 0 0 0
575 2 0.0000000000000000e+00 8.5251540748539991e+00 3.0030999999998404e+01 0 0 0
602 2 2.4610000000000003e+00 9.9460130873296642e+00 3.0030999999998404e+01 0 0 0
604 2 2.4610000000000003e+00 8.5251540748539991e+00 3.0030999999998404e+01 0 0 0
598 2 1.2305000000000001e+00 1.2077301606043163e+01 3.0030999999998404e+01 0 0 0
600 2 1.2305000000000001e+00 1.0656442593567498e+01 3.0030999999998404e+01 0 0 0
635 2 3.6914999999999996e+00 1.2077301606043163e+01 3.0030999999998404e+01 0 0 0
637 2 3.6914999999999996e+00 1.0656442593567499e+01 3.0030999999998404e+01 0 0 0
894 2 0.0000000000000000e+00 8.5251540748539991e+00 3.3204049343296816e+01 0 0 0
895 2 1.2305000000000001e+00 9.2355835810918343e+00 3.3204049343296816e+01 0 0 0
909 2 2.4610000000000003e+00 8.5251540748539991e+00 3.3204049343296816e+01 0 0 0
910 2 3.6915000000000004e+00 9.2355835810918343e+00 3.3204049343296816e+01 0 0 0
893 2 0.0000000000000000e+00 1.1366872099805333e+01 3.3204049343296816e+01 0 0 0
907 2 1.2305000000000001e+00 1.0656442593567498e+01 3.3204049343296816e+01 0 0 0
908 2 2.4610000000000003e+00 1.1366872099805333e+01 3.3204049343296816e+01 0 0 0
926 2 3.6914999999999996e+00 1.0656442593567499e+01 3.3204049343296816e+01 0 0 0
639 2 4.9220000000000006e+00 9.9460130873296642e+00 3.0030999999998404e+01 0 0 0
641 2 4.9220000000000006e+00 8.5251540748539991e+00 3.0030999999998404e+01 0 0 0
684 2 7.3830000000000009e+00 9.9460130873296642e+00 3.0030999999998404e+01 0 0 0
686 2 7.3830000000000009e+00 8.5251540748539991e+00 3.0030999999998404e+01 0 0 0
680 2 6.1524999999999999e+00 1.2077301606043163e+01 3.0030999999998404e+01 0 0 0
682 2 6.1524999999999999e+00 1.0656442593567499e+01 3.0030999999998404e+01 0 0 0
727 2 8.6135000000000002e+00 1.2077301606043163e+01 3.0030999999998404e+01 0 0 0
729 2 8.6134999999999984e+00 1.0656442593567498e+01 3.0030999999998404e+01 0 0 0
928 2 4.9220000000000006e+00 8.5251540748539991e+00 3.3204049343296816e+01 0 0 0
929 2 6.1524999999999999e+00 9.2355835810918343e+00 3.3204049343296816e+01 0 0 0
951 2 7.3830000000000009e+00 8.5251540748539991e+00 3.3204049343296816e+01 0 0 0
952 2 8.6134999999999984e+00 9.2355835810918343e+00 3.3204049343296816e+01 0 0 0
927 2 4.9220000000000006e+00 1.1366872099805333e+01 3.3204049343296816e+01 0 0 0
949 2 6.1524999999999999e+00 1.0656442593567499e+01 3.3204049343296816e+01 0 0 0
950 2 7.3829999999999991e+00 1.1366872099805333e+01 3.3204049343296816e+01 0 0 0
973 2 8.6134999999999984e+00 1.0656442593567498e+01 3.3204049343296816e+01 0 0 0
596 2 0.0000000000000000e+00 1.2787731112280996e+01 3.0030999999998404e+01 0 0 0
633 2 2.4610000000000003e+00 1.2787731112280996e+01 3.0030999999998404e+01 0 0 0
594 2 0.0000000000000000e+00 1.4208590124756663e+01 3.0030999999998404e+01 0 0 0
629 2 1.2305000000000001e+00 1.4919019630994494e+01 3.0030999999998404e+01 0 0 0
631 2 2.4610000000000003e+00 1.4208590124756663e+01 3.0030999999998404e+01 0 0 0
674 2 3.6915000000000004e+00 1.4919019630994494e+01 3.0030999999998404e+01 0 0 0
905 2 0.0000000000000000e+00 1.2787731112280996e+01 3.3204049343296816e+01 0 0 0
906 2 1.2305000000000001e+00 1.3498160618518829e+01 3.3204049343296816e+01 0 0 0
924 2 2.4610000000000003e+00 1.2787731112280996e+01 3.3204049343296816e+01 0 0 0
925 2 3.6915000000000004e+00 1.3498160618518829e+01 3.3204049343296816e+01 0 0 0
904 2 0.0000000000000000e+00 1.5629449137232333e+01 3.3204049343296816e+01 0 0 0
922 2 1.2305000000000001e+00 1.4919019630994494e+01 3.3204049343296816e+01 0 0 0
923 2 2.4610000000000003e+00 1.5629449137232328e+01 3.3204049343296816e+01 0 0 0
945 2 3.6915000000000004e+00 1.4919019630994494e+01 3.3204049343296816e+01 0 0 0
678 2 4.9220000000000006e+00 1.2787731112280996e+01 3.0030999999998404e+01 0 0 0
725 2 7.3829999999999991e+00 1.2787731112280996e+01 3.0030999999998404e+01 0 0 0
676 2 4.9220000000000006e+00 1.4208590124756663e+01 3.0030999999998404e+01 0 0 0
721 2 6.1524999999999990e+00 1.4919019630994494e+01 3.0030999999998404e+01 0 0 0
723 2 7.3830000000000009e+00 1.4208590124756663e+01 3.0030999999998404e+01 0 0 0
768 2 8.6135000000000002e+00 1.4919019630994494e+01 3.0030999999998404e+01 0 0 0
947 2 4.9220000000000006e+00 1.2787731112280996e+01 3.3204049343296816e+01 0 0 0
948 2 6.1524999999999990e+00 1.3498160618518829e+01 3.3204049343296816e+01 0 0 0
971 2 7.3829999999999991e+00 1.2787731112280996e+01 3.3204049343296816e+01 0 0 0
972 2 8.6135000000000002e+00 1.3498160618518835e+01 3.3204049343296816e+01 0 0 0
946 2 4.9220000000000006e+00 1.5629449137232333e+01 3.3204049343296816e+01 0 0 0
969 2 6.1524999999999990e+00 1.4919019630994494e+01 3.3204049343296816e+01 0 0 0
970 2 7.3829999999999991e+00 1.5629449137232333e+01 3.3204049343296816e+01 0 0 0
993 2 8.6135000000000002e+00 1.4919019630994494e+01 3.3204049343296816e+01 0 0 0
2979 1 3.4135280164403898e+00 1.0433978786726432e+00 3.5858362203600507e+01 0 1 -1
3031 1 4.3864038144473110e+00 4.0537903020914712e+00 3.5561014540460349e+01 0 0 0
6156 1 8.6466021876731891e-01 1.8050341676955650e+00 3.6435285187463961e+01 0 0 0
5969 1 6.8818037483467487e+00 1.3866652571705814e+01 3.8377829270544197e+01 0 1 -1
3256 1 6.9062062972883282e+00 3.0528385303384193e+00 3.5714672903059878e+01 1 0 -1
1398 1 7.9673089082859647e+00 3.6901571639289577e-01 3.5425660664244177e+01 1 1 0
1593 1 9.2900680930919268e+00 1.4381001036592750e+01 3.6071431643221146e+01 -1 0 0
4685 1 9.2417826009113857e-01 1.3307926486786496e+01 3.8542162544032934e+01 0 -1 0
2914 1 4.5130346004796715e+00 6.7183563046304382e+00 3.6641901863383382e+01 0 1 0
5084 1 3.5261925113626447e+00 1.2522280322847507e+01 3.8909824696210222e+01 1 1 0
3193 1 1.0520229093484761e-01 7.4585821321832917e+00 3.6052518134692363e+01 1 0 0
1326 1 6.9401426077218984e+00 7.7950736148263635e+00 3.5439522008732865e+01 1 0 0
3055 1 8.2872630315019631e+00 5.5048015732562963e+00 3.5843743697429275e+01 1 1 0
6208 1 1.5590788133691160e+00 4.6463569755445171e+00 3.6124442308547174e+01 0 1 0
1361 1 7.2041949124904754e+00 3.6214653195224272e-01 3.8230135949469158e+01 1 0 -1
1612 1 2.6294900687539506e+00 8.3931506472635817e+00 3.5693967305555105e+01 0 1 0
1275 1 2.7539823563797037e+00 1.1348761669858305e+01 3.5697995833183739e+01 1 1 0
2894 1 4.4942751429431493e-01 1.2601591226774570e+01 3.5895293683648248e+01 1 0 0
3051 1 3.5067080476874555e+00 3.9731616363941877e+00 3.8446247681292206e+01 1 1 0
1468 1 8.6509833821535622e+00 9.7911829221692166e+00 3.5727567156692317e+01 1 1 -1
1294 1 7.4099311420765304e+00 1.2253195969646905e+01 3.5571488832336385e+01 -1 0 -1
1518 1 7.4936877664318162e+00 1.0639684189160365e+01 3.8681093583912400e+01 0 1 0
3699 1 4.7198863066288963e+00 1.3241115442978943e+01 3.6303121606052230e+01 1 0 0
4531 1 9.7813549519608785e+00 1.4215888866199826e+01 3.9108706297492986e+01 0 0 0
2859 1 6.6633602329218045e+00 3.1278212605780906e+00 3.8627598122600943e+01 1 1 0
6134 1 3.7017905673815381e+00 1.5902897955530360e+01 3.5761104273255583e+01 1 0 0
3481 1 1.0545683158504324e+00 1.6012617121357362e+01 3.8791437081030068e+01 0 0 -1
3622 1 3.2174759322589779e+00 3.2290988251453490e-01 3.9947069020178873e+01 1 0 0
4517 1 2.8036991770454840e+00 9.8211670721038828e+00 3.9987915435056848e+01 1 0 0
1507 1 8.3344298217117814e+00 1.3622582578556729e+01 4.6559716817092109e+01 1 0 -1
1394 1 9.4017832942338231e-01 7.5853215765551987e+00 4.2736275136985498e+01 1 0 0
6310 1 5.4574040782451911e+00 2.4355936374029041e+00 4.1223517094290955e+01 1 1 -1
5318 1 6.6521843566536187e+00 8.1526171947530433e+00 4.4624610626151110e+01 0 0 0
2147 1 9.0821195307040092e+00 3.8522658663903622e+00 3.9564376888310264e+01 1 1 0
3133 1 2.5060894999127430e+00 3.4317971812917398e+00 4.1538641409468227e+01 0 1 0
4681 1 1.3458842381309932e+00 5.7655334654000434e+00 4.0296217669365703e+01 1 0 0
1501 1 1.1525436498196193e+00 7.1603585096577751e+00 4.5645611014570505e+01 0 0 -1
3530 1 8.6164839877311596e+00 5.6526769948744944e+00 4.1960394973936602e+01 1 1 -1
2902 1 6.7053292032477829e+00 1.1440039286185879e+01 4.6679315601984243e+01 0 1 -1
1449 1 6.3410054707989794e+00 4.2998040602181211e+00 4.3196823871632006e+01 0 0 0
5259 1 8.6098454090526122e+00 8.2370001235017654e+00 3.9543195612523093e+01 1 1 0
4537 1 1.9885962251297928e+00 1.0526910868071786e+01 4.2686107009175217e+01 1 0 -1
5271 1 5.2321706155629588e+00 1.3153337155059749e+01 4.1306115798165109e+01 0 1 0
3696 1 6.5848579876994942e+00 7.5242789429954993e+00 4.1676543866346108e+01 0 0 0
3410 1 6.6575705899429094e+00 1.0759761233828673e+01 4.3815630801223634e+01 1 0 -1
2010 1 5.6100078824854815e+00 1.0222214475316425e+01 4.0813032488844527e+01 0 0 -1
150 1 6.1764856789047364e+00 1.5231544304812418e+01 4.2707279516137831e+01 0 0 0
1282 1 9.1486740078314668e+00 7.7915171208892851e+00 4.6114154283273621e+01 0 0 0
6127 1 8.9305392134031913e-01 2.5000693006836232e+00 4.6128251863169424e+01 1 1 -1
46 1 3.7585212584360965e+00 6.9945586722485436e+00 3.9631176446489860e+01 0 1 -1
3131 1 8.8976655986923987e+00 1.4807414807906486e+01 4.1852300332042006e+01 0 0 0
2886 1 2.7336413229141105e+00 4.6476408528057833e+00 4.4552265033825648e+01 0 1 -1
4423 1 3.4083514433071782e+00 4.7102370417292247e+00 4.8228039620285585e+01 1 0 0
6051 1 5.6982845502372301e+00 4.4376952135080101e+00 4.6515553626096420e+01 0 -1 0
2116 1 1.0132608120294685e-01 9.4430744859809508e+00 4.7535108815137335e+01 0 1 0