
# Create simulation box and atoms

read_data data.ML_graphite_m1000atm_245K
  orthogonal box = (0 0 2.62195) to (49.22 49.0196 57.4401)
  5 by 3 by 6 MPI processor grid
  reading atoms ...
  6337 atoms
  reading velocities ...
  6337 velocities
group water type 1
3577 atoms in group water
group graphite type 2
2760 atoms in group graphite

# Define potential

pair_style sw
pair_coeff * * MLC_e.sw mW C


# Fix graphite atoms in place

fix 5 graphite setforce 0.0 0.0 0.0
velocity graphite set 0.0 0.0 0.0


# Equilibration of molecular water

# Add velocity/set timestep

velocity	    water create ${TEMP} ${SEED} rot yes dist gaussian
velocity	    water create 248 ${SEED} rot yes dist gaussian
velocity	    water create 248 24386 rot yes dist gaussian
timestep	    5.0

# Define output

compute			1 water msd
compute			3 water temp
thermo	    	50
thermo_style	custom step temp press vol etotal ke pe c_1[4] c_3

# Neighbor lists

neigh_modify    delay 0 every 1 check yes

# Set fixes

fix             1 water momentum 10 linear 1 1 1 rescale
fix             2 water nve
fix             3 water temp/csvr ${TEMP} ${TEMP} 500.0 ${SEED}
fix             3 water temp/csvr 248 ${TEMP} 500.0 ${SEED}
fix             3 water temp/csvr 248 248 500.0 ${SEED}
fix             3 water temp/csvr 248 248 500.0 24386
fix             4 water press/berendsen z ${PRES} ${PRES} 1000.0 modulus 20000
fix             4 water press/berendsen z -1000 ${PRES} 1000.0 modulus 20000
fix             4 water press/berendsen z -1000 -1000 1000.0 modulus 20000

# Run 0.5 ns equilibration

dump		    1 all atom 2000 ${DIR}/eq.${NAME}-${TEMP}.dump
dump		    1 all atom 2000 run_8/eq.${NAME}-${TEMP}.dump
dump		    1 all atom 2000 run_8/eq.het_freeze_8-${TEMP}.dump
dump		    1 all atom 2000 run_8/eq.het_freeze_8-248.dump

reset_timestep  0

run	            100000
Neighbor list info ...
  update every 1 steps, delay 0 steps, check yes
  max neighbors/atom: 2000, page size: 100000
  master list distance cutoff = 6.67472
  ghost atom cutoff = 6.67472
  binsize = 3.33736, bins = 15 15 17
  1 neighbor lists, perpetual/occasional/extra = 1 0 0
  (1) pair sw, perpetual
      attributes: full, newton on
      pair build: full/bin/atomonly
      stencil: full/bin/3d
      bin: standard
Per MPI rank memory allocation (min/avg/max) = 4.07 | 4.222 | 4.502 Mbytes
Step Temp Press Volume TotEng KinEng PotEng c_1[4] c_3 
       0     139.9697   -1056.0851     132262.2   -34085.323    2643.5254   -36728.848            0          248 
      50    144.33019   -1109.5892     132309.3   -34093.265    2725.8795   -36819.144   0.52953345    255.72597 
     100    142.07702   -1278.6602    132364.97   -34068.914    2683.3252   -36752.239   0.87124894    251.73378 
     150    140.35872    -1325.815    132422.81    -34024.05    2650.8727   -36674.923     1.057015    248.68928 
     200    140.63013   -1350.8405    132501.69   -34092.102    2655.9986     -36748.1    1.2071915    249.17016 
     250    143.18044   -1307.8601    132565.75   -34057.515    2704.1649    -36761.68     1.354369    253.68883 
     300    139.31837   -1155.1219    132503.06   -34071.712    2631.2243   -36702.937    1.5294817    246.84598 
     350    138.94379   -1096.0774    132526.36   -34096.319    2624.1498   -36720.468    1.6753026    246.18229 
     400    140.52137    -1142.338    132550.66   -34157.494    2653.9446   -36811.439    1.8089113    248.97746 
     450     140.7947   -955.28345    132634.92   -34143.224    2659.1067   -36802.331     1.971489    249.46174 
     500    139.24377   -1382.9029    132685.31   -34131.413    2629.8152   -36761.228     2.131199    246.71379 
     550    140.07944   -1221.0543       132674   -34090.867    2645.5982   -36736.465    2.3005034    248.19445 
     600    141.03873   -955.52277    132729.26   -34042.263    2663.7157   -36705.978    2.4492003    249.89413 
     650    140.25571   -895.96989    132822.92   -34082.583    2648.9272    -36731.51    2.6277503    248.50676 
     700    141.16144   -1068.0537    132884.77   -34101.436    2666.0331   -36767.469     2.775304    250.11154 
     750    139.73716   -1267.0539    132890.12   -34059.913    2639.1336   -36699.047    2.9210246    247.58798 
     800    142.68289   -1057.7918    132907.32    -34086.76    2694.7678   -36781.528    3.0718311    252.80726 
     850    140.30909   -1133.5653    133019.96   -34027.315    2649.9353   -36677.251    3.2533645    248.60134 
     900      141.943   -1052.0667    133091.34   -34001.419     2680.794   -36682.213    3.3900203    251.49632 
     950    141.24678   -1195.1066    133119.23   -33991.331    2667.6449   -36658.976      3.55611    250.26275 
    1000    142.44088    -1157.877    133121.95   -34068.786    2690.1973   -36758.984    3.7062985    252.37848 
    1050     139.6959     -1128.07    133235.04   -34028.834    2638.3544   -36667.188    3.9698559    247.51489 
    1100    139.80543   -1212.3621    133271.06   -34047.369     2640.423   -36687.792    4.1449866    247.70895 
    1150    140.29699   -1053.4694    133278.73   -34074.324    2649.7067    -36724.03    4.2284732    248.57989 
    1200    139.84209   -1356.0804    133322.75   -34143.061    2641.1153   -36784.176    4.4383876     247.7739 
    1250    139.05416   -1538.1009    133256.25   -34120.992    2626.2343   -36747.226    4.6077064    246.37784 
    1300    139.92653   -1361.7932    133164.18   -34098.139    2642.7101   -36740.849    4.7353076    247.92351 
    1350    142.64341      -1295.9    133124.88    -34133.42    2694.0222   -36827.442     4.834051    252.73731 
    1400    138.42999   -1157.6227    133076.36   -34146.796    2614.4458   -36761.242    4.9681117    245.27192 
    1450    139.09498     -983.423    133068.57   -34130.128    2627.0052   -36757.134    5.2050367    246.45017 
    1500    139.63592   -1010.4726    133135.95   -34064.401    2637.2217   -36701.623    5.3474061    247.40862 
    1550     141.9854   -1010.4892    133154.44   -34044.703    2681.5949   -36726.298     5.480176    251.57145 
    1600    139.63985   -1475.0895    133140.96   -34015.244    2637.2959    -36652.54    5.5933203    247.41558 
    1650    141.82434    -1359.149    133015.07   -34007.154     2678.553   -36685.707    5.6479537    251.28608 
    1700    140.42488   -1088.4112    133068.38   -34003.562    2652.1222   -36655.684    5.7460888     248.8065 
    1750    143.28124   -1193.5584    133041.73   -33956.677    2706.0685   -36662.746    5.8270555    253.86742 
    1800    141.87303   -1329.4321    133003.42   -34000.499    2679.4726   -36679.971    5.9373129    251.37235 
    1850    140.28812   -1118.0054    132918.24   -34045.843    2649.5394   -36695.383    6.0727952    248.56419 
    1900    140.13487   -1050.1187    132926.98   -34006.158     2646.645   -36652.803    6.2440005    248.29266 
    1950    144.44831   -1269.1165    132903.72   -34006.053    2728.1104   -36734.163    6.4275369    255.93527 
    2000    141.21983   -1286.9511    132827.74   -33987.965    2667.1359   -36655.101    6.5578463    250.21499 
    2050    138.94678   -1206.0965    132753.65   -34049.137    2624.2063   -36673.343    6.7339067    246.18759 
    2100    143.09395   -1202.1214    132661.43   -34021.082    2702.5314   -36723.613    6.8542156    253.53559 
    2150    142.31211   -943.02409    132644.75   -34045.004    2687.7651   -36732.769    7.0930453    252.15031 
    2200    142.19879   -1255.0441    132598.84   -34032.475    2685.6251     -36718.1    7.3256097    251.94954 
    2250    140.57405   -1076.4177    132571.92   -34048.083    2654.9396   -36703.023     7.483035    249.07081 
    2300    139.28621   -1221.1086     132559.3   -34072.619    2630.6169   -36703.236    7.5255332    246.78899 
    2350    139.38516   -1117.6719    132516.76   -34115.363    2632.4856   -36747.848    7.6911381    246.96431 
    2400      139.992   -946.95702    132484.36   -34092.369    2643.9466   -36736.315    7.7728913    248.03951 
    2450     139.4663   -1105.4444    132514.48   -34110.867    2634.0181   -36744.885    7.9716278    247.10808 
    2500    137.19449   -1027.9247    132577.94   -34142.738    2591.1117    -36733.85    8.0995994    243.08285 
    2550    139.09593    -1022.588    132599.29   -34118.931    2627.0232   -36745.954    8.1796086    246.45186 
    2600     138.3224   -1069.3384    132614.11   -34144.458    2612.4139   -36756.872    8.3445513     245.0813 
    2650    138.78205   -1212.6548    132637.99   -34135.189     2621.095   -36756.284    8.4876926    245.89571 
    2700    139.55735    -1364.283    132597.52    -34158.47    2635.7377   -36794.207    8.5589957     247.2694 
    2750    141.63665    -1128.689    132516.06   -34156.952    2675.0081    -36831.96    8.6601591    250.95352 
    2800    135.13215   -1271.7709     132476.6   -34124.504    2552.1615   -36676.666    8.9031893    239.42877 
    2850    139.37361   -1013.0019    132542.23   -34136.466    2632.2675   -36768.734    9.0496048    246.94385 
    2900    138.08913   -1226.8099     132496.1   -34144.065    2608.0082   -36752.073    9.2624637    244.66799 
    2950    139.32148   -1139.6521     132440.1   -34120.058     2631.283   -36751.341    9.2881235    246.85149 
    3000     140.9302   -1202.3227    132393.43   -34106.061    2661.6659   -36767.727    9.4144143    249.70183 
    3050    136.84633   -1222.1051    132349.63   -34180.076    2584.5362   -36764.612    9.5973418    242.46598 
    3100    135.79323   -1215.2341    132293.31   -34141.551    2564.6469   -36706.198    9.6966175    240.60008 
    3150    136.87417   -1336.8498    132217.72   -34152.209    2585.0619    -36737.27    9.8872126     242.5153 
    3200    138.78365   -1116.0201    132233.33   -34116.645    2621.1253   -36737.771    10.003506    245.89855 
    3250    140.41488   -1093.1809    132324.76   -34093.815    2651.9333   -36745.748    10.134148    248.78877 
    3300    141.50265   -1233.1203    132363.35   -34104.241    2672.4774   -36776.718    10.336093    250.71611 
    3350    138.18934   -1214.3235    132328.47   -34119.711     2609.901   -36729.612    10.448445    244.84555 
    3400    139.37649   -984.79721    132408.07   -34059.268    2632.3218    -36691.59    10.623382    246.94894 
    3450    141.80896   -1108.8027    132415.63   -34072.108    2678.2625   -36750.371    10.779489    251.25883 
    3500    141.08779   -1111.1574    132467.16   -34041.716    2664.6421   -36706.358     10.95944    249.98104 
    3550    140.25757   -888.32009    132518.47   -34057.723    2648.9623   -36706.685    11.035996    248.51005 
    3600    140.30327   -1041.9253    132597.39   -34051.011    2649.8254   -36700.836    11.196243    248.59102 
    3650    140.71783   -1044.8245    132720.59   -34076.817    2657.6549   -36734.472    11.347268    249.32554 
    3700    141.78106   -967.97053    132812.14    -34107.94    2677.7355   -36785.676    11.528012    251.20939 
    3750     139.1727   -1299.4051    132856.88   -34094.076     2628.473   -36722.549    11.674759    246.58787 
    3800    142.31834   -1249.7508    132778.76   -34052.745    2687.8829   -36740.628    11.839179    252.16136 
    3850    141.69951    -1092.629    132817.35    -34076.62    2676.1954   -36752.816    11.972666     251.0649 
    3900    138.62079   -1319.7584    132845.75   -34119.944    2618.0495   -36737.994    12.081468       245.61 
    3950    140.10007   -1049.4012    132876.56   -34103.255    2645.9877   -36749.243    12.138636      248.231 
    4000    136.06713    -1385.821    132904.42    -34162.42      2569.82    -36732.24    12.240758    241.08539 
    4050    139.17372   -1154.1347    132925.51   -34098.258    2628.4923    -36726.75    12.435171    246.58968 
    4100    141.15904   -1354.0772     132877.3   -34031.141    2665.9878   -36697.129    12.562311    250.10729 
    4150     140.6093   -961.90762    132896.13   -34006.317    2655.6053   -36661.922    12.777196    249.13326 
    4200    142.73221   -1152.4674    132978.85    -34022.43    2695.6994   -36718.129    12.968164    252.89465 
    4250      137.464   -1201.3417    133021.58   -34036.485    2596.2017   -36632.687    13.073184    243.56037 
    4300    143.33782    -1307.207    132981.15   -34030.586    2707.1372   -36737.723     13.21165    253.96768 
    4350    141.44948   -1249.2701    132944.54   -34096.566    2671.4732   -36768.039    13.300885    250.62189 
    4400    137.81307   -1527.0793    132963.92   -34121.348    2602.7945   -36724.142    13.450935    244.17887 
    4450    142.07195   -1197.1966    132827.61   -34112.047    2683.2295   -36795.277     13.64359     251.7248 
    4500    140.58597    -1017.774    132806.57   -34096.545    2655.1646   -36751.709    13.748059    249.09192 
    4550    138.44112   -1140.8468     132879.1   -34101.833    2614.6562   -36716.489    13.939574    245.29165 
    4600    136.96497   -941.57351    132934.32   -34092.501    2586.7769   -36679.278    14.079915    242.67619 
    4650    139.09353   -1267.4432    132863.95    -34059.96    2626.9779   -36686.937    14.365993    246.44761 
    4700    139.02485    -1408.656    132831.35    -34117.93    2625.6808   -36743.611    14.549568    246.32592 
    4750    140.21667   -1124.4123    132808.54   -34057.937    2648.1899   -36706.127     14.66759     248.4376 
    4800    136.66663   -1435.9752    132689.67   -34080.055    2581.1423   -36661.197    14.809946    242.14758 
    4850    139.34735   -1364.8245    132670.86   -34092.985    2631.7716   -36724.756    14.976112    246.89732 
    4900    139.85242   -1004.3371    132683.55    -34104.39    2641.3105   -36745.701    15.058861    247.79221 
    4950    139.71442   -1083.5224    132815.02   -34052.828    2638.7041   -36691.532    15.316663    247.54769 
    5000    140.74919   -1129.2154     132907.8   -34027.211    2658.2472   -36685.458    15.568432    249.38111 
    5050    140.84667   -1021.5918    132978.61   -34037.597    2660.0883   -36697.686    15.653951    249.55383 
    5100    141.29818    -1274.016     133016.2   -34101.601    2668.6156   -36770.217    15.787564    250.35382 
    5150    140.09995   -1370.1436    132954.06    -34082.14    2645.9855   -36728.125    15.960415    248.23079 
    5200    139.81525   -1159.5304    132942.31   -34100.946    2640.6085   -36741.554    16.188836    247.72635 
    5250    138.96474   -1253.3553    132989.48   -34086.565    2624.5454   -36711.111    16.223697     246.2194 
    5300    141.28442   -1357.2117     133088.6   -34062.588    2668.3558   -36730.944    16.301447    250.32944 
    5350    140.20675   -1226.3354    133047.68   -34098.598    2648.0025   -36746.601    16.420283    248.42001 
    5400    138.84604   -1319.1781    133084.59   -34097.491    2622.3036   -36719.794    16.609523    246.00909 
    5450    140.95081   -1204.9054    133033.99   -34037.595    2662.0551    -36699.65    16.685799    249.73835 
    5500    141.82888   -1077.3209    133020.51   -34066.913    2678.6388   -36745.551    16.743757    251.29413 
    5550    139.72937   -1413.6872    132988.38   -34098.235    2638.9864   -36737.222    16.932163    247.57418 
    5600    138.10136   -1091.7965    132907.76   -34115.687    2608.2393   -36723.926    17.012508    244.68966 
    5650    138.65339   -1256.7179    132829.99    -34134.31    2618.6652   -36752.975    17.231846    245.66776 
    5700    134.39868   -1053.8256    132784.22   -34193.674     2538.309   -36731.983    17.410895    238.12921 
    5750    139.00865   -1244.8473    132830.05   -34195.162    2625.3748   -36820.537    17.467209    246.29721 
    5800    137.52494   -1121.4913    132841.68   -34157.688    2597.3527   -36755.041    17.643404    243.66835 
    5850    138.99748   -1195.1941    132823.48   -34100.619    2625.1637   -36725.783    17.663783    246.27741 
    5900    139.43059   -1156.8361    132875.37   -34099.312    2633.3437   -36732.656    17.777188    247.04481 
    5950    137.93717   -1101.7094    132913.87   -34043.408    2605.1382   -36648.547    17.922087    244.39874 
    6000    141.15756   -1230.0465    132843.56   -34012.189    2665.9598   -36678.148     17.99913    250.10466 
    6050    140.36905   -1522.8449    132797.25   -34058.268    2651.0678   -36709.336    18.083345    248.70758 
    6100    139.94287   -1284.4266    132782.57    -34090.32    2643.0188   -36733.338    18.240255    247.95247 
    6150    141.18892   -1075.3548    132898.81   -34045.192    2666.5522   -36711.744    18.417977    250.16023 
    6200     141.0717   -1360.5002     132874.3   -34049.096    2664.3384   -36713.434    18.621512    249.95255 
    6250    139.20136   -1111.3581    132889.99   -34055.934    2629.0144   -36684.948     18.79111    246.63866 
    6300    140.39103   -1238.3803     132918.1   -34079.397    2651.4828    -36730.88    18.895743    248.74652 
    6350    138.11938   -1317.6536    132910.06   -34117.297    2608.5795   -36725.876     18.98832    244.72158 
    6400    137.33463   -1198.3254       132857   -34131.206    2593.7584   -36724.965    18.990264    243.33115 
    6450    138.70548   -1344.0615    132837.72   -34154.501     2619.649    -36774.15    19.158694    245.76005 
    6500     140.1313   -1083.2691     132877.6   -34100.861    2646.5776   -36747.438    19.328604    248.28634 
    6550    137.40791      -962.28    132908.56   -34119.736    2595.1425   -36714.878    19.522958      243.461 
    6600    141.45026   -1209.9977     133058.7   -34086.183     2671.488   -36757.671    19.715213    250.62328 
    6650    136.95793   -1368.7068    133034.96   -34115.765     2586.644   -36702.409    19.811071    242.66372 
    6700    136.06827   -1502.2992    133067.74       -34124    2569.8415   -36693.841    20.020878    241.08741 
    6750    139.21288    -1133.246     133126.3   -34096.949    2629.2319   -36726.181    20.257091    246.65906 
    6800      135.529   -1347.9885    133137.23    -34136.24    2559.6566   -36695.896    20.243518    240.13192 
    6850    134.86785   -1471.4471    133158.05   -34145.661    2547.1699   -36692.831    20.431031    238.96049 
    6900     138.8198   -1371.4795    133185.06   -34081.226    2621.8081   -36703.034    20.625549     245.9626 
    6950    139.96133   -1317.0035    133219.18   -34038.825    2643.3674   -36682.193    20.766178    247.98518 
    7000    141.82842    -1277.965    133248.95    -34064.71    2678.6301    -36743.34    20.938533    251.29331 
    7050    140.28804   -1227.0123    133411.78   -34068.071    2649.5378   -36717.609    21.144255    248.56405 
    7100    142.50838   -1512.6418    133435.81   -33997.749     2691.472   -36689.221    21.211767    252.49806 
    7150    142.47531   -1333.7206    133442.32   -34042.434    2690.8475   -36733.281    21.434808    252.43947 
    7200    139.36837   -1350.1313    133466.49     -34035.7    2632.1686   -36667.869    21.736035    246.93457 
    7250    142.17405   -1081.3844    133385.62   -34033.501    2685.1578   -36718.658    21.771578     251.9057 
    7300    138.25447   -1459.2533    133408.42   -34073.298     2611.131   -36684.429    21.882999    244.96095 
    7350    139.69615   -1549.5899    133387.82   -34136.935    2638.3591   -36775.294    21.957704    247.51532 
    7400    138.67878   -1173.5426    133296.83   -34114.946    2619.1447   -36734.091     22.02658    245.71274 
    7450    140.75655   -1328.2282    133289.62   -34054.628    2658.3862   -36713.014    22.083951    249.39415 
    7500    137.02021   -994.05829    133264.36   -34050.878    2587.8203   -36638.698    22.229237    242.77407 
    7550    140.80945   -1407.4915    133224.23   -34050.202    2659.3854   -36709.587     22.33231    249.48789 
    7600     140.2176   -1094.1691     133276.4   -34031.666    2648.2075   -36679.874    22.473593    248.43924 
    7650    139.67869   -1365.4934    133332.31   -34042.827    2638.0294   -36680.856    22.732303     247.4844 
    7700    136.20782   -1341.8725    133356.53   -34051.344    2572.4771   -36623.821    22.910364    241.33467 
    7750    141.33824    -1217.832    133307.58   -34046.559    2669.3724   -36715.931    23.055055    250.42481 
    7800    139.80478   -1370.1455    133246.53   -34067.883    2640.4107   -36708.293    23.099486    247.70779 
    7850    136.43101   -1349.3825    133203.85   -34074.801    2576.6924   -36651.493    23.225002    241.73012 
    7900    138.66145   -1195.0591    133251.91   -34059.948    2618.8173   -36678.766    23.328465    245.68203 
    7950    138.16875   -1211.2653    133330.81   -34035.115    2609.5121   -36644.628    23.399944    244.80907 
    8000    138.96049   -1367.4015    133360.81   -34010.226    2624.4652   -36634.691    23.575948    246.21188 
    8050    141.21483   -1249.8627    133350.79    -34022.88    2667.0415   -36689.921    23.742631    250.20614 
    8100    136.51573   -1190.5544    133356.39   -34055.521    2578.2924   -36633.813    23.975117    241.88022 
    8150    141.62735   -1351.0592    133176.71   -34000.526    2674.8325   -36675.359    24.039858    250.93704 
    8200    135.55504      -1385.9    133078.98   -34047.002    2560.1484    -36607.15    24.247596    240.17806 
    8250    140.24989   -1351.4941    133057.45    -34072.22    2648.8173   -36721.038    24.281457    248.49645 
    8300    139.47702     -1124.57    133081.01   -34042.917    2634.2206   -36677.138    24.535189    247.12708 
    8350    141.37016   -1340.9048    133156.11   -34059.813    2669.9752   -36729.788    24.847607    250.48136 
    8400     137.5324   -1545.3107    133131.31   -34058.882    2597.4936   -36656.376    25.011865    243.68157 
    8450    138.44046   -1310.7761    133070.38    -34027.03    2614.6437   -36641.674    25.184556    245.29048 
    8500    139.55751   -1083.5258    133113.09   -34019.901    2635.7407   -36655.641    25.315911    247.26968 
    8550    143.04408     -1059.81    133045.42    -33965.02    2701.5894   -36666.609    25.636534    253.44722 
    8600    141.41532   -1231.8526    133060.67   -33966.259    2670.8281   -36637.087    25.947741    250.56137 
    8650    138.75289   -1415.3483    133042.73   -34043.291    2620.5443   -36663.835    26.032516    245.84404 
    8700    136.77748   -1418.8939     133000.8   -34015.491     2583.236   -36598.727    26.163342      242.344 
    8750    138.87197   -1462.3824    132956.49   -34046.698    2622.7932   -36669.492    26.263488    246.05503 
    8800    139.23525   -1334.7922    132966.83   -34049.981    2629.6543   -36679.635    26.597856    246.69869 
    8850    136.48464   -1119.3679    132978.11   -34041.109    2577.7053   -36618.814    26.738018    241.82514 
    8900    138.50166   -1201.7229    133049.22   -34014.039    2615.7995   -36629.839    27.091798    245.39892 
    8950    140.63697    -1207.636    133123.03   -34060.759    2656.1278   -36716.887    27.506055    249.18228 
    9000    139.49038     -1265.48    133109.04   -34096.953    2634.4728   -36731.426    27.696593    247.15074 
    9050    138.22609   -1109.3333    133193.61   -34086.287     2610.595   -36696.882    27.866665    244.91066 
    9100    135.81166   -1318.6473    133271.73   -34116.196     2564.995   -36681.191    27.974718    240.63274 
    9150    139.50424    -1376.311    133273.68    -34114.12    2634.7347   -36748.854    28.113023    247.17531 
    9200    136.38484   -1314.3296    133211.12   -34129.317    2575.8204   -36705.137    28.220171    241.64831 
    9250    135.56822   -1034.5695    133093.14   -34107.998    2560.3973   -36668.395    28.423931    240.20141 
    9300    136.45139    -1231.585    133085.37     -34026.8    2577.0772   -36603.877     28.53663    241.76622 
    9350    141.25385    -1129.139    133066.64   -34010.653    2667.7785   -36678.432    28.520557    250.27528 
    9400    140.53068   -1169.1723    133076.32   -33980.057    2654.1205   -36634.177    28.646694    248.99396 
    9450    139.51216   -1065.0577    133124.67   -34020.026    2634.8841    -36654.91    28.784258    247.18933 
    9500    141.94395   -1170.9932    133118.23   -33989.487     2680.812   -36670.299    28.931347    251.49801 
    9550       138.99    -1125.511    133204.62    -34020.57    2625.0225   -36645.593    29.244049    246.26416 
    9600    140.51393   -1067.2014    133218.22    -34010.44    2653.8041   -36664.244    29.250719    248.96429 
    9650    142.48416   -1008.4082     133308.3   -33971.177    2691.0146   -36662.192    29.362314    252.45516 
    9700    140.90944   -988.92095    133360.76   -33952.668    2661.2738   -36613.941     29.73551    249.66505 
    9750    138.38411   -1135.5063    133366.11   -33932.764    2613.5794   -36546.344    29.917759    245.19064 
    9800    139.11935   -1136.6847    133289.16   -33944.792    2627.4654   -36572.257    29.936424    246.49335 
    9850    139.44634   -1231.7866    133146.54   -33919.899    2633.6411    -36553.54    30.076423    247.07271 
    9900    141.28301   -1134.1574    133113.68   -33924.434    2668.3291   -36592.763    30.136839    250.32694 
    9950    140.87951   -1124.8002    133166.26   -33897.695    2660.7085   -36558.403     30.22947    249.61201 
   10000    139.77164   -1296.6711     133126.5   -33969.794    2639.7848   -36609.578    30.341156    247.64908 
   10050    140.42881   -1257.3916    133161.04   -33991.622    2652.1965   -36643.819    30.578206    248.81347 
   10100    140.44624   -1198.1226    133228.67   -33924.427    2652.5256   -36576.952     30.84182    248.84434 
   10150     138.2148   -1030.5249    133231.39   -33993.832    2610.3817   -36604.214     31.18864    244.89065 
   10200    137.96516   -1216.6255     133263.9   -34006.349    2605.6669   -36612.016     31.48311    244.44834 
   10250    140.09527   -1374.5991    133213.54   -34022.985     2645.897   -36668.882    31.572838    248.22249 
   10300    137.00343   -1049.0851    133228.29   -34036.247    2587.5034    -36623.75     31.73553    242.74434 
   10350    139.86673   -1412.0381     133180.4   -34002.828    2641.5808   -36644.409    31.807185    247.81757 
   10400    140.01922   -1070.1604     133182.1   -33981.112    2644.4607   -36625.572    31.857681    248.08774 
   10450    137.18632   -1050.6619    133255.37   -34014.065    2590.9574   -36605.023      32.0336    243.06837 
   10500    139.67438   -1241.2435    133271.12   -33998.752    2637.9479     -36636.7    32.137588    247.47675 
   10550    139.93425   -1197.9326    133199.29   -33986.405    2642.8559   -36629.261    32.140881    247.93719 
   10600    138.54097   -1475.0092    133146.29   -33983.656    2616.5418   -36600.198    32.292301    245.46856 
   10650    139.61732   -1121.2806    133144.04   -34007.762    2636.8702   -36644.632    32.405645    247.37565 
   10700    139.68615   -1396.6592    133197.18    -33984.28    2638.1702    -36622.45     32.48609    247.49761 
   10750    142.84372   -1236.9666     133233.9    -33969.76    2697.8054   -36667.566    32.558681    253.09223 
   10800    138.94817   -1266.8068    133260.23   -33974.858    2624.2324   -36599.091    32.769345    246.19005 
   10850    140.49282   -1147.3217    133235.82   -34033.019    2653.4054   -36686.424    32.696085    248.92688 
   10900    140.64801   -1215.8189    133251.58   -34039.734    2656.3363   -36696.071    32.945375    249.20184 
   10950    139.61723     -1281.91    133188.32   -33953.722    2636.8686    -36590.59    33.088403    247.37549 
   11000    139.57451   -1373.8251    133081.17   -33964.271    2636.0618   -36600.333     33.38246    247.29981 
   11050     140.6426   -1392.9699    132988.01   -34016.372    2656.2341   -36672.606    33.540692    249.19225 
   11100    136.77701   -1364.1457     133029.7    -34075.92    2583.2271   -36659.147    33.695902    242.34316 
   11150    138.54361   -1075.0618    133068.32   -34046.588    2616.5917   -36663.179    33.930948    245.47323 
   11200    137.92166   -1361.1803    133128.91   -34060.727    2604.8453   -36665.572    34.109977    244.37126 
   11250    138.91091   -1346.0844    133115.32   -34049.384    2623.5287   -36672.912    34.257285    246.12403 
   11300    141.97739    -1333.022    133089.22   -34005.134    2681.4435   -36686.577    34.654481    251.55725 
   11350    140.69059   -1415.0616    132992.84   -34042.896    2657.1405   -36700.037    34.908454    249.27728 
   11400    139.78709   -1266.1906    132994.65   -34019.795    2640.0767   -36659.871     35.13844    247.67646 
   11450     138.1304   -1081.7924    133076.78   -34055.531    2608.7876   -36664.319    35.400308     244.7411 
   11500    141.44204   -1301.0865    133104.99   -34051.647    2671.3327    -36722.98    35.586134    250.60871 
   11550    139.04156   -1182.9614    133080.94   -34024.729    2625.9963   -36650.725    35.782117    246.35552 
   11600    139.61285   -1294.1552    132996.07   -34063.814    2636.7859     -36700.6    35.785904    247.36774 
   11650    139.06684   -1318.8216    132907.11   -34091.293    2626.4738   -36717.767    36.005614    246.40031 
   11700    140.08164   -1172.4244    132828.07   -34083.646    2645.6396   -36729.286    36.243291    248.19834 
   11750     138.6286    -1423.312     132843.8   -34053.446    2618.1969   -36671.643    36.369148    245.62383 
   11800    139.21684   -1386.6529    132798.74    -34067.68    2629.3066   -36696.986    36.323644    246.66607 
   11850    139.81155   -1311.8613    132836.88   -34080.064    2640.5386   -36720.602    36.653195    247.71979 
   11900    140.28324   -1009.0862    132909.32   -34058.527    2649.4471   -36707.974    36.846597    248.55554 
   11950    138.80512   -1458.1644    132823.57   -34088.197    2621.5308   -36709.728    37.046393    245.93659 
   12000    137.54505   -1088.5387    132786.73   -34065.338    2597.7325    -36663.07    37.160481    243.70398 
   12050     140.4448   -1022.7294    132923.67   -34080.736    2652.4983   -36733.234    37.258991    248.84178 
   12100      141.271   -1085.8656    133016.46   -34055.151    2668.1024   -36723.254    37.367852    250.30566 
   12150    140.22288   -1259.6798    133055.46   -34045.025    2648.3071   -36693.332    37.588208    248.44859 
   12200    142.81691   -1331.7951     132970.5   -33988.081     2697.299    -36685.38    37.740373    253.04472 
   12250    140.19547   -1347.8257    132982.19   -33995.418    2647.7895   -36643.208    37.815679    248.40003 
   12300    144.89756   -1123.4456    132973.58   -33941.756    2736.5951   -36678.351    38.002064    256.73124 
   12350    143.23579   -1257.5525     133018.3   -33900.437    2705.2102   -36605.648     38.27117     253.7869 
   12400    140.81058   -1387.0383    132999.61   -33951.336    2659.4067   -36610.743    38.433589    249.48989 
   12450    139.96467   -1246.1912    132945.26   -33990.678    2643.4304   -36634.108    38.466388    247.99109 
   12500     140.9861   -1058.2813    132854.98   -33999.048    2662.7216   -36661.769    38.676013    249.80087 
   12550    139.99058   -1275.3999    132735.93   -34021.394    2643.9198   -36665.314    38.993951      248.037 
   12600    139.85487   -1285.5225     132662.5   -33988.144    2641.3568   -36629.501    39.086604    247.79656 
   12650    140.59364    -1054.325    132555.52   -34053.036    2655.3094   -36708.345     39.19631     249.1055 
   12700    138.97288   -1389.3841    132503.38   -34057.292    2624.6991   -36681.991    39.250605    246.23383 
   12750    140.57933   -990.09148    132486.72   -34052.157    2655.0392   -36707.197    39.385548    249.08015 
   12800    142.25214   -885.42589    132516.13   -34075.975    2686.6326   -36762.608    39.718586    252.04406 
   12850    140.77049   -1241.5267    132598.58   -34097.294    2658.6494   -36755.944    39.976122    249.41885 
   12900    139.31759   -1186.2786    132609.21   -34121.071    2631.2094    -36752.28    39.901317    246.84458 
   12950    140.13671   -996.19693    132596.93   -34099.738    2646.6798   -36746.418    40.092061    248.29592 
   13000    138.25225   -1213.8131    132679.94   -34126.536     2611.089   -36737.625    40.461286      244.957 
   13050    137.28304     -1203.64    132657.06   -34080.264     2592.784   -36673.048    40.688436    243.23974 
   13100    137.67318   -1020.3642    132608.08    -34100.95    2600.1525   -36701.102    40.876336      243.931 
   13150    138.62915   -1106.6018    132642.41   -34127.517    2618.2074   -36745.725    40.976536    245.62481 
   13200    137.61376    -1298.871    132649.18   -34189.157    2599.0302   -36788.187    41.092713    243.82572 
   13250    134.60287   -1444.3892    132630.36   -34220.835    2542.1654   -36763.001    41.242055      238.491 
   13300     139.2925   -1391.4732    132593.38   -34153.791    2630.7357   -36784.526    41.311487    246.80014 
   13350    137.59444   -1254.5736    132525.08   -34177.867    2598.6653   -36776.532    41.520312    243.79149 
   13400    139.17097   -1226.2385    132428.89    -34122.28    2628.4404   -36750.721    41.682617    246.58481 
   13450     139.3057   -1113.5928    132467.11    -34121.85    2630.9849   -36752.835    41.808819    246.82352 
   13500    136.46645   -1144.2647    132555.26   -34108.621    2577.3616   -36685.983     42.02818     241.7929 
   13550    136.79041   -1340.1469    132568.86   -34071.983    2583.4802   -36655.463    42.113518    242.36691 
   13600    139.98971   -1196.8831    132542.33   -34041.544    2643.9035   -36685.447    42.356146    248.03547 
   13650      138.293   -923.10279    132583.39   -34036.561    2611.8587   -36648.419    42.495115    245.02921 
   13700    139.77342   -1111.4154     132633.1   -34065.463    2639.8185   -36705.282    42.608952    247.65224 
   13750    140.01716   -1162.7486    132612.46   -34077.455    2644.4218   -36721.877    42.762505    248.08409 
   13800    141.92144    -1130.451     132622.2   -34009.074    2680.3868   -36689.461    43.054658    251.45812 
   13850    141.80952    -1215.451    132613.81   -34008.752    2678.2731   -36687.025    43.219789    251.25983 
   13900    143.45599   -1125.6304    132690.34   -33905.936     2709.369   -36615.306    43.547076    254.17706 
   13950    142.65215   -1289.9135    132639.56   -33934.509    2694.1874   -36628.696     43.78737    252.75281 
   14000    141.51279   -929.15892    132640.03   -33947.054    2672.6689   -36619.723    43.849168    250.73407 
   14050    139.46013   -1283.5071    132569.35   -33987.061    2633.9016   -36620.962    43.900939    247.09714 
   14100     143.8151   -1080.7071    132576.73   -33967.684    2716.1512   -36683.835    44.136736    254.81333 
   14150    138.26111   -1182.1002    132586.13   -33932.757    2611.2563   -36544.013    44.364699     244.9727 
   14200    143.72652   -872.08519    132568.43   -33917.989    2714.4783   -36632.467    44.458448    254.65638 
   14250     139.7278    -1266.661       132599   -33919.292    2638.9569   -36558.249    44.544071    247.57141 
   14300    142.92949   -1195.9705    132613.11   -33903.723    2699.4254   -36603.149    44.762763     253.2442 
   14350     140.3647   -1113.1614    132647.02   -33992.252    2650.9856   -36643.238     45.00984    248.69987 
   14400    141.93955   -1135.7012    132696.91   -33962.825    2680.7288   -36643.554    45.379677     251.4902 
   14450    137.71824   -995.27571    132702.24   -34024.981    2601.0035   -36625.984    45.621728    244.01084 
   14500    139.40959   -1168.2667    132606.21   -34034.028     2632.947   -36666.975    45.518084     247.0076 
   14550    140.55162   -1077.6617    132597.68   -34010.818    2654.5159   -36665.334    45.882088    249.03106 
   14600    139.65991   -1093.8238    132634.84   -33980.745    2637.6747   -36618.419    46.018136    247.45112 
   14650    142.43117   -1090.1378    132699.18   -33986.869    2690.0139   -36676.882    46.177344    252.36127 
   14700    140.57057     -937.692    132721.23   -33972.041    2654.8737   -36626.914    46.455195    249.06463 
   14750    143.99736   -1129.0229    132752.31    -33879.86    2719.5936   -36599.453    46.963986    255.13626 
   14800    145.14718   -959.77221    132794.53   -33892.006    2741.3095   -36633.315    47.374509    257.17353 
   14850    141.02948   -988.16967    132910.19     -33896.8    2663.5409   -36560.341    47.538583    249.87774 
   14900    145.07272   -1031.8914    133004.62   -33861.672    2739.9033   -36601.575    47.725351     257.0416 
   14950    144.08886    -1199.931    132953.72   -33842.051    2721.3217   -36563.372    48.028022    255.29839 
   15000    141.19272   -1240.0351     132974.7   -33921.581    2666.6239   -36588.205    48.144701    250.16697 
   15050    141.86421   -1255.0735    132986.21   -33916.338     2679.306   -36595.644    48.085466    251.35672 
   15100     140.0977   -1402.0569     133016.9   -33960.763     2645.943   -36606.706    48.225634     248.2268 
   15150    143.77009   -1168.1323    133030.93   -33935.784    2715.3012   -36651.086    48.361011    254.73358 
   15200    143.85236   -1164.3609    133137.07   -33932.793     2716.855   -36649.648    48.486824    254.87935 
   15250    138.12774   -1262.0746    133146.47    -33989.46    2608.7375   -36598.197    48.627101     244.7364 
   15300    142.08525   -1049.4602    133088.18   -33948.631    2683.4806   -36632.112    48.862118    251.74836 
   15350    140.27592   -1063.2238    133018.87   -33946.188    2649.3088   -36595.497    49.013161    248.54256 
   15400    143.51675   -999.84725    133057.87    -33883.12    2710.5165   -36593.636    49.309344    254.28471 
   15450     137.9796   -1000.1681    133210.11   -33910.197    2605.9397   -36516.137    49.607798    244.47392 
   15500    142.17664   -946.03899    133309.91   -33914.992    2685.2066   -36600.199     49.68439    251.91028 
   15550    139.32556   -1266.5917    133341.36   -33972.865      2631.36   -36604.225    49.869547    246.85871 
   15600    137.57761   -1106.6534    133349.48   -33963.611    2598.3475   -36561.959    50.088731    243.76168 
   15650    141.89897   -1271.4696    133417.55   -33944.169    2679.9625   -36624.132    50.335101    251.41831 
   15700    139.31868   -1190.1883    133415.27   -33946.823    2631.2301   -36578.054    50.472473    246.84653 
   15750    141.40336   -1156.7384    133496.11    -33963.56    2670.6021   -36634.163    50.710656    250.54017 
   15800    139.22778   -1186.6783    133446.45   -34035.091    2629.5134   -36664.605    50.676171    246.68547 
   15850    137.16411   -1256.6339    133399.29   -34013.591     2590.538   -36604.129    50.918435    243.02903 
   15900    139.26267   -946.96778     133430.4   -34001.338    2630.1723   -36631.511    51.097945    246.74729 
   15950     141.5456    -999.9254    133462.15   -33962.049    2673.2885   -36635.338    51.298074     250.7922 
   16000    139.65708   -1362.7566    133382.51    -33977.09    2637.6212   -36614.711    51.598151     247.4461 
   16050      137.869   -1306.1023    133280.25   -34023.205    2603.8508   -36627.056    51.799269    244.27796 
   16100    139.90169   -1473.6762    133294.78   -34050.274    2642.2411   -36692.515    52.025512    247.87951 
   16150    140.88637    -1119.917     133243.8   -34027.084    2660.8382   -36687.922    52.067687    249.62418 
   16200    139.95248   -1243.5478    133281.84   -34045.339    2643.2002   -36688.539     52.30456    247.96949 
   16250      141.016   -1290.9266    133271.78   -34034.331    2663.2863   -36697.618     52.41313    249.85385 
   16300    138.13996   -992.97506    133311.97   -33988.975    2608.9682   -36597.944    52.281493    244.75805 
   16350    142.03454   -1372.7441    133304.65   -34013.597    2682.5229    -36696.12    52.384811    251.65851 
   16400    139.70291   -1377.1547    133234.35    -33946.06    2638.4869   -36584.547    52.395752    247.52731 
   16450    141.65559   -1014.8493    133259.39   -33876.939    2675.3659   -36552.305    52.519113    250.98709 
   16500    142.41614   -1021.1722    133386.81   -33868.587    2689.7299   -36558.317    52.789569    252.33463 
   16550    140.86809   -970.09702    133419.14   -33893.017    2660.4929    -36553.51    53.160281    249.59178 
   16600    141.34891   -1185.8094    133527.48   -33880.993    2669.5737   -36550.566    53.386822     250.4437 
   16650    142.58542   -986.36754     133590.6   -33828.551     2692.927   -36521.478    53.535011    252.63457 
   16700    142.73965   -1143.0223    133650.54   -33874.569    2695.8399   -36570.409    53.963223    252.90784 
   16750    141.18141   -1363.2678    133673.31   -33957.848    2666.4103   -36624.258    54.292295    250.14692 
   16800    138.49173   -1273.9426    133653.35   -33964.673    2615.6119   -36580.285     54.45069    245.38132 
   16850    141.78546   -1309.8832    133642.49   -33972.928    2677.8187   -36650.747    54.855439    251.21719 
   16900    139.87402   -1415.0311    133584.92   -33970.865    2641.7185   -36612.583     54.96089    247.83048 
   16950    139.63568    -1339.813    133430.51   -33958.346    2637.2171   -36595.563    55.202225    247.40819 
   17000    137.48511   -1198.3086    133380.75   -33960.477    2596.6005   -36557.078    55.166511    243.59778 
   17050     141.5901    -1151.153    133355.71   -33957.308    2674.1291   -36631.437     55.08814    250.87105 
   17100    138.89565   -1274.6478    133290.85   -33969.403    2623.2406   -36592.643    55.271859      246.097 
   17150     139.2841   -1460.8619    133236.13    -34001.35    2630.5769   -36631.927    55.546501    246.78525 
   17200    138.06195   -1068.2105    133303.31   -34005.995    2607.4949    -36613.49    55.529104    244.61983 
   17250    139.83776   -1129.8705    133402.66   -33994.558    2641.0336   -36635.592    55.586589    247.76623 
   17300    137.46383   -1235.1731    133407.11   -34033.331    2596.1986    -36629.53    55.659639    243.56007 
   17350     139.4279   -1146.4684    133342.19   -34046.355    2633.2928   -36679.648    55.733252    247.04003 
   17400    141.44636   -1334.4451    133301.05    -34067.22    2671.4144   -36738.634    55.731818    250.61638 
   17450    138.47752   -1268.5706    133223.87    -34005.55    2615.3435   -36620.894     55.77836    245.35614 
   17500    139.91861   -1178.6167    133224.82   -33974.996    2642.5605   -36617.556    55.836819    247.90948 
   17550    142.86665   -1134.3958    133186.43   -33993.287    2698.2385   -36691.525    56.105802    253.13286 
   17600    141.46559    -1159.456    133078.33   -33995.922    2671.7774   -36667.699    56.323592    250.65044 
   17650    142.30977    -1165.782    133016.41    -33992.72    2687.7211   -36680.441    56.463937    252.14618 
   17700    140.07662    -1016.863    133002.03   -33995.809    2645.5448   -36641.353    56.774416    248.18944 
   17750    140.95517    -1009.035    133037.04   -34001.762    2662.1375     -36663.9    56.933345    249.74607 
   17800    140.42485   -1203.2112    133066.12   -33981.633    2652.1217   -36633.755    57.420878    248.80645 
   17850    140.14124   -916.93299    133208.18    -33940.39    2646.7654   -36587.155    57.710976    248.30395 
   17900     141.2148   -1490.1937    133294.03   -34018.302     2667.041   -36685.343     58.12813    250.20609 
   17950    138.44212   -1215.0281     133152.2   -34027.631     2614.675   -36642.306    58.167589    245.29342 
   18000    136.25428   -1297.7701    133093.58   -34050.603    2573.3545   -36623.957    58.340283    241.41698 
   18050    141.38295   -1266.6218    133002.02   -34027.843    2670.2168    -36698.06    58.353997    250.50403 
   18100    139.46295   -1208.6231    133028.07   -34051.991    2633.9548   -36685.945    58.723902    247.10214 
   18150    137.56028   -1171.1257    133039.46   -34035.068    2598.0202   -36633.088    59.113468    243.73096 
   18200    139.35421    -1139.961    133043.78   -34024.862    2631.9012   -36656.763    59.189913    246.90948 
   18250    138.69835   -1192.9614     133055.8   -34022.068    2619.5143   -36641.582    59.249232    245.74742 
   18300    137.53375   -1202.4579    133038.25   -34063.313    2597.5192   -36660.832    59.065254    243.68397 
   18350    138.98051   -1254.6564     132989.3   -34040.826    2624.8431   -36665.669    59.231485    246.24734 
   18400    139.57369   -1459.4807    132946.79   -34053.759    2636.0463   -36689.806    59.463318    247.29835 
   18450    137.05376   -1278.2435    132791.73   -34072.733    2588.4538   -36661.187    59.536295    242.83351 
   18500    138.20018   -1361.7605    132770.84   -34133.425    2610.1056   -36743.531    59.621964    244.86475 
   18550    141.71139   -1047.2858    132639.86   -34081.202    2676.4197   -36757.622    59.576008    251.08595 
   18600    139.20166    -1215.973    132578.14   -34045.461      2629.02   -36674.481     59.73619    246.63918 
   18650    136.21339   -1282.6182    132476.14   -34082.738    2572.5823    -36655.32    59.773444    241.34453 
   18700    138.90974   -1340.1878    132422.17   -34043.268    2623.5066   -36666.774    59.875376    246.12195 
   18750    141.53076   -1329.6008    132344.15   -34074.213    2673.0083   -36747.221    59.986802    250.76591 
   18800     137.6954   -1078.6936    132197.27    -34019.74    2600.5721   -36620.312    60.227463    243.97037 
   18850    139.82362   -1293.6247    132114.47   -33997.712    2640.7665   -36638.479    60.547498    247.74117 
   18900    141.08155   -1256.7441    131995.42   -34010.807    2664.5244   -36675.331    60.850419       249.97 
   18950    141.95893   -1125.2368    132062.13   -33963.183    2681.0948   -36644.278    60.909392    251.52454 
   19000     139.2414   -1075.0108    132064.24   -33952.079    2629.7705   -36581.849    61.097515     246.7096 
   19050    136.84586    -1097.347    132075.46   -33946.237    2584.5274   -36530.764    61.194595    242.46515 
   19100    139.28766   -865.38522    132139.76   -33955.179    2630.6443   -36585.823     61.30804    246.79157 
   19150    144.14816   -1143.7901    132152.24    -33885.57    2722.4416   -36608.011    61.239921    255.40345 
   19200    141.73475   -1083.4558    132141.28   -33955.755     2676.861   -36632.616    61.377877    251.12735 
   19250    140.49451   -1108.6149    132223.81   -33944.456    2653.4372   -36597.894    61.667586    248.92986 
   19300    141.51738   -1109.6819    132239.38   -33972.482    2672.7555   -36645.237    61.830429     250.7422 
   19350    140.12619   -1041.2372    132224.63    -34034.59     2646.481   -36681.071    61.841358    248.27727 
   19400    140.68165   -930.36362    132219.71   -34056.541    2656.9716   -36713.512    62.099015    249.26144 
   19450    139.95968   -904.90654    132330.75   -34039.932    2643.3362   -36683.268     62.42662    247.98225 
   19500    142.65266   -1016.6272    132398.34   -33975.538    2694.1971   -36669.735    62.713997    252.75371 
   19550    140.05534   -1095.4725    132364.39   -34016.922    2645.1428   -36662.064    62.986923    248.15174 
   19600    141.11401   -1366.2589    132414.88   -33992.834    2665.1374   -36657.972     63.18799    250.02751 
   19650    136.69176   -1197.4305    132389.88   -34019.843    2581.6169    -36601.46    63.393312    242.19211 
   19700    141.86271   -995.56483    132408.73   -34036.421    2679.2776   -36715.699    63.504348    251.35406 
   19750    138.78668   -1548.0845    132378.66   -34003.187    2621.1824    -36624.37    63.590528    245.90391 
   19800    138.64229   -1203.5117    132293.79   -34029.126    2618.4555   -36647.582    64.023734    245.64808 
   19850    139.82269   -1146.4361    132297.73   -33999.242    2640.7491   -36639.991    64.273374    247.73954 
   19900    140.94311   -1273.0086     132243.1   -33982.504    2661.9096   -36644.413    64.267483     249.7247 
   19950    139.71182   -919.62472    132301.57   -33996.559     2638.655   -36635.214    64.425393    247.54308 
   20000    138.15353   -1239.7397     132438.8   -34008.321    2609.2246   -36617.545    64.810828     244.7821 
   20050    140.37581   -1141.4356    132481.21   -34057.613    2651.1955   -36708.808    65.089971    248.71956 
   20100    139.70934    -1321.776     132492.9   -34027.673    2638.6083   -36666.281    65.087072     247.5387 
   20150    138.18466   -1356.0297    132394.56   -33993.245    2609.8126   -36603.057    65.243116    244.83726 
   20200    141.36894   -1136.2984    132359.06   -33960.237    2669.9522   -36630.189    65.327221     250.4792 
   20250    140.27058    -1141.646     132434.1   -33988.624     2649.208   -36637.832    65.591485    248.53311 
   20300    142.85604   -1089.6563    132483.94   -33961.124    2698.0381   -36659.162    65.818766    253.11406 
   20350    142.09669   -1103.1799    132456.28   -33978.679    2683.6966   -36662.376    66.065694    251.76863 
   20400    140.86247   -994.45688    132532.17   -33935.457    2660.3867   -36595.843    66.350757    249.58182 
   20450    140.48056   -1167.1315    132626.93   -33973.426    2653.1737     -36626.6    66.556558    248.90515 
   20500    139.20977   -1065.1155    132726.34   -33971.178     2629.173   -36600.351    67.000928    246.65354 
   20550     138.8175   -1124.2424    132867.74   -33988.679    2621.7646   -36610.444    66.965262    245.95852 
   20600    143.02596   -1086.5173    132882.52   -33926.144    2701.2473   -36627.391    67.333653    253.41513 
   20650     140.1037   -1123.5036    132913.86   -33943.504    2646.0564    -36589.56      67.4987    248.23744 
   20700    142.94429   -1176.1692    132894.25   -33895.821    2699.7048   -36595.526    67.667326    253.27042 
   20750    143.52228   -1325.7459    132927.44   -33906.138     2710.621   -36616.759    67.901886    254.29452 
   20800    141.82656   -1209.9374    132951.43   -33879.557     2678.595   -36558.152    68.286041    251.29002 
   20850    142.92477   -1269.2882    132991.28   -33892.568    2699.3362   -36591.905    68.427563    253.23583 
   20900     139.1631   -1167.7788    132920.73   -33948.624    2628.2916   -36576.915    68.476866    246.57085 
   20950    141.13872   -1290.0294    132966.16   -33904.051     2665.604   -36569.655     68.44263    250.07128 
   21000    142.61412   -1531.2929    132924.75   -33918.997    2693.4692   -36612.466    68.625557    252.68543 
   21050    140.41592   -1128.7228    132935.83   -33939.064     2651.953   -36591.018    68.737399    248.79063 
   21100    141.46552   -1346.5017    132949.58   -33934.577    2671.7761   -36606.354    68.872892    250.65032 
   21150    141.20097   -1295.1172    132891.61   -33998.466    2666.7798   -36665.246    69.001788    250.18159 
   21200    141.04556   -1186.3671    132899.62   -34008.055    2663.8447   -36671.899    69.131747    249.90623 
   21250    144.03837   -775.81627    132927.65   -34004.255    2720.3681   -36724.623    69.257511    255.20893 
   21300    139.53123   -1168.0653    132954.73   -33989.795    2635.2444   -36625.039    69.568984    247.22312 
   21350    139.79739   -941.70466    133055.59   -33963.823    2640.2712   -36604.094    69.881446    247.69471 
   21400    139.12198   -1379.6965    133057.28   -33973.081    2627.5152   -36600.596    70.158424    246.49801 
   21450    137.57117   -1101.1665    132998.05   -34042.648    2598.2258   -36640.874    70.333952    243.75026 
   21500    137.94508   -1457.0285    132968.98   -34050.319    2605.2877   -36655.606    70.537132    244.41276 
   21550    139.93277   -1241.3773    132897.93   -34019.732    2642.8281    -36662.56    70.845384    247.93458 
   21600    138.77064   -1059.9027    132814.83   -34033.534    2620.8796   -36654.414    71.118194    245.87551 
   21650     141.4725    -1274.234    132856.31   -33991.149     2671.908   -36663.057    71.255011    250.66269 
   21700    138.50948   -1207.5247    132906.92   -34017.734    2615.9472   -36633.682    71.495881    245.41278 
   21750    137.52628   -1298.2525    132910.23   -34082.311     2597.378   -36679.689    71.631016    243.67072 
   21800     137.8209   -1348.3095    132892.62   -34048.006    2602.9423   -36650.949    71.967201    244.19273 
   21850    139.85758   -1156.3789    132821.91   -34045.208    2641.4079   -36686.616    71.931429    247.80135 
   21900    140.43383   -1474.6996    132738.45   -34007.914    2652.2911   -36660.205    72.086901    248.82235 
   21950    140.66249   -1463.4192    132638.95   -34018.709    2656.6098   -36675.318    72.155499     249.2275 
   22000    143.43466   -1057.9081     132580.7   -33986.735    2708.9661   -36695.701    72.184222    254.13926 
   22050    140.92654   -1436.3068    132564.47   -33984.096    2661.5967   -36645.693      72.1579    249.69534 
   22100    139.20704   -1270.8167    132518.44   -34046.229    2629.1216    -36675.35    72.358871    246.64872 
   22150    141.66972   -1246.0624    132537.14   -34045.823    2675.6329   -36721.456    72.552047    251.01213 
   22200    141.39405   -1172.8218    132589.69   -34035.209    2670.4264   -36705.635    72.479507    250.52369 
   22250     141.7551   -1465.4849    132671.66   -34058.317    2677.2452   -36735.563    72.581165    251.16339 
   22300    137.35015   -1490.2956    132676.43   -34068.772    2594.0517   -36662.824     72.80507    243.35866 
   22350    138.30958   -1325.3699     132625.4   -34025.908    2612.1719    -36638.08    73.057585    245.05859 
   22400    137.31373   -1366.5032    132562.64   -34003.331    2593.3638   -36596.694    73.275535    243.29413 
   22450    139.04455   -1085.2494    132533.54   -33997.221    2626.0527   -36623.274     73.35455    246.36081 
   22500    140.12423   -861.04542    132548.64   -34045.713     2646.444   -36692.157    73.404916     248.2738 
   22550    138.77787   -1346.6737    132590.45   -34027.126     2621.016   -36648.142    73.678662     245.8883 
   22600    141.95417   -1027.5793    132638.94   -33971.258    2681.0051   -36652.263    73.985923    251.51612 
   22650    141.32887   -1319.8727    132622.43   -33998.081    2669.1953   -36667.276    74.082103     250.4082 
   22700    139.08988   -999.08079    132572.79   -34003.007    2626.9088   -36629.916    74.102136    246.44113 
   22750    139.91729   -1157.3129     132657.1   -34025.425    2642.5356   -36667.961    74.411362    247.90714 
   22800    141.70318    -1402.801    132577.29   -33997.332    2676.2648   -36673.597    74.384266    251.07141 
   22850    139.59305   -1031.6182    132590.87   -33973.134    2636.4119   -36609.546    74.390808    247.33265 
   22900    138.05982   -1227.1785    132610.22    -33977.15    2607.4546   -36584.605     74.51569    244.61605 
   22950    138.53538   -1310.2882    132551.06   -34014.827    2616.4363   -36631.264    74.699494    245.45866 
   23000    137.66616   -1183.6343    132480.62   -34020.377    2600.0199   -36620.397    74.948722    243.91857 
   23050    141.01257   -1210.3712    132508.61   -33980.121    2663.2215   -36643.342    75.015499    249.84777 
   23100    139.64218   -1443.9092    132467.73   -33973.619    2637.3398   -36610.959    75.262553     247.4197 
   23150    142.41865   -1238.6422    132427.11   -33988.827    2689.7774   -36678.604    75.306231    252.33909 
   23200    140.31766   -1171.7077    132479.63   -34008.627    2650.0973   -36658.724    75.812143    248.61653 
   23250    137.83479   -1274.1021    132506.29   -34029.849    2603.2047   -36633.054    76.065991    244.21735 
   23300     139.1416   -1003.5029    132434.33   -33986.235    2627.8856   -36614.121    76.200812    246.53276 
   23350    138.86743   -824.39674    132470.44   -33953.772    2622.7076    -36576.48    76.293992    246.04699 
   23400    139.66342   -1035.1832    132588.94   -33956.429     2637.741    -36594.17    76.692905    247.45734 
   23450    138.77451   -1159.1935    132663.48   -33960.858    2620.9527    -36581.81    76.923966    245.88236 
   23500    137.02783   -1069.2081    132738.29   -33997.523    2587.9642   -36585.487    77.058171    242.78757 
   23550    141.56979   -1229.0619    132814.66   -33943.571    2673.7455   -36617.316    77.157085    250.83507 
   23600    139.92101   -953.04721    132767.45   -33976.335    2642.6058   -36618.941    77.287294    247.91373 
   23650    137.79683   -1172.7568    132789.84   -33999.997    2602.4878   -36602.485    77.258856    244.15009 
   23700    138.32767    -1296.445    132832.13   -34017.177    2612.5134    -36629.69    77.408927    245.09063 
   23750     140.7173   -1108.3331     132808.6   -33982.273     2657.645   -36639.918     77.54827    249.32462 
   23800    140.70471   -1069.9455    132793.41    -33990.87    2657.4071   -36648.277    77.715799     249.3023 
   23850    139.23923    -1190.974    132830.18   -34007.713    2629.7296   -36637.442    77.749841    246.70576 
   23900    140.87941   -1190.9018    132889.09    -33924.16    2660.7067   -36584.866    77.663714    249.61185 
   23950    141.86379   -1318.1139    132869.09   -33915.895    2679.2981   -36595.193    77.851017    251.35599 
   24000    141.95846   -1121.2178     132885.4   -33919.416     2681.086   -36600.502    78.141108    251.52371 
   24050    141.62113   -1283.6604    132947.06   -33877.063    2674.7151   -36551.778    78.576623    250.92603 
   24100    142.50834   -1166.7629    132928.96   -33922.895    2691.4713   -36614.367    78.670486      252.498 
   24150    141.04715   -1136.4348    132947.79   -33998.565    2663.8746    -36662.44    78.864344    249.90904 
   24200    137.73925   -1435.6247    132937.64   -34068.511    2601.4004   -36669.912    78.879405    244.04807 
   24250    138.61698   -1107.1373    132957.05   -34019.954    2617.9775   -36637.931    78.848737    245.60324 
   24300     143.0352   -1241.5325    133005.55   -33982.331    2701.4219   -36683.753    79.130116     253.4315 
   24350     141.1153   -1136.2732    133008.87   -33960.633    2665.1617   -36625.795    79.319725    250.02979 
   24400    142.52051   -1246.1125    133012.91   -33927.622    2691.7011   -36619.324    79.460711    252.51956 
   24450    144.42202   -1263.1467    132966.05   -33866.491    2727.6138   -36594.104     79.63132    255.88868 
   24500     141.7412   -1260.5473    132963.63   -33899.837    2676.9827   -36576.819     79.69641    251.13877 
   24550    143.50685   -1126.6418    132968.49   -33931.982    2710.3295   -36642.311    79.884049    254.26716 
   24600    141.02883   -1230.4716    132974.31   -33915.446    2663.5286   -36578.975    80.235382    249.87658 
   24650    138.21438   -1138.4672    132958.22   -33977.551    2610.3739   -36587.925    80.354702    244.88992 
   24700    140.91826   -1060.3141     133021.6   -33983.738    2661.4404   -36645.179    80.549161    249.68068 
   24750    142.47048   -1120.3382    133082.88   -33988.057    2690.7562   -36678.813    80.630419    252.43091 
   24800    142.48296   -1079.3474    133098.65   -33956.504     2690.992   -36647.497    81.045788    252.45304 
   24850    142.38522   -1168.0832     133179.2   -34015.326     2689.146   -36704.472    81.219586    252.27985 
   24900    142.13894   -1456.7118    133175.87   -33975.886    2684.4947    -36660.38    81.400486     251.8435 
   24950    139.46437   -1619.7642    133123.44   -33967.369    2633.9816   -36601.351    81.683707    247.10466 
   25000    142.36351    -1339.225    132993.06   -34003.262     2688.736   -36691.998    81.835588    252.24139 
   25050    138.21925   -1345.1748    132961.13   -34033.249    2610.4658   -36643.714    81.726595    244.89854 
   25100    142.41684   -1115.9705    132936.66   -34025.162    2689.7432   -36714.906    81.955278    252.33588 
   25150    141.53708   -1227.5074    132866.23    -33995.66    2673.1277   -36668.788     81.99796    250.77711 
   25200    138.74561   -1227.0199    132828.72   -34076.857    2620.4067   -36697.263     82.08265    245.83114 
   25250    138.69829   -1246.8006    132813.81    -34101.27    2619.5131   -36720.783    82.165861    245.74731 
   25300    138.08894    -1256.772    132785.05   -34097.011    2608.0048   -36705.016    82.294312    244.66766 
   25350    139.26385   -1440.6912    132798.41    -34131.48    2630.1944   -36761.674      82.4159    246.74936 
   25400    140.04447   -1082.5771    132889.81   -34104.907    2644.9377   -36749.845    82.482605    248.13249 
   25450    140.63569   -1181.0704    132885.87   -34050.833    2656.1037   -36706.937     82.48364    249.18002 
   25500    140.67578   -1073.3068    132876.11   -34087.084    2656.8607   -36743.945    82.542542    249.25104 
   25550    138.07367    -1024.087    132946.46   -34071.796    2607.7162   -36679.512    82.752086    244.64059 
   25600    137.51063   -1231.7574    132976.88   -34022.793    2597.0824   -36619.875    82.980529    243.64299 
   25650    139.73561   -1346.4393    133050.55   -34074.672    2639.1043   -36713.776    83.347097    247.58523 
   25700    138.54744   -1315.5284     133025.4   -34087.699     2616.664   -36704.363    83.554951    245.48002 
   25750    141.37726   -1038.4803    133076.22   -34058.636    2670.1092   -36728.745    83.660732    250.49394 
   25800    136.41109   -1146.8361    133071.91   -34064.237    2576.3162   -36640.553    83.717809    241.69482 
   25850    141.66893   -999.17305    133131.21   -34006.522    2675.6178    -36682.14     83.73481    251.01071 
   25900     138.1416   -1225.5753    133147.95    -34067.89    2608.9992   -36676.889    83.848444    244.76095 
   25950    141.90474   -1267.6074    133072.52   -34035.554    2680.0714   -36715.625    84.194073    251.42852 
   26000    140.23703   -1065.1086     133171.7   -34048.139    2648.5743   -36696.713    84.408388    248.47366 
   26050    140.19523   -1227.5255    133167.37   -34026.303    2647.7849   -36674.088    84.604854    248.39959 
   26100     141.6018   -1142.1832    133194.41   -34023.225      2674.35   -36697.575    84.991097    250.89178 
   26150    146.20427   -1069.6669     133176.3   -34027.474    2761.2742   -36788.748    85.355689     259.0465 
   26200    140.96148   -1294.3299    133159.79   -34045.635    2662.2567   -36707.892    85.896764    249.75726 
   26250    139.60161   -1017.2419    133160.05   -34072.322    2636.5735   -36708.896     86.03367    247.34782 
   26300    139.31529   -1276.3066     133241.9    -34115.48    2631.1661   -36746.646    86.231513    246.84052 
   26350    137.42718   -1151.1811    133336.04   -34167.914    2595.5065   -36763.421    86.294113    243.49514 
   26400    138.53835   -1004.9536    133330.82   -34163.106    2616.4924   -36779.599    86.601788    245.46392 
   26450     138.8656   -880.71296    133502.31   -34133.434    2622.6731   -36756.107    86.658171    246.04376 
   26500    140.40645   -1055.3171    133604.05   -34087.227    2651.7741   -36739.001    86.779778    248.77384 
   26550    139.20086   -1217.5837     133528.7   -34151.412    2629.0048   -36780.417    86.830057    246.63776 
   26600    134.72457   -1229.8269    133555.11   -34155.439    2544.4637   -36699.903    86.769312    238.70662 
   26650     137.1843   -1414.3773    133508.55   -34125.013    2590.9193   -36715.933    86.951415     243.0648 
   26700    140.50748   -1470.6868    133392.46   -34113.637    2653.6822    -36767.32    86.963265    248.95285 
   26750    141.02257   -1066.6279    133393.81    -34035.11    2663.4104    -36698.52    87.076942    249.86549 
   26800      144.149    -1059.189    133452.16   -34006.608    2722.4575   -36729.066    87.182941    255.40494 
   26850    139.55786   -1003.6125    133549.99   -34042.217    2635.7473   -36677.965    87.275647     247.2703 
   26900    140.11201   -1202.6965    133628.87   -34055.327    2646.2133    -36701.54    87.291506    248.25216 
   26950     142.5415    -1265.773    133643.32   -34004.879    2692.0976   -36696.976    87.480276    252.55676 
   27000    138.83193   -1217.8105    133694.45   -34014.631    2622.0371   -36636.668    87.821265    245.98409 
   27050    140.97314   -1339.6332     133672.5   -33991.151    2662.4769   -36653.628     88.09347    249.77791 
   27100    140.32371   -1070.0277    133705.94   -33971.274    2650.2114   -36621.485    88.241776    248.62724 
   27150    142.07665   -1358.3761    133605.55   -33964.884    2683.3182   -36648.202    88.289327    251.73312 
   27200    138.68935   -1194.0574     133583.8   -34003.717    2619.3443   -36623.061    88.327828    245.73146 
   27250    136.52413   -1188.5528    133511.85   -34041.659     2578.451    -36620.11     88.55139     241.8951 
   27300    138.81295   -1095.4106     133531.8   -34114.324    2621.6786   -36736.002    88.666009    245.95046 
   27350    138.68676   -946.55649     133609.3   -34121.157    2619.2954   -36740.452    88.937453    245.72688 
   27400    137.28647   -1055.2052    133698.11   -34056.831    2592.8489    -36649.68     89.18456    243.24583 
   27450    139.06762   -1387.1121    133678.54   -34063.692    2626.4884    -36690.18    89.177343    246.40169 
   27500    138.86334   -1467.2908    133636.27    -34083.06    2622.6304    -36705.69    89.472894    246.03975 
   27550    139.63054   -1426.8272    133596.57   -34090.495      2637.12   -36727.615     89.50103    247.39908 
   27600    141.25212   -1152.5561    133630.68   -34089.279    2667.7458   -36757.025    89.524822    250.27222 
   27650    138.05601   -1020.4742    133628.36   -34072.134    2607.3828   -36679.517    89.392092    244.60931 
   27700    138.62413   -1190.5735    133573.99   -34066.453    2618.1124   -36684.566     89.39337     245.6159 
   27750    141.47687   -1311.0721    133524.93   -34084.631    2671.9906   -36756.621    89.347304    250.67043 
   27800    137.46535   -1436.8155    133520.05   -34097.454    2596.2272   -36693.682    89.402029    243.56276 
   27850    141.92485    -1353.753    133427.24   -34122.601    2680.4513   -36803.052    89.287544    251.46417 
   27900    139.47728   -1145.0219    133499.12   -34120.729    2634.2255   -36754.954    89.606218    247.12754 
   27950    139.85419   -1163.3791    133492.48   -34059.281    2641.3439   -36700.625    89.817441    247.79534 
   28000    139.81861   -1333.9151    133480.77   -34085.595    2640.6719   -36726.267    89.947632     247.7323 
   28050    138.54378   -1389.0347    133495.32   -34104.878    2616.5949   -36721.473    90.295122    245.47354 
   28100    139.28873    -1210.403    133509.24   -34088.542    2630.6644   -36719.206    90.467153    246.79346 
   28150    137.23485   -1274.8809    133469.92   -34025.991     2591.874   -36617.865    90.587342    243.15436 
   28200    140.79649   -1239.8712    133395.53   -34053.492    2659.1406   -36712.632     90.43759    249.46492 
   28250    136.81734   -1230.7984    133382.93   -34073.699    2583.9887   -36657.687    90.711284    242.41461 
   28300    136.96743   -1332.1867    133336.78   -34038.371    2586.8235   -36625.194    90.954582    242.68056 
   28350    141.81933   -1205.2933    133306.67   -33999.965    2678.4584   -36678.423    91.132221    251.27721 
   28400    138.07953   -1201.3076    133179.34   -34048.006    2607.8269   -36655.833    91.357579    244.65098 
   28450    138.14847   -1292.1806    133228.88    -34040.41     2609.129   -36649.539    91.384384    244.77313 
   28500    139.56014   -1233.0949    133179.31   -34059.295    2635.7904   -36695.086    91.320398    247.27434 
   28550    136.16811   -1348.2295    133192.93   -34050.144    2571.7271   -36621.871    91.681599    241.26431 
   28600    139.61422   -1363.6967    133187.13   -34024.626    2636.8117   -36661.438     91.87358    247.37016 
   28650    138.59201   -1487.2039    133116.05    -34046.17    2617.5058   -36663.676    91.779196    245.55899 
   28700    135.07557   -1387.0138    133059.79    -34087.11    2551.0929   -36638.203    92.030807    239.32852 
   28750    138.92357   -1364.1383    132949.89   -34067.838    2623.7679   -36691.606    91.862101    246.14647 
   28800    141.19514    -1344.011    132909.16    -34067.88    2666.6697    -36734.55    91.881985    250.17126 
   28850     141.5694   -1154.3697     132863.4    -34083.87    2673.7382   -36757.608    92.009822    250.83438 
   28900    139.24274   -1285.6505    132870.59    -34026.17    2629.7959   -36655.966    92.321071    246.71198 
   28950    137.59215   -1081.3561    132969.14   -34094.687    2598.6221   -36693.309    92.229332    243.78744 
   29000    139.15672   -817.00665    133008.69   -34070.379    2628.1712    -36698.55    92.309902    246.55955 
   29050    142.08096   -1337.4725    133038.82   -34050.261    2683.3997    -36733.66    92.265323    251.74077 
   29100    141.75976   -1262.5103    133044.45   -34045.874    2677.3332   -36723.207    92.267532    251.17165 
   29150    139.04629   -1093.5827    133065.12   -34033.133    2626.0856   -36659.218    92.321321     246.3639 
   29200    145.91688   -1157.1563    133106.45   -33970.862    2755.8464   -36726.709    92.453083     258.5373 
   29250    140.49239   -1582.8683    132985.71   -34004.685    2653.3973   -36658.082    92.365625    248.92612 
   29300    139.15283   -1343.2104    132910.96   -33978.447    2628.0977   -36606.545    92.608247    246.55266 
   29350    140.39951   -1178.6176    132887.57   -33999.944     2651.643   -36651.587    92.802271    248.76154 
   29400    137.14481     -1441.62     132914.1   -34045.233    2590.1735   -36635.407    93.011902    242.99483 
   29450    139.05388   -1556.1436    132908.46   -34046.651    2626.2289    -36672.88    93.284989    246.37734 
   29500    140.75037    -1196.492    132880.53   -34019.051    2658.2695   -36677.321    93.418718     249.3832 
   29550    138.79164   -1385.9144    132949.98   -34054.806    2621.2761   -36676.082    93.845185     245.9127 
   29600    138.70133   -1273.4034    132854.77   -34041.575    2619.5706   -36661.146    94.234686     245.7527 
   29650    139.34856   -1204.4565    132824.83   -34051.347    2631.7944   -36683.141    94.419464    246.89947 
   29700    141.46796   -1297.4716     132797.1    -34007.11    2671.8222   -36678.933    94.594595    250.65464 
   29750    140.67626    -1424.183    132766.86   -34014.716    2656.8698   -36671.586    94.479925    249.25189 
   29800    138.56447   -1396.0786    132704.42   -34031.491    2616.9858   -36648.477    94.400086    245.51021 
   29850    140.11839   -1010.6883    132773.39   -34037.953    2646.3336   -36684.287    94.363318    248.26345 
   29900    136.93589   -1194.6001    132793.99   -34058.188    2586.2277   -36644.416    94.476036    242.62467 
   29950    140.14789   -1105.8561    132764.04   -34083.938    2646.8908   -36730.829    94.509578    248.31572 
   30000    140.15507    -1147.308    132779.12   -34074.964    2647.0265   -36721.991    94.380886    248.32845 
   30050     140.3622   -1201.6482    132788.23   -34040.239    2650.9383   -36691.177    94.425449    248.69544 
   30100     140.2556   -1258.4328     132699.3   -34034.764    2648.9252   -36683.689    94.419782    248.50657 
   30150    139.84082   -996.67577    132736.57   -34020.814    2641.0913   -36661.906    94.657192    247.77165 
   30200    139.88429    -1151.724    132771.85   -34047.426    2641.9124   -36689.339    94.602181    247.84867 
   30250    141.78658   -1313.2025     132652.7   -34047.412    2677.8398   -36725.252    94.499989    251.21918 
   30300    139.67161   -1097.1376    132623.24   -34028.801    2637.8956   -36666.696    94.869428    247.47184 
   30350    140.65866   -1163.6783     132656.9   -34097.341    2656.5375   -36753.879    94.893373    249.22071 
   30400    139.12323   -936.22819    132705.22   -34124.106    2627.5388   -36751.645      95.0286    246.50023 
   30450    137.51579   -1101.7008    132750.78   -34157.172    2597.1799   -36754.352    95.328304    243.65214 
   30500    137.44946   -1225.8647    132700.58   -34160.779    2595.9273   -36756.706    95.687307    243.53462 
   30550    139.58558   -1064.7616    132712.48   -34160.052    2636.2708   -36796.323    95.577522    247.31941 
   30600    135.37161   -1086.1567    132707.04   -34190.404    2556.6841   -36747.088    95.333811    239.85306 
   30650    136.06631    -1221.911    132714.08   -34174.602    2569.8045   -36744.407     95.71021    241.08394 
   30700     139.6706   -1027.8825    132813.06   -34143.979    2637.8766   -36781.855    95.965664    247.47006 
   30750    137.23409   -990.22721    132904.06   -34147.327    2591.8597   -36739.187    96.195121    243.15302 
   30800    137.27574    -1227.413    132984.53    -34153.43    2592.6462   -36746.076    96.426276    243.22681 
   30850      136.806   -1094.2404    133053.86   -34104.904    2583.7745   -36688.679      96.3903    242.39452 
   30900    137.05015   -1419.5724    133187.24   -34128.479    2588.3857   -36716.864    96.680184    242.82712 
   30950    139.39258   -1181.3853    133208.57   -34070.378    2632.6257   -36703.004    96.944283    246.97745 
   31000    138.74259   -1348.8523    133171.22   -34054.577    2620.3497   -36674.927    97.020921    245.82579 
   31050    141.64357   -1419.4526    133187.77   -34026.806    2675.1388   -36701.944    97.159432    250.96578 
   31100    139.21079   -1206.6694    133167.65   -34037.476    2629.1924   -36666.669    97.446392    246.65536 
   31150    137.91298   -1344.5762    133179.18   -34064.184    2604.6814   -36668.865    97.838146    244.35588 
   31200     141.9735   -1190.5548    133227.03   -33974.703    2681.3702   -36656.074    98.136697    251.55037 
   31250    139.45617   -1259.6322     133333.8   -33976.098    2633.8268   -36609.924    98.198857    247.09013 
   31300    140.31786   -1198.1261    133384.02     -33978.8    2650.1009   -36628.901    98.087359    248.61687 
   31350    141.54108   -1191.9173    133336.37   -33975.603    2673.2031   -36648.806    98.458497    250.78419 
   31400    141.17511   -1446.5297    133234.11   -33922.002    2666.2913   -36588.294    98.551618    250.13576 
   31450    141.99737   -999.91104    133147.66   -33961.044    2681.8209   -36642.865    98.511581    251.59266 
   31500    143.74714    -1066.766    133134.11   -33929.205    2714.8677   -36644.072    98.634538    254.69291 
   31550    140.70103   -1071.7842    133103.64   -33921.488    2657.3377   -36578.825     98.85748    249.29578 
   31600    141.88172   -1452.3451    133060.62   -33933.708    2679.6367   -36613.345    98.997884    251.38775 
   31650    141.59103   -1509.9091    133038.84   -33976.965    2674.1467   -36651.112    98.994755     250.8727 
   31700    141.71188   -1389.7576    133021.07   -33968.052     2676.429   -36644.481    99.100514    251.08682 
   31750    140.08465   -1239.6567    132959.29   -33932.925    2645.6964   -36578.621    99.100672    248.20367 
   31800    139.43534   -1432.6297    132889.27   -33975.911    2633.4333   -36609.344     99.26753    247.05322 
   31850    142.61907   -1241.8877    132969.71   -33957.551    2693.5627   -36651.113    99.155414     252.6942 
   31900    140.29496   -1622.1165    132922.57   -33993.483    2649.6685   -36643.152    99.361683    248.57631 
   31950     142.2167   -1202.2179    132921.58    -33944.57    2685.9632   -36630.534     99.50645    251.98127 
   32000    140.72118   -1160.7358    132966.47    -34007.39    2657.7183   -36665.108    99.354914    249.33149 
   32050    138.32733    -1212.182    132984.42    -33978.57     2612.507   -36591.078    99.553841    245.09004 
   32100    143.82056   -1430.7009    132950.04    -34006.18    2716.2544   -36722.434    99.689352      254.823 
   32150    139.70032   -1302.9796    132961.12   -33975.191    2638.4378   -36613.629    99.972281    247.52271 
   32200    140.10844    -1530.173    132945.65   -33978.111    2646.1457   -36624.257    99.811793    248.24582 
   32250    142.83867     -1372.93    132874.99   -33961.354    2697.7101   -36659.064    99.902596    253.08329 
   32300    141.48422   -1419.9847       132847   -33995.612    2672.1293   -36667.741    100.14045    250.68345 
   32350    137.63918   -1325.7892    132794.96   -33997.254    2599.5103   -36596.765    100.58688    243.87076 
   32400    139.21897   -1303.1067     132695.4    -34023.58     2629.347   -36652.927    100.66943    246.66986 
   32450    138.87277   -1188.8785    132578.01    -34015.52    2622.8083   -36638.329    100.94936    246.05644 
   32500    140.58927   -1183.0468     132528.7   -34015.956     2655.227   -36671.183    101.49212    249.09777 
   32550    140.21696   -1355.3281    132589.36    -34019.68    2648.1953   -36667.875     101.4475     248.4381 
   32600    141.75163   -1390.1784    132605.37   -33969.118    2677.1797   -36646.298    101.80964    251.15724 
   32650    139.93008   -1327.5546    132634.33   -33937.061    2642.7772   -36579.839    102.45535    247.92981 
   32700    139.74566   -1016.8139    132658.67   -33968.022    2639.2941   -36607.316    102.89482    247.60304 
   32750    136.32836   -1360.7737    132697.89   -33958.559    2574.7537   -36533.313    103.29092    241.54824 
   32800    139.66561    -1369.164    132649.05   -33955.848    2637.7824    -36593.63     103.5603    247.46122 
   32850    143.39336   -1353.6485    132621.36   -33923.127    2708.1861   -36631.313    103.96218    254.06608 
   32900    139.36692   -1326.0182    132601.78   -33944.968    2632.1412    -36577.11    104.20024      246.932 
   32950    141.77319   -1179.0931    132601.93   -33941.066    2677.5869   -36618.653    104.33791    251.19544 
   33000    140.95377   -1225.7975    132584.23   -33980.277    2662.1111   -36642.388    104.79629    249.74359 
   33050    139.56332   -1273.2546    132626.86   -33954.229    2635.8504   -36590.079    105.14301    247.27997 
   33100     139.1539   -1406.2816    132606.86   -33947.435     2628.118   -36575.553    105.25403    246.55457 
   33150     143.6495   -1154.2691    132636.28   -33905.568    2713.0236   -36618.591    105.30758    254.51991 
   33200    141.04997   -1163.7195    132657.51   -33889.843     2663.928   -36553.771    105.47422    249.91405 
   33250    142.64353   -1177.9238    132676.87    -33868.17    2694.0246   -36562.194     105.6083    252.73753 
   33300    142.22692   -1244.6779    132692.98   -33846.309    2686.1563   -36532.466    105.43925    251.99938 
   33350    141.70365   -1285.6925    132678.92   -33867.842    2676.2737   -36544.115    105.71806    251.07225 
   33400    142.63205   -1205.0899    132714.29   -33903.885    2693.8077   -36597.693    106.22973    252.71718 
   33450    142.27752   -1032.1832    132612.43   -33908.231     2687.112   -36595.343     106.1682    252.08904 
   33500     141.7058   -1255.5777    132702.46   -33902.129    2676.3141   -36578.443    106.24716    251.07604 
   33550    140.50527   -1108.5301    132689.89   -33932.898    2653.6406   -36586.539    106.37505    248.94894 
   33600    140.42866   -1276.3643    132614.94   -34006.563    2652.1936   -36658.756    106.36858     248.8132 
   33650    137.32342    -1379.208    132517.47   -33999.431    2593.5468   -36592.978    106.37418     243.3113 
   33700     137.8486   -1127.1866    132512.56   -33977.324    2603.4655    -36580.79    106.41104    244.24181 
   33750    139.11991   -1249.4289    132540.81   -33992.966     2627.476   -36620.442     106.4745    246.49434 
   33800    138.43344    -1387.215       132494   -33994.574     2614.511   -36609.085    106.79074    245.27804 
   33850    136.41599   -1254.7282    132478.22   -34057.422    2576.4086   -36633.831    106.90547    241.70349 
   33900    136.70365   -1320.6756    132516.75   -34028.079    2581.8415    -36609.92    107.26837    242.21317 
   33950    139.48372   -1222.8374    132511.99   -34001.975     2634.347   -36636.322    107.45993    247.13893 
[...]
   92000    139.90698   -995.94151    132351.94   -34002.469     2642.341    -36644.81    284.48561    247.88888 
   92050    139.53342    -1198.847    132332.41   -34016.704    2635.2858    -36651.99    284.74942      247.227 
   92100    141.21354   -1062.8694    132361.31   -34032.897    2667.0172   -36699.914    284.85652    250.20386 
   92150    140.62083   -1390.3681    132281.59   -34027.665    2655.8229   -36683.488     285.0693    249.15368 
   92200    137.53868    -1173.046     132315.7   -33996.597    2597.6123   -36594.209    285.09466     243.6927 
   92250     138.6607   -1362.4456     132196.3   -34006.615    2618.8031   -36625.418    285.44095    245.68069 
   92300    141.96261   -1307.5166    132252.66   -33991.213    2681.1645   -36672.377    285.22799    251.53108 
   92350    141.23421   -1294.0853    132357.67   -34009.335    2667.4075   -36676.743    285.11958    250.24048 
   92400    140.84806   -1293.7083    132331.05   -34066.718    2660.1145   -36726.832    285.69358    249.55629 
   92450    140.35905   -1019.9091    132418.13   -33992.989    2650.8789   -36643.868    285.46358    248.68986 
   92500    141.54565   -901.63594    132526.01   -33964.219    2673.2895   -36637.509    285.59418    250.79229 
   92550    138.84287   -1081.2674    132672.41    -33936.22    2622.2436   -36558.463    285.65265    246.00347 
   92600    138.62529   -1349.8932    132707.92   -33975.267    2618.1343   -36593.402    285.83423    245.61796 
   92650    141.84428   -1275.7464    132694.95   -33980.542    2678.9296   -36659.472    285.84155    251.32141 
   92700    142.63268   -1418.3196    132812.76    -33974.46    2693.8195    -36668.28    286.23681     252.7183 
   92750    141.08543    -1281.258    132762.96   -33982.149    2664.5976   -36646.747    286.22475    249.97687 
   92800    140.11793   -1395.2676    132657.05   -33994.943    2646.3249   -36641.268    285.74412    248.26263 
   92850    140.79925   -1201.1674    132742.62   -33913.538    2659.1927    -36572.73    286.20195    249.46981 
   92900     143.6003   -1531.4946    132673.02   -33900.973    2712.0945   -36613.068    286.79128    254.43275 
   92950    140.93254   -1354.7242    132583.33   -33979.932    2661.7101   -36641.642    287.38369    249.70598 
   93000    142.34328   -1181.8052    132616.25   -33965.222     2688.354   -36653.576    287.78683    252.20555 
   93050    143.15657   -1250.1728    132596.05   -34001.101    2703.7141   -36704.815    288.03956    253.64654 
   93100    140.53285   -1291.0991     132644.9   -34010.951    2654.1613   -36665.113    288.18326     248.9978 
   93150    139.17482   -1399.3337    132655.89   -34016.677     2628.513   -36645.191    288.72565    246.59163 
   93200    139.06937   -1403.0805     132588.1   -34022.292    2626.5215   -36648.814    288.95922    246.40479 
   93250    140.98976   -1248.8859    132550.22   -34004.817    2662.7908   -36667.608    289.07881    249.80736 
   93300    139.47463   -1231.8947    132547.48   -34056.872    2634.1754   -36691.048    289.10652    247.12283 
   93350    140.89993   -1141.0163    132501.67   -34016.095    2661.0942   -36677.189    289.32165     249.6482 
   93400    137.80605   -1433.2505    132521.25   -34053.226     2602.662   -36655.888    289.39967    244.16643 
   93450    137.59315   -1221.2229    132430.43   -34062.411     2598.641   -36661.052    289.77333    243.78921 
   93500    138.97422   -1001.9436    132425.07   -34072.486    2624.7244   -36697.211    290.24225     246.2362 
   93550    137.17592   -1027.8962    132481.29   -34096.163     2590.761   -36686.924    290.44977    243.04995 
   93600     135.4102   -1534.9996     132492.2   -34060.162    2557.4129   -36617.575    290.27618    239.92143 
   93650    136.79406   -1372.2395    132450.29    -34054.67     2583.549   -36638.219      290.781    242.37336 
   93700    138.41375   -1159.0304    132413.47   -34021.921    2614.1391   -36636.061    290.91765    245.24315 
   93750    140.59733   -1273.0541     132386.9   -33995.743    2655.3791   -36651.122    291.00142    249.11205 
   93800    137.22092   -1105.4435    132328.14   -34046.167    2591.6109   -36637.778     290.9778    243.12968 
   93850     137.6437   -1155.3009    132310.76   -34050.149    2599.5958   -36649.745     291.8235    243.87878 
   93900    141.16701    -1325.793    132271.23   -33992.607    2666.1385   -36658.746    291.96488    250.12142 
   93950    140.95158   -1028.1224    132290.17   -33967.418    2662.0698   -36629.488    292.04523    249.73972 
   94000    140.68686   -1025.2587    132296.51   -34007.958    2657.0701   -36665.028    292.34439    249.27068 
   94050    141.09921   -1320.1155    132287.66   -33994.277     2664.858   -36659.135    292.99692    250.00129 
   94100    140.04421   -985.72201    132329.81   -33952.715    2644.9327   -36597.648    292.75221    248.13202 
   94150    142.18704   -1238.2312    132405.68   -33971.156     2685.403   -36656.559     293.1557    251.92871 
   94200    140.34194   -1161.9675    132392.08   -33919.184    2650.5557    -36569.74    293.18725    248.65954 
   94250    140.50912   -914.22916    132438.71   -33873.418    2653.7132   -36527.131    293.32174    248.95576 
   94300    141.85173   -1283.4923    132317.77    -33837.26    2679.0702   -36516.331    293.51747     251.3346 
   94350    137.23003   -1395.3483    132246.56   -33930.298    2591.7829   -36522.081    294.32169    243.14582 
   94400    140.25248   -1119.6447    132187.97   -33972.779    2648.8661   -36621.645    294.50892    248.50103 
   94450    140.01467   -1115.3768    132222.09   -33917.225    2644.3748     -36561.6    294.56464    248.07968 
   94500    140.59105   -1282.1275    132236.66   -33963.654    2655.2605   -36618.915    294.85377    249.10092 
   94550    141.52229   -1134.5864     132202.4   -34017.307    2672.8483   -36690.155    295.09173     250.7509 
   94600    138.88122   -1289.8571     132142.9   -34025.359     2622.968   -36648.327    295.17183    246.07143 
   94650    139.01416   -1296.3583     132072.8   -33986.212    2625.4788   -36611.691    295.00227    246.30697 
   94700    140.06974   -1178.1045    131996.48   -33990.248    2645.4148   -36635.663    295.22699    248.17725 
   94750    136.23232   -1218.7192    131994.86   -33991.633    2572.9397   -36564.573     295.8732    241.37806 
   94800    137.58973   -1125.8034    132016.39   -33975.084    2598.5764    -36573.66    295.84539    243.78315 
   94850     138.0645   -986.52278     132111.8   -33952.971    2607.5431   -36560.514    296.30376    244.62435 
   94900    139.49201    -1076.935    132129.21   -33990.706    2634.5036    -36625.21    296.41713    247.15363 
   94950    135.68962    -960.9955    132160.96   -33980.894      2562.69   -36543.584    296.82154     240.4165 
   95000     139.6117   -1131.6839    132152.55   -34000.958    2636.7641   -36637.722    296.96818    247.36569 
   95050    139.36532   -848.36936    132211.56   -34033.597    2632.1108   -36665.708    297.42435    246.92915 
   95100    138.97387   -816.40727     132226.2   -34037.044    2624.7178   -36661.762    297.25443    246.23557 
   95150     140.4829   -1223.5349     132213.9   -34066.712     2653.218    -36719.93    297.76851     248.9093 
   95200    138.48939   -877.09341    132219.82   -34019.118    2615.5677   -36634.685    298.13706    245.37717 
   95250    138.65694   -795.59111    132253.26   -34017.739    2618.7321   -36636.471    298.39127    245.67404 
   95300    139.69773    -1047.747     132284.8   -34031.214     2638.389   -36669.603    298.15974    247.51813 
   95350    140.19744   -1065.0783    132262.59   -34079.265    2647.8267   -36727.092    298.02065    248.40352 
   95400    143.75997   -1175.8523    132298.95    -34035.74    2715.1102   -36750.851    298.15185    254.71566 
   95450      137.886   -1022.3321    132355.41   -34092.498    2604.1719    -36696.67     297.8432    244.30808 
   95500    138.34946   -1150.5063    132303.23   -34049.818    2612.9249   -36662.743    297.74018    245.12924 
   95550    142.34637   -1133.0169    132254.85   -33954.387    2688.4122   -36642.799    297.86784    252.21101 
   95600    138.69411   -1285.9196    132199.32   -33945.912    2619.4341   -36565.346    297.94919     245.7399 
   95650      141.772   -1204.7192    132230.74    -33981.37    2677.5645   -36658.935    297.78298    251.19335 
   95700    139.51657   -1224.6906    132252.45    -34003.61    2634.9675   -36638.577    298.23545    247.19714 
   95750    141.24121   -1286.1775    132261.32   -33960.099    2667.5398   -36627.639     298.0315    250.25289 
   95800    137.03816   -1339.6583    132176.49   -33995.285    2588.1591   -36583.444    297.93485    242.80586 
   95850    136.25259   -1319.6798     132147.6   -34006.242    2573.3227   -36579.565    298.05542    241.41399 
   95900    136.45636   -1201.3113    132104.81   -34080.409    2577.1712   -36657.581    298.29776    241.77503 
   95950    138.15487   -1135.9608     132166.2   -34094.027    2609.2499   -36703.277    298.36595    244.78447 
   96000    140.08584   -1223.2679    132252.76   -34078.089     2645.719   -36723.808    298.69483    248.20579 
   96050    134.79428   -1108.7411    132385.25   -34063.314    2545.7804   -36609.094    298.94893    238.83014 
   96100    137.37214   -1138.8898    132398.83   -34068.644    2594.4669   -36663.111    299.39158    243.39762 
   96150    137.70561   -1192.9549    132395.19   -34045.257    2600.7649   -36646.022    299.67506    243.98846 
   96200    137.23923   -1149.5695     132422.3   -34047.056    2591.9567   -36639.013    300.09034    243.16213 
   96250    137.80854   -1330.5495    132314.78   -34062.397    2602.7089   -36665.106    300.08085    244.17083 
   96300    134.00061   -1185.9163    132256.63   -34056.272    2530.7909   -36587.063    299.86585    237.42391 
   96350    139.53812   -1327.3441    132314.45   -34083.838    2635.3745   -36719.212    299.95136    247.23533 
   96400    137.59837   -1274.5457    132269.34   -34087.586    2598.7395   -36686.326    299.68695    243.79845 
   96450    138.21989   -1074.8369    132255.98   -34097.829    2610.4778   -36708.307    299.82637    244.89967 
   96500      139.069   -1137.9652    132257.85   -34070.322    2626.5145   -36696.836    300.06582    246.40413 
   96550    138.32847   -1150.0652     132278.1   -34109.447    2612.5286   -36721.975     300.2616    245.09206 
   96600    137.41558   -1065.2126    132215.35   -34143.737    2595.2874   -36739.025    300.46766    243.47459 
   96650    138.88616   -1028.1081    132359.43   -34046.061    2623.0614   -36669.122    300.82487    246.08018 
   96700     141.9027   -1204.9794    132378.54   -34001.607     2680.033    -36681.64     300.8535    251.42493 
   96750    138.23346   -1089.9263    132367.72    -33979.52    2610.7341   -36590.254    301.09098    244.92371 
   96800    139.18264   -1009.2524    132379.37    -34054.93    2628.6608    -36683.59    301.06451    246.60549 
   96850    138.97404   -1053.4733    132355.95   -34017.397    2624.7211   -36642.118     301.6593    246.23589 
   96900    136.06784   -1194.4229    132366.08   -34047.316    2569.8333   -36617.149    301.98932    241.08664 
   96950    141.38913   -1103.5175     132454.6   -34010.139    2670.3334   -36680.473    302.19544    250.51497 
   97000    140.24427   -1110.5513    132491.67   -33997.962    2648.7111   -36646.674    302.17776    248.48649 
   97050    142.19026   -1051.5405    132601.99    -33997.21    2685.4639   -36682.674    302.30272    251.93442 
   97100    138.10036   -1204.8171    132511.81   -34016.496    2608.2203   -36624.717    302.95052    244.68788 
   97150    141.73746   -1351.7252    132534.52   -34006.888    2676.9121     -36683.8    302.99057    251.13214 
   97200    136.98599   -1147.4191    132501.26   -34072.184     2587.174   -36659.358    302.93106    242.71344 
   97250    136.44234    -1028.695    132482.32   -34100.339    2576.9064   -36677.245    303.36709    241.75019 
   97300    138.17307    -1365.431    132507.71   -34089.984    2609.5937   -36699.578     303.7267    244.81672 
   97350     138.9665   -1239.7436    132462.87   -34072.149    2624.5786   -36696.728    303.90724    246.22252 
   97400    137.73583   -1192.3586     132392.3    -34113.72    2601.3357   -36715.056    304.29437    244.04201 
   97450    136.07468   -953.56478    132545.91   -34091.019    2569.9625   -36660.981    304.58398    241.09875 
   97500    137.72127   -1267.3067    132591.54   -34066.478    2601.0607   -36667.539    304.78399    244.01621 
   97550    140.84101    -1193.684     132610.5     -34065.5    2659.9814   -36725.482    304.57731     249.5438 
   97600     137.5409    -1212.571    132617.04   -34041.006    2597.6541    -36638.66    304.60061    243.69663 
   97650    139.80135   -1324.7142    132669.57   -34049.206     2640.346   -36689.552    304.81344    247.70172 
   97700    139.70094   -1392.1807    132676.67   -34027.304    2638.4496   -36665.753    305.25291    247.52381 
   97750     141.6954   -1267.2501     132694.4   -33993.108    2676.1177   -36669.226    305.60845    251.05762 
   97800    139.38048    -1202.552    132716.75   -33984.688    2632.3973   -36617.085    306.43555    246.95602 
   97850    140.29692   -1244.9105    132813.19   -34006.782    2649.7055   -36656.488    307.14703    248.57978 
   97900    140.01633   -1284.2646    132864.56    -34014.65    2644.4062   -36659.056    307.79242    248.08263 
   97950    140.20783   -1234.8366    132893.21   -34047.881    2648.0229   -36695.904    308.11709    248.42193 
   98000    138.89987   -1137.3866    132924.55    -34074.21    2623.3202    -36697.53    308.61127    246.10447 
   98050     138.0955    -1106.792    132940.59   -34079.463    2608.1285   -36687.592    308.45452    244.67927 
   98100    141.15625    -1296.537    132910.99    -34053.22    2665.9352   -36719.155    308.94342    250.10235 
   98150    139.03334    -1029.837    132875.44   -34010.412    2625.8411   -36636.253    308.90101    246.34096 
   98200    141.99578   -1162.9402    132986.08   -33963.804    2681.7909   -36645.594    309.00469    251.58984 
   98250    139.93156   -1406.7749    132970.15   -34001.288    2642.8052   -36644.094    309.23457    247.93244 
   98300    137.76904    -1186.715    132988.04   -34054.762    2601.9628   -36656.725    309.56358    244.10084 
   98350    136.19567    -1170.939    133048.87   -34118.918    2572.2476   -36691.165    309.52644    241.31314 
   98400    138.80403   -1263.0825    133061.39   -34084.658    2621.5102   -36706.168     310.0249    245.93466 
   98450    140.08955   -1319.2409    132986.62   -34075.326     2645.789   -36721.115    310.39205    248.21236 
   98500    139.87456   -1433.5872    132950.08   -34102.453    2641.7286   -36744.181    310.12407    247.83143 
   98550    137.69156   -1288.8286    132907.55   -34080.022    2600.4996   -36680.522    310.47556    243.96357 
   98600    141.14277   -1161.9296    132916.54   -34084.976    2665.6807   -36750.657     310.9174    250.07847 
   98650    140.30527   -1131.0231    132973.42   -34033.184    2649.8632   -36683.047    310.96766    248.59457 
   98700    139.98981   -1240.8597    132985.46   -34016.574    2643.9054   -36660.479    310.77929    248.03564 
   98750     139.5517   -1135.0176    133052.33   -34005.753    2635.6309   -36641.384    310.75976    247.25938 
   98800    138.08128   -1357.2116    133015.29   -34020.721      2607.86   -36628.581    310.74206    244.65408 
   98850    138.37238   -1408.0417    132938.95   -34027.507    2613.3578   -36640.864    310.58175    245.16985 
   98900    139.84252   -1526.3454    132947.52   -34053.562    2641.1236   -36694.685     310.4351    247.77467 
   98950    136.74063   -1358.2129    132855.09   -34086.082    2582.5399   -36668.622     310.2835    242.27869 
   99000    140.23875   -1305.8213    132841.19   -34072.272    2648.6069   -36720.879    310.33815    248.47672 
   99050     139.1848   -1265.2717    132818.94   -34102.619    2628.7015    -36731.32    310.64349    246.60931 
   99100    138.47288    -1404.481    132788.73   -34124.849     2615.256   -36740.105     310.8111    245.34793 
   99150      138.005   -1506.6296    132730.41   -34089.769    2606.4193   -36696.188    311.04511    244.51892 
   99200    139.11104   -1324.5031    132722.16   -34124.948    2627.3084   -36752.257    311.13758    246.47862 
   99250    138.67809   -1230.1745    132773.83   -34109.456    2619.1315   -36728.587    311.43843    245.71151 
   99300    138.19561   -1372.7631     132841.9   -34097.799    2610.0193   -36707.818     311.5256    244.85665 
   99350    138.76154   -1154.9376    132932.31   -34087.542    2620.7077    -36708.25    311.27303    245.85938 
   99400    138.27106   -1229.5617    133033.17   -34104.479    2611.4443   -36715.923    311.48833    244.99033 
   99450    140.76681    -1214.305    133088.73   -34067.256      2658.58   -36725.836     311.4407    249.41233 
   99500    136.58085   -1334.9335    133096.88   -34081.043    2579.5223   -36660.565    311.44202     241.9956 
   99550     141.7818   -1332.3952    132995.67   -34081.633    2677.7496   -36759.383    311.30805    251.21071 
   99600    138.71584   -1469.1112    132982.06   -34023.751    2619.8446   -36643.595     311.5124     245.7784 
   99650    140.79623   -1240.5192    133032.17    -33988.07    2659.1357   -36647.206    311.88089    249.46447 
   99700    143.24553   -1413.2818     132923.9   -34022.033    2705.3941   -36727.427    311.72989    253.80415 
   99750    138.54108   -1231.7426    132967.93   -34048.971    2616.5441   -36665.515    311.79648    245.46877 
   99800    141.66504   -1345.3162    133021.21   -34028.305    2675.5444    -36703.85    312.20425    251.00383 
   99850    142.17816   -1430.9856    132982.45   -34021.772    2685.2353   -36707.008    312.30672    251.91298 
   99900    144.21107   -1234.4257    132983.89   -34028.244    2723.6297   -36751.874    312.38211    255.51491 
   99950    141.58342   -1190.4873    133004.48   -34011.251    2674.0029   -36685.254    312.45918    250.85922 
  100000    139.25563   -1537.7393    132942.77     -34055.4    2630.0393   -36685.439    312.54376    246.73481 
Loop time of 55.1558 on 90 procs for 100000 steps with 6337 atoms

Performance: 783.236 ns/day, 0.031 hours/ns, 1813.045 timesteps/s
97.2% CPU use with 90 MPI tasks x no OpenMP threads

MPI task timing breakdown:
Section |  min time  |  avg time  |  max time  |%varavg| %total
---------------------------------------------------------------
Pair    | 7.1519     | 17.054     | 38.163     | 306.5 | 30.92
Neigh   | 0.58918    | 1.3124     | 3.3516     |  84.2 |  2.38
Comm    | 5.5921     | 19.074     | 41.951     | 310.9 | 34.58
Output  | 0.1455     | 0.14871    | 0.15866    |   0.5 |  0.27
Modify  | 3.3819     | 16.768     | 39.411     | 377.7 | 30.40
Other   |            | 0.7994     |            |       |  1.45

Nlocal:    70.4111 ave 156 max 39 min
Histogram: 52 8 0 4 11 0 0 0 1 14
Nghost:    707.9 ave 1045 max 430 min
Histogram: 30 0 0 16 14 0 0 0 15 15
Neighs:    0 ave 0 max 0 min
Histogram: 90 0 0 0 0 0 0 0 0 0
FullNghs:  5660.27 ave 18639 max 1441 min
Histogram: 60 0 0 0 15 0 0 0 0 15

Total # of neighbors = 509424
Ave neighs/atom = 80.3888
Neighbor list builds = 6131
Dangerous builds = 0

write_data		${DIR}/data.eq-${NAME}-${TEMP}
write_data		run_8/data.eq-${NAME}-${TEMP}
write_data		run_8/data.eq-het_freeze_8-${TEMP}
write_data		run_8/data.eq-het_freeze_8-248
undump          1

reset_timestep  0

unfix           2
unfix           3
unfix           4


################################################
#######         Run Simulation         #########
################################################

log				${DIR}/log.run_${NAME}
log				run_8/log.run_${NAME}
log				run_8/log.run_het_freeze_8
