LAMMPS data file via write_data, version 16 Mar 2018, timestep = 100000

4065 atoms
2 atom types

0.0000000000000000e+00 4.9219999999999999e+01 xlo xhi
0.0000000000000000e+00 4.9019635930410494e+01 ylo yhi
2.0200426455765399e+00 2.5820789600708281e+01 zlo zhi

Masses

1 18.015
2 12.01

Atoms # atomic

83 2 0.0000000000000000e+00 2.8417180249513345e+00 3.4536870241163578e+00 0 0 0
85 2 0.0000000000000000e+00 0.0000000000000000e+00 3.4536870241163578e+00 0 0 0
87 2 1.2305000000000001e+00 7.1042950623783474e-01 3.4536870241163578e+00 0 0 0
94 2 1.2305000000000001e+00 2.1312885187134998e+00 3.4536870241163578e+00 0 0 0
96 2 2.4610000000000003e+00 2.8417180249513345e+00 3.4536870241163578e+00 0 0 0
98 2 2.4610000000000003e+00 0.0000000000000000e+00 3.4536870241163578e+00 0 0 0
100 2 3.6915000000000004e+00 7.1042950623783474e-01 3.4536870241163578e+00 0 0 0
115 2 3.6914999999999996e+00 2.1312885187134998e+00 3.4536870241163578e+00 0 0 0
117 2 4.9220000000000006e+00 2.8417180249513332e+00 3.4536870241163578e+00 0 0 0
119 2 4.9220000000000006e+00 0.0000000000000000e+00 3.4536870241163578e+00 0 0 0
121 2 6.1524999999999999e+00 7.1042950623783407e-01 3.4536870241163578e+00 0 0 0
144 2 6.1524999999999999e+00 2.1312885187134989e+00 3.4536870241163578e+00 0 0 0
146 2 7.3829999999999991e+00 2.8417180249513345e+00 3.4536870241163578e+00 0 0 0
148 2 7.3829999999999991e+00 0.0000000000000000e+00 3.4536870241163578e+00 0 0 0
90 2 0.0000000000000000e+00 4.2625770374269996e+00 3.4536870241163578e+00 0 0 0
92 2 1.2305000000000001e+00 4.9730065436648339e+00 3.4536870241163578e+00 0 0 0
107 2 1.2305000000000001e+00 6.3938655561404980e+00 3.4536870241163578e+00 0 0 0
111 2 2.4610000000000003e+00 4.2625770374269996e+00 3.4536870241163578e+00 0 0 0
113 2 3.6914999999999996e+00 4.9730065436648339e+00 3.4536870241163578e+00 0 0 0
136 2 3.6914999999999996e+00 6.3938655561404980e+00 3.4536870241163578e+00 0 0 0
88 2 0.0000000000000000e+00 7.1042950623783341e+00 3.4536870241163578e+00 0 0 0
109 2 2.4610000000000003e+00 7.1042950623783341e+00 3.4536870241163578e+00 0 0 0
140 2 4.9220000000000006e+00 4.2625770374269978e+00 3.4536870241163578e+00 0 0 0
142 2 6.1524999999999999e+00 4.9730065436648339e+00 3.4536870241163578e+00 0 0 0
173 2 6.1524999999999999e+00 6.3938655561404980e+00 3.4536870241163578e+00 0 0 0
177 2 7.3829999999999991e+00 4.2625770374269996e+00 3.4536870241163578e+00 0 0 0
138 2 4.9220000000000006e+00 7.1042950623783341e+00 3.4536870241163578e+00 0 0 0
175 2 7.3830000000000009e+00 7.1042950623783341e+00 3.4536870241163578e+00 0 0 0
103 2 0.0000000000000000e+00 8.5251540748539991e+00 3.4536870241163578e+00 0 0 0
105 2 1.2305000000000001e+00 9.2355835810918343e+00 3.4536870241163578e+00 0 0 0
132 2 2.4610000000000003e+00 8.5251540748539991e+00 3.4536870241163578e+00 0 0 0
134 2 3.6915000000000004e+00 9.2355835810918343e+00 3.4536870241163578e+00 0 0 0
101 2 0.0000000000000000e+00 1.1366872099805333e+01 3.4536870241163578e+00 0 0 0
128 2 1.2305000000000001e+00 1.0656442593567498e+01 3.4536870241163578e+00 0 0 0
130 2 2.4610000000000003e+00 1.1366872099805333e+01 3.4536870241163578e+00 0 0 0
165 2 3.6914999999999996e+00 1.0656442593567499e+01 3.4536870241163578e+00 0 0 0
169 2 4.9220000000000006e+00 8.5251540748539991e+00 3.4536870241163578e+00 0 0 0
171 2 6.1524999999999999e+00 9.2355835810918343e+00 3.4536870241163578e+00 0 0 0
214 2 7.3830000000000009e+00 8.5251540748539991e+00 3.4536870241163578e+00 0 0 0
167 2 4.9220000000000006e+00 1.1366872099805333e+01 3.4536870241163578e+00 0 0 0
210 2 6.1524999999999999e+00 1.0656442593567499e+01 3.4536870241163578e+00 0 0 0
212 2 7.3829999999999991e+00 1.1366872099805333e+01 3.4536870241163578e+00 0 0 0
84 2 0.0000000000000000e+00 1.4208590124756650e+00 6.3209757811960792e+00 0 0 0
86 2 0.0000000000000000e+00 0.0000000000000000e+00 6.3209757811960792e+00 0 0 0
95 2 1.2305000000000001e+00 2.1312885187134998e+00 6.3209757811960792e+00 0 0 0
97 2 2.4610000000000003e+00 1.4208590124756650e+00 6.3209757811960792e+00 0 0 0
99 2 2.4610000000000003e+00 0.0000000000000000e+00 6.3209757811960792e+00 0 0 0
412 2 0.0000000000000000e+00 2.8417180249513345e+00 9.1882645382749395e+00 0 0 0
413 2 0.0000000000000000e+00 0.0000000000000000e+00 9.1882645382749395e+00 0 0 0
414 2 1.2305000000000001e+00 7.1042950623783474e-01 9.1882645382749395e+00 0 0 0
418 2 1.2305000000000001e+00 2.1312885187134998e+00 9.1882645382749395e+00 0 0 0
419 2 2.4610000000000003e+00 2.8417180249513345e+00 9.1882645382749395e+00 0 0 0
420 2 2.4610000000000003e+00 0.0000000000000000e+00 9.1882645382749395e+00 0 0 0
116 2 3.6914999999999996e+00 2.1312885187134998e+00 6.3209757811960792e+00 0 0 0
421 2 3.6915000000000004e+00 7.1042950623783474e-01 9.1882645382749395e+00 0 0 0
429 2 3.6914999999999996e+00 2.1312885187134998e+00 9.1882645382749395e+00 0 0 0
93 2 1.2305000000000001e+00 3.5521475311891644e+00 6.3209757811960792e+00 0 0 0
114 2 3.6914999999999996e+00 3.5521475311891644e+00 6.3209757811960792e+00 0 0 0
118 2 4.9220000000000006e+00 1.4208590124756650e+00 6.3209757811960792e+00 0 0 0
120 2 4.9220000000000006e+00 0.0000000000000000e+00 6.3209757811960792e+00 0 0 0
145 2 6.1524999999999999e+00 2.1312885187134989e+00 6.3209757811960792e+00 0 0 0
430 2 4.9220000000000006e+00 2.8417180249513332e+00 9.1882645382749395e+00 0 0 0
431 2 4.9220000000000006e+00 0.0000000000000000e+00 9.1882645382749395e+00 0 0 0
432 2 6.1524999999999999e+00 7.1042950623783407e-01 9.1882645382749395e+00 0 0 0
444 2 6.1524999999999999e+00 2.1312885187134989e+00 9.1882645382749395e+00 0 0 0
147 2 7.3829999999999991e+00 1.4208590124756659e+00 6.3209757811960792e+00 0 0 0
149 2 7.3829999999999991e+00 0.0000000000000000e+00 6.3209757811960792e+00 0 0 0
445 2 7.3829999999999991e+00 2.8417180249513345e+00 9.1882645382749395e+00 0 0 0
446 2 7.3829999999999991e+00 0.0000000000000000e+00 9.1882645382749395e+00 0 0 0
143 2 6.1524999999999999e+00 3.5521475311891644e+00 6.3209757811960792e+00 0 0 0
89 2 0.0000000000000000e+00 5.6834360499026637e+00 6.3209757811960792e+00 0 0 0
91 2 0.0000000000000000e+00 4.2625770374269996e+00 6.3209757811960792e+00 0 0 0
108 2 1.2305000000000001e+00 6.3938655561404980e+00 6.3209757811960792e+00 0 0 0
110 2 2.4610000000000003e+00 5.6834360499026637e+00 6.3209757811960792e+00 0 0 0
112 2 2.4610000000000003e+00 4.2625770374269996e+00 6.3209757811960792e+00 0 0 0
416 2 0.0000000000000000e+00 4.2625770374269996e+00 9.1882645382749395e+00 0 0 0
417 2 1.2305000000000001e+00 4.9730065436648339e+00 9.1882645382749395e+00 0 0 0
425 2 1.2305000000000001e+00 6.3938655561404980e+00 9.1882645382749395e+00 0 0 0
427 2 2.4610000000000003e+00 4.2625770374269996e+00 9.1882645382749395e+00 0 0 0
137 2 3.6914999999999996e+00 6.3938655561404980e+00 6.3209757811960792e+00 0 0 0
428 2 3.6914999999999996e+00 4.9730065436648339e+00 9.1882645382749395e+00 0 0 0
440 2 3.6914999999999996e+00 6.3938655561404980e+00 9.1882645382749395e+00 0 0 0
106 2 1.2305000000000001e+00 7.8147245686161639e+00 6.3209757811960792e+00 0 0 0
415 2 0.0000000000000000e+00 7.1042950623783341e+00 9.1882645382749395e+00 0 0 0
426 2 2.4610000000000003e+00 7.1042950623783341e+00 9.1882645382749395e+00 0 0 0
135 2 3.6914999999999996e+00 7.8147245686161639e+00 6.3209757811960792e+00 0 0 0
139 2 4.9220000000000006e+00 5.6834360499026637e+00 6.3209757811960792e+00 0 0 0
141 2 4.9220000000000006e+00 4.2625770374269978e+00 6.3209757811960792e+00 0 0 0
174 2 6.1524999999999999e+00 6.3938655561404980e+00 6.3209757811960792e+00 0 0 0
442 2 4.9220000000000006e+00 4.2625770374269978e+00 9.1882645382749395e+00 0 0 0
443 2 6.1524999999999999e+00 4.9730065436648339e+00 9.1882645382749395e+00 0 0 0
459 2 6.1524999999999999e+00 6.3938655561404980e+00 9.1882645382749395e+00 0 0 0
176 2 7.3829999999999991e+00 5.6834360499026637e+00 6.3209757811960792e+00 0 0 0
178 2 7.3829999999999991e+00 4.2625770374269996e+00 6.3209757811960792e+00 0 0 0
461 2 7.3829999999999991e+00 4.2625770374269996e+00 9.1882645382749395e+00 0 0 0
172 2 6.1524999999999999e+00 7.8147245686161639e+00 6.3209757811960792e+00 0 0 0
441 2 4.9220000000000006e+00 7.1042950623783341e+00 9.1882645382749395e+00 0 0 0
460 2 7.3830000000000009e+00 7.1042950623783341e+00 9.1882645382749395e+00 0 0 0
102 2 0.0000000000000000e+00 9.9460130873296642e+00 6.3209757811960792e+00 0 0 0
104 2 0.0000000000000000e+00 8.5251540748539991e+00 6.3209757811960792e+00 0 0 0
131 2 2.4610000000000003e+00 9.9460130873296642e+00 6.3209757811960792e+00 0 0 0
133 2 2.4610000000000003e+00 8.5251540748539991e+00 6.3209757811960792e+00 0 0 0
423 2 0.0000000000000000e+00 8.5251540748539991e+00 9.1882645382749395e+00 0 0 0
424 2 1.2305000000000001e+00 9.2355835810918343e+00 9.1882645382749395e+00 0 0 0
438 2 2.4610000000000003e+00 8.5251540748539991e+00 9.1882645382749395e+00 0 0 0
439 2 3.6915000000000004e+00 9.2355835810918343e+00 9.1882645382749395e+00 0 0 0
127 2 1.2305000000000001e+00 1.2077301606043163e+01 6.3209757811960792e+00 0 0 0
129 2 1.2305000000000001e+00 1.0656442593567498e+01 6.3209757811960792e+00 0 0 0
422 2 0.0000000000000000e+00 1.1366872099805333e+01 9.1882645382749395e+00 0 0 0
436 2 1.2305000000000001e+00 1.0656442593567498e+01 9.1882645382749395e+00 0 0 0
437 2 2.4610000000000003e+00 1.1366872099805333e+01 9.1882645382749395e+00 0 0 0
164 2 3.6914999999999996e+00 1.2077301606043163e+01 6.3209757811960792e+00 0 0 0
166 2 3.6914999999999996e+00 1.0656442593567499e+01 6.3209757811960792e+00 0 0 0
455 2 3.6914999999999996e+00 1.0656442593567499e+01 9.1882645382749395e+00 0 0 0
168 2 4.9220000000000006e+00 9.9460130873296642e+00 6.3209757811960792e+00 0 0 0
170 2 4.9220000000000006e+00 8.5251540748539991e+00 6.3209757811960792e+00 0 0 0
457 2 4.9220000000000006e+00 8.5251540748539991e+00 9.1882645382749395e+00 0 0 0
458 2 6.1524999999999999e+00 9.2355835810918343e+00 9.1882645382749395e+00 0 0 0
213 2 7.3830000000000009e+00 9.9460130873296642e+00 6.3209757811960792e+00 0 0 0
215 2 7.3830000000000009e+00 8.5251540748539991e+00 6.3209757811960792e+00 0 0 0
480 2 7.3830000000000009e+00 8.5251540748539991e+00 9.1882645382749395e+00 0 0 0
209 2 6.1524999999999999e+00 1.2077301606043163e+01 6.3209757811960792e+00 0 0 0
211 2 6.1524999999999999e+00 1.0656442593567499e+01 6.3209757811960792e+00 0 0 0
456 2 4.9220000000000006e+00 1.1366872099805333e+01 9.1882645382749395e+00 0 0 0
478 2 6.1524999999999999e+00 1.0656442593567499e+01 9.1882645382749395e+00 0 0 0
479 2 7.3829999999999991e+00 1.1366872099805333e+01 9.1882645382749395e+00 0 0 0
3959 1 7.7990108031775085e+00 2.3009807165238993e+00 1.2143179673167600e+01 0 1 -1
957 1 4.6963801570363586e+00 1.1836156099797229e+01 1.1239118253591283e+01 0 0 0
3943 1 4.4326942919754906e+00 3.1101093201535202e+00 1.2019635735471402e+01 0 2 0
806 1 1.8703941229880086e+00 3.5729179686724710e+00 1.2810838663266168e+01 1 0 0
2845 1 2.0317540848251499e+00 1.1410757677365085e+01 1.1778016646662019e+01 1 1 0
1892 1 1.5252635360520958e-01 9.3084622757616646e+00 1.1891351283604950e+01 1 0 0
3043 1 4.2935516607505084e+00 7.6466859127580298e+00 1.1898883013778127e+01 0 0 -1
1962 1 6.2858859723927223e+00 5.3117932362708808e+00 1.2355578209873965e+01 -1 -1 0
1871 1 6.1155286927967980e+00 9.7198779961817454e+00 1.2241397717633511e+01 0 1 0
1932 1 3.6955704114297081e+00 1.6069854372739267e-01 1.1710024949154215e+01 1 0 -1
4032 1 1.4531457358820776e+00 6.1726035928391836e+00 1.2086622981425746e+01 1 1 1
993 1 7.6400154631740602e-02 4.0118671045397782e+00 1.8381104913057307e+01 1 0 0
2069 1 1.9078987470652429e+00 5.0800157671263495e+00 1.5238848322908799e+01 1 0 1
2012 1 7.5652606209674946e+00 1.2171579487324898e+01 1.9544817984780408e+01 1 0 0
2003 1 7.4920697344270746e+00 1.2275919872782899e+00 2.4686457329526093e+01 0 0 0
1019 1 6.2477598217458423e+00 4.1365184907534678e+00 1.4977791513012512e+01 0 1 1
3102 1 4.0959966809610320e+00 4.8574596380324300e+00 1.6941482768480896e+01 1 2 -1
20 1 4.3023840570850371e+00 2.0612895701765357e+00 1.4600043976892307e+01 1 1 0
3931 1 4.5735750964043866e+00 7.6042615946662391e+00 1.8254844879234476e+01 -1 0 0
1044 1 4.4355343947307041e-01 9.3157178248177335e+00 1.4762134652654380e+01 1 0 1
2921 1 7.8446625525892735e+00 7.6480806143662488e+00 1.6355966454172012e+01 2 0 -1
49 1 5.3115913399458199e+00 8.7220418442204899e+00 1.5216016858935438e+01 0 0 -1
2961 1 2.0155807257168519e+00 1.1876796994661992e+01 1.4785901401034275e+01 1 1 -1
3980 1 6.4734141628023565e+00 1.1412876734815018e+01 2.4476061497167464e+01 0 0 -1
2988 1 1.8618605927370189e+00 1.2509866311666047e+00 1.5462064549366634e+01 0 -1 0
1954 1 4.8380665224710757e+00 1.1433772014870351e+01 1.5136407820628511e+01 1 1 0
1957 1 7.3673840164324105e+00 4.5147177910261629e+00 2.4702899314907533e+01 -1 0 -1
3991 1 2.7144764083890252e+00 1.1696276541068145e+00 2.0175421076132196e+01 1 0 -1
2879 1 5.8223024379574033e+00 1.1889952414667963e+01 2.1838828034150183e+01 0 1 -1
1976 1 7.3670453756367342e+00 2.6055382759106931e+00 2.2177773271912855e+01 0 0 0
2031 1 6.0090272205542892e+00 3.2370259521405464e+00 1.9441518832415056e+01 0 1 0
3907 1 2.8685404752499983e+00 3.7950407816147034e+00 1.9114934847913538e+01 0 2 0
3951 1 5.1201844253844744e+00 7.5341141921505441e+00 2.1262969388094888e+01 0 0 -1
3807 1 3.9329314606488297e+00 1.0537702816942335e+01 1.8574586346853216e+01 1 1 0
3835 1 4.1052801977738790e-01 8.2179641790586473e+00 2.4344995974978524e+01 0 -1 0
3961 1 5.8027187913915768e-01 8.5913329543057344e+00 2.0575190813090863e+01 0 0 -1
2974 1 4.7934611505811429e+00 3.4601314429998442e-01 2.4715345549879544e+01 1 0 -1
950 1 1.6477981900889751e+00 5.9140908674842487e+00 2.2988418312721471e+01 1 0 0
4045 1 5.4936353826799522e-01 1.1833634049661869e+01 2.4472643818230388e+01 0 0 0
2950 1 7.0159518789445361e+00 5.8313971373964657e+00 1.8781879222290996e+01 0 1 1
3821 1 2.2866392665632757e-02 8.6101859811219548e+00 1.7883895574362306e+01 0 1 -1
1087 1 8.5598164993493642e-01 1.5612372061695292e+00 2.2023270924440482e+01 1 0 -1
2822 1 9.4541951290339621e-01 3.6833422842062253e+00 2.4453588935525502e+01 0 0 0
1949 1 1.8661446294206883e+00 6.9687421214829304e-01 2.4868018983683754e+01 1 0 0
2841 1 4.0126196583541374e+00 4.9460226352045611e+00 2.1488478463053177e+01 0 1 0
872 1 4.5442803718298430e+00 3.6683737435306250e+00 2.4408842197272563e+01 1 0 -1
2917 1 1.4236365204593440e+00 1.1106686327355712e+01 1.7580216131092861e+01 0 0 0
1868 1 3.5026695336382576e+00 7.3994392279222616e+00 2.4962453159970174e+01 0 1 0
3031 1 6.2788427968307499e+00 6.9497923641252903e+00 2.4157115198343135e+01 0 0 0
16 1 3.7422049327032840e+00 9.9909041642168628e+00 2.1237192006404804e+01 0 0 1
941 1 2.6636322854372376e+00 7.8107942955782796e+00 1.4374638128682944e+01 0 1 1
1991 1 3.1485977855022433e+00 1.0215699744063521e+01 2.4267688503677718e+01 1 2 -1
2115 1 7.8201121951573676e+00 7.5537423382098163e+00 2.0764936615141863e+01 0 -1 1
845 1 4.8945211615733619e+00 5.2162349618065584e-01 2.1516870298505552e+01 0 0 0
982 1 1.1939015826222559e+00 1.1392374950127248e+01 2.1665171027407524e+01 0 0 -1
2973 1 2.4928131282382165e-01 5.8172549986043300e+00 2.0672945697795335e+01 1 0 -1
3897 1 8.1151112195165425e+00 1.9440636670460627e+00 1.5094348952250014e+01 -1 1 0
1939 1 1.9394988740190755e+00 5.5315295863238134e-02 1.7841740355115668e+01 2 0 0
124 2 0.0000000000000000e+00 1.2787731112280996e+01 3.4536870241163578e+00 0 0 0
126 2 1.2305000000000001e+00 1.3498160618518829e+01 3.4536870241163578e+00 0 0 0
161 2 2.4610000000000003e+00 1.2787731112280996e+01 3.4536870241163578e+00 0 0 0
163 2 3.6915000000000004e+00 1.3498160618518829e+01 3.4536870241163578e+00 0 0 0
122 2 0.0000000000000000e+00 1.5629449137232333e+01 3.4536870241163578e+00 0 0 0
157 2 1.2305000000000001e+00 1.4919019630994494e+01 3.4536870241163578e+00 0 0 0
159 2 2.4610000000000003e+00 1.5629449137232328e+01 3.4536870241163578e+00 0 0 0
202 2 3.6915000000000004e+00 1.4919019630994494e+01 3.4536870241163578e+00 0 0 0
206 2 4.9220000000000006e+00 1.2787731112280996e+01 3.4536870241163578e+00 0 0 0
208 2 6.1524999999999990e+00 1.3498160618518829e+01 3.4536870241163578e+00 0 0 0
253 2 7.3829999999999991e+00 1.2787731112280996e+01 3.4536870241163578e+00 0 0 0
204 2 4.9220000000000006e+00 1.5629449137232333e+01 3.4536870241163578e+00 0 0 0
249 2 6.1524999999999990e+00 1.4919019630994494e+01 3.4536870241163578e+00 0 0 0
251 2 7.3829999999999991e+00 1.5629449137232333e+01 3.4536870241163578e+00 0 0 0
153 2 0.0000000000000000e+00 1.7050308149707998e+01 3.4536870241163578e+00 0 0 0
198 2 2.4610000000000003e+00 1.7050308149707998e+01 3.4536870241163578e+00 0 0 0
151 2 0.0000000000000000e+00 1.9892026174659328e+01 3.4536870241163578e+00 0 0 0
155 2 1.2305000000000001e+00 1.7760737655945832e+01 3.4536870241163578e+00 0 0 0
194 2 1.2305000000000001e+00 1.9181596668421495e+01 3.4536870241163578e+00 0 0 0
196 2 2.4610000000000003e+00 1.9892026174659328e+01 3.4536870241163578e+00 0 0 0
200 2 3.6914999999999996e+00 1.7760737655945832e+01 3.4536870241163578e+00 0 0 0
241 2 3.6914999999999996e+00 1.9181596668421495e+01 3.4536870241163578e+00 0 0 0
245 2 4.9220000000000006e+00 1.7050308149707998e+01 3.4536870241163578e+00 0 0 0
292 2 7.3830000000000009e+00 1.7050308149707998e+01 3.4536870241163578e+00 0 0 0
243 2 4.9220000000000006e+00 1.9892026174659328e+01 3.4536870241163578e+00 0 0 0
247 2 6.1524999999999999e+00 1.7760737655945832e+01 3.4536870241163578e+00 0 0 0
288 2 6.1524999999999999e+00 1.9181596668421495e+01 3.4536870241163578e+00 0 0 0
290 2 7.3829999999999991e+00 1.9892026174659328e+01 3.4536870241163578e+00 0 0 0
188 2 0.0000000000000000e+00 2.4154603212086325e+01 3.4536870241163578e+00 0 0 0
190 2 0.0000000000000000e+00 2.1312885187134999e+01 3.4536870241163578e+00 0 0 0
192 2 1.2304999999999993e+00 2.2023314693372832e+01 3.4536870241163578e+00 0 0 0
233 2 1.2304999999999993e+00 2.3444173705848499e+01 3.4536870241163578e+00 0 0 0
235 2 2.4610000000000003e+00 2.4154603212086325e+01 3.4536870241163578e+00 0 0 0
237 2 2.4610000000000003e+00 2.1312885187134995e+01 3.4536870241163578e+00 0 0 0
239 2 3.6914999999999996e+00 2.2023314693372832e+01 3.4536870241163578e+00 0 0 0
280 2 3.6915000000000004e+00 2.3444173705848499e+01 3.4536870241163578e+00 0 0 0
282 2 4.9220000000000006e+00 2.4154603212086325e+01 3.4536870241163578e+00 0 0 0
284 2 4.9220000000000006e+00 2.1312885187134995e+01 3.4536870241163578e+00 0 0 0
286 2 6.1524999999999990e+00 2.2023314693372832e+01 3.4536870241163578e+00 0 0 0
322 2 6.1524999999999999e+00 2.3444173705848499e+01 3.4536870241163578e+00 0 0 0
324 2 7.3830000000000009e+00 2.4154603212086336e+01 3.4536870241163578e+00 0 0 0
326 2 7.3829999999999991e+00 2.1312885187134999e+01 3.4536870241163578e+00 0 0 0
125 2 0.0000000000000000e+00 1.2787731112280996e+01 6.3209757811960792e+00 0 0 0
162 2 2.4610000000000003e+00 1.2787731112280996e+01 6.3209757811960792e+00 0 0 0
434 2 0.0000000000000000e+00 1.2787731112280996e+01 9.1882645382749395e+00 0 0 0
435 2 1.2305000000000001e+00 1.3498160618518829e+01 9.1882645382749395e+00 0 0 0
453 2 2.4610000000000003e+00 1.2787731112280996e+01 9.1882645382749395e+00 0 0 0
454 2 3.6915000000000004e+00 1.3498160618518829e+01 9.1882645382749395e+00 0 0 0
123 2 0.0000000000000000e+00 1.4208590124756663e+01 6.3209757811960792e+00 0 0 0
158 2 1.2305000000000001e+00 1.4919019630994494e+01 6.3209757811960792e+00 0 0 0
160 2 2.4610000000000003e+00 1.4208590124756663e+01 6.3209757811960792e+00 0 0 0
433 2 0.0000000000000000e+00 1.5629449137232333e+01 9.1882645382749395e+00 0 0 0
451 2 1.2305000000000001e+00 1.4919019630994494e+01 9.1882645382749395e+00 0 0 0
452 2 2.4610000000000003e+00 1.5629449137232328e+01 9.1882645382749395e+00 0 0 0
203 2 3.6915000000000004e+00 1.4919019630994494e+01 6.3209757811960792e+00 0 0 0
474 2 3.6915000000000004e+00 1.4919019630994494e+01 9.1882645382749395e+00 0 0 0
207 2 4.9220000000000006e+00 1.2787731112280996e+01 6.3209757811960792e+00 0 0 0
476 2 4.9220000000000006e+00 1.2787731112280996e+01 9.1882645382749395e+00 0 0 0
477 2 6.1524999999999990e+00 1.3498160618518829e+01 9.1882645382749395e+00 0 0 0
254 2 7.3829999999999991e+00 1.2787731112280996e+01 6.3209757811960792e+00 0 0 0
500 2 7.3829999999999991e+00 1.2787731112280996e+01 9.1882645382749395e+00 0 0 0
205 2 4.9220000000000006e+00 1.4208590124756663e+01 6.3209757811960792e+00 0 0 0
250 2 6.1524999999999990e+00 1.4919019630994494e+01 6.3209757811960792e+00 0 0 0
475 2 4.9220000000000006e+00 1.5629449137232333e+01 9.1882645382749395e+00 0 0 0
498 2 6.1524999999999990e+00 1.4919019630994494e+01 9.1882645382749395e+00 0 0 0
252 2 7.3830000000000009e+00 1.4208590124756663e+01 6.3209757811960792e+00 0 0 0
499 2 7.3829999999999991e+00 1.5629449137232333e+01 9.1882645382749395e+00 0 0 0
154 2 0.0000000000000000e+00 1.7050308149707998e+01 6.3209757811960792e+00 0 0 0
156 2 1.2305000000000001e+00 1.6339878643470165e+01 6.3209757811960792e+00 0 0 0
199 2 2.4610000000000003e+00 1.7050308149707998e+01 6.3209757811960792e+00 0 0 0
449 2 0.0000000000000000e+00 1.7050308149707998e+01 9.1882645382749395e+00 0 0 0
472 2 2.4610000000000003e+00 1.7050308149707998e+01 9.1882645382749395e+00 0 0 0
201 2 3.6915000000000004e+00 1.6339878643470165e+01 6.3209757811960792e+00 0 0 0
152 2 0.0000000000000000e+00 1.8471167162183658e+01 6.3209757811960792e+00 0 0 0
195 2 1.2305000000000001e+00 1.9181596668421495e+01 6.3209757811960792e+00 0 0 0
197 2 2.4610000000000003e+00 1.8471167162183658e+01 6.3209757811960792e+00 0 0 0
448 2 0.0000000000000000e+00 1.9892026174659328e+01 9.1882645382749395e+00 0 0 0
450 2 1.2305000000000001e+00 1.7760737655945832e+01 9.1882645382749395e+00 0 0 0
470 2 1.2305000000000001e+00 1.9181596668421495e+01 9.1882645382749395e+00 0 0 0
471 2 2.4610000000000003e+00 1.9892026174659328e+01 9.1882645382749395e+00 0 0 0
242 2 3.6914999999999996e+00 1.9181596668421495e+01 6.3209757811960792e+00 0 0 0
473 2 3.6914999999999996e+00 1.7760737655945832e+01 9.1882645382749395e+00 0 0 0
494 2 3.6914999999999996e+00 1.9181596668421495e+01 9.1882645382749395e+00 0 0 0
246 2 4.9220000000000006e+00 1.7050308149707998e+01 6.3209757811960792e+00 0 0 0
248 2 6.1524999999999999e+00 1.6339878643470165e+01 6.3209757811960792e+00 0 0 0
496 2 4.9220000000000006e+00 1.7050308149707998e+01 9.1882645382749395e+00 0 0 0
293 2 7.3830000000000009e+00 1.7050308149707998e+01 6.3209757811960792e+00 0 0 0
520 2 7.3830000000000009e+00 1.7050308149707998e+01 9.1882645382749395e+00 0 0 0
244 2 4.9220000000000006e+00 1.8471167162183658e+01 6.3209757811960792e+00 0 0 0
289 2 6.1524999999999999e+00 1.9181596668421495e+01 6.3209757811960792e+00 0 0 0
495 2 4.9220000000000006e+00 1.9892026174659328e+01 9.1882645382749395e+00 0 0 0
497 2 6.1524999999999999e+00 1.7760737655945832e+01 9.1882645382749395e+00 0 0 0
518 2 6.1524999999999999e+00 1.9181596668421495e+01 9.1882645382749395e+00 0 0 0
291 2 7.3829999999999991e+00 1.8471167162183658e+01 6.3209757811960792e+00 0 0 0
519 2 7.3829999999999991e+00 1.9892026174659328e+01 9.1882645382749395e+00 0 0 0
193 2 1.2305000000000001e+00 2.0602455680897162e+01 6.3209757811960792e+00 0 0 0
240 2 3.6915000000000004e+00 2.0602455680897162e+01 6.3209757811960792e+00 0 0 0
189 2 0.0000000000000000e+00 2.2733744199610655e+01 6.3209757811960792e+00 0 0 0
191 2 0.0000000000000000e+00 2.1312885187134999e+01 6.3209757811960792e+00 0 0 0
234 2 1.2304999999999993e+00 2.3444173705848499e+01 6.3209757811960792e+00 0 0 0
236 2 2.4610000000000003e+00 2.2733744199610655e+01 6.3209757811960792e+00 0 0 0
238 2 2.4610000000000003e+00 2.1312885187134995e+01 6.3209757811960792e+00 0 0 0
467 2 0.0000000000000000e+00 2.4154603212086325e+01 9.1882645382749395e+00 0 0 0
468 2 0.0000000000000000e+00 2.1312885187134999e+01 9.1882645382749395e+00 0 0 0
469 2 1.2304999999999993e+00 2.2023314693372832e+01 9.1882645382749395e+00 0 0 0
490 2 1.2304999999999993e+00 2.3444173705848499e+01 9.1882645382749395e+00 0 0 0
491 2 2.4610000000000003e+00 2.4154603212086325e+01 9.1882645382749395e+00 0 0 0
492 2 2.4610000000000003e+00 2.1312885187134995e+01 9.1882645382749395e+00 0 0 0
281 2 3.6915000000000004e+00 2.3444173705848499e+01 6.3209757811960792e+00 0 0 0
493 2 3.6914999999999996e+00 2.2023314693372832e+01 9.1882645382749395e+00 0 0 0
514 2 3.6915000000000004e+00 2.3444173705848499e+01 9.1882645382749395e+00 0 0 0
287 2 6.1524999999999999e+00 2.0602455680897162e+01 6.3209757811960792e+00 0 0 0
283 2 4.9220000000000006e+00 2.2733744199610655e+01 6.3209757811960792e+00 0 0 0
285 2 4.9220000000000006e+00 2.1312885187134995e+01 6.3209757811960792e+00 0 0 0
323 2 6.1524999999999999e+00 2.3444173705848499e+01 6.3209757811960792e+00 0 0 0
515 2 4.9220000000000006e+00 2.4154603212086325e+01 9.1882645382749395e+00 0 0 0
516 2 4.9220000000000006e+00 2.1312885187134995e+01 9.1882645382749395e+00 0 0 0
517 2 6.1524999999999990e+00 2.2023314693372832e+01 9.1882645382749395e+00 0 0 0
535 2 6.1524999999999999e+00 2.3444173705848499e+01 9.1882645382749395e+00 0 0 0
325 2 7.3829999999999991e+00 2.2733744199610655e+01 6.3209757811960792e+00 0 0 0
327 2 7.3829999999999991e+00 2.1312885187134999e+01 6.3209757811960792e+00 0 0 0
536 2 7.3830000000000009e+00 2.4154603212086336e+01 9.1882645382749395e+00 0 0 0
537 2 7.3829999999999991e+00 2.1312885187134999e+01 9.1882645382749395e+00 0 0 0
968 1 9.5910767440197897e-01 1.7620519802314991e+01 1.2062414198339434e+01 0 0 -1
3879 1 3.5845094798984043e+00 1.6218512182059431e+01 1.1933934292442407e+01 0 1 -1
978 1 5.7859955841467530e+00 1.4400286748499203e+01 1.1614727085889250e+01 0 0 -1
3819 1 7.0076849929015559e+00 1.7204515466413920e+01 1.2677543515182593e+01 0 1 0
3053 1 4.4626365446995075e+00 2.3086820224072746e+01 1.1586992137743577e+01 2 1 -1
3888 1 2.4521132977170663e+00 1.9958847481701547e+01 1.2092162765117649e+01 0 -2 0
3860 1 5.0766174735946930e+00 1.9255554666052813e+01 1.2142463901418010e+01 1 1 0
1825 1 6.7793424233368826e+00 2.1516901633183927e+01 1.1810691041989875e+01 0 -1 -1
52 1 1.7121614365286113e+00 2.2991021629579350e+01 1.1874594765401588e+01 1 0 1
3110 1 1.4075588578014366e+00 1.4112813421339027e+01 1.1853224026736353e+01 1 0 1
1852 1 6.9974812981520973e+00 1.2771887136692881e+01 1.3684698895301109e+01 1 0 0
2017 1 8.2016474826017056e+00 2.3966694723968381e+01 1.1472804392543695e+01 0 0 -1
2982 1 3.8825904327455403e+00 1.5751966751579070e+01 1.4641379016863633e+01 2 0 0
2096 1 6.2893621473744181e+00 2.3287701417771402e+01 2.4860291855075168e+01 -1 0 -1
1881 1 5.8949022018062847e-01 1.7379260679241277e+01 1.5043970723392116e+01 1 0 0
2901 1 4.6125979075910406e+00 1.8964052383840396e+01 1.8161742840292234e+01 -1 0 -1
62 1 6.2343799900006269e+00 1.4378027255291929e+01 1.5622314818557513e+01 0 1 0
1946 1 2.1122090725782274e+00 1.9785998974545336e+01 1.5087562239952165e+01 0 0 1
996 1 2.6112629764505763e-01 1.7607712160158993e+01 1.7884608113867120e+01 1 0 -1
2122 1 4.7430157366281511e+00 1.8413729632283196e+01 1.4972617284330502e+01 1 1 0
2896 1 1.2443144538635991e+00 1.8767410008291819e+01 2.0426076829162852e+01 1 0 -1
2895 1 5.5266276233666183e+00 1.2434008489832483e+01 1.7763746066834365e+01 0 0 -1
3082 1 7.7279151104443482e+00 2.3872904288403323e+01 1.4485097902960835e+01 1 -1 0
2951 1 4.2778938027627289e+00 2.3311464125078881e+01 1.7639109827708019e+01 0 0 0
3952 1 4.5231817468777118e+00 2.3141438444435845e+01 1.4671340501742785e+01 0 -1 -1
3936 1 3.0768999823683223e+00 1.6436439887999470e+01 1.7487317295704550e+01 1 0 -1
3933 1 7.0389399769013332e+00 1.9696312990386431e+01 1.7070910373442157e+01 0 1 -1
3143 1 7.6224649092849379e+00 1.5286078983331478e+01 1.9692685563787045e+01 1 1 1
1967 1 3.5849250504079349e+00 1.4185701399388586e+01 1.9241239040336623e+01 1 0 1
1877 1 2.5570689556981296e+00 1.4050092799464483e+01 2.2278960765966481e+01 -1 -1 0
4060 1 5.3084778905796393e-01 2.1660003454097293e+01 1.9592789712410031e+01 0 -1 -1
78 1 3.3750018951510268e+00 2.0002104883380976e+01 2.2055369676629375e+01 0 0 1
937 1 2.6575672826419234e+00 2.0855990343184786e+01 1.7718712132274980e+01 0 1 0
1889 1 2.4112373013643036e+00 2.2642944715912975e+01 2.1611696563205847e+01 0 0 0
1035 1 7.9188815871393770e+00 1.7441406050349119e+01 1.5173020463680393e+01 0 0 -1
3982 1 8.0730550809533526e+00 1.6802426422874358e+01 2.4085929698403817e+01 0 0 0
2823 1 1.0670273461705071e+00 1.3260584106135736e+01 1.9242255411149827e+01 0 1 -1
915 1 3.1421757673687178e+00 2.2453263638846099e+01 2.4375455418443181e+01 0 0 0
3121 1 5.3810754112241943e+00 1.4541259255073188e+01 2.1237902732702544e+01 0 0 0
1816 1 7.1060346378939654e+00 2.2304754377560641e+01 1.8223552236388549e+01 0 1 1
3993 1 4.9957034474586459e+00 2.2527794430909530e+01 2.0479732883585768e+01 0 0 0
2030 1 6.9186444195860410e+00 2.1566179743093734e+01 2.2410296995031679e+01 1 1 0
991 1 1.2071481745074737e+00 1.4656205126548683e+01 1.4704438068728996e+01 0 0 -1
2937 1 5.6813866665067962e+00 1.5253724993679389e+01 2.3993080968307382e+01 0 0 0
3845 1 2.7968430288016486e+00 1.5308654612125791e+01 2.4764116234965137e+01 1 0 0
2040 1 4.8199518597297724e+00 2.0146832327777428e+01 2.4768381746637296e+01 0 -1 -1
4013 1 2.6493636987136084e+00 1.8276080514213515e+01 2.4575117231198917e+01 0 0 0
1006 1 1.6186680741961386e+00 2.2867393797657801e+01 1.4697072724140373e+01 1 1 0
2987 1 7.2965902378188403e+00 1.9341375189552096e+01 2.4632687182939328e+01 1 0 0
3899 1 5.7397199193058661e+00 1.9337841909857445e+01 2.0753462881189691e+01 1 0 0
2102 1 7.7305908100342702e+00 1.3626436381195075e+01 2.5155891647004935e+01 1 -1 0
2117 1 7.0646616239696867e+00 2.1142284279213570e+01 1.4626620691490769e+01 -1 0 0
2856 1 7.9228347346109862e+00 1.7561821980378657e+01 2.1454368533052282e+01 1 0 0
1130 2 0.0000000000000000e+00 2.5575462224561992e+01 3.4536870241163578e+00 0 0 0
1132 2 1.2305000000000001e+00 2.6285891730799833e+01 3.4536870241163578e+00 0 0 0
1140 2 1.2305000000000010e+00 2.7706750743275496e+01 3.4536870241163578e+00 0 0 0
1144 2 2.4610000000000003e+00 2.5575462224561992e+01 3.4536870241163578e+00 0 0 0
1146 2 3.6914999999999991e+00 2.6285891730799833e+01 3.4536870241163578e+00 0 0 0