LAMMPS data file via write_data, version 16 Mar 2018, timestep = 8000000

4065 atoms
2 atom types

0.0000000000000000e+00 4.9219999999999999e+01 xlo xhi
0.0000000000000000e+00 4.9019635930410494e+01 ylo yhi
1.1356864984645050e+00 2.6705145747820019e+01 zlo zhi

Masses

1 18.015
2 12.01

Atoms # atomic

83 2 0.0000000000000000e+00 2.8417180249513345e+00 2.6758697365895681e+00 0 0 0
85 2 0.0000000000000000e+00 0.0000000000000000e+00 2.6758697365895681e+00 0 0 0
87 2 1.2305000000000001e+00 7.1042950623783474e-01 2.6758697365895681e+00 0 0 0
94 2 1.2305000000000001e+00 2.1312885187134998e+00 2.6758697365895681e+00 0 0 0
96 2 2.4610000000000003e+00 2.8417180249513345e+00 2.6758697365895681e+00 0 0 0
98 2 2.4610000000000003e+00 0.0000000000000000e+00 2.6758697365895681e+00 0 0 0
100 2 3.6915000000000004e+00 7.1042950623783474e-01 2.6758697365895681e+00 0 0 0
115 2 3.6914999999999996e+00 2.1312885187134998e+00 2.6758697365895681e+00 0 0 0
117 2 4.9220000000000006e+00 2.8417180249513332e+00 2.6758697365895681e+00 0 0 0
119 2 4.9220000000000006e+00 0.0000000000000000e+00 2.6758697365895681e+00 0 0 0
121 2 6.1524999999999999e+00 7.1042950623783407e-01 2.6758697365895681e+00 0 0 0
144 2 6.1524999999999999e+00 2.1312885187134989e+00 2.6758697365895681e+00 0 0 0
146 2 7.3829999999999991e+00 2.8417180249513345e+00 2.6758697365895681e+00 0 0 0
148 2 7.3829999999999991e+00 0.0000000000000000e+00 2.6758697365895681e+00 0 0 0
90 2 0.0000000000000000e+00 4.2625770374269996e+00 2.6758697365895681e+00 0 0 0
92 2 1.2305000000000001e+00 4.9730065436648339e+00 2.6758697365895681e+00 0 0 0
107 2 1.2305000000000001e+00 6.3938655561404980e+00 2.6758697365895681e+00 0 0 0
111 2 2.4610000000000003e+00 4.2625770374269996e+00 2.6758697365895681e+00 0 0 0
113 2 3.6914999999999996e+00 4.9730065436648339e+00 2.6758697365895681e+00 0 0 0
136 2 3.6914999999999996e+00 6.3938655561404980e+00 2.6758697365895681e+00 0 0 0
88 2 0.0000000000000000e+00 7.1042950623783341e+00 2.6758697365895681e+00 0 0 0
109 2 2.4610000000000003e+00 7.1042950623783341e+00 2.6758697365895681e+00 0 0 0
140 2 4.9220000000000006e+00 4.2625770374269978e+00 2.6758697365895681e+00 0 0 0
142 2 6.1524999999999999e+00 4.9730065436648339e+00 2.6758697365895681e+00 0 0 0
173 2 6.1524999999999999e+00 6.3938655561404980e+00 2.6758697365895681e+00 0 0 0
177 2 7.3829999999999991e+00 4.2625770374269996e+00 2.6758697365895681e+00 0 0 0
138 2 4.9220000000000006e+00 7.1042950623783341e+00 2.6758697365895681e+00 0 0 0
175 2 7.3830000000000009e+00 7.1042950623783341e+00 2.6758697365895681e+00 0 0 0
103 2 0.0000000000000000e+00 8.5251540748539991e+00 2.6758697365895681e+00 0 0 0
105 2 1.2305000000000001e+00 9.2355835810918343e+00 2.6758697365895681e+00 0 0 0
132 2 2.4610000000000003e+00 8.5251540748539991e+00 2.6758697365895681e+00 0 0 0
134 2 3.6915000000000004e+00 9.2355835810918343e+00 2.6758697365895681e+00 0 0 0
101 2 0.0000000000000000e+00 1.1366872099805333e+01 2.6758697365895681e+00 0 0 0
128 2 1.2305000000000001e+00 1.0656442593567498e+01 2.6758697365895681e+00 0 0 0
130 2 2.4610000000000003e+00 1.1366872099805333e+01 2.6758697365895681e+00 0 0 0
165 2 3.6914999999999996e+00 1.0656442593567499e+01 2.6758697365895681e+00 0 0 0
169 2 4.9220000000000006e+00 8.5251540748539991e+00 2.6758697365895681e+00 0 0 0
171 2 6.1524999999999999e+00 9.2355835810918343e+00 2.6758697365895681e+00 0 0 0
214 2 7.3830000000000009e+00 8.5251540748539991e+00 2.6758697365895681e+00 0 0 0
167 2 4.9220000000000006e+00 1.1366872099805333e+01 2.6758697365895681e+00 0 0 0
210 2 6.1524999999999999e+00 1.0656442593567499e+01 2.6758697365895681e+00 0 0 0
212 2 7.3829999999999991e+00 1.1366872099805333e+01 2.6758697365895681e+00 0 0 0
84 2 0.0000000000000000e+00 1.4208590124756650e+00 5.7562362128378570e+00 0 0 0
86 2 0.0000000000000000e+00 0.0000000000000000e+00 5.7562362128378570e+00 0 0 0
95 2 1.2305000000000001e+00 2.1312885187134998e+00 5.7562362128378570e+00 0 0 0
97 2 2.4610000000000003e+00 1.4208590124756650e+00 5.7562362128378570e+00 0 0 0
99 2 2.4610000000000003e+00 0.0000000000000000e+00 5.7562362128378570e+00 0 0 0
412 2 0.0000000000000000e+00 2.8417180249513345e+00 8.8366026890817295e+00 0 0 0
413 2 0.0000000000000000e+00 0.0000000000000000e+00 8.8366026890817295e+00 0 0 0
414 2 1.2305000000000001e+00 7.1042950623783474e-01 8.8366026890817295e+00 0 0 0
418 2 1.2305000000000001e+00 2.1312885187134998e+00 8.8366026890817295e+00 0 0 0
419 2 2.4610000000000003e+00 2.8417180249513345e+00 8.8366026890817295e+00 0 0 0
420 2 2.4610000000000003e+00 0.0000000000000000e+00 8.8366026890817295e+00 0 0 0
116 2 3.6914999999999996e+00 2.1312885187134998e+00 5.7562362128378570e+00 0 0 0
421 2 3.6915000000000004e+00 7.1042950623783474e-01 8.8366026890817295e+00 0 0 0
429 2 3.6914999999999996e+00 2.1312885187134998e+00 8.8366026890817295e+00 0 0 0
93 2 1.2305000000000001e+00 3.5521475311891644e+00 5.7562362128378570e+00 0 0 0
114 2 3.6914999999999996e+00 3.5521475311891644e+00 5.7562362128378570e+00 0 0 0
118 2 4.9220000000000006e+00 1.4208590124756650e+00 5.7562362128378570e+00 0 0 0
120 2 4.9220000000000006e+00 0.0000000000000000e+00 5.7562362128378570e+00 0 0 0
145 2 6.1524999999999999e+00 2.1312885187134989e+00 5.7562362128378570e+00 0 0 0
430 2 4.9220000000000006e+00 2.8417180249513332e+00 8.8366026890817295e+00 0 0 0
431 2 4.9220000000000006e+00 0.0000000000000000e+00 8.8366026890817295e+00 0 0 0
432 2 6.1524999999999999e+00 7.1042950623783407e-01 8.8366026890817295e+00 0 0 0
444 2 6.1524999999999999e+00 2.1312885187134989e+00 8.8366026890817295e+00 0 0 0
147 2 7.3829999999999991e+00 1.4208590124756659e+00 5.7562362128378570e+00 0 0 0
149 2 7.3829999999999991e+00 0.0000000000000000e+00 5.7562362128378570e+00 0 0 0
445 2 7.3829999999999991e+00 2.8417180249513345e+00 8.8366026890817295e+00 0 0 0
446 2 7.3829999999999991e+00 0.0000000000000000e+00 8.8366026890817295e+00 0 0 0
143 2 6.1524999999999999e+00 3.5521475311891644e+00 5.7562362128378570e+00 0 0 0
89 2 0.0000000000000000e+00 5.6834360499026637e+00 5.7562362128378570e+00 0 0 0
91 2 0.0000000000000000e+00 4.2625770374269996e+00 5.7562362128378570e+00 0 0 0
108 2 1.2305000000000001e+00 6.3938655561404980e+00 5.7562362128378570e+00 0 0 0
110 2 2.4610000000000003e+00 5.6834360499026637e+00 5.7562362128378570e+00 0 0 0
112 2 2.4610000000000003e+00 4.2625770374269996e+00 5.7562362128378570e+00 0 0 0
416 2 0.0000000000000000e+00 4.2625770374269996e+00 8.8366026890817295e+00 0 0 0
417 2 1.2305000000000001e+00 4.9730065436648339e+00 8.8366026890817295e+00 0 0 0
425 2 1.2305000000000001e+00 6.3938655561404980e+00 8.8366026890817295e+00 0 0 0
427 2 2.4610000000000003e+00 4.2625770374269996e+00 8.8366026890817295e+00 0 0 0
137 2 3.6914999999999996e+00 6.3938655561404980e+00 5.7562362128378570e+00 0 0 0
428 2 3.6914999999999996e+00 4.9730065436648339e+00 8.8366026890817295e+00 0 0 0
440 2 3.6914999999999996e+00 6.3938655561404980e+00 8.8366026890817295e+00 0 0 0
106 2 1.2305000000000001e+00 7.8147245686161639e+00 5.7562362128378570e+00 0 0 0
415 2 0.0000000000000000e+00 7.1042950623783341e+00 8.8366026890817295e+00 0 0 0
426 2 2.4610000000000003e+00 7.1042950623783341e+00 8.8366026890817295e+00 0 0 0
135 2 3.6914999999999996e+00 7.8147245686161639e+00 5.7562362128378570e+00 0 0 0
139 2 4.9220000000000006e+00 5.6834360499026637e+00 5.7562362128378570e+00 0 0 0
141 2 4.9220000000000006e+00 4.2625770374269978e+00 5.7562362128378570e+00 0 0 0
174 2 6.1524999999999999e+00 6.3938655561404980e+00 5.7562362128378570e+00 0 0 0
442 2 4.9220000000000006e+00 4.2625770374269978e+00 8.8366026890817295e+00 0 0 0
443 2 6.1524999999999999e+00 4.9730065436648339e+00 8.8366026890817295e+00 0 0 0
459 2 6.1524999999999999e+00 6.3938655561404980e+00 8.8366026890817295e+00 0 0 0
176 2 7.3829999999999991e+00 5.6834360499026637e+00 5.7562362128378570e+00 0 0 0
178 2 7.3829999999999991e+00 4.2625770374269996e+00 5.7562362128378570e+00 0 0 0
461 2 7.3829999999999991e+00 4.2625770374269996e+00 8.8366026890817295e+00 0 0 0
172 2 6.1524999999999999e+00 7.8147245686161639e+00 5.7562362128378570e+00 0 0 0
441 2 4.9220000000000006e+00 7.1042950623783341e+00 8.8366026890817295e+00 0 0 0
460 2 7.3830000000000009e+00 7.1042950623783341e+00 8.8366026890817295e+00 0 0 0
102 2 0.0000000000000000e+00 9.9460130873296642e+00 5.7562362128378570e+00 0 0 0
104 2 0.0000000000000000e+00 8.5251540748539991e+00 5.7562362128378570e+00 0 0 0
131 2 2.4610000000000003e+00 9.9460130873296642e+00 5.7562362128378570e+00 0 0 0
133 2 2.4610000000000003e+00 8.5251540748539991e+00 5.7562362128378570e+00 0 0 0
423 2 0.0000000000000000e+00 8.5251540748539991e+00 8.8366026890817295e+00 0 0 0
424 2 1.2305000000000001e+00 9.2355835810918343e+00 8.8366026890817295e+00 0 0 0
438 2 2.4610000000000003e+00 8.5251540748539991e+00 8.8366026890817295e+00 0 0 0
439 2 3.6915000000000004e+00 9.2355835810918343e+00 8.8366026890817295e+00 0 0 0
127 2 1.2305000000000001e+00 1.2077301606043163e+01 5.7562362128378570e+00 0 0 0
129 2 1.2305000000000001e+00 1.0656442593567498e+01 5.7562362128378570e+00 0 0 0
422 2 0.0000000000000000e+00 1.1366872099805333e+01 8.8366026890817295e+00 0 0 0
436 2 1.2305000000000001e+00 1.0656442593567498e+01 8.8366026890817295e+00 0 0 0
437 2 2.4610000000000003e+00 1.1366872099805333e+01 8.8366026890817295e+00 0 0 0
164 2 3.6914999999999996e+00 1.2077301606043163e+01 5.7562362128378570e+00 0 0 0
166 2 3.6914999999999996e+00 1.0656442593567499e+01 5.7562362128378570e+00 0 0 0
455 2 3.6914999999999996e+00 1.0656442593567499e+01 8.8366026890817295e+00 0 0 0
168 2 4.9220000000000006e+00 9.9460130873296642e+00 5.7562362128378570e+00 0 0 0
170 2 4.9220000000000006e+00 8.5251540748539991e+00 5.7562362128378570e+00 0 0 0
457 2 4.9220000000000006e+00 8.5251540748539991e+00 8.8366026890817295e+00 0 0 0
458 2 6.1524999999999999e+00 9.2355835810918343e+00 8.8366026890817295e+00 0 0 0
213 2 7.3830000000000009e+00 9.9460130873296642e+00 5.7562362128378570e+00 0 0 0
215 2 7.3830000000000009e+00 8.5251540748539991e+00 5.7562362128378570e+00 0 0 0
480 2 7.3830000000000009e+00 8.5251540748539991e+00 8.8366026890817295e+00 0 0 0
209 2 6.1524999999999999e+00 1.2077301606043163e+01 5.7562362128378570e+00 0 0 0
211 2 6.1524999999999999e+00 1.0656442593567499e+01 5.7562362128378570e+00 0 0 0
456 2 4.9220000000000006e+00 1.1366872099805333e+01 8.8366026890817295e+00 0 0 0
478 2 6.1524999999999999e+00 1.0656442593567499e+01 8.8366026890817295e+00 0 0 0
479 2 7.3829999999999991e+00 1.1366872099805333e+01 8.8366026890817295e+00 0 0 0
2839 1 1.4932272017083474e+00 1.7021143546320610e+00 1.1425202008557026e+01 0 0 0
1090 1 3.9934396573916668e+00 3.0099211793284981e+00 1.1816352285495423e+01 -2 1 0
1026 1 6.3316013521692200e+00 2.0979468517199478e+00 1.1048716790214607e+01 0 3 0
3949 1 5.1590275683788027e+00 9.9184726079718697e+00 1.2246122892303751e+01 1 2 0
3147 1 3.3838305044677051e+00 5.8077514816304641e+00 1.1690199590528726e+01 1 0 -1
34 1 8.9161554718200742e-01 7.2542510148461732e+00 1.2020734859187684e+01 -2 4 0
21 1 5.8847544436447690e+00 7.3471107581662096e+00 1.1431745160802409e+01 2 1 0
3994 1 8.9824139418158411e-01 9.9437648131741021e+00 1.1291857784413008e+01 1 3 0
1941 1 7.2538317144206887e+00 1.1913115593739320e+01 1.1878123029816365e+01 -1 -2 0
869 1 3.0304524773482502e+00 1.1743275372566773e+01 1.1955600210105340e+01 0 1 0
2916 1 1.6613062367391709e+00 1.6849900425043101e+00 1.5427476901407568e+01 1 0 0
4037 1 3.5687013881861103e+00 3.2689609035745879e+00 1.4626897316352558e+01 -1 0 -1
3004 1 6.1790837767577127e+00 2.2000458674454095e+00 1.5549734918330083e+01 1 -2 1
861 1 5.2637039721217667e+00 1.0555333442183731e+01 2.5119978868508177e+01 0 -1 0
1127 1 3.1490708070619968e+00 6.1105456758077237e+00 1.4844540698872768e+01 2 2 0
2917 1 5.9974985006062076e-01 7.3108407375313744e+00 1.4626975793781892e+01 -2 1 0
3916 1 3.2144761243496207e+00 5.8437064702083266e+00 1.7768616586789904e+01 3 -2 0
4051 1 5.5098043449535359e+00 8.0941116494233025e+00 1.4902480731160519e+01 0 -3 0
885 1 5.9997070716777257e-01 1.0274764123461829e+01 2.5554074684129294e+01 3 0 0
1785 1 7.0100378936048244e+00 7.0113225828070620e+00 1.7321162447793171e+01 0 1 0
3100 1 2.5046779208570604e+00 1.2033824124898279e+01 1.4598678655361917e+01 0 -2 0
1990 1 7.6086646938680502e+00 6.4244430244624349e+00 2.2554278144518047e+01 2 -1 -1
1898 1 4.9991942204750970e+00 1.0719931534390003e+01 1.5332023880208633e+01 -1 -5 0
1878 1 1.0660159122140540e+00 1.5093728250632941e+00 1.8176597384404722e+01 1 2 0
3925 1 4.0238595249634939e+00 1.1793651501139857e+00 1.8913161807870200e+01 1 0 -1
946 1 4.1112793522759246e+00 7.4026907780637419e-01 2.1699494313382122e+01 -2 4 -1
1049 1 6.2927124393710017e+00 2.4374497372140511e+00 1.8152120660768407e+01 0 2 0
2896 1 9.7311129853560885e-01 4.4580732018994826e+00 1.8661987665294831e+01 4 -1 -1
977 1 1.2809006978129898e+00 4.6848449347888650e+00 2.1366967425259599e+01 2 -2 -1
947 1 5.5747377515108099e+00 5.0503380287053234e+00 1.8510858102607326e+01 2 -3 -1
3123 1 5.5823187294838341e+00 5.1362362683424294e+00 2.1141334055986317e+01 1 1 0
3999 1 3.0984371353520013e+00 8.8542786812724277e+00 2.5865930205197866e+01 -1 0 0
3900 1 9.2216135062317550e-01 9.9517487064318946e+00 1.8267790091951923e+01 1 -1 0
784 1 3.5213520302897230e+00 8.5794004712196941e+00 1.8235883945921401e+01 0 -2 -1
3102 1 3.1254071405092634e+00 9.0442575233656566e+00 2.1213279155652078e+01 4 1 -1
2003 1 5.3978362229405965e+00 1.0860674968535401e+01 1.8072360976124006e+01 0 0 0
3803 1 8.0709982289256690e+00 9.4066622015378503e+00 1.8788515505406590e+01 0 -1 0
984 1 5.3534958612511936e+00 1.0217510130041630e+01 2.2126058307854681e+01 2 0 -1
1066 1 8.1612326102860706e+00 9.1160678262143993e+00 2.1441825501594067e+01 0 -1 0
2113 1 1.4627388299327229e+00 1.8424147626097094e+00 2.2238792000627420e+01 4 1 1
4039 1 1.2461587250684052e+00 2.1412972711123865e+00 2.4834318534119234e+01 -1 -1 0
1081 1 3.5132138232644317e+00 1.1125178003064635e+00 2.5637845372588068e+01 -2 0 0
1845 1 6.2326788903629664e+00 2.5592603525785758e+00 2.2056941916194997e+01 -3 -1 0
900 1 5.7290882899941380e+00 2.7229702564601990e+00 2.4869619590759566e+01 2 0 1
3961 1 3.1768303043743851e+00 6.3700064150889988e+00 2.2167203337184734e+01 1 -1 -1
1880 1 1.1064939431870136e+00 4.8633213748761737e+00 2.5618939887025093e+01 2 -1 1
817 1 3.1560310295135938e+00 6.2290870877843458e+00 2.4785924381125724e+01 3 3 0
3842 1 7.5364325845615578e+00 9.4564719750983350e+00 2.5941796633713778e+01 -2 -2 0
3054 1 5.5759059164768088e+00 5.3255943086925868e+00 2.5761450136314263e+01 1 2 0
896 1 5.8903437664267533e-01 1.0127177414254559e+01 2.2471621852170291e+01 -1 0 0
4061 1 7.2370039209865833e-01 1.0113710380115981e+01 1.5297597487931393e+01 0 -1 -1
1956 1 7.7598266999965739e+00 6.9373506907879099e+00 2.5280230255414892e+01 1 2 -1
793 1 8.0607011606516696e+00 1.5023798605709107e+00 2.5958964665516870e+01 1 1 0
124 2 0.0000000000000000e+00 1.2787731112280996e+01 2.6758697365895681e+00 0 0 0
126 2 1.2305000000000001e+00 1.3498160618518829e+01 2.6758697365895681e+00 0 0 0
161 2 2.4610000000000003e+00 1.2787731112280996e+01 2.6758697365895681e+00 0 0 0
163 2 3.6915000000000004e+00 1.3498160618518829e+01 2.6758697365895681e+00 0 0 0
122 2 0.0000000000000000e+00 1.5629449137232333e+01 2.6758697365895681e+00 0 0 0
157 2 1.2305000000000001e+00 1.4919019630994494e+01 2.6758697365895681e+00 0 0 0
159 2 2.4610000000000003e+00 1.5629449137232328e+01 2.6758697365895681e+00 0 0 0
202 2 3.6915000000000004e+00 1.4919019630994494e+01 2.6758697365895681e+00 0 0 0
206 2 4.9220000000000006e+00 1.2787731112280996e+01 2.6758697365895681e+00 0 0 0
208 2 6.1524999999999990e+00 1.3498160618518829e+01 2.6758697365895681e+00 0 0 0
253 2 7.3829999999999991e+00 1.2787731112280996e+01 2.6758697365895681e+00 0 0 0
204 2 4.9220000000000006e+00 1.5629449137232333e+01 2.6758697365895681e+00 0 0 0
249 2 6.1524999999999990e+00 1.4919019630994494e+01 2.6758697365895681e+00 0 0 0
251 2 7.3829999999999991e+00 1.5629449137232333e+01 2.6758697365895681e+00 0 0 0
153 2 0.0000000000000000e+00 1.7050308149707998e+01 2.6758697365895681e+00 0 0 0
198 2 2.4610000000000003e+00 1.7050308149707998e+01 2.6758697365895681e+00 0 0 0
151 2 0.0000000000000000e+00 1.9892026174659328e+01 2.6758697365895681e+00 0 0 0
155 2 1.2305000000000001e+00 1.7760737655945832e+01 2.6758697365895681e+00 0 0 0
194 2 1.2305000000000001e+00 1.9181596668421495e+01 2.6758697365895681e+00 0 0 0
196 2 2.4610000000000003e+00 1.9892026174659328e+01 2.6758697365895681e+00 0 0 0
200 2 3.6914999999999996e+00 1.7760737655945832e+01 2.6758697365895681e+00 0 0 0
241 2 3.6914999999999996e+00 1.9181596668421495e+01 2.6758697365895681e+00 0 0 0
245 2 4.9220000000000006e+00 1.7050308149707998e+01 2.6758697365895681e+00 0 0 0
292 2 7.3830000000000009e+00 1.7050308149707998e+01 2.6758697365895681e+00 0 0 0
243 2 4.9220000000000006e+00 1.9892026174659328e+01 2.6758697365895681e+00 0 0 0
247 2 6.1524999999999999e+00 1.7760737655945832e+01 2.6758697365895681e+00 0 0 0
288 2 6.1524999999999999e+00 1.9181596668421495e+01 2.6758697365895681e+00 0 0 0
290 2 7.3829999999999991e+00 1.9892026174659328e+01 2.6758697365895681e+00 0 0 0
188 2 0.0000000000000000e+00 2.4154603212086325e+01 2.6758697365895681e+00 0 0 0
190 2 0.0000000000000000e+00 2.1312885187134999e+01 2.6758697365895681e+00 0 0 0
192 2 1.2304999999999993e+00 2.2023314693372832e+01 2.6758697365895681e+00 0 0 0
233 2 1.2304999999999993e+00 2.3444173705848499e+01 2.6758697365895681e+00 0 0 0
235 2 2.4610000000000003e+00 2.4154603212086325e+01 2.6758697365895681e+00 0 0 0
237 2 2.4610000000000003e+00 2.1312885187134995e+01 2.6758697365895681e+00 0 0 0
239 2 3.6914999999999996e+00 2.2023314693372832e+01 2.6758697365895681e+00 0 0 0
280 2 3.6915000000000004e+00 2.3444173705848499e+01 2.6758697365895681e+00 0 0 0
282 2 4.9220000000000006e+00 2.4154603212086325e+01 2.6758697365895681e+00 0 0 0
284 2 4.9220000000000006e+00 2.1312885187134995e+01 2.6758697365895681e+00 0 0 0
286 2 6.1524999999999990e+00 2.2023314693372832e+01 2.6758697365895681e+00 0 0 0
322 2 6.1524999999999999e+00 2.3444173705848499e+01 2.6758697365895681e+00 0 0 0
324 2 7.3830000000000009e+00 2.4154603212086336e+01 2.6758697365895681e+00 0 0 0
326 2 7.3829999999999991e+00 2.1312885187134999e+01 2.6758697365895681e+00 0 0 0
125 2 0.0000000000000000e+00 1.2787731112280996e+01 5.7562362128378570e+00 0 0 0
162 2 2.4610000000000003e+00 1.2787731112280996e+01 5.7562362128378570e+00 0 0 0
434 2 0.0000000000000000e+00 1.2787731112280996e+01 8.8366026890817295e+00 0 0 0
435 2 1.2305000000000001e+00 1.3498160618518829e+01 8.8366026890817295e+00 0 0 0
453 2 2.4610000000000003e+00 1.2787731112280996e+01 8.8366026890817295e+00 0 0 0
454 2 3.6915000000000004e+00 1.3498160618518829e+01 8.8366026890817295e+00 0 0 0
123 2 0.0000000000000000e+00 1.4208590124756663e+01 5.7562362128378570e+00 0 0 0
158 2 1.2305000000000001e+00 1.4919019630994494e+01 5.7562362128378570e+00 0 0 0
160 2 2.4610000000000003e+00 1.4208590124756663e+01 5.7562362128378570e+00 0 0 0
433 2 0.0000000000000000e+00 1.5629449137232333e+01 8.8366026890817295e+00 0 0 0
451 2 1.2305000000000001e+00 1.4919019630994494e+01 8.8366026890817295e+00 0 0 0
452 2 2.4610000000000003e+00 1.5629449137232328e+01 8.8366026890817295e+00 0 0 0
203 2 3.6915000000000004e+00 1.4919019630994494e+01 5.7562362128378570e+00 0 0 0
474 2 3.6915000000000004e+00 1.4919019630994494e+01 8.8366026890817295e+00 0 0 0
207 2 4.9220000000000006e+00 1.2787731112280996e+01 5.7562362128378570e+00 0 0 0
476 2 4.9220000000000006e+00 1.2787731112280996e+01 8.8366026890817295e+00 0 0 0
477 2 6.1524999999999990e+00 1.3498160618518829e+01 8.8366026890817295e+00 0 0 0
254 2 7.3829999999999991e+00 1.2787731112280996e+01 5.7562362128378570e+00 0 0 0
500 2 7.3829999999999991e+00 1.2787731112280996e+01 8.8366026890817295e+00 0 0 0
205 2 4.9220000000000006e+00 1.4208590124756663e+01 5.7562362128378570e+00 0 0 0
250 2 6.1524999999999990e+00 1.4919019630994494e+01 5.7562362128378570e+00 0 0 0
475 2 4.9220000000000006e+00 1.5629449137232333e+01 8.8366026890817295e+00 0 0 0
498 2 6.1524999999999990e+00 1.4919019630994494e+01 8.8366026890817295e+00 0 0 0
252 2 7.3830000000000009e+00 1.4208590124756663e+01 5.7562362128378570e+00 0 0 0
499 2 7.3829999999999991e+00 1.5629449137232333e+01 8.8366026890817295e+00 0 0 0
154 2 0.0000000000000000e+00 1.7050308149707998e+01 5.7562362128378570e+00 0 0 0
156 2 1.2305000000000001e+00 1.6339878643470165e+01 5.7562362128378570e+00 0 0 0
199 2 2.4610000000000003e+00 1.7050308149707998e+01 5.7562362128378570e+00 0 0 0
449 2 0.0000000000000000e+00 1.7050308149707998e+01 8.8366026890817295e+00 0 0 0
472 2 2.4610000000000003e+00 1.7050308149707998e+01 8.8366026890817295e+00 0 0 0
201 2 3.6915000000000004e+00 1.6339878643470165e+01 5.7562362128378570e+00 0 0 0
152 2 0.0000000000000000e+00 1.8471167162183658e+01 5.7562362128378570e+00 0 0 0
195 2 1.2305000000000001e+00 1.9181596668421495e+01 5.7562362128378570e+00 0 0 0
197 2 2.4610000000000003e+00 1.8471167162183658e+01 5.7562362128378570e+00 0 0 0
448 2 0.0000000000000000e+00 1.9892026174659328e+01 8.8366026890817295e+00 0 0 0
450 2 1.2305000000000001e+00 1.7760737655945832e+01 8.8366026890817295e+00 0 0 0
470 2 1.2305000000000001e+00 1.9181596668421495e+01 8.8366026890817295e+00 0 0 0
471 2 2.4610000000000003e+00 1.9892026174659328e+01 8.8366026890817295e+00 0 0 0
242 2 3.6914999999999996e+00 1.9181596668421495e+01 5.7562362128378570e+00 0 0 0
473 2 3.6914999999999996e+00 1.7760737655945832e+01 8.8366026890817295e+00 0 0 0
494 2 3.6914999999999996e+00 1.9181596668421495e+01 8.8366026890817295e+00 0 0 0
246 2 4.9220000000000006e+00 1.7050308149707998e+01 5.7562362128378570e+00 0 0 0
248 2 6.1524999999999999e+00 1.6339878643470165e+01 5.7562362128378570e+00 0 0 0
496 2 4.9220000000000006e+00 1.7050308149707998e+01 8.8366026890817295e+00 0 0 0
293 2 7.3830000000000009e+00 1.7050308149707998e+01 5.7562362128378570e+00 0 0 0
520 2 7.3830000000000009e+00 1.7050308149707998e+01 8.8366026890817295e+00 0 0 0
244 2 4.9220000000000006e+00 1.8471167162183658e+01 5.7562362128378570e+00 0 0 0
289 2 6.1524999999999999e+00 1.9181596668421495e+01 5.7562362128378570e+00 0 0 0
495 2 4.9220000000000006e+00 1.9892026174659328e+01 8.8366026890817295e+00 0 0 0
497 2 6.1524999999999999e+00 1.7760737655945832e+01 8.8366026890817295e+00 0 0 0
518 2 6.1524999999999999e+00 1.9181596668421495e+01 8.8366026890817295e+00 0 0 0
291 2 7.3829999999999991e+00 1.8471167162183658e+01 5.7562362128378570e+00 0 0 0
519 2 7.3829999999999991e+00 1.9892026174659328e+01 8.8366026890817295e+00 0 0 0
193 2 1.2305000000000001e+00 2.0602455680897162e+01 5.7562362128378570e+00 0 0 0
240 2 3.6915000000000004e+00 2.0602455680897162e+01 5.7562362128378570e+00 0 0 0
189 2 0.0000000000000000e+00 2.2733744199610655e+01 5.7562362128378570e+00 0 0 0
191 2 0.0000000000000000e+00 2.1312885187134999e+01 5.7562362128378570e+00 0 0 0
234 2 1.2304999999999993e+00 2.3444173705848499e+01 5.7562362128378570e+00 0 0 0
236 2 2.4610000000000003e+00 2.2733744199610655e+01 5.7562362128378570e+00 0 0 0
238 2 2.4610000000000003e+00 2.1312885187134995e+01 5.7562362128378570e+00 0 0 0
467 2 0.0000000000000000e+00 2.4154603212086325e+01 8.8366026890817295e+00 0 0 0
468 2 0.0000000000000000e+00 2.1312885187134999e+01 8.8366026890817295e+00 0 0 0
469 2 1.2304999999999993e+00 2.2023314693372832e+01 8.8366026890817295e+00 0 0 0
490 2 1.2304999999999993e+00 2.3444173705848499e+01 8.8366026890817295e+00 0 0 0
491 2 2.4610000000000003e+00 2.4154603212086325e+01 8.8366026890817295e+00 0 0 0
492 2 2.4610000000000003e+00 2.1312885187134995e+01 8.8366026890817295e+00 0 0 0
281 2 3.6915000000000004e+00 2.3444173705848499e+01 5.7562362128378570e+00 0 0 0
493 2 3.6914999999999996e+00 2.2023314693372832e+01 8.8366026890817295e+00 0 0 0
514 2 3.6915000000000004e+00 2.3444173705848499e+01 8.8366026890817295e+00 0 0 0
287 2 6.1524999999999999e+00 2.0602455680897162e+01 5.7562362128378570e+00 0 0 0
283 2 4.9220000000000006e+00 2.2733744199610655e+01 5.7562362128378570e+00 0 0 0
285 2 4.9220000000000006e+00 2.1312885187134995e+01 5.7562362128378570e+00 0 0 0
323 2 6.1524999999999999e+00 2.3444173705848499e+01 5.7562362128378570e+00 0 0 0
515 2 4.9220000000000006e+00 2.4154603212086325e+01 8.8366026890817295e+00 0 0 0
516 2 4.9220000000000006e+00 2.1312885187134995e+01 8.8366026890817295e+00 0 0 0
517 2 6.1524999999999990e+00 2.2023314693372832e+01 8.8366026890817295e+00 0 0 0
535 2 6.1524999999999999e+00 2.3444173705848499e+01 8.8366026890817295e+00 0 0 0
325 2 7.3829999999999991e+00 2.2733744199610655e+01 5.7562362128378570e+00 0 0 0
327 2 7.3829999999999991e+00 2.1312885187134999e+01 5.7562362128378570e+00 0 0 0
536 2 7.3830000000000009e+00 2.4154603212086336e+01 8.8366026890817295e+00 0 0 0
537 2 7.3829999999999991e+00 2.1312885187134999e+01 8.8366026890817295e+00 0 0 0
2100 1 2.2969299204976092e+00 1.4359820913100915e+01 1.1254412115802555e+01 4 2 0
2998 1 4.4728135947459551e+00 1.6053602022491951e+01 1.1598069913955952e+01 2 6 1
3993 1 6.9418445057454186e+00 1.4936045326828582e+01 1.1269157779074471e+01 2 0 0
39 1 1.9807730300028217e+00 1.9842521044982700e+01 1.1742103229307663e+01 2 0 0
3091 1 4.7808299000778414e+00 1.8807163719452753e+01 1.1393800910357580e+01 3 0 1
1792 1 5.9984133964464093e+00 2.3487468923260593e+01 1.0961609375250097e+01 0 -1 -1
15 1 1.3635984858561776e+00 2.2496233394335373e+01 1.1251054927511186e+01 4 -5 1
836 1 6.5516604710205399e+00 2.0949342144261578e+01 1.1863432524084526e+01 -1 1 1
877 1 3.5088954445040526e+00 2.4259883043255030e+01 1.1611722792275756e+01 1 0 0
1126 1 2.3554826394606101e+00 1.4592242046552556e+01 1.5437542618397538e+01 -1 2 0
2057 1 2.1470276689248431e+00 1.4416200664248718e+01 1.8345023325498101e+01 -2 2 0
2106 1 4.3271089967050314e+00 1.6150896785854957e+01 1.4325106678491810e+01 3 -2 1
855 1 6.6690450675215436e+00 1.5423406525765387e+01 1.5610336606211430e+01 1 -1 0
2931 1 6.4023920102554257e+00 1.5354400600349312e+01 1.8344743561925103e+01 3 1 1
10 1 7.9325439857501419e+00 2.0002363580249753e+01 2.2284792982105916e+01 0 -3 -1
2841 1 1.5316870279171870e+00 1.9834131550523225e+01 1.4438913765146035e+01 4 2 0
4004 1 4.0039504507862560e+00 1.8743609841632441e+01 1.5256248795067163e+01 -2 4 0
996 1 5.2965577642324337e+00 2.3522032897250451e+01 2.2801649822760563e+01 2 1 -1
995 1 1.3485934768771051e+00 2.2506389056266968e+01 1.5334068700982092e+01 1 -4 0
1045 1 1.1312548736141169e-02 1.2914683293961874e+01 1.8951511827983552e+01 0 -2 0
846 1 5.9893139526647285e+00 2.0743199229431774e+01 1.4645553330035421e+01 1 -1 0
2093 1 5.7802007760761365e+00 2.3358980025136944e+01 1.5342942122053344e+01 0 -3 0
964 1 2.4893885555058017e+00 1.4134258847188191e+01 2.3076341009385519e+01 1 -1 0
2924 1 1.3885809280063854e+00 2.2785298026838156e+01 2.5221156440590477e+01 1 -1 -1
2825 1 4.5549879779609324e+00 1.3334565539507555e+01 1.9057046088515655e+01 1 0 0
35 1 4.9174450618762373e+00 1.2981325649437963e+01 2.1788823171414631e+01 2 -1 1
1071 1 3.7165023190112185e+00 1.8694523646363930e+01 1.8014091881552861e+01 2 -1 0
916 1 1.8345640969215267e+00 1.7067853212865746e+01 1.8949673094819222e+01 0 2 -1
2892 1 2.1273693832293130e+00 1.6617793144669388e+01 2.1625100091710134e+01 0 -2 -1
812 1 3.9288428575686947e+00 1.8679662358680631e+01 2.2442294872411857e+01 0 2 -1
4011 1 6.1472647532474829e+00 1.8077028787190653e+01 1.9039216435868539e+01 0 -2 -1
3989 1 6.2517011593162151e+00 1.7770911420100823e+01 2.1568897153166748e+01 1 -1 0
3912 1 1.1990382962575219e+00 2.2705748463675519e+01 1.7975735447690635e+01 -1 0 0
3071 1 3.7019977395322141e+00 2.1278413834383819e+01 2.1750848812366417e+01 -3 0 -1
1899 1 3.3508647771338178e+00 2.1543297381174010e+01 1.9153748864950394e+01 -1 -2 0
834 1 5.5833343054033824e+00 2.3248145152365936e+01 1.8340445828894200e+01 1 0 -1
1001 1 5.8284388646109564e+00 2.3034407165256038e+01 2.5755502231861747e+01 0 3 0
4019 1 1.3995570152918089e+00 2.2818197145683442e+01 2.2486325141974508e+01 -3 1 -1
3885 1 2.2467619051163470e+00 1.4331367301084514e+01 2.5784179861977993e+01 2 0 -1
2089 1 6.7369335530792700e+00 1.5177521448907045e+01 2.2702271053029413e+01 2 1 0
781 1 4.8351283104777174e+00 1.3125545683862629e+01 2.5646638030389656e+01 3 1 0
1889 1 7.0048657417778255e+00 1.4875665646855586e+01 2.5399250247397799e+01 1 -2 0
3946 1 1.9025710951008505e+00 1.6920665502795853e+01 2.5885272502744080e+01 0 -3 0
3822 1 4.1093887191557545e+00 1.8549514540472533e+01 2.5183761791826576e+01 1 0 0
1922 1 6.7565163002091726e+00 1.7653338287001716e+01 2.5905132498252588e+01 1 0 -1
2955 1 3.5709531056295671e+00 2.1145032745248368e+01 2.5811441400177259e+01 1 0 0
1965 1 3.2235530888637870e-01 1.2988522817079888e+01 2.1759447297214820e+01 2 -3 0
3142 1 7.0164178780726489e+00 1.2687873925520352e+01 1.4546069529480913e+01 1 -1 -1
1935 1 7.9679609196719392e+00 2.2451535001531749e+01 2.1810145439976804e+01 0 2 0
3087 1 8.0964742502346727e+00 2.2436813342004889e+01 1.9069758414078940e+01 1 0 0
1930 1 3.3725365828155587e+00 2.4240151690376450e+01 1.4614397171840992e+01 5 3 -1
1813 1 1.1360974085934636e-01 1.5743362227711323e+01 1.4353229386510918e+01 0 -5 0
1130 2 0.0000000000000000e+00 2.5575462224561992e+01 2.6758697365895681e+00 0 0 0
1132 2 1.2305000000000001e+00 2.6285891730799833e+01 2.6758697365895681e+00 0 0 0
1140 2 1.2305000000000010e+00 2.7706750743275496e+01 2.6758697365895681e+00 0 0 0
1144 2 2.4610000000000003e+00 2.5575462224561992e+01 2.6758697365895681e+00 0 0 0
1146 2 3.6914999999999991e+00 2.6285891730799833e+01 2.6758697365895681e+00 0 0 0
1162 2 3.6914999999999996e+00 2.7706750743275496e+01 2.6758697365895681e+00 0 0 0
1128 2 0.0000000000000000e+00 2.8417180249513333e+01 2.6758697365895681e+00 0 0 0
1142 2 2.4610000000000003e+00 2.8417180249513326e+01 2.6758697365895681e+00 0 0 0
1166 2 4.9220000000000006e+00 2.5575462224561992e+01 2.6758697365895681e+00 0 0 0
1168 2 6.1524999999999999e+00 2.6285891730799833e+01 2.6758697365895681e+00 0 0 0