LAMMPS data file via write_data, version 16 Mar 2018, timestep = 100000

6328 atoms
2 atom types

0.0000000000000000e+00 4.9219999999999999e+01 xlo xhi
0.0000000000000000e+00 4.9019635930410494e+01 ylo yhi
3.6242852752423858e+00 5.6437714724756646e+01 zlo zhi

Masses

1 18.015
2 12.01

Atoms # atomic

3425 1 9.8539510116024276e-01 2.5333315822033593e+00 5.3806800365699639e+00 0 -1 0
1849 1 3.1863185471555062e+00 4.1091210971355006e+00 5.0765073733529968e+00 1 0 1
3469 1 8.7101477141497021e+00 2.3157937170214318e+00 7.6196801184281320e+00 -1 0 0
1899 1 6.0612347446759127e+00 2.8016364686072053e+00 6.5026776752920155e+00 0 0 0
5321 1 4.9260298238597127e+00 1.7187339788339351e+00 4.0947282340251325e+00 0 0 1
1346 1 2.4074491917028209e+00 1.4746275226507425e+01 3.9382660483046190e+00 1 1 1
1296 1 8.5244839316988461e+00 2.1647479028650496e-01 4.0845354852984324e+00 0 1 1
4898 1 3.4465283916591436e+00 5.9977677773287317e+00 7.0075721843886978e+00 0 2 0
3512 1 8.1171384682689318e+00 5.7196965789940704e+00 5.0921147480409026e+00 1 0 0
4829 1 9.2737329427203115e+00 2.0748899067245126e+00 1.0365066155331053e+01 1 -1 1
373 1 6.3179723153037619e+00 5.4303464859876218e+00 7.1552941849015497e+00 1 0 0
5145 1 2.6871386289704891e+00 8.2771175943127329e+00 5.9356816432064656e+00 0 1 0
341 1 5.3705804246292974e+00 8.6292542327016157e+00 7.5668627769233723e+00 0 0 0
4734 1 3.4479268028902053e+00 4.5030204501371633e+00 1.0995158605861398e+01 0 0 1
2006 1 6.5528077683516424e+00 9.4788652005073537e+00 5.0585099692271385e+00 0 0 0
1340 1 6.1249406496224434e+00 1.1127989208996341e+01 9.2326600000126664e+00 2 -1 1
5163 1 4.5524169595973696e+00 1.3184753071257969e+01 4.8670191147922743e+00 1 0 1
5272 1 4.5599646535874401e+00 1.3057168930208288e+01 7.7715203580205170e+00 0 0 1
2963 1 9.4363924178413576e+00 1.0834946955294781e+01 1.1183067303227300e+01 -1 0 1
1782 1 1.4862173453696288e+00 1.4699814014956679e+01 1.2349205027111175e+01 -1 0 1
499 1 8.4960032994620640e+00 8.6553902019345887e+00 1.2371742075660597e+01 0 0 0
3299 1 5.9951154906820534e+00 1.5601922124976474e+01 8.2080671828218144e+00 1 -1 0
128 1 8.8813446084570877e+00 1.5792321512416510e+01 9.1223917473909424e+00 0 1 0
2037 1 2.8166651114587342e+00 1.4541461319579856e+01 9.6945569016704454e+00 0 0 0
2135 1 5.1478380791983760e+00 2.1816733649300191e+00 1.1086165401095641e+01 1 1 1
3250 1 8.9077985038935381e-01 2.7945417435307025e+00 9.4693259352896995e+00 1 -1 0
4513 1 4.9073481596587945e+00 1.2078071657303877e+00 8.6032365049569410e+00 1 2 0
3445 1 8.9695051661751393e+00 2.9612366585304928e+00 4.8398669501737555e+00 -1 -1 0
3720 1 7.3388344877333314e+00 3.9965932526431796e+00 1.1114336242760425e+01 1 1 1
2838 1 4.2009893665733083e-01 1.4304598847177793e+01 6.1820764293597854e+00 1 -1 1
4691 1 1.5972306269359293e+00 1.2529031600839982e+01 8.0591635985389409e+00 0 1 1
3110 1 4.1207632982184084e+00 1.0409012842827266e+01 4.4410130327417008e+00 0 -1 0
1378 1 8.8791013404970975e+00 1.1560937143032993e+01 8.2636631540087393e+00 0 0 1
1970 1 1.5182239655517635e+00 5.4313166369212196e+00 9.0144682667695761e+00 0 1 0
1551 1 4.8475979438780339e+00 1.2591708563570105e+01 1.1326487406345631e+01 -1 1 1
3099 1 6.0975045997065500e+00 8.3667658268224958e+00 1.0741088630596256e+01 -1 2 1
3652 1 7.5570976685271392e+00 6.2358960635415297e+00 9.6536595669040928e+00 0 0 0
344 1 7.8871759403635950e+00 1.1674503528375364e+01 5.5350660086953347e+00 1 0 1
6153 1 2.9520007387890588e+00 8.4444858942505796e+00 1.0120433555784970e+01 1 0 0
1909 1 8.1365393641526851e-01 6.8379650079003955e+00 1.1182901164300350e+01 1 -1 1
1896 1 1.5338864129802539e+00 9.5758322452022426e+00 8.0698442250300388e+00 0 0 0
3036 1 2.3695771096513156e+00 5.0074616892897894e-01 9.1033295706237407e+00 0 2 1
5314 1 2.9077476910957976e+00 1.0645981515420596e+01 1.1957754231292450e+01 0 1 0
4979 1 8.7355692432626562e+00 1.5463788125189003e+01 1.2175797211750476e+01 0 1 0
4707 1 6.9787334223723088e+00 1.4021635526235606e+01 4.0956443815202670e+00 1 1 1
259 1 5.9040506896644045e+00 1.6167044827131917e+01 1.1095298050267800e+01 1 -1 0
5012 1 9.7858893209360183e+00 1.1405310274485261e+01 3.9024334817535689e+00 0 0 0
1486 1 1.3617970889383253e+00 4.5692704909704327e+00 1.4989177961768640e+01 0 0 1
5046 1 1.9860294004465440e+00 2.6991983978659757e+00 1.3006902918793990e+01 1 1 1
4943 1 6.4933100603273664e+00 1.7460029970540691e+00 1.5057879803148815e+01 2 1 0
4427 1 7.4889877194154568e+00 3.8856840155501362e+00 1.3769680286133456e+01 0 0 1
3630 1 6.6638272029541601e-01 1.5507330583524451e+01 1.8523037221012082e+01 2 0 0
320 1 3.8317348791847219e+00 9.3499121155696034e+00 1.4243585534057123e+01 1 1 0
4672 1 2.1286841218905366e+00 9.2432745110737571e+00 1.6672090819476345e+01 0 -1 0
4988 1 1.9996950138685670e+00 7.2343632908222091e+00 1.4028718860888812e+01 2 0 1
5185 1 7.5130562809112140e+00 8.6103593282297606e+00 1.4860681898682946e+01 1 -2 1
173 1 6.2635332451656947e+00 6.2424115891170233e+00 1.4622608141001241e+01 0 1 0
3515 1 9.7505900518087536e+00 6.0070894674211295e-01 2.0992299443128655e+01 0 1 1
6312 1 4.0091492419589985e+00 1.5823816938743379e+01 1.2961602087502365e+01 0 0 1
4741 1 6.5471315349747963e+00 1.2653940234344082e+01 1.3692259697498320e+01 1 0 0
4599 1 8.5594967567141662e+00 1.3509084607645899e+01 1.6685039260248743e+01 0 0 1
1319 1 5.9394247567934286e+00 1.0440208825185591e+01 1.5203026819374175e+01 0 -1 0
5234 1 3.3749256060064864e-01 1.1591637622948461e+01 1.2559070850927066e+01 1 1 1
4639 1 8.4377673555690247e-01 1.3114851135300125e+01 1.5226359610733539e+01 0 0 1
1345 1 6.2600260568285897e+00 1.4929434427910355e+01 1.5089817050923253e+01 0 0 1
3124 1 8.8860304654498119e+00 2.9302933480709497e+00 1.6916876898722872e+01 0 1 1
1918 1 5.9850179491386521e+00 1.8089200659176169e-01 1.2761124381990941e+01 0 0 1
1808 1 4.4945588729267545e+00 1.7299112344186749e+00 1.6984593991372805e+01 0 1 0
4860 1 9.4567352456826566e+00 8.5786240428615255e+00 1.6505594084956300e+01 0 0 0
481 1 3.3390410990766455e+00 1.4546422588333225e+01 1.5833618495405618e+01 0 -1 1
3494 1 1.2353779550106676e+00 1.6150701848220617e+00 1.8329796808204453e+01 1 0 0
1915 1 8.5399230269466351e+00 1.0928579526531674e+01 1.7878312054098352e+01 0 -1 0
395 1 5.4559936999961272e+00 2.5330985344149455e+00 1.9824344732392959e+01 1 0 0
2136 1 7.2065306707990926e+00 4.4511241546780562e+00 1.8298969095643834e+01 -1 1 0
6141 1 4.6643625453890686e-01 7.0033879331120144e+00 1.7139209200601734e+01 2 0 1
1390 1 6.7994609042012177e+00 1.5358436032892488e+01 1.8283469289547050e+01 1 0 1
3031 1 4.0496716605857195e+00 7.6995651478831348e+00 1.8133226322457929e+01 0 1 1
6138 1 9.2763293285963155e-01 7.4054948819922313e+00 2.0060543408472437e+01 1 0 1
2026 1 2.6752223247000777e+00 3.8810602434392902e+00 1.7008779155474979e+01 1 1 1
409 1 4.9423513649759920e+00 5.3246919974691922e+00 1.6628591560865093e+01 1 2 0
6261 1 8.3157373703581925e+00 7.0036474618441984e+00 1.8855861864743186e+01 1 0 1
3410 1 2.8339211397474542e+00 1.4358380836351149e+01 1.9930824443456068e+01 1 0 0
1252 1 9.4017897046983041e+00 1.0839822181078508e+01 2.0457491308090688e+01 1 -1 1
263 1 5.7817129545071566e-02 1.1386427654122604e+01 1.7328722536338034e+01 1 0 1
1664 1 5.2805730609579884e+00 1.0499997870439765e+01 1.7945105201332623e+01 1 0 0
3080 1 1.2157526783306443e+00 1.0407086261500327e+01 1.9653618230031494e+01 0 1 1
353 1 4.6625341635256854e+00 1.3366184480223911e+01 1.7868734341179788e+01 2 0 0
1367 1 2.9143391294558669e+00 3.7767370579784529e+00 2.0790568012940355e+01 1 0 0
4818 1 3.5858669741550298e+00 6.9766206740643097e+00 2.0809752342271867e+01 0 0 1
4828 1 9.6021742325581840e+00 1.3756650212492241e+01 2.1219196525577846e+01 1 0 0
211 1 4.5002112176016897e+00 6.8119677452509197e+00 1.2613940973839105e+01 1 0 0
5138 1 4.0981351120583680e+00 9.6946441667868175e+00 2.0840631915837619e+01 0 0 0
10 1 9.0951581222153806e+00 1.2770288024993890e+01 1.2783790363989901e+01 0 0 0
2987 1 2.9930354172978874e-01 4.9171994878984355e+00 2.1007805768952572e+01 1 -2 1
158 1 2.9352773404758210e+00 3.6992741679410885e+00 2.3826399506744078e+01 1 1 0
1498 1 3.9518902187687019e+00 1.6032205759294218e+01 2.4167032991690036e+01 -1 -1 1
3319 1 4.8372157282610440e+00 1.0949635056865494e+00 2.3912135996617998e+01 1 1 0
3361 1 6.7887960405286751e+00 3.1008141300086991e+00 2.4268543883053457e+01 0 0 0
2093 1 3.0816061035783215e-01 7.5480372138032594e+00 2.4625334910378619e+01 1 0 1
722 2 7.3829999999999991e+00 1.2787731112280996e+01 2.6879350472211986e+01 0 0 0
3279 1 3.1766146248226335e+00 6.8948587518063524e+00 2.3798932604110465e+01 0 1 1
4673 1 2.3200104245745942e-01 4.7830671473156388e+00 2.4120320318778489e+01 0 0 1
4830 1 9.4391821434113199e-01 1.5033949136046996e+01 2.4325671903417298e+01 1 0 0
4883 1 9.4206101786642975e+00 3.5754361593413542e+00 2.1294753191613143e+01 1 0 1
365 1 5.6096219799193312e+00 5.6557763297958417e+00 2.4368897361148534e+01 0 1 0
5153 1 7.5150820770781639e+00 7.7638261576083591e+00 2.4352552937140473e+01 0 0 0
3416 1 3.6981171684313523e+00 9.8133498300302708e+00 2.4234669614651867e+01 1 1 0
2944 1 3.6379300161796233e+00 1.2750813486085496e+01 2.4005624674933827e+01 1 -1 0
2121 1 1.7251401947105756e+00 1.4830781039742666e+00 2.4249703415998951e+01 1 0 1
2109 1 6.3997370440969599e+00 1.0177859694285143e+01 2.4143574413541476e+01 0 1 1
3376 1 7.9763074272089369e+00 1.2492501208506754e+01 2.3630870092673440e+01 0 1 1
677 2 6.1524999999999990e+00 1.3498160618518829e+01 2.6879350472211986e+01 0 0 0
2146 1 1.6992336529275962e+00 1.3560891244629369e+00 2.1441119629162639e+01 1 0 0
718 2 6.1524999999999990e+00 1.4919019630994494e+01 2.6879350472211986e+01 0 0 0
4984 1 5.3553366145911141e-01 1.0576262321678314e+01 2.4063796134079336e+01 1 0 1
6255 1 1.8978482086257564e+00 1.2147547487894943e+01 2.1737042110426632e+01 1 0 1
328 1 6.8685972117359402e+00 1.5226724228808127e+01 2.3970519364887149e+01 1 0 0
552 2 0.0000000000000000e+00 2.8417180249513345e+00 2.6879350472211986e+01 0 0 0
554 2 0.0000000000000000e+00 0.0000000000000000e+00 2.6879350472211986e+01 0 0 0
556 2 1.2305000000000001e+00 7.1042950623783474e-01 2.6879350472211986e+01 0 0 0
563 2 1.2305000000000001e+00 2.1312885187134998e+00 2.6879350472211986e+01 0 0 0
565 2 2.4610000000000003e+00 2.8417180249513345e+00 2.6879350472211986e+01 0 0 0
567 2 2.4610000000000003e+00 0.0000000000000000e+00 2.6879350472211986e+01 0 0 0
569 2 3.6915000000000004e+00 7.1042950623783474e-01 2.6879350472211986e+01 0 0 0
584 2 3.6914999999999996e+00 2.1312885187134998e+00 2.6879350472211986e+01 0 0 0
586 2 4.9220000000000006e+00 2.8417180249513332e+00 2.6879350472211986e+01 0 0 0
588 2 4.9220000000000006e+00 0.0000000000000000e+00 2.6879350472211986e+01 0 0 0
590 2 6.1524999999999999e+00 7.1042950623783407e-01 2.6879350472211986e+01 0 0 0
613 2 6.1524999999999999e+00 2.1312885187134989e+00 2.6879350472211986e+01 0 0 0
615 2 7.3829999999999991e+00 2.8417180249513345e+00 2.6879350472211986e+01 0 0 0
617 2 7.3829999999999991e+00 0.0000000000000000e+00 2.6879350472211986e+01 0 0 0
619 2 8.6134999999999984e+00 7.1042950623783407e-01 2.6879350472211986e+01 0 0 0
650 2 8.6134999999999984e+00 2.1312885187135002e+00 2.6879350472211986e+01 0 0 0
559 2 0.0000000000000000e+00 4.2625770374269996e+00 2.6879350472211986e+01 0 0 0
561 2 1.2305000000000001e+00 4.9730065436648339e+00 2.6879350472211986e+01 0 0 0
576 2 1.2305000000000001e+00 6.3938655561404980e+00 2.6879350472211986e+01 0 0 0
580 2 2.4610000000000003e+00 4.2625770374269996e+00 2.6879350472211986e+01 0 0 0
582 2 3.6914999999999996e+00 4.9730065436648339e+00 2.6879350472211986e+01 0 0 0
605 2 3.6914999999999996e+00 6.3938655561404980e+00 2.6879350472211986e+01 0 0 0
557 2 0.0000000000000000e+00 7.1042950623783341e+00 2.6879350472211986e+01 0 0 0
578 2 2.4610000000000003e+00 7.1042950623783341e+00 2.6879350472211986e+01 0 0 0
609 2 4.9220000000000006e+00 4.2625770374269978e+00 2.6879350472211986e+01 0 0 0
611 2 6.1524999999999999e+00 4.9730065436648339e+00 2.6879350472211986e+01 0 0 0
642 2 6.1524999999999999e+00 6.3938655561404980e+00 2.6879350472211986e+01 0 0 0
646 2 7.3829999999999991e+00 4.2625770374269996e+00 2.6879350472211986e+01 0 0 0
648 2 8.6135000000000002e+00 4.9730065436648339e+00 2.6879350472211986e+01 0 0 0
687 2 8.6135000000000002e+00 6.3938655561404980e+00 2.6879350472211986e+01 0 0 0
607 2 4.9220000000000006e+00 7.1042950623783341e+00 2.6879350472211986e+01 0 0 0
644 2 7.3830000000000009e+00 7.1042950623783341e+00 2.6879350472211986e+01 0 0 0
572 2 0.0000000000000000e+00 8.5251540748539991e+00 2.6879350472211986e+01 0 0 0
574 2 1.2305000000000001e+00 9.2355835810918343e+00 2.6879350472211986e+01 0 0 0
601 2 2.4610000000000003e+00 8.5251540748539991e+00 2.6879350472211986e+01 0 0 0
603 2 3.6915000000000004e+00 9.2355835810918343e+00 2.6879350472211986e+01 0 0 0
570 2 0.0000000000000000e+00 1.1366872099805333e+01 2.6879350472211986e+01 0 0 0
597 2 1.2305000000000001e+00 1.0656442593567498e+01 2.6879350472211986e+01 0 0 0
599 2 2.4610000000000003e+00 1.1366872099805333e+01 2.6879350472211986e+01 0 0 0
634 2 3.6914999999999996e+00 1.0656442593567499e+01 2.6879350472211986e+01 0 0 0
638 2 4.9220000000000006e+00 8.5251540748539991e+00 2.6879350472211986e+01 0 0 0
640 2 6.1524999999999999e+00 9.2355835810918343e+00 2.6879350472211986e+01 0 0 0
683 2 7.3830000000000009e+00 8.5251540748539991e+00 2.6879350472211986e+01 0 0 0
685 2 8.6134999999999984e+00 9.2355835810918343e+00 2.6879350472211986e+01 0 0 0
636 2 4.9220000000000006e+00 1.1366872099805333e+01 2.6879350472211986e+01 0 0 0
679 2 6.1524999999999999e+00 1.0656442593567499e+01 2.6879350472211986e+01 0 0 0
681 2 7.3829999999999991e+00 1.1366872099805333e+01 2.6879350472211986e+01 0 0 0
726 2 8.6134999999999984e+00 1.0656442593567498e+01 2.6879350472211986e+01 0 0 0
628 2 2.4610000000000003e+00 1.5629449137232328e+01 2.6879350472211986e+01 0 0 0
671 2 3.6915000000000004e+00 1.4919019630994494e+01 2.6879350472211986e+01 0 0 0
626 2 1.2305000000000001e+00 1.4919019630994494e+01 2.6879350472211986e+01 0 0 0
593 2 0.0000000000000000e+00 1.2787731112280996e+01 2.6879350472211986e+01 0 0 0
595 2 1.2305000000000001e+00 1.3498160618518829e+01 2.6879350472211986e+01 0 0 0
630 2 2.4610000000000003e+00 1.2787731112280996e+01 2.6879350472211986e+01 0 0 0
632 2 3.6915000000000004e+00 1.3498160618518829e+01 2.6879350472211986e+01 0 0 0
591 2 0.0000000000000000e+00 1.5629449137232333e+01 2.6879350472211986e+01 0 0 0
720 2 7.3829999999999991e+00 1.5629449137232333e+01 2.6879350472211986e+01 0 0 0
673 2 4.9220000000000006e+00 1.5629449137232333e+01 2.6879350472211986e+01 0 0 0
765 2 8.6135000000000002e+00 1.4919019630994494e+01 2.6879350472211986e+01 0 0 0
724 2 8.6135000000000002e+00 1.3498160618518835e+01 2.6879350472211986e+01 0 0 0
675 2 4.9220000000000006e+00 1.2787731112280996e+01 2.6879350472211986e+01 0 0 0
82 1 4.3345416916098793e+00 1.6046265006442919e+01 2.1265461156408779e+01 -1 0 0
3117 1 6.7502896542696211e+00 4.6697373711378338e+00 2.1495294077121482e+01 1 0 0
6017 1 7.6951972863033751e+00 7.3591304112015923e+00 2.1507787379795314e+01 1 -1 1
3528 1 7.1158368952507605e+00 1.5561019304811174e+01 2.1263865366234075e+01 1 -1 0
3367 1 6.8772911712572222e+00 9.8407665437381109e+00 2.1421840468458427e+01 1 0 0
1659 1 5.1015190119431155e+00 3.5922117290198796e-01 2.1353528975136953e+01 1 1 0
553 2 0.0000000000000000e+00 1.4208590124756650e+00 3.0030999999999569e+01 0 0 0
555 2 0.0000000000000000e+00 0.0000000000000000e+00 3.0030999999999569e+01 0 0 0
564 2 1.2305000000000001e+00 2.1312885187134998e+00 3.0030999999999569e+01 0 0 0
566 2 2.4610000000000003e+00 1.4208590124756650e+00 3.0030999999999569e+01 0 0 0
568 2 2.4610000000000003e+00 0.0000000000000000e+00 3.0030999999999569e+01 0 0 0
585 2 3.6914999999999996e+00 2.1312885187134998e+00 3.0030999999999569e+01 0 0 0
562 2 1.2305000000000001e+00 3.5521475311891644e+00 3.0030999999999569e+01 0 0 0
583 2 3.6914999999999996e+00 3.5521475311891644e+00 3.0030999999999569e+01 0 0 0
881 2 0.0000000000000000e+00 2.8417180249513345e+00 3.3182649527786978e+01 0 0 0
882 2 0.0000000000000000e+00 0.0000000000000000e+00 3.3182649527786978e+01 0 0 0
883 2 1.2305000000000001e+00 7.1042950623783474e-01 3.3182649527786978e+01 0 0 0
887 2 1.2305000000000001e+00 2.1312885187134998e+00 3.3182649527786978e+01 0 0 0
888 2 2.4610000000000003e+00 2.8417180249513345e+00 3.3182649527786978e+01 0 0 0
889 2 2.4610000000000003e+00 0.0000000000000000e+00 3.3182649527786978e+01 0 0 0
890 2 3.6915000000000004e+00 7.1042950623783474e-01 3.3182649527786978e+01 0 0 0
898 2 3.6914999999999996e+00 2.1312885187134998e+00 3.3182649527786978e+01 0 0 0
587 2 4.9220000000000006e+00 1.4208590124756650e+00 3.0030999999999569e+01 0 0 0
589 2 4.9220000000000006e+00 0.0000000000000000e+00 3.0030999999999569e+01 0 0 0
614 2 6.1524999999999999e+00 2.1312885187134989e+00 3.0030999999999569e+01 0 0 0
616 2 7.3829999999999991e+00 1.4208590124756659e+00 3.0030999999999569e+01 0 0 0
618 2 7.3829999999999991e+00 0.0000000000000000e+00 3.0030999999999569e+01 0 0 0
651 2 8.6134999999999984e+00 2.1312885187135002e+00 3.0030999999999569e+01 0 0 0
612 2 6.1524999999999999e+00 3.5521475311891644e+00 3.0030999999999569e+01 0 0 0
649 2 8.6134999999999984e+00 3.5521475311891657e+00 3.0030999999999569e+01 0 0 0
899 2 4.9220000000000006e+00 2.8417180249513332e+00 3.3182649527786978e+01 0 0 0
900 2 4.9220000000000006e+00 0.0000000000000000e+00 3.3182649527786978e+01 0 0 0
901 2 6.1524999999999999e+00 7.1042950623783407e-01 3.3182649527786978e+01 0 0 0
913 2 6.1524999999999999e+00 2.1312885187134989e+00 3.3182649527786978e+01 0 0 0
914 2 7.3829999999999991e+00 2.8417180249513345e+00 3.3182649527786978e+01 0 0 0
915 2 7.3829999999999991e+00 0.0000000000000000e+00 3.3182649527786978e+01 0 0 0
916 2 8.6134999999999984e+00 7.1042950623783407e-01 3.3182649527786978e+01 0 0 0
932 2 8.6134999999999984e+00 2.1312885187135002e+00 3.3182649527786978e+01 0 0 0
558 2 0.0000000000000000e+00 5.6834360499026637e+00 3.0030999999999569e+01 0 0 0
560 2 0.0000000000000000e+00 4.2625770374269996e+00 3.0030999999999569e+01 0 0 0
577 2 1.2305000000000001e+00 6.3938655561404980e+00 3.0030999999999569e+01 0 0 0
579 2 2.4610000000000003e+00 5.6834360499026637e+00 3.0030999999999569e+01 0 0 0
581 2 2.4610000000000003e+00 4.2625770374269996e+00 3.0030999999999569e+01 0 0 0
606 2 3.6914999999999996e+00 6.3938655561404980e+00 3.0030999999999569e+01 0 0 0
575 2 1.2305000000000001e+00 7.8147245686161639e+00 3.0030999999999569e+01 0 0 0
604 2 3.6914999999999996e+00 7.8147245686161639e+00 3.0030999999999569e+01 0 0 0
885 2 0.0000000000000000e+00 4.2625770374269996e+00 3.3182649527786978e+01 0 0 0
886 2 1.2305000000000001e+00 4.9730065436648339e+00 3.3182649527786978e+01 0 0 0
894 2 1.2305000000000001e+00 6.3938655561404980e+00 3.3182649527786978e+01 0 0 0
896 2 2.4610000000000003e+00 4.2625770374269996e+00 3.3182649527786978e+01 0 0 0
897 2 3.6914999999999996e+00 4.9730065436648339e+00 3.3182649527786978e+01 0 0 0
909 2 3.6914999999999996e+00 6.3938655561404980e+00 3.3182649527786978e+01 0 0 0
884 2 0.0000000000000000e+00 7.1042950623783341e+00 3.3182649527786978e+01 0 0 0
895 2 2.4610000000000003e+00 7.1042950623783341e+00 3.3182649527786978e+01 0 0 0
608 2 4.9220000000000006e+00 5.6834360499026637e+00 3.0030999999999569e+01 0 0 0
610 2 4.9220000000000006e+00 4.2625770374269978e+00 3.0030999999999569e+01 0 0 0
643 2 6.1524999999999999e+00 6.3938655561404980e+00 3.0030999999999569e+01 0 0 0
645 2 7.3829999999999991e+00 5.6834360499026637e+00 3.0030999999999569e+01 0 0 0
647 2 7.3829999999999991e+00 4.2625770374269996e+00 3.0030999999999569e+01 0 0 0
688 2 8.6135000000000002e+00 6.3938655561404980e+00 3.0030999999999569e+01 0 0 0
641 2 6.1524999999999999e+00 7.8147245686161639e+00 3.0030999999999569e+01 0 0 0
686 2 8.6135000000000002e+00 7.8147245686161639e+00 3.0030999999999569e+01 0 0 0
911 2 4.9220000000000006e+00 4.2625770374269978e+00 3.3182649527786978e+01 0 0 0
912 2 6.1524999999999999e+00 4.9730065436648339e+00 3.3182649527786978e+01 0 0 0
928 2 6.1524999999999999e+00 6.3938655561404980e+00 3.3182649527786978e+01 0 0 0
930 2 7.3829999999999991e+00 4.2625770374269996e+00 3.3182649527786978e+01 0 0 0
931 2 8.6135000000000002e+00 4.9730065436648339e+00 3.3182649527786978e+01 0 0 0
951 2 8.6135000000000002e+00 6.3938655561404980e+00 3.3182649527786978e+01 0 0 0
910 2 4.9220000000000006e+00 7.1042950623783341e+00 3.3182649527786978e+01 0 0 0
929 2 7.3830000000000009e+00 7.1042950623783341e+00 3.3182649527786978e+01 0 0 0
571 2 0.0000000000000000e+00 9.9460130873296642e+00 3.0030999999999569e+01 0 0 0
573 2 0.0000000000000000e+00 8.5251540748539991e+00 3.0030999999999569e+01 0 0 0
600 2 2.4610000000000003e+00 9.9460130873296642e+00 3.0030999999999569e+01 0 0 0
602 2 2.4610000000000003e+00 8.5251540748539991e+00 3.0030999999999569e+01 0 0 0
596 2 1.2305000000000001e+00 1.2077301606043163e+01 3.0030999999999569e+01 0 0 0
598 2 1.2305000000000001e+00 1.0656442593567498e+01 3.0030999999999569e+01 0 0 0
633 2 3.6914999999999996e+00 1.2077301606043163e+01 3.0030999999999569e+01 0 0 0
635 2 3.6914999999999996e+00 1.0656442593567499e+01 3.0030999999999569e+01 0 0 0
892 2 0.0000000000000000e+00 8.5251540748539991e+00 3.3182649527786978e+01 0 0 0
893 2 1.2305000000000001e+00 9.2355835810918343e+00 3.3182649527786978e+01 0 0 0
907 2 2.4610000000000003e+00 8.5251540748539991e+00 3.3182649527786978e+01 0 0 0
908 2 3.6915000000000004e+00 9.2355835810918343e+00 3.3182649527786978e+01 0 0 0
891 2 0.0000000000000000e+00 1.1366872099805333e+01 3.3182649527786978e+01 0 0 0
905 2 1.2305000000000001e+00 1.0656442593567498e+01 3.3182649527786978e+01 0 0 0
906 2 2.4610000000000003e+00 1.1366872099805333e+01 3.3182649527786978e+01 0 0 0
924 2 3.6914999999999996e+00 1.0656442593567499e+01 3.3182649527786978e+01 0 0 0
637 2 4.9220000000000006e+00 9.9460130873296642e+00 3.0030999999999569e+01 0 0 0
639 2 4.9220000000000006e+00 8.5251540748539991e+00 3.0030999999999569e+01 0 0 0
682 2 7.3830000000000009e+00 9.9460130873296642e+00 3.0030999999999569e+01 0 0 0
684 2 7.3830000000000009e+00 8.5251540748539991e+00 3.0030999999999569e+01 0 0 0
678 2 6.1524999999999999e+00 1.2077301606043163e+01 3.0030999999999569e+01 0 0 0
680 2 6.1524999999999999e+00 1.0656442593567499e+01 3.0030999999999569e+01 0 0 0
725 2 8.6135000000000002e+00 1.2077301606043163e+01 3.0030999999999569e+01 0 0 0
727 2 8.6134999999999984e+00 1.0656442593567498e+01 3.0030999999999569e+01 0 0 0
926 2 4.9220000000000006e+00 8.5251540748539991e+00 3.3182649527786978e+01 0 0 0
927 2 6.1524999999999999e+00 9.2355835810918343e+00 3.3182649527786978e+01 0 0 0
949 2 7.3830000000000009e+00 8.5251540748539991e+00 3.3182649527786978e+01 0 0 0
950 2 8.6134999999999984e+00 9.2355835810918343e+00 3.3182649527786978e+01 0 0 0
925 2 4.9220000000000006e+00 1.1366872099805333e+01 3.3182649527786978e+01 0 0 0
947 2 6.1524999999999999e+00 1.0656442593567499e+01 3.3182649527786978e+01 0 0 0
948 2 7.3829999999999991e+00 1.1366872099805333e+01 3.3182649527786978e+01 0 0 0
971 2 8.6134999999999984e+00 1.0656442593567498e+01 3.3182649527786978e+01 0 0 0
594 2 0.0000000000000000e+00 1.2787731112280996e+01 3.0030999999999569e+01 0 0 0
631 2 2.4610000000000003e+00 1.2787731112280996e+01 3.0030999999999569e+01 0 0 0
592 2 0.0000000000000000e+00 1.4208590124756663e+01 3.0030999999999569e+01 0 0 0
627 2 1.2305000000000001e+00 1.4919019630994494e+01 3.0030999999999569e+01 0 0 0
629 2 2.4610000000000003e+00 1.4208590124756663e+01 3.0030999999999569e+01 0 0 0
672 2 3.6915000000000004e+00 1.4919019630994494e+01 3.0030999999999569e+01 0 0 0
903 2 0.0000000000000000e+00 1.2787731112280996e+01 3.3182649527786978e+01 0 0 0
904 2 1.2305000000000001e+00 1.3498160618518829e+01 3.3182649527786978e+01 0 0 0
922 2 2.4610000000000003e+00 1.2787731112280996e+01 3.3182649527786978e+01 0 0 0
923 2 3.6915000000000004e+00 1.3498160618518829e+01 3.3182649527786978e+01 0 0 0
902 2 0.0000000000000000e+00 1.5629449137232333e+01 3.3182649527786978e+01 0 0 0
920 2 1.2305000000000001e+00 1.4919019630994494e+01 3.3182649527786978e+01 0 0 0
921 2 2.4610000000000003e+00 1.5629449137232328e+01 3.3182649527786978e+01 0 0 0
943 2 3.6915000000000004e+00 1.4919019630994494e+01 3.3182649527786978e+01 0 0 0
676 2 4.9220000000000006e+00 1.2787731112280996e+01 3.0030999999999569e+01 0 0 0
723 2 7.3829999999999991e+00 1.2787731112280996e+01 3.0030999999999569e+01 0 0 0
674 2 4.9220000000000006e+00 1.4208590124756663e+01 3.0030999999999569e+01 0 0 0
719 2 6.1524999999999990e+00 1.4919019630994494e+01 3.0030999999999569e+01 0 0 0
721 2 7.3830000000000009e+00 1.4208590124756663e+01 3.0030999999999569e+01 0 0 0
766 2 8.6135000000000002e+00 1.4919019630994494e+01 3.0030999999999569e+01 0 0 0
945 2 4.9220000000000006e+00 1.2787731112280996e+01 3.3182649527786978e+01 0 0 0
946 2 6.1524999999999990e+00 1.3498160618518829e+01 3.3182649527786978e+01 0 0 0
969 2 7.3829999999999991e+00 1.2787731112280996e+01 3.3182649527786978e+01 0 0 0
970 2 8.6135000000000002e+00 1.3498160618518835e+01 3.3182649527786978e+01 0 0 0
944 2 4.9220000000000006e+00 1.5629449137232333e+01 3.3182649527786978e+01 0 0 0
967 2 6.1524999999999990e+00 1.4919019630994494e+01 3.3182649527786978e+01 0 0 0
968 2 7.3829999999999991e+00 1.5629449137232333e+01 3.3182649527786978e+01 0 0 0
991 2 8.6135000000000002e+00 1.4919019630994494e+01 3.3182649527786978e+01 0 0 0
4897 1 6.2593797041031349e+00 1.6029024325374387e+01 3.8746263602015901e+01 0 0 0
1568 1 5.5287817474519620e+00 2.1612167189897828e+00 3.5502431666269260e+01 -1 0 0
3358 1 1.0690314771479030e-01 1.2084019943287796e+01 3.6428236526274972e+01 0 0 -1
3041 1 9.4965286160697708e+00 2.0631556116357568e+00 3.5411008822024769e+01 1 1 0
6287 1 7.7680367748824715e+00 3.7969153900088193e+00 3.6577350048512706e+01 1 1 -1
1244 1 7.5040045759149567e+00 6.6278016318168662e+00 3.5891121756943555e+01 0 0 0
1790 1 3.9896287823432566e+00 4.3452028991719658e+00 3.5907303077976017e+01 1 0 0
1402 1 6.2522191810473089e+00 1.4566228408196389e+01 3.5923682066743233e+01 1 0 0
4585 1 1.0520764221677374e+00 5.7406122151367471e+00 3.5729778161670453e+01 1 1 0
1616 1 3.4024380855516934e-01 4.6131364093303571e+00 3.8425745975340298e+01 2 0 -1
3423 1 5.6246097388337022e+00 9.7732013454217572e+00 3.6074823402335376e+01 2 1 -1
4632 1 3.5075610998533322e+00 1.3806869231553073e+01 3.6034311736445794e+01 1 1 0
4581 1 1.7169907336786154e+00 8.3586784951479913e+00 3.5972013554663562e+01 1 1 -1
550 1 4.6881591099798436e+00 7.1449106884644316e+00 3.5827292850360614e+01 0 1 0
186 1 8.9525217254911063e+00 1.3578296268090270e+01 3.5657517125351248e+01 0 0 -1
6269 1 8.2981845914535270e+00 1.0835360753503899e+01 3.5857694991459496e+01 0 0 0
468 1 6.5187424143025270e+00 6.9626458901475079e+00 3.8712693104266428e+01 2 0 0
197 1 2.1247938164231917e+00 8.5365995161203312e+00 3.8801484477160983e+01 1 0 -1
434 1 9.7436146767538929e+00 1.3588902448933476e+01 3.8570251935413609e+01 1 1 -1
1457 1 3.0031660865202414e+00 1.1078288790092262e+01 3.6734530781882683e+01 1 0 0
1360 1 6.7998560583527390e-01 9.0092729474008726e-01 3.5767601597197441e+01 0 1 0
1729 1 3.6782476460881408e-01 1.4453379871167598e+01 3.7636265598143680e+01 0 2 0
2812 1 3.2910499449884831e+00 4.0972735640753264e+00 3.8659015192112989e+01 0 0 -1
4889 1 6.7532557797365544e-01 1.1633260545133423e+01 4.6529296703433118e+01 0 2 -1
3155 1 5.3474195257312616e+00 2.4534282039871340e+00 4.4116665316761164e+01 0 1 0
3539 1 5.5861389756206874e+00 2.9959428234976357e+00 4.0298515371737771e+01 -1 0 -1
3612 1 3.6984230467021413e+00 7.4374046952404765e-02 4.0628685722918156e+01 1 1 0
80 1 3.8916568946003638e+00 6.7934294474889114e+00 3.9866415349980556e+01 1 0 -1
1282 1 1.1556883573594277e+00 1.0215192527253144e+01 4.2359877928315917e+01 0 0 0
4726 1 1.7249028543622558e-01 1.4562692108070430e+00 4.1690214284552226e+01 1 1 -1
3435 1 1.3723983462869589e+00 7.2741197591549742e+00 4.2390924501154899e+01 0 0 0
3383 1 6.3957531045773930e+00 4.3745591368869770e+00 4.2660352995230397e+01 0 1 -1
2878 1 4.1628302118870026e+00 6.5381436047378418e+00 4.2982975778689074e+01 0 1 0
6131 1 2.8348015055791924e+00 1.4397838981781829e+01 3.9162546316684406e+01 1 0 0
534 1 2.6273258614353732e+00 1.6068199343298854e+01 4.4415803317550889e+01 1 1 0
6135 1 7.1487154510089512e+00 8.4183106910451233e+00 4.2643593810611726e+01 -1 0 0
1916 1 4.7027775932161289e+00 9.6103726580725599e+00 4.1887185320688580e+01 1 1 0
5265 1 9.3002326757594513e+00 3.8418999625197356e+00 4.2796002684481294e+01 0 1 0
6042 1 6.6808230087485363e+00 1.3992910915763535e+01 4.4615437630723797e+01 0 0 0
5121 1 4.8649201539962528e+00 1.2227957957278337e+01 4.0685324938575924e+01 1 1 -1
4778 1 1.6427942688791719e+00 1.4826240897883595e+01 4.1791472395632738e+01 0 0 -1
1773 1 8.4579847978721574e+00 6.3877625962676907e+00 4.0848980683210520e+01 1 0 -1
4732 1 8.0300112629871130e+00 1.5554518571101108e+01 4.2188753917851002e+01 1 0 0
2957 1 9.6115597816187801e+00 7.3367164344773919e+00 4.5202740732168351e+01 0 1 0
4528 1 5.6473291158338936e+00 1.1856389811021623e+01 4.5962827676010619e+01 -1 0 0
2084 1 8.4792001007068851e+00 1.1080143981698804e+01 4.2241677323644211e+01 0 0 0
2825 1 6.8152482690739493e+00 1.6184539938103494e+01 4.6259414229202733e+01 1 0 0
298 1 1.2654380268395489e+00 3.1362777924550502e+00 4.3644328219144100e+01 0 1 -1
5192 1 6.1284949714102730e+00 3.6757521487939365e-01 3.9616520299397038e+01 1 0 -1
3640 1 1.7979133580048430e+00 1.5130192827756412e+00 4.6972288813499397e+01 0 1 0
1395 1 3.7195325242728843e+00 3.5520655508439818e+00 4.6033360953535841e+01 0 0 0
1717 1 8.6910849690173517e+00 9.8468405851092591e+00 4.6090414566405691e+01 0 0 0
6027 1 7.6252089790948006e+00 1.3323488771271919e+01 4.0571266245161389e+01 0 1 -1
2085 1 3.1808363881897646e+00 1.1041349900648358e+01 4.4459598211619209e+01 0 0 0
5148 1 6.5104202258996535e-01 6.0362806804886073e+00 4.4503502883507231e+01 0 0 -1
1604 1 7.2963589129551494e+00 9.6337722522821567e-01 4.4947845673928803e+01 0 0 0