LAMMPS data file via write_data, version 16 Mar 2018, timestep = 8000000

6328 atoms
2 atom types

0.0000000000000000e+00 4.9219999999999999e+01 xlo xhi
0.0000000000000000e+00 4.9019635930410494e+01 ylo yhi
2.3018257497961763e+00 5.7760174250203960e+01 zlo zhi

Masses

1 18.015
2 12.01

Atoms # atomic

112 1 1.6388237447166396e+00 1.5874279220472149e+00 5.1358599092243544e+00 -1 1 1
6092 1 4.2416938260074488e+00 1.7162743469789277e+00 6.2736277561165492e+00 3 6 1
3015 1 9.2145281077729049e+00 1.6455574054941915e+00 5.4881788885936960e+00 0 2 1
1759 1 5.2113069323526986e+00 3.7797493852716992e+00 5.0901236909647762e+00 2 -5 0
3001 1 7.6818848039418537e+00 3.7408319597320321e+00 6.0805495967217560e+00 2 -1 0
4441 1 2.1243510788083417e-01 8.2515261170482326e+00 8.8091888351303602e+00 0 -2 2
3206 1 1.2624046782567402e+00 6.1411497302045825e+00 4.8701689320250843e+00 1 -3 0
279 1 3.9569581171590582e+00 6.1881093374981022e+00 5.8132567674693423e+00 -3 -1 1
3703 1 9.0646387236774455e+00 6.0534062953915173e+00 5.1220426518903981e+00 0 1 1
6210 1 1.4694823802299475e+00 1.0636900239439186e+01 5.0949047028777521e+00 1 0 0
6000 1 3.8982455764128825e+00 1.0500316509072634e+01 6.1082438771187864e+00 -4 -3 1
1515 1 8.8166608974071075e+00 1.5066529357188861e+01 9.8781221335319973e+00 -1 -3 1
3542 1 5.2410032215156592e+00 8.3016730170431536e+00 5.0224784832465055e+00 1 1 0
4645 1 7.6479076677428317e+00 8.3824909233478841e+00 6.0098154970468958e+00 -7 4 0
61 1 8.9485082159831961e+00 1.0637430135862481e+01 5.0660040363901810e+00 0 3 1
79 1 1.6529705957311709e+00 1.5002437700318303e+01 5.1813033536119102e+00 -1 5 1
2843 1 4.2874963532496686e+00 1.4765669497326009e+01 6.3426385122507964e+00 2 0 0
6086 1 5.4596757296766514e+00 1.2705810624374557e+01 9.9303954415013003e+00 3 3 0
1733 1 1.8556222713971929e-01 3.7317663722747740e+00 6.0177510616505323e+00 0 4 0
4427 1 7.9405766658986554e+00 1.2860751047163950e+01 8.7540584760221183e+00 -5 8 1
1611 1 5.3093424761017154e+00 1.2482785969662642e+01 5.1927523145184598e+00 2 2 0
292 1 9.1209050828111700e+00 1.5044567154174736e+01 5.1314394336786355e+00 -2 3 0
3004 1 7.7497593187486133e+00 1.2984271397549888e+01 5.9412681555384843e+00 3 1 0
4712 1 1.6824760873239601e+00 1.4664410891592272e+01 9.9247089587606574e+00 0 5 1
3158 1 1.3746915438042242e+00 1.5550294758376200e+00 1.0203463652281343e+01 -3 1 1
1959 1 3.7867460247743772e+00 1.7376792710787261e+00 9.0511633327785823e+00 2 4 0
132 1 9.2714924649528179e+00 1.7475332804416581e+00 9.8596820145455411e+00 -2 -1 1
1302 1 5.2351971835872826e+00 3.9278199350716645e+00 9.9054161888474308e+00 1 -3 1
331 1 8.0956365433411168e+00 3.8962800823093873e+00 8.8977147410625612e+00 -1 1 0
1943 1 1.2259338741679426e+00 5.9268676096815929e+00 9.8665312782426327e+00 6 4 0
2997 1 3.7850462658799904e+00 5.9113755372789312e+00 8.8503446140100817e+00 -3 1 0
329 1 2.5506102570064970e-01 1.2811741541062764e+01 8.7223897686349581e+00 2 0 1
1400 1 9.0919280070477768e+00 6.3223601559469165e+00 9.7062783415809371e+00 -1 1 0
4504 1 4.0050330379700050e+00 1.0535190786256827e+01 8.9494070338911413e+00 -1 1 1
1589 1 1.4529525066265634e+00 1.0711096913010378e+01 9.6296754083611056e+00 1 2 1
5260 1 9.0804507817609199e+00 1.0612297666263455e+01 9.8147046361393002e+00 -1 1 0
1894 1 7.7525264318270386e+00 8.3969579752988768e+00 8.8494897164923820e+00 1 -1 0
1479 1 5.1531049768165911e+00 8.2172981660520517e+00 9.8974712613521572e+00 -1 -2 1
2927 1 1.7267724052500688e+00 1.5087968052217718e+01 2.4168948731928230e+00 -3 -3 1
2038 1 4.1353160115537113e+00 1.5037337226657627e+01 9.1679297246661733e+00 3 1 1
5210 1 1.7293874935892040e-01 1.2832757485046441e+01 5.9223090263708364e+00 -1 0 0
1809 1 2.1590593560124205e-01 3.6687699015422996e+00 8.9976800428856691e+00 1 3 0
5133 1 9.2432685287065706e+00 1.9137719171309528e+00 2.7428829270806485e+00 1 5 0
3501 1 7.8141818896845905e-02 8.6108224372544289e+00 6.0971562501415182e+00 1 2 0
4497 1 9.1174929641049953e+00 6.2827405740553148e+00 2.3982908233538063e+00 -2 3 1
4684 1 8.9272627956008161e+00 1.0786017475308377e+01 2.3174858112894485e+00 -2 -2 0
1340 1 1.5713887428468745e+00 1.7747283614934184e+00 2.5617371903802990e+00 -1 -1 1
4475 1 1.3722225877364616e+00 1.6237059783244245e+00 1.2934846727379730e+01 0 -2 1
3006 1 4.0194924979276374e+00 1.6284257998058453e+00 1.3417538146808988e+01 1 0 1
5315 1 1.1256752870708329e-01 3.8628663530211416e+00 1.3778162984496451e+01 1 -1 0
115 1 1.7577028472722516e+00 1.5336615627665998e+01 1.7235117548108335e+01 -1 2 0
4754 1 9.2005515675195273e+00 1.9842227145366016e+00 1.2557419018284003e+01 -1 -1 0
1570 1 5.4052078130476877e+00 4.0063545902855422e+00 1.2748957639785180e+01 -4 1 1
3371 1 8.0225724815898865e+00 4.2666283155028655e+00 1.3191656637828643e+01 -3 2 1
2139 1 1.2621035216305487e+00 6.1755883125004996e+00 1.2489549490773728e+01 2 -2 1
2030 1 3.6576032702549108e+00 5.9523761823398820e+00 1.3575679740349377e+01 -1 1 1
1967 1 4.4122227244832795e+00 6.3237725395246720e+00 1.6132321704158688e+01 -3 4 0
1316 1 1.6613746979780183e-01 1.3331325693599176e+01 1.6605566694022791e+01 1 -2 1
1372 1 9.3862196001576699e+00 6.4320869097673281e+00 1.2436516267290797e+01 2 2 1
2800 1 1.4429794971028429e+00 1.0763895388050207e+01 1.2428174073007412e+01 5 1 1
2841 1 3.8792599824693181e+00 1.0746023663591352e+01 1.3376808495368792e+01 1 1 1
2893 1 3.8962758119987950e+00 1.0627636329817772e+01 1.6382980780913854e+01 0 0 1
4936 1 7.9555622242938737e+00 8.4345793031542140e+00 1.3442195904522737e+01 -1 3 1
6187 1 5.3069986965939560e+00 8.3711916004594897e+00 1.2606939010439646e+01 1 -2 0
4461 1 9.3279587113382156e+00 1.0776017624278664e+01 1.2578057639964017e+01 2 1 1
6221 1 8.1865668370879412e+00 8.5703134469970585e+00 1.6162859163930083e+01 -1 0 0
403 1 1.3947588919594500e+00 1.4994542308231980e+01 1.2761445823895457e+01 -1 3 -1
3608 1 4.0805371381433364e+00 1.4841989480697345e+01 1.3511116002381147e+01 -1 4 0
3320 1 9.2235227367185679e+00 2.1530031725826264e+00 1.9862962007709836e+01 -2 0 0
3066 1 4.3866713898261012e-01 1.2640998916029382e+01 1.3849040261870101e+01 1 1 1
6160 1 5.4177610704552661e+00 1.2741081890684878e+01 1.2667772313328813e+01 -1 0 1
6318 1 8.9848020234737138e+00 1.5259679964942086e+01 1.2642312686622830e+01 -3 -1 1
4982 1 7.7984316006059071e+00 1.2954400601520685e+01 1.3597177787520257e+01 0 3 0
5256 1 4.1189714713076926e+00 1.7461189636350010e+00 1.6156438145573375e+01 -1 -2 1
3518 1 1.6605988808479262e+00 1.8745807443563016e+00 1.7323022722193592e+01 0 1 0
3326 1 1.4857342301627814e+00 1.9017997930049713e+00 2.0082691667435729e+01 1 -2 0
4964 1 9.7411809383914605e+00 1.5145052878223124e+01 1.9737591517342707e+01 1 -2 1
6062 1 8.0647766923886266e+00 1.2934691095167167e+01 1.6270822164596616e+01 2 1 0
1262 1 7.9441223535736363e+00 4.0997346544167588e+00 1.6068091338017695e+01 -4 -3 0
5209 1 2.2740235936086695e-01 8.6662299257860180e+00 1.3615631909069526e+01 3 4 1
5281 1 9.3230592563639476e+00 2.1748178421050719e+00 1.7128820277463980e+01 2 2 0
4589 1 5.4453218678171966e+00 4.0517648641200994e+00 1.7067068481867665e+01 -6 4 0
2873 1 5.5481416816304021e+00 4.1412194834542078e+00 1.9677800888482981e+01 0 4 1
3623 1 9.3192490902635967e+00 1.4994306286737354e+01 1.7050641861478731e+01 2 1 -1
4560 1 1.7198068176212777e+00 6.4726865904373296e+00 1.6778559864901752e+01 -1 0 1
2860 1 1.4584745236265240e+00 6.4739354355677943e+00 1.9630500578019596e+01 2 0 1
2855 1 9.2328584156021911e+00 6.2788433334622340e+00 2.0057771883732489e+01 -3 -1 1
5098 1 9.2880863385074619e+00 6.4166406091962997e+00 1.7281358250372040e+01 3 -3 0
307 1 5.3569047934451346e+00 1.2681129168337623e+01 1.7120460911177087e+01 3 -2 0
5264 1 1.5299927573760481e+00 1.0864654351923313e+01 1.9805262166447470e+01 -2 4 1
4600 1 1.3845872827748744e+00 1.0847751710076967e+01 1.6941228635330432e+01 5 0 1
1532 1 5.4789306709777206e+00 1.2915998253018634e+01 1.9835046753256528e+01 -1 1 0
128 1 5.4482536577312350e+00 8.6318025615716074e+00 1.7461585645730143e+01 3 3 0
4592 1 9.5551565838608550e+00 1.0927616014655648e+01 2.0159693842866179e+01 1 1 1
1806 1 5.3392706962911953e+00 8.5063420707458146e+00 2.0290312716972860e+01 -3 4 1
2016 1 9.3546752067007599e+00 1.0819288816856526e+01 1.7263927569444050e+01 -2 0 0
1548 1 4.3342707755701522e+00 1.4887044292091444e+01 1.6055608896339450e+01 4 2 1
231 1 1.7758243256387940e+00 1.5166523617176798e+01 1.9867203588104417e+01 2 -1 0
5240 1 1.8609295814985599e-01 4.1093715177432326e+00 1.6489727376324485e+01 3 1 0
4783 1 1.6704451299897730e-01 8.5270753685133585e+00 1.6113019346939385e+01 1 0 1
36 1 8.1647569873737424e+00 8.6451863190476068e+00 2.0657942761713254e+01 5 -3 0
1240 1 3.1850900305348998e-02 8.4839220671356266e+00 2.0586106491028897e+01 -1 6 0
89 1 4.0550593478021595e+00 1.9049852125383175e+00 2.0670392316352782e+01 0 -1 0
3222 1 4.3538571966940065e+00 1.5195091356281182e+01 2.0725581682891715e+01 -5 0 0
3394 1 4.2860262114211867e-01 1.3167838817223926e+01 2.0753507575283155e+01 1 0 0
6168 1 1.6774691162390778e+00 2.2206088467575973e+00 2.4399695288006892e+01 -3 -2 0
4445 1 4.4568439094923695e+00 1.8463197915030769e+00 2.3506473630691932e+01 4 -1 1
677 2 6.1524999999999990e+00 1.3498160618518829e+01 2.6721514520920781e+01 0 0 0
4508 1 5.6824988195891075e+00 4.2517844046304214e+00 2.4478893618225900e+01 3 -1 0
1288 1 9.5670684262445675e+00 1.5202494639623355e+01 2.4109411600634541e+01 -4 -5 1
6063 1 3.4718672775459902e-01 1.3443299985085535e+01 2.3440854240502624e+01 1 -3 1
2990 1 1.4962741541540705e+00 6.5881597212980063e+00 2.4209660463650795e+01 2 3 1
4994 1 4.1982151519556448e+00 6.4592525595258179e+00 2.3630217133793430e+01 2 4 1
718 2 6.1524999999999990e+00 1.4919019630994494e+01 2.6721514520920781e+01 0 0 0
4696 1 2.5068463696208587e-01 8.8508745520998993e+00 2.3393228585091382e+01 0 -5 1
6140 1 8.3230983885304610e+00 4.4008857324957491e+00 2.3827567561984910e+01 0 0 1
1747 1 1.3794454196297294e+00 1.1022783447236659e+01 2.4329023977150683e+01 -1 1 0
412 1 3.9027573822873682e+00 1.0978579505393840e+01 2.3771161190984209e+01 1 2 1
720 2 7.3829999999999991e+00 1.5629449137232333e+01 2.6721514520920781e+01 0 0 0
6052 1 7.8611954032317168e+00 4.1746355129498296e+00 2.1044115338592604e+01 0 2 0
319 1 8.1237104798376887e+00 8.8326303556070993e+00 2.3350646704743095e+01 -1 -2 1
4693 1 5.4427215053154150e+00 8.6321277948597199e+00 2.4229656671504287e+01 -1 2 0
675 2 4.9220000000000006e+00 1.2787731112280996e+01 2.6721514520920781e+01 0 0 0
3067 1 1.6059641272029690e+00 1.5661042633286215e+01 2.4219974741217456e+01 1 -2 0
5026 1 4.4662892211268428e+00 1.5390873108614816e+01 2.3462480812606486e+01 0 2 1
4867 1 9.6938129464151181e+00 6.7930834882382900e+00 2.4384334072865123e+01 2 6 0
673 2 4.9220000000000006e+00 1.5629449137232333e+01 2.6721514520920781e+01 0 0 0
724 2 8.6135000000000002e+00 1.3498160618518835e+01 2.6721514520920781e+01 0 0 0
3129 1 1.5662323362666666e-01 6.7073422070997424e-02 2.3774918784203198e+01 0 1 1
4845 1 8.1113308139711666e+00 1.3004870772152186e+01 2.3575219378703025e+01 -5 1 1
4608 1 5.5122908129597743e+00 1.3016047592956433e+01 2.4358774598573113e+01 -4 -2 1
722 2 7.3829999999999991e+00 1.2787731112280996e+01 2.6721514520920781e+01 0 0 0
552 2 0.0000000000000000e+00 2.8417180249513345e+00 2.6721514520920781e+01 0 0 0
554 2 0.0000000000000000e+00 0.0000000000000000e+00 2.6721514520920781e+01 0 0 0
556 2 1.2305000000000001e+00 7.1042950623783474e-01 2.6721514520920781e+01 0 0 0
563 2 1.2305000000000001e+00 2.1312885187134998e+00 2.6721514520920781e+01 0 0 0
565 2 2.4610000000000003e+00 2.8417180249513345e+00 2.6721514520920781e+01 0 0 0
567 2 2.4610000000000003e+00 0.0000000000000000e+00 2.6721514520920781e+01 0 0 0
569 2 3.6915000000000004e+00 7.1042950623783474e-01 2.6721514520920781e+01 0 0 0
584 2 3.6914999999999996e+00 2.1312885187134998e+00 2.6721514520920781e+01 0 0 0
586 2 4.9220000000000006e+00 2.8417180249513332e+00 2.6721514520920781e+01 0 0 0
588 2 4.9220000000000006e+00 0.0000000000000000e+00 2.6721514520920781e+01 0 0 0
590 2 6.1524999999999999e+00 7.1042950623783407e-01 2.6721514520920781e+01 0 0 0
613 2 6.1524999999999999e+00 2.1312885187134989e+00 2.6721514520920781e+01 0 0 0
615 2 7.3829999999999991e+00 2.8417180249513345e+00 2.6721514520920781e+01 0 0 0
617 2 7.3829999999999991e+00 0.0000000000000000e+00 2.6721514520920781e+01 0 0 0
619 2 8.6134999999999984e+00 7.1042950623783407e-01 2.6721514520920781e+01 0 0 0
650 2 8.6134999999999984e+00 2.1312885187135002e+00 2.6721514520920781e+01 0 0 0
559 2 0.0000000000000000e+00 4.2625770374269996e+00 2.6721514520920781e+01 0 0 0
561 2 1.2305000000000001e+00 4.9730065436648339e+00 2.6721514520920781e+01 0 0 0
576 2 1.2305000000000001e+00 6.3938655561404980e+00 2.6721514520920781e+01 0 0 0
580 2 2.4610000000000003e+00 4.2625770374269996e+00 2.6721514520920781e+01 0 0 0
582 2 3.6914999999999996e+00 4.9730065436648339e+00 2.6721514520920781e+01 0 0 0
605 2 3.6914999999999996e+00 6.3938655561404980e+00 2.6721514520920781e+01 0 0 0
557 2 0.0000000000000000e+00 7.1042950623783341e+00 2.6721514520920781e+01 0 0 0
578 2 2.4610000000000003e+00 7.1042950623783341e+00 2.6721514520920781e+01 0 0 0
609 2 4.9220000000000006e+00 4.2625770374269978e+00 2.6721514520920781e+01 0 0 0
611 2 6.1524999999999999e+00 4.9730065436648339e+00 2.6721514520920781e+01 0 0 0
642 2 6.1524999999999999e+00 6.3938655561404980e+00 2.6721514520920781e+01 0 0 0
646 2 7.3829999999999991e+00 4.2625770374269996e+00 2.6721514520920781e+01 0 0 0
648 2 8.6135000000000002e+00 4.9730065436648339e+00 2.6721514520920781e+01 0 0 0
687 2 8.6135000000000002e+00 6.3938655561404980e+00 2.6721514520920781e+01 0 0 0
607 2 4.9220000000000006e+00 7.1042950623783341e+00 2.6721514520920781e+01 0 0 0
644 2 7.3830000000000009e+00 7.1042950623783341e+00 2.6721514520920781e+01 0 0 0
572 2 0.0000000000000000e+00 8.5251540748539991e+00 2.6721514520920781e+01 0 0 0
574 2 1.2305000000000001e+00 9.2355835810918343e+00 2.6721514520920781e+01 0 0 0
601 2 2.4610000000000003e+00 8.5251540748539991e+00 2.6721514520920781e+01 0 0 0
603 2 3.6915000000000004e+00 9.2355835810918343e+00 2.6721514520920781e+01 0 0 0
570 2 0.0000000000000000e+00 1.1366872099805333e+01 2.6721514520920781e+01 0 0 0
597 2 1.2305000000000001e+00 1.0656442593567498e+01 2.6721514520920781e+01 0 0 0
599 2 2.4610000000000003e+00 1.1366872099805333e+01 2.6721514520920781e+01 0 0 0
634 2 3.6914999999999996e+00 1.0656442593567499e+01 2.6721514520920781e+01 0 0 0
638 2 4.9220000000000006e+00 8.5251540748539991e+00 2.6721514520920781e+01 0 0 0
640 2 6.1524999999999999e+00 9.2355835810918343e+00 2.6721514520920781e+01 0 0 0
683 2 7.3830000000000009e+00 8.5251540748539991e+00 2.6721514520920781e+01 0 0 0
685 2 8.6134999999999984e+00 9.2355835810918343e+00 2.6721514520920781e+01 0 0 0
636 2 4.9220000000000006e+00 1.1366872099805333e+01 2.6721514520920781e+01 0 0 0
679 2 6.1524999999999999e+00 1.0656442593567499e+01 2.6721514520920781e+01 0 0 0
681 2 7.3829999999999991e+00 1.1366872099805333e+01 2.6721514520920781e+01 0 0 0
726 2 8.6134999999999984e+00 1.0656442593567498e+01 2.6721514520920781e+01 0 0 0
626 2 1.2305000000000001e+00 1.4919019630994494e+01 2.6721514520920781e+01 0 0 0
595 2 1.2305000000000001e+00 1.3498160618518829e+01 2.6721514520920781e+01 0 0 0
632 2 3.6915000000000004e+00 1.3498160618518829e+01 2.6721514520920781e+01 0 0 0
630 2 2.4610000000000003e+00 1.2787731112280996e+01 2.6721514520920781e+01 0 0 0
591 2 0.0000000000000000e+00 1.5629449137232333e+01 2.6721514520920781e+01 0 0 0
671 2 3.6915000000000004e+00 1.4919019630994494e+01 2.6721514520920781e+01 0 0 0
628 2 2.4610000000000003e+00 1.5629449137232328e+01 2.6721514520920781e+01 0 0 0
593 2 0.0000000000000000e+00 1.2787731112280996e+01 2.6721514520920781e+01 0 0 0
765 2 8.6135000000000002e+00 1.4919019630994494e+01 2.6721514520920781e+01 0 0 0
5102 1 3.9288390548268839e+00 1.0782269852153835e+01 2.0972320449739847e+01 -2 -1 0
2108 1 3.0218402164658248e-01 4.2893969493772968e+00 2.0905399668592064e+01 -1 -1 1
3103 1 3.8791097441606408e+00 6.1303521348114103e+00 2.0851636801822909e+01 4 3 1
3117 1 9.3765831160272430e+00 1.0891912503968459e+01 2.4370309190956640e+01 3 -1 0
6025 1 2.3157478611315667e-02 4.2169721872413204e+00 2.3830737282440854e+01 -2 2 1
4434 1 8.1052509772340482e+00 1.3096545503078339e+01 2.0878550070004628e+01 2 -1 1
553 2 0.0000000000000000e+00 1.4208590124756650e+00 3.0031000000000127e+01 0 0 0
555 2 0.0000000000000000e+00 0.0000000000000000e+00 3.0031000000000127e+01 0 0 0
564 2 1.2305000000000001e+00 2.1312885187134998e+00 3.0031000000000127e+01 0 0 0
566 2 2.4610000000000003e+00 1.4208590124756650e+00 3.0031000000000127e+01 0 0 0
568 2 2.4610000000000003e+00 0.0000000000000000e+00 3.0031000000000127e+01 0 0 0
585 2 3.6914999999999996e+00 2.1312885187134998e+00 3.0031000000000127e+01 0 0 0
562 2 1.2305000000000001e+00 3.5521475311891644e+00 3.0031000000000127e+01 0 0 0
583 2 3.6914999999999996e+00 3.5521475311891644e+00 3.0031000000000127e+01 0 0 0
881 2 0.0000000000000000e+00 2.8417180249513345e+00 3.3340485479054706e+01 0 0 0
882 2 0.0000000000000000e+00 0.0000000000000000e+00 3.3340485479054706e+01 0 0 0
883 2 1.2305000000000001e+00 7.1042950623783474e-01 3.3340485479054706e+01 0 0 0
887 2 1.2305000000000001e+00 2.1312885187134998e+00 3.3340485479054706e+01 0 0 0
888 2 2.4610000000000003e+00 2.8417180249513345e+00 3.3340485479054706e+01 0 0 0
889 2 2.4610000000000003e+00 0.0000000000000000e+00 3.3340485479054706e+01 0 0 0
890 2 3.6915000000000004e+00 7.1042950623783474e-01 3.3340485479054706e+01 0 0 0
898 2 3.6914999999999996e+00 2.1312885187134998e+00 3.3340485479054706e+01 0 0 0
587 2 4.9220000000000006e+00 1.4208590124756650e+00 3.0031000000000127e+01 0 0 0
589 2 4.9220000000000006e+00 0.0000000000000000e+00 3.0031000000000127e+01 0 0 0
614 2 6.1524999999999999e+00 2.1312885187134989e+00 3.0031000000000127e+01 0 0 0
616 2 7.3829999999999991e+00 1.4208590124756659e+00 3.0031000000000127e+01 0 0 0
618 2 7.3829999999999991e+00 0.0000000000000000e+00 3.0031000000000127e+01 0 0 0
651 2 8.6134999999999984e+00 2.1312885187135002e+00 3.0031000000000127e+01 0 0 0
612 2 6.1524999999999999e+00 3.5521475311891644e+00 3.0031000000000127e+01 0 0 0
649 2 8.6134999999999984e+00 3.5521475311891657e+00 3.0031000000000127e+01 0 0 0
899 2 4.9220000000000006e+00 2.8417180249513332e+00 3.3340485479054706e+01 0 0 0
900 2 4.9220000000000006e+00 0.0000000000000000e+00 3.3340485479054706e+01 0 0 0
901 2 6.1524999999999999e+00 7.1042950623783407e-01 3.3340485479054706e+01 0 0 0
913 2 6.1524999999999999e+00 2.1312885187134989e+00 3.3340485479054706e+01 0 0 0
914 2 7.3829999999999991e+00 2.8417180249513345e+00 3.3340485479054706e+01 0 0 0
915 2 7.3829999999999991e+00 0.0000000000000000e+00 3.3340485479054706e+01 0 0 0
916 2 8.6134999999999984e+00 7.1042950623783407e-01 3.3340485479054706e+01 0 0 0
932 2 8.6134999999999984e+00 2.1312885187135002e+00 3.3340485479054706e+01 0 0 0
558 2 0.0000000000000000e+00 5.6834360499026637e+00 3.0031000000000127e+01 0 0 0
560 2 0.0000000000000000e+00 4.2625770374269996e+00 3.0031000000000127e+01 0 0 0
577 2 1.2305000000000001e+00 6.3938655561404980e+00 3.0031000000000127e+01 0 0 0
579 2 2.4610000000000003e+00 5.6834360499026637e+00 3.0031000000000127e+01 0 0 0
581 2 2.4610000000000003e+00 4.2625770374269996e+00 3.0031000000000127e+01 0 0 0
606 2 3.6914999999999996e+00 6.3938655561404980e+00 3.0031000000000127e+01 0 0 0
575 2 1.2305000000000001e+00 7.8147245686161639e+00 3.0031000000000127e+01 0 0 0
604 2 3.6914999999999996e+00 7.8147245686161639e+00 3.0031000000000127e+01 0 0 0
885 2 0.0000000000000000e+00 4.2625770374269996e+00 3.3340485479054706e+01 0 0 0
886 2 1.2305000000000001e+00 4.9730065436648339e+00 3.3340485479054706e+01 0 0 0
894 2 1.2305000000000001e+00 6.3938655561404980e+00 3.3340485479054706e+01 0 0 0
896 2 2.4610000000000003e+00 4.2625770374269996e+00 3.3340485479054706e+01 0 0 0
897 2 3.6914999999999996e+00 4.9730065436648339e+00 3.3340485479054706e+01 0 0 0
909 2 3.6914999999999996e+00 6.3938655561404980e+00 3.3340485479054706e+01 0 0 0
884 2 0.0000000000000000e+00 7.1042950623783341e+00 3.3340485479054706e+01 0 0 0
895 2 2.4610000000000003e+00 7.1042950623783341e+00 3.3340485479054706e+01 0 0 0
608 2 4.9220000000000006e+00 5.6834360499026637e+00 3.0031000000000127e+01 0 0 0
610 2 4.9220000000000006e+00 4.2625770374269978e+00 3.0031000000000127e+01 0 0 0
643 2 6.1524999999999999e+00 6.3938655561404980e+00 3.0031000000000127e+01 0 0 0
645 2 7.3829999999999991e+00 5.6834360499026637e+00 3.0031000000000127e+01 0 0 0
647 2 7.3829999999999991e+00 4.2625770374269996e+00 3.0031000000000127e+01 0 0 0
688 2 8.6135000000000002e+00 6.3938655561404980e+00 3.0031000000000127e+01 0 0 0
641 2 6.1524999999999999e+00 7.8147245686161639e+00 3.0031000000000127e+01 0 0 0
686 2 8.6135000000000002e+00 7.8147245686161639e+00 3.0031000000000127e+01 0 0 0
911 2 4.9220000000000006e+00 4.2625770374269978e+00 3.3340485479054706e+01 0 0 0
912 2 6.1524999999999999e+00 4.9730065436648339e+00 3.3340485479054706e+01 0 0 0
928 2 6.1524999999999999e+00 6.3938655561404980e+00 3.3340485479054706e+01 0 0 0
930 2 7.3829999999999991e+00 4.2625770374269996e+00 3.3340485479054706e+01 0 0 0
931 2 8.6135000000000002e+00 4.9730065436648339e+00 3.3340485479054706e+01 0 0 0
951 2 8.6135000000000002e+00 6.3938655561404980e+00 3.3340485479054706e+01 0 0 0
910 2 4.9220000000000006e+00 7.1042950623783341e+00 3.3340485479054706e+01 0 0 0
929 2 7.3830000000000009e+00 7.1042950623783341e+00 3.3340485479054706e+01 0 0 0
571 2 0.0000000000000000e+00 9.9460130873296642e+00 3.0031000000000127e+01 0 0 0
573 2 0.0000000000000000e+00 8.5251540748539991e+00 3.0031000000000127e+01 0 0 0
600 2 2.4610000000000003e+00 9.9460130873296642e+00 3.0031000000000127e+01 0 0 0
602 2 2.4610000000000003e+00 8.5251540748539991e+00 3.0031000000000127e+01 0 0 0
596 2 1.2305000000000001e+00 1.2077301606043163e+01 3.0031000000000127e+01 0 0 0
598 2 1.2305000000000001e+00 1.0656442593567498e+01 3.0031000000000127e+01 0 0 0
633 2 3.6914999999999996e+00 1.2077301606043163e+01 3.0031000000000127e+01 0 0 0
635 2 3.6914999999999996e+00 1.0656442593567499e+01 3.0031000000000127e+01 0 0 0
892 2 0.0000000000000000e+00 8.5251540748539991e+00 3.3340485479054706e+01 0 0 0
893 2 1.2305000000000001e+00 9.2355835810918343e+00 3.3340485479054706e+01 0 0 0
907 2 2.4610000000000003e+00 8.5251540748539991e+00 3.3340485479054706e+01 0 0 0
908 2 3.6915000000000004e+00 9.2355835810918343e+00 3.3340485479054706e+01 0 0 0
891 2 0.0000000000000000e+00 1.1366872099805333e+01 3.3340485479054706e+01 0 0 0
905 2 1.2305000000000001e+00 1.0656442593567498e+01 3.3340485479054706e+01 0 0 0
906 2 2.4610000000000003e+00 1.1366872099805333e+01 3.3340485479054706e+01 0 0 0
924 2 3.6914999999999996e+00 1.0656442593567499e+01 3.3340485479054706e+01 0 0 0
637 2 4.9220000000000006e+00 9.9460130873296642e+00 3.0031000000000127e+01 0 0 0
639 2 4.9220000000000006e+00 8.5251540748539991e+00 3.0031000000000127e+01 0 0 0
682 2 7.3830000000000009e+00 9.9460130873296642e+00 3.0031000000000127e+01 0 0 0
684 2 7.3830000000000009e+00 8.5251540748539991e+00 3.0031000000000127e+01 0 0 0
678 2 6.1524999999999999e+00 1.2077301606043163e+01 3.0031000000000127e+01 0 0 0
680 2 6.1524999999999999e+00 1.0656442593567499e+01 3.0031000000000127e+01 0 0 0
725 2 8.6135000000000002e+00 1.2077301606043163e+01 3.0031000000000127e+01 0 0 0
727 2 8.6134999999999984e+00 1.0656442593567498e+01 3.0031000000000127e+01 0 0 0
926 2 4.9220000000000006e+00 8.5251540748539991e+00 3.3340485479054706e+01 0 0 0
927 2 6.1524999999999999e+00 9.2355835810918343e+00 3.3340485479054706e+01 0 0 0
949 2 7.3830000000000009e+00 8.5251540748539991e+00 3.3340485479054706e+01 0 0 0
950 2 8.6134999999999984e+00 9.2355835810918343e+00 3.3340485479054706e+01 0 0 0
925 2 4.9220000000000006e+00 1.1366872099805333e+01 3.3340485479054706e+01 0 0 0
947 2 6.1524999999999999e+00 1.0656442593567499e+01 3.3340485479054706e+01 0 0 0
948 2 7.3829999999999991e+00 1.1366872099805333e+01 3.3340485479054706e+01 0 0 0
971 2 8.6134999999999984e+00 1.0656442593567498e+01 3.3340485479054706e+01 0 0 0
594 2 0.0000000000000000e+00 1.2787731112280996e+01 3.0031000000000127e+01 0 0 0
631 2 2.4610000000000003e+00 1.2787731112280996e+01 3.0031000000000127e+01 0 0 0
592 2 0.0000000000000000e+00 1.4208590124756663e+01 3.0031000000000127e+01 0 0 0
627 2 1.2305000000000001e+00 1.4919019630994494e+01 3.0031000000000127e+01 0 0 0
629 2 2.4610000000000003e+00 1.4208590124756663e+01 3.0031000000000127e+01 0 0 0
672 2 3.6915000000000004e+00 1.4919019630994494e+01 3.0031000000000127e+01 0 0 0
903 2 0.0000000000000000e+00 1.2787731112280996e+01 3.3340485479054706e+01 0 0 0
904 2 1.2305000000000001e+00 1.3498160618518829e+01 3.3340485479054706e+01 0 0 0
922 2 2.4610000000000003e+00 1.2787731112280996e+01 3.3340485479054706e+01 0 0 0
923 2 3.6915000000000004e+00 1.3498160618518829e+01 3.3340485479054706e+01 0 0 0
902 2 0.0000000000000000e+00 1.5629449137232333e+01 3.3340485479054706e+01 0 0 0
920 2 1.2305000000000001e+00 1.4919019630994494e+01 3.3340485479054706e+01 0 0 0
921 2 2.4610000000000003e+00 1.5629449137232328e+01 3.3340485479054706e+01 0 0 0
943 2 3.6915000000000004e+00 1.4919019630994494e+01 3.3340485479054706e+01 0 0 0
676 2 4.9220000000000006e+00 1.2787731112280996e+01 3.0031000000000127e+01 0 0 0
723 2 7.3829999999999991e+00 1.2787731112280996e+01 3.0031000000000127e+01 0 0 0
674 2 4.9220000000000006e+00 1.4208590124756663e+01 3.0031000000000127e+01 0 0 0
719 2 6.1524999999999990e+00 1.4919019630994494e+01 3.0031000000000127e+01 0 0 0
721 2 7.3830000000000009e+00 1.4208590124756663e+01 3.0031000000000127e+01 0 0 0
766 2 8.6135000000000002e+00 1.4919019630994494e+01 3.0031000000000127e+01 0 0 0
945 2 4.9220000000000006e+00 1.2787731112280996e+01 3.3340485479054706e+01 0 0 0
946 2 6.1524999999999990e+00 1.3498160618518829e+01 3.3340485479054706e+01 0 0 0
969 2 7.3829999999999991e+00 1.2787731112280996e+01 3.3340485479054706e+01 0 0 0
970 2 8.6135000000000002e+00 1.3498160618518835e+01 3.3340485479054706e+01 0 0 0
944 2 4.9220000000000006e+00 1.5629449137232333e+01 3.3340485479054706e+01 0 0 0
967 2 6.1524999999999990e+00 1.4919019630994494e+01 3.3340485479054706e+01 0 0 0
968 2 7.3829999999999991e+00 1.5629449137232333e+01 3.3340485479054706e+01 0 0 0
991 2 8.6135000000000002e+00 1.4919019630994494e+01 3.3340485479054706e+01 0 0 0
4466 1 8.9219155988150678e-01 2.6684232552331819e+00 3.5643635954442303e+01 -5 1 0
3256 1 3.8435011340443550e+00 2.7047168878912924e+00 3.5809335490366692e+01 -1 0 0
4944 1 5.2754782407648451e+00 4.9591189861623572e+00 3.9230856093866265e+01 0 3 -1
1427 1 5.4473901490934287e+00 1.5040102412427325e+01 3.6397066570593523e+01 3 2 0
2061 1 5.5971457042944204e+00 1.4845515445509552e+01 3.9079033055698261e+01 2 1 -1
3695 1 1.5273712360338960e+00 1.2137839501288203e+01 3.8705212773098012e+01 1 -1 -1
464 1 2.6646755122586321e-02 6.7310015750045832e-02 3.8573796389471241e+01 -3 0 -1
3653 1 9.6742974037174800e+00 1.2612793579066432e+01 3.8887092897808756e+01 3 -2 0
6022 1 9.3717207129326177e+00 2.5162354942507634e+00 3.5751769276933231e+01 1 4 -1
3008 1 1.5761883015032017e+00 7.7198501933617747e+00 3.5812276108601310e+01 4 1 -1
5180 1 4.3439829453778218e+00 7.6846619631399085e+00 3.6271287376077197e+01 -2 -1 0
6175 1 5.0107979464474850e+00 1.4435847815261052e-01 3.6387315360397309e+01 -3 1 0
2070 1 8.4756175330727661e+00 1.4852089324942238e+01 3.5801797550638014e+01 -3 -1 -1
5110 1 4.2412425195972210e+00 2.2806606406919472e+00 3.8850050271465349e+01 1 0 -1
478 1 1.4426998947089926e+00 7.4781102098674053e+00 3.8606952540120346e+01 5 3 0
4776 1 9.7443075852642380e+00 1.2270577670440893e+01 3.5831026239599154e+01 3 -2 0
1341 1 8.5281182194419038e+00 1.5127073168267760e+01 3.9119722578868277e+01 -1 2 0
5302 1 5.4416320766413246e+00 5.1891598475036407e+00 3.6105172181996537e+01 3 -3 0
4582 1 8.1835002924842968e+00 4.8971972392408727e+00 3.6421187662592175e+01 0 -1 0
2834 1 4.3101064066000667e+00 7.6013376693887471e+00 3.9203251929669833e+01 -2 -7 -1
5172 1 4.4012120616283763e+00 1.2419518857853033e+01 3.6221227320336240e+01 4 -4 0
3558 1 1.7670820159855335e-01 1.0198147744273912e+01 3.6202537218478483e+01 2 1 -1
5317 1 1.2936238398987290e+00 1.2825237599120824e+01 3.5860646825931966e+01 2 -3 0
1880 1 6.0423809523350895e+00 1.0119838736830429e+01 3.6255124554961327e+01 0 0 -1
4756 1 8.7251757646417047e+00 9.8783924357549697e+00 3.6674010372602751e+01 0 -2 0
1310 1 9.5868149850788189e+00 7.3854612044695322e+00 3.6071110124557450e+01 0 -2 0
2804 1 7.9784858100525353e+00 4.9023190256325089e+00 3.9272670357021482e+01 2 1 0
3318 1 5.9476456015373094e+00 1.0152483392192480e+01 3.9133706641790695e+01 4 3 -1
259 1 5.8161304939828007e-01 1.4733823972621254e+01 3.9263543457539498e+01 -3 -1 -1
4781 1 1.1585416409049729e+00 1.6117264188885740e+00 4.2294143093145891e+01 0 0 0
27 1 6.2811167360310103e+00 1.9124279088947249e+00 4.2993121135535660e+01 4 -2 0
2024 1 8.9751956473424510e+00 2.0111864276670057e+00 4.2467555597078700e+01 -1 -1 -1
3692 1 8.7874587553281316e+00 1.5068231457215349e+01 4.6782569249530397e+01 3 0 0
1753 1 2.5790097122028519e+00 4.0193576727389217e+00 4.2945745909551704e+01 3 0 -1
1962 1 7.9028862984142068e-01 6.2987038479073965e+00 4.1871865449981996e+01 0 -2 -1
372 1 5.0703930111195250e+00 4.1433551952904031e+00 4.1935046991980883e+01 4 0 0
4546 1 6.1646018992499236e+00 6.4246574910193761e+00 4.2961439550934557e+01 -2 1 0
4767 1 8.7858978963803587e+00 6.4959389473260876e+00 4.2078420616424197e+01 3 -2 0
4442 1 1.9655272871509688e+00 8.4968119769639827e+00 4.2610850428745294e+01 2 1 0
2863 1 8.1753283267832488e-01 1.0626704588515866e+01 4.2119680282759035e+01 -1 -4 0
6034 1 4.6119997045551226e+00 8.4238764568184870e+00 4.1702876343896506e+01 1 3 0
6225 1 8.6414928443530687e+00 1.0562407809602549e+01 4.2419628897798702e+01 2 2 -1
1612 1 6.2008797066118460e+00 1.0368730550329701e+01 4.2998193465831946e+01 1 0 0