LAMMPS data file via write_data, version 16 Mar 2018, timestep = 100000

4990 atoms
2 atom types

0.0000000000000000e+00 4.9219999999999999e+01 xlo xhi
0.0000000000000000e+00 4.9019635930410494e+01 ylo yhi
2.0386769726864742e+00 3.7961323027314307e+01 zlo zhi

Masses

1 18.015
2 12.01

Atoms # atomic

1376 1 3.1685264190097455e+00 7.0289597094016976e-01 2.6833022805385887e+00 0 1 0
4333 1 4.6604637001487106e+00 4.3309054937044095e-01 7.2162494832196007e+00 0 0 0
2242 1 1.3115537103787911e+00 5.1941190080637023e+00 1.0563928475126229e+01 1 0 1
2723 1 2.1264507906119956e+00 7.5950791194056300e-01 7.5476368924982316e+00 1 0 0
3043 1 1.2277126296925628e+01 3.4585202665467469e+00 2.5560741203704795e+00 0 0 1
176 1 6.2042438341630719e+00 4.7015999749874249e-01 9.5138677322971450e+00 0 0 0
1021 1 1.0462588467832056e+01 3.8236009075191184e+00 4.7709148041330867e+00 0 1 0
4360 1 4.4101126372686519e+00 8.1043110754018901e+00 4.0140643211971234e+00 0 2 1
3392 1 2.0131736648379088e+00 3.3121609314115323e+00 6.2044701507752977e+00 1 1 0
1855 1 2.9905003016922977e+00 6.0279400154506240e+00 5.3659785558405622e+00 0 1 -1
2185 1 6.9744170445372671e+00 8.4198238192258152e+00 5.3978974988242179e+00 1 0 1
2541 1 6.5092679994779221e+00 3.5081621948000978e+00 4.4384814504455399e+00 0 0 0
3058 1 5.9606495435771620e+00 2.8153366383696121e+00 6.9768988318722798e+00 0 0 1
1832 1 1.1099085036706436e+01 6.9868058445034755e+00 5.0680772695559266e+00 1 0 0
2954 1 7.0112705997129616e+00 1.1075927139859065e+01 3.6986436539075331e+00 0 0 1
4540 1 1.2617957102973629e+00 1.2154602074130514e+01 7.7142994196371664e+00 -1 1 0
3772 1 1.1945313993296111e+01 5.9269686849392338e+00 7.5903583127293777e+00 0 1 1
3751 1 8.7710232787010582e+00 3.4889796419274597e+00 7.2955841964011912e+00 2 1 1
2552 1 8.6474949533264276e+00 1.1610925262550529e+01 6.0170488524400358e+00 0 1 1
3761 1 8.4933959255433606e+00 6.4295118249717236e+00 4.1255252053849887e+00 0 0 0
81 1 9.7025952710542622e+00 1.0460095723406654e+01 9.8753561001593972e+00 0 0 0
1395 1 1.2642117389334395e+00 2.0801288933722706e+00 9.8833347642557214e+00 0 0 1
1333 1 1.9960659627415009e+00 8.0619209699791501e+00 1.0151191893987546e+01 1 0 0
495 1 1.2068663542894518e+01 1.1549884720016298e+01 3.4065639448666554e+00 2 0 1
2074 1 1.1040461243225590e+01 9.9707890998005819e+00 5.8194844812970352e+00 1 1 0
3740 1 1.1924690684814436e+01 1.0369134332383755e+01 8.3457059555822539e+00 0 0 0
4276 1 4.8980321345585649e+00 4.9946346850823407e+00 7.6830588694871604e+00 0 0 0
4265 1 9.5859617974969513e+00 5.7772307032035988e+00 8.8280632631194500e+00 1 0 1
3707 1 3.9891334677994483e+00 1.1110489639452725e+01 3.9645438619641680e+00 2 0 1
361 1 7.4440697455197935e-01 7.4836276132803112e+00 6.2914206375655892e+00 1 1 0
4191 1 8.7100484982518722e+00 1.9112325494635773e+00 3.2565306588642806e+00 0 0 0
4683 1 3.1723325687328545e+00 8.3585544251933683e+00 7.6365768140702697e+00 1 0 0
4608 1 7.0195275081198591e+00 7.0634400051056891e+00 8.2815560614399431e+00 0 0 1
537 1 3.3416065353706093e+00 1.0636820528595386e+01 6.6884378276396079e+00 -1 1 1
2155 1 5.8073963068747403e-02 1.0183083958483039e+01 6.0082464510848048e+00 -1 0 1
4322 1 9.6733230625241138e+00 1.0181112272636897e+01 2.5738054913984625e+00 0 -1 0
4253 1 1.0379478373928706e+01 1.2611407316530387e+00 7.3125496213810539e+00 1 -1 0
406 1 1.2938223546437022e+00 9.5443851466966461e+00 3.5244673065421690e+00 1 0 2
82 1 7.4404790189903931e+00 1.0054495836214976e+01 7.9979920197094039e+00 0 1 -1
1030 1 2.4031494706710457e+00 3.2474742553474134e+00 3.1341214913745903e+00 1 1 1
418 1 4.2758138483303849e+00 4.5371198097338921e+00 1.0280949274585637e+01 1 1 1
482 1 1.4268223224113559e+00 1.1457343982201706e+01 1.0306753627190714e+01 0 1 1
4282 1 5.4099497775920549e+00 4.6804436703076180e-01 3.9613444560901128e+00 0 1 0
4568 1 5.3927613676561377e+00 1.1700111113755186e+01 8.5186218957800257e+00 1 -1 1
1875 1 3.2048822212116646e+00 6.3174837736271749e+00 2.0456430183324641e+00 0 0 1
1009 1 1.0550465727695750e+01 4.5535631425200416e+00 1.0985721620776490e+01 1 0 0
2578 1 9.3134498925313451e+00 7.9317499360614354e+00 1.1002467602847036e+01 0 1 1
4341 1 6.0940916277900126e+00 1.4007336667454351e+00 1.4693300941327218e+01 1 1 0
1 1 4.0080430087158332e+00 7.1059291196182368e+00 1.1822828222011536e+01 1 0 0
4697 1 6.6023922361294192e+00 8.4650083964913829e+00 1.1794276656410325e+01 0 0 0
2106 1 9.3987371481576734e+00 1.7688830681925176e+00 1.1464913619028422e+01 0 0 1
544 1 1.1975334291333686e+01 7.9099258170377718e-01 1.4149733041372773e+01 1 0 0
539 1 9.2983185242371817e+00 4.1651832927674324e+00 1.4474706460638386e+01 0 0 1
2973 1 9.9275839883133816e+00 1.2230624086621610e+01 1.4160771205502902e+01 1 1 1
929 1 1.2182229697781096e+01 5.7347310292581999e-01 1.1072703246682565e+01 1 1 0
2115 1 4.3481781195289777e+00 5.3600025741469626e+00 1.4818381007399603e+01 1 1 2
2598 1 1.1585844510204753e+01 5.8061784728685693e+00 1.4169438765548735e+01 0 1 1
373 1 7.0777134417390046e+00 1.1453537407008275e+01 1.1655476261679713e+01 1 0 1
1283 1 2.5052705662263559e+00 7.3994769442107966e+00 1.4058581350145893e+01 2 1 1
1235 1 7.0620900560183912e+00 5.5625553977054052e+00 1.3734821259131754e+01 0 0 0
3544 1 6.4826896800052562e+00 8.7809527670044254e+00 1.4479254304529091e+01 1 1 0
3030 1 1.8737870572560944e+00 4.4675562670135909e+00 1.3463830195676202e+01 1 0 1
262 2 8.6134999999999984e+00 9.2355835810918343e+00 1.6990396272254493e+01 0 0 0
89 1 9.0662984273462008e+00 7.7996720773489780e+00 1.4367951848263690e+01 1 1 1
307 2 1.1074500000000002e+01 1.0656442593567498e+01 1.6990396272254493e+01 0 0 0
999 1 1.2184339873352696e+01 7.8826707394301208e+00 1.1772471721250108e+01 0 0 0
1211 1 9.0273412809577316e+00 1.4201997591724549e+00 1.4000266234170443e+01 -1 1 2
3372 1 6.5911881993353729e+00 2.6455298507986451e+00 1.1955192638006356e+01 1 1 1
2911 1 3.6970645351087050e+00 1.0339659904701131e+01 1.3961593157466618e+01 2 1 1
3855 1 7.1543309602012606e+00 1.1400648514699650e+01 1.4414243078965354e+01 0 0 1
283 2 8.6134999999999984e+00 1.0656442593567498e+01 1.6990396272254493e+01 0 0 0
538 1 3.2218881011855953e+00 1.7601399083945388e+00 1.3803985847143453e+01 1 0 0
3467 1 1.1512256019251907e+01 9.6335038853401684e+00 1.4050133078126430e+01 0 0 0
973 1 4.0966938975320835e+00 1.0710391351872234e+01 1.1120258810017656e+01 0 1 1
193 2 0.0000000000000000e+00 2.8417180249513345e+00 1.6990396272254493e+01 0 0 0
194 2 0.0000000000000000e+00 0.0000000000000000e+00 1.6990396272254493e+01 0 0 0
195 2 1.2305000000000001e+00 7.1042950623783474e-01 1.6990396272254493e+01 0 0 0
199 2 1.2305000000000001e+00 2.1312885187134998e+00 1.6990396272254493e+01 0 0 0
200 2 2.4610000000000003e+00 2.8417180249513345e+00 1.6990396272254493e+01 0 0 0
201 2 2.4610000000000003e+00 0.0000000000000000e+00 1.6990396272254493e+01 0 0 0
202 2 3.6915000000000004e+00 7.1042950623783474e-01 1.6990396272254493e+01 0 0 0
210 2 3.6914999999999996e+00 2.1312885187134998e+00 1.6990396272254493e+01 0 0 0
211 2 4.9220000000000006e+00 2.8417180249513332e+00 1.6990396272254493e+01 0 0 0
212 2 4.9220000000000006e+00 0.0000000000000000e+00 1.6990396272254493e+01 0 0 0
213 2 6.1524999999999999e+00 7.1042950623783407e-01 1.6990396272254493e+01 0 0 0
225 2 6.1524999999999999e+00 2.1312885187134989e+00 1.6990396272254493e+01 0 0 0
226 2 7.3829999999999991e+00 2.8417180249513345e+00 1.6990396272254493e+01 0 0 0
227 2 7.3829999999999991e+00 0.0000000000000000e+00 1.6990396272254493e+01 0 0 0
228 2 8.6134999999999984e+00 7.1042950623783407e-01 1.6990396272254493e+01 0 0 0
244 2 8.6134999999999984e+00 2.1312885187135002e+00 1.6990396272254493e+01 0 0 0
245 2 9.8440000000000012e+00 2.8417180249513332e+00 1.6990396272254493e+01 0 0 0
246 2 9.8440000000000012e+00 0.0000000000000000e+00 1.6990396272254493e+01 0 0 0
247 2 1.1074500000000002e+01 7.1042950623783330e-01 1.6990396272254493e+01 0 0 0
267 2 1.1074500000000002e+01 2.1312885187135002e+00 1.6990396272254493e+01 0 0 0
197 2 0.0000000000000000e+00 4.2625770374269996e+00 1.6990396272254493e+01 0 0 0
198 2 1.2305000000000001e+00 4.9730065436648339e+00 1.6990396272254493e+01 0 0 0
206 2 1.2305000000000001e+00 6.3938655561404980e+00 1.6990396272254493e+01 0 0 0
208 2 2.4610000000000003e+00 4.2625770374269996e+00 1.6990396272254493e+01 0 0 0
209 2 3.6914999999999996e+00 4.9730065436648339e+00 1.6990396272254493e+01 0 0 0
221 2 3.6914999999999996e+00 6.3938655561404980e+00 1.6990396272254493e+01 0 0 0
196 2 0.0000000000000000e+00 7.1042950623783341e+00 1.6990396272254493e+01 0 0 0
207 2 2.4610000000000003e+00 7.1042950623783341e+00 1.6990396272254493e+01 0 0 0
223 2 4.9220000000000006e+00 4.2625770374269978e+00 1.6990396272254493e+01 0 0 0
224 2 6.1524999999999999e+00 4.9730065436648339e+00 1.6990396272254493e+01 0 0 0
240 2 6.1524999999999999e+00 6.3938655561404980e+00 1.6990396272254493e+01 0 0 0
242 2 7.3829999999999991e+00 4.2625770374269996e+00 1.6990396272254493e+01 0 0 0
222 2 4.9220000000000006e+00 7.1042950623783341e+00 1.6990396272254493e+01 0 0 0
241 2 7.3830000000000009e+00 7.1042950623783341e+00 1.6990396272254493e+01 0 0 0
243 2 8.6135000000000002e+00 4.9730065436648339e+00 1.6990396272254493e+01 0 0 0
263 2 8.6135000000000002e+00 6.3938655561404980e+00 1.6990396272254493e+01 0 0 0
265 2 9.8440000000000012e+00 4.2625770374270004e+00 1.6990396272254493e+01 0 0 0
266 2 1.1074500000000002e+01 4.9730065436648339e+00 1.6990396272254493e+01 0 0 0
287 2 1.1074500000000002e+01 6.3938655561404980e+00 1.6990396272254493e+01 0 0 0
264 2 9.8440000000000012e+00 7.1042950623783341e+00 1.6990396272254493e+01 0 0 0
204 2 0.0000000000000000e+00 8.5251540748539991e+00 1.6990396272254493e+01 0 0 0
205 2 1.2305000000000001e+00 9.2355835810918343e+00 1.6990396272254493e+01 0 0 0
219 2 2.4610000000000003e+00 8.5251540748539991e+00 1.6990396272254493e+01 0 0 0
220 2 3.6915000000000004e+00 9.2355835810918343e+00 1.6990396272254493e+01 0 0 0
203 2 0.0000000000000000e+00 1.1366872099805333e+01 1.6990396272254493e+01 0 0 0
217 2 1.2305000000000001e+00 1.0656442593567498e+01 1.6990396272254493e+01 0 0 0
218 2 2.4610000000000003e+00 1.1366872099805333e+01 1.6990396272254493e+01 0 0 0
236 2 3.6914999999999996e+00 1.0656442593567499e+01 1.6990396272254493e+01 0 0 0
239 2 6.1524999999999999e+00 9.2355835810918343e+00 1.6990396272254493e+01 0 0 0
261 2 7.3830000000000009e+00 8.5251540748539991e+00 1.6990396272254493e+01 0 0 0
237 2 4.9220000000000006e+00 1.1366872099805333e+01 1.6990396272254493e+01 0 0 0
260 2 7.3829999999999991e+00 1.1366872099805333e+01 1.6990396272254493e+01 0 0 0
238 2 4.9220000000000006e+00 8.5251540748539991e+00 1.6990396272254493e+01 0 0 0
259 2 6.1524999999999999e+00 1.0656442593567499e+01 1.6990396272254493e+01 0 0 0
285 2 9.8440000000000012e+00 8.5251540748539956e+00 1.6990396272254493e+01 0 0 0
308 2 1.2304999999999998e+01 1.1366872099805333e+01 1.6990396272254493e+01 0 0 0
284 2 9.8440000000000012e+00 1.1366872099805333e+01 1.6990396272254493e+01 0 0 0
286 2 1.1074500000000002e+01 9.2355835810918343e+00 1.6990396272254493e+01 0 0 0
4248 1 3.9700614259460254e+00 1.8060678707976519e+00 1.1290019816077086e+01 1 1 0
2091 1 6.8533419662652877e+00 5.2621152669583351e+00 1.1095937102584386e+01 1 0 1
549 2 0.0000000000000000e+00 1.4208590124756650e+00 2.0028076351356813e+01 0 0 0
550 2 0.0000000000000000e+00 0.0000000000000000e+00 2.0028076351356813e+01 0 0 0
554 2 1.2305000000000001e+00 2.1312885187134998e+00 2.0028076351356813e+01 0 0 0
555 2 2.4610000000000003e+00 1.4208590124756650e+00 2.0028076351356813e+01 0 0 0
556 2 2.4610000000000003e+00 0.0000000000000000e+00 2.0028076351356813e+01 0 0 0
564 2 3.6914999999999996e+00 2.1312885187134998e+00 2.0028076351356813e+01 0 0 0
710 2 0.0000000000000000e+00 2.8417180249513345e+00 2.3065756430461452e+01 0 0 0
711 2 0.0000000000000000e+00 0.0000000000000000e+00 2.3065756430461452e+01 0 0 0
712 2 1.2305000000000001e+00 7.1042950623783474e-01 2.3065756430461452e+01 0 0 0
716 2 1.2305000000000001e+00 2.1312885187134998e+00 2.3065756430461452e+01 0 0 0
717 2 2.4610000000000003e+00 2.8417180249513345e+00 2.3065756430461452e+01 0 0 0
718 2 2.4610000000000003e+00 0.0000000000000000e+00 2.3065756430461452e+01 0 0 0
719 2 3.6915000000000004e+00 7.1042950623783474e-01 2.3065756430461452e+01 0 0 0
727 2 3.6914999999999996e+00 2.1312885187134998e+00 2.3065756430461452e+01 0 0 0
553 2 1.2305000000000001e+00 3.5521475311891644e+00 2.0028076351356813e+01 0 0 0
563 2 3.6914999999999996e+00 3.5521475311891644e+00 2.0028076351356813e+01 0 0 0
565 2 4.9220000000000006e+00 1.4208590124756650e+00 2.0028076351356813e+01 0 0 0
566 2 4.9220000000000006e+00 0.0000000000000000e+00 2.0028076351356813e+01 0 0 0
578 2 6.1524999999999999e+00 2.1312885187134989e+00 2.0028076351356813e+01 0 0 0
579 2 7.3829999999999991e+00 1.4208590124756659e+00 2.0028076351356813e+01 0 0 0
580 2 7.3829999999999991e+00 0.0000000000000000e+00 2.0028076351356813e+01 0 0 0
728 2 4.9220000000000006e+00 2.8417180249513332e+00 2.3065756430461452e+01 0 0 0
729 2 4.9220000000000006e+00 0.0000000000000000e+00 2.3065756430461452e+01 0 0 0
730 2 6.1524999999999999e+00 7.1042950623783407e-01 2.3065756430461452e+01 0 0 0
742 2 6.1524999999999999e+00 2.1312885187134989e+00 2.3065756430461452e+01 0 0 0
743 2 7.3829999999999991e+00 2.8417180249513345e+00 2.3065756430461452e+01 0 0 0
744 2 7.3829999999999991e+00 0.0000000000000000e+00 2.3065756430461452e+01 0 0 0
577 2 6.1524999999999999e+00 3.5521475311891644e+00 2.0028076351356813e+01 0 0 0
596 2 8.6134999999999984e+00 2.1312885187135002e+00 2.0028076351356813e+01 0 0 0
597 2 9.8440000000000012e+00 1.4208590124756659e+00 2.0028076351356813e+01 0 0 0
598 2 9.8440000000000012e+00 0.0000000000000000e+00 2.0028076351356813e+01 0 0 0
618 2 1.1074500000000002e+01 2.1312885187135002e+00 2.0028076351356813e+01 0 0 0
745 2 8.6134999999999984e+00 7.1042950623783407e-01 2.3065756430461452e+01 0 0 0
761 2 8.6134999999999984e+00 2.1312885187135002e+00 2.3065756430461452e+01 0 0 0
762 2 9.8440000000000012e+00 2.8417180249513332e+00 2.3065756430461452e+01 0 0 0
763 2 9.8440000000000012e+00 0.0000000000000000e+00 2.3065756430461452e+01 0 0 0
764 2 1.1074500000000002e+01 7.1042950623783330e-01 2.3065756430461452e+01 0 0 0
784 2 1.1074500000000002e+01 2.1312885187135002e+00 2.3065756430461452e+01 0 0 0
595 2 8.6134999999999984e+00 3.5521475311891657e+00 2.0028076351356813e+01 0 0 0
617 2 1.1074500000000002e+01 3.5521475311891644e+00 2.0028076351356813e+01 0 0 0
551 2 0.0000000000000000e+00 5.6834360499026637e+00 2.0028076351356813e+01 0 0 0
552 2 0.0000000000000000e+00 4.2625770374269996e+00 2.0028076351356813e+01 0 0 0
560 2 1.2305000000000001e+00 6.3938655561404980e+00 2.0028076351356813e+01 0 0 0
561 2 2.4610000000000003e+00 5.6834360499026637e+00 2.0028076351356813e+01 0 0 0
562 2 2.4610000000000003e+00 4.2625770374269996e+00 2.0028076351356813e+01 0 0 0
574 2 3.6914999999999996e+00 6.3938655561404980e+00 2.0028076351356813e+01 0 0 0
714 2 0.0000000000000000e+00 4.2625770374269996e+00 2.3065756430461452e+01 0 0 0
715 2 1.2305000000000001e+00 4.9730065436648339e+00 2.3065756430461452e+01 0 0 0
723 2 1.2305000000000001e+00 6.3938655561404980e+00 2.3065756430461452e+01 0 0 0
725 2 2.4610000000000003e+00 4.2625770374269996e+00 2.3065756430461452e+01 0 0 0
726 2 3.6914999999999996e+00 4.9730065436648339e+00 2.3065756430461452e+01 0 0 0
738 2 3.6914999999999996e+00 6.3938655561404980e+00 2.3065756430461452e+01 0 0 0
559 2 1.2305000000000001e+00 7.8147245686161639e+00 2.0028076351356813e+01 0 0 0
573 2 3.6914999999999996e+00 7.8147245686161639e+00 2.0028076351356813e+01 0 0 0
713 2 0.0000000000000000e+00 7.1042950623783341e+00 2.3065756430461452e+01 0 0 0
724 2 2.4610000000000003e+00 7.1042950623783341e+00 2.3065756430461452e+01 0 0 0
575 2 4.9220000000000006e+00 5.6834360499026637e+00 2.0028076351356813e+01 0 0 0
576 2 4.9220000000000006e+00 4.2625770374269978e+00 2.0028076351356813e+01 0 0 0
592 2 6.1524999999999999e+00 6.3938655561404980e+00 2.0028076351356813e+01 0 0 0
593 2 7.3829999999999991e+00 5.6834360499026637e+00 2.0028076351356813e+01 0 0 0
594 2 7.3829999999999991e+00 4.2625770374269996e+00 2.0028076351356813e+01 0 0 0
740 2 4.9220000000000006e+00 4.2625770374269978e+00 2.3065756430461452e+01 0 0 0
741 2 6.1524999999999999e+00 4.9730065436648339e+00 2.3065756430461452e+01 0 0 0
757 2 6.1524999999999999e+00 6.3938655561404980e+00 2.3065756430461452e+01 0 0 0
759 2 7.3829999999999991e+00 4.2625770374269996e+00 2.3065756430461452e+01 0 0 0
591 2 6.1524999999999999e+00 7.8147245686161639e+00 2.0028076351356813e+01 0 0 0
739 2 4.9220000000000006e+00 7.1042950623783341e+00 2.3065756430461452e+01 0 0 0
758 2 7.3830000000000009e+00 7.1042950623783341e+00 2.3065756430461452e+01 0 0 0
614 2 8.6135000000000002e+00 6.3938655561404980e+00 2.0028076351356813e+01 0 0 0
615 2 9.8440000000000012e+00 5.6834360499026637e+00 2.0028076351356813e+01 0 0 0
616 2 9.8440000000000012e+00 4.2625770374270004e+00 2.0028076351356813e+01 0 0 0
637 2 1.1074500000000002e+01 6.3938655561404980e+00 2.0028076351356813e+01 0 0 0
760 2 8.6135000000000002e+00 4.9730065436648339e+00 2.3065756430461452e+01 0 0 0
780 2 8.6135000000000002e+00 6.3938655561404980e+00 2.3065756430461452e+01 0 0 0
782 2 9.8440000000000012e+00 4.2625770374270004e+00 2.3065756430461452e+01 0 0 0
783 2 1.1074500000000002e+01 4.9730065436648339e+00 2.3065756430461452e+01 0 0 0
804 2 1.1074500000000002e+01 6.3938655561404980e+00 2.3065756430461452e+01 0 0 0
613 2 8.6135000000000002e+00 7.8147245686161639e+00 2.0028076351356813e+01 0 0 0
636 2 1.1074500000000002e+01 7.8147245686161639e+00 2.0028076351356813e+01 0 0 0
781 2 9.8440000000000012e+00 7.1042950623783341e+00 2.3065756430461452e+01 0 0 0
557 2 0.0000000000000000e+00 9.9460130873296642e+00 2.0028076351356813e+01 0 0 0
558 2 0.0000000000000000e+00 8.5251540748539991e+00 2.0028076351356813e+01 0 0 0
571 2 2.4610000000000003e+00 9.9460130873296642e+00 2.0028076351356813e+01 0 0 0
572 2 2.4610000000000003e+00 8.5251540748539991e+00 2.0028076351356813e+01 0 0 0
721 2 0.0000000000000000e+00 8.5251540748539991e+00 2.3065756430461452e+01 0 0 0
722 2 1.2305000000000001e+00 9.2355835810918343e+00 2.3065756430461452e+01 0 0 0
736 2 2.4610000000000003e+00 8.5251540748539991e+00 2.3065756430461452e+01 0 0 0
737 2 3.6915000000000004e+00 9.2355835810918343e+00 2.3065756430461452e+01 0 0 0
569 2 1.2305000000000001e+00 1.2077301606043163e+01 2.0028076351356813e+01 0 0 0
570 2 1.2305000000000001e+00 1.0656442593567498e+01 2.0028076351356813e+01 0 0 0
587 2 3.6914999999999996e+00 1.2077301606043163e+01 2.0028076351356813e+01 0 0 0
588 2 3.6914999999999996e+00 1.0656442593567499e+01 2.0028076351356813e+01 0 0 0
720 2 0.0000000000000000e+00 1.1366872099805333e+01 2.3065756430461452e+01 0 0 0
734 2 1.2305000000000001e+00 1.0656442593567498e+01 2.3065756430461452e+01 0 0 0
735 2 2.4610000000000003e+00 1.1366872099805333e+01 2.3065756430461452e+01 0 0 0
753 2 3.6914999999999996e+00 1.0656442593567499e+01 2.3065756430461452e+01 0 0 0
589 2 4.9220000000000006e+00 9.9460130873296642e+00 2.0028076351356813e+01 0 0 0
590 2 4.9220000000000006e+00 8.5251540748539991e+00 2.0028076351356813e+01 0 0 0
611 2 7.3830000000000009e+00 9.9460130873296642e+00 2.0028076351356813e+01 0 0 0
612 2 7.3830000000000009e+00 8.5251540748539991e+00 2.0028076351356813e+01 0 0 0
755 2 4.9220000000000006e+00 8.5251540748539991e+00 2.3065756430461452e+01 0 0 0
756 2 6.1524999999999999e+00 9.2355835810918343e+00 2.3065756430461452e+01 0 0 0
778 2 7.3830000000000009e+00 8.5251540748539991e+00 2.3065756430461452e+01 0 0 0
609 2 6.1524999999999999e+00 1.2077301606043163e+01 2.0028076351356813e+01 0 0 0
610 2 6.1524999999999999e+00 1.0656442593567499e+01 2.0028076351356813e+01 0 0 0
754 2 4.9220000000000006e+00 1.1366872099805333e+01 2.3065756430461452e+01 0 0 0
776 2 6.1524999999999999e+00 1.0656442593567499e+01 2.3065756430461452e+01 0 0 0
777 2 7.3829999999999991e+00 1.1366872099805333e+01 2.3065756430461452e+01 0 0 0
634 2 9.8440000000000012e+00 9.9460130873296642e+00 2.0028076351356813e+01 0 0 0
635 2 9.8440000000000012e+00 8.5251540748539956e+00 2.0028076351356813e+01 0 0 0
779 2 8.6134999999999984e+00 9.2355835810918343e+00 2.3065756430461452e+01 0 0 0
802 2 9.8440000000000012e+00 8.5251540748539956e+00 2.3065756430461452e+01 0 0 0
803 2 1.1074500000000002e+01 9.2355835810918343e+00 2.3065756430461452e+01 0 0 0
632 2 8.6135000000000002e+00 1.2077301606043163e+01 2.0028076351356813e+01 0 0 0
633 2 8.6134999999999984e+00 1.0656442593567498e+01 2.0028076351356813e+01 0 0 0
655 2 1.1074500000000002e+01 1.2077301606043163e+01 2.0028076351356813e+01 0 0 0
656 2 1.1074500000000002e+01 1.0656442593567498e+01 2.0028076351356813e+01 0 0 0
800 2 8.6134999999999984e+00 1.0656442593567498e+01 2.3065756430461452e+01 0 0 0
801 2 9.8440000000000012e+00 1.1366872099805333e+01 2.3065756430461452e+01 0 0 0
824 2 1.1074500000000002e+01 1.0656442593567498e+01 2.3065756430461452e+01 0 0 0
825 2 1.2304999999999998e+01 1.1366872099805333e+01 2.3065756430461452e+01 0 0 0
2045 1 3.0148381302796698e+00 7.2169914205289998e-01 2.5738827435675059e+01 1 0 0
480 1 2.7897552071294771e+00 3.2965051641202043e+00 2.5871205412256469e+01 0 0 -1
4586 1 1.0437392720418186e+01 8.7625581465768771e+00 2.6534746554215019e+01 1 -1 0
1753 1 2.2549920298548782e+00 4.1961293090429583e+00 2.8629484720516526e+01 0 0 -1
467 1 8.3665346819160256e+00 2.2788223606132409e+00 2.5539168074473999e+01 1 1 -1
974 1 1.0784248723207501e+01 1.1371424464418709e+01 2.6001293908657956e+01 -1 1 0
145 1 1.0028697327464188e+01 2.9736715580804945e-01 2.6319659586800100e+01 1 1 -1
3455 1 1.2232979154012941e+01 4.8201664229221111e+00 2.5349099798598381e+01 1 1 -1
2934 1 2.1736768641509689e+00 8.1866597190385839e+00 2.6180349824053906e+01 0 1 0
11 1 5.9264247208720828e+00 2.1466251451105772e-01 2.5408214390857726e+01 0 1 -1
964 1 3.5398170059586427e+00 6.7755145340865344e+00 2.7847813190744656e+01 1 0 -1
1396 1 6.8346018599449954e+00 3.8813751233906895e+00 2.8265933373484295e+01 -1 1 -1
2945 1 5.4894914959481103e+00 4.5366163419124623e+00 2.5980963715938856e+01 0 1 -1
478 1 5.3935113496244398e+00 7.2786189020049612e+00 2.5847242335393187e+01 0 0 0
3023 1 9.4932326953381150e+00 5.3395139331919665e+00 2.8638521169962033e+01 -1 0 0
25 1 7.5265384421069976e+00 7.4350643583773639e+00 2.8443172151407374e+01 0 0 0
1719 1 9.6719834935468718e+00 4.6168155612543735e+00 2.6085887833460664e+01 0 0 -1
40 1 8.3989849662478573e+00 7.2332545856626576e+00 2.5630483159757123e+01 0 0 -1
1879 1 4.0242683581279612e+00 1.0353470007316487e+01 2.5370054409951663e+01 1 0 0
3853 1 1.1260923898717945e+00 9.8576923074181799e+00 2.8446394710581728e+01 1 0 0
4686 1 3.6196601133351713e-01 4.1319986955811601e+00 2.5165627260797262e+01 -1 0 0
4596 1 6.6583911561569620e+00 1.0398469356807125e+01 2.6236428256260812e+01 0 2 0
2989 1 7.0619240395259482e+00 1.1349487731921544e+00 2.7919020758623621e+01 1 0 -1
431 1 1.0775665496893570e+01 6.0403291368140417e+00 3.3719869559561722e+01 1 1 -1
2169 1 1.1546719005748189e+01 6.4112778480482135e-01 3.3370690776955840e+01 1 0 0
3040 1 3.9156766331080308e+00 8.2440445468658208e+00 3.2956808579114444e+01 1 -1 -1
3814 1 5.3837295810253138e+00 1.0219662726943129e+01 3.4805197116976792e+01 1 1 0
3485 1 5.7478498505046947e+00 1.3440203542624534e+00 3.0645817690605156e+01 0 1 -1
3352 1 4.8447319696811331e+00 4.6739834608762401e+00 2.9989575076346075e+01 0 2 0
2176 1 2.9767795067070959e+00 9.2815377947202364e+00 3.7043051048492394e+01 2 0 0
174 1 9.2604652709426798e+00 2.5757343976071296e+00 3.2974203691783600e+01 0 0 0
4665 1 9.8538069630635743e+00 2.7353750450241296e+00 3.0136731661527008e+01 1 0 0
1873 1 1.0112838316356383e+01 3.0315467173959014e+00 3.6990282894097760e+01 -1 1 0
1869 1 5.7359027820839330e+00 9.0119896277472762e+00 3.7605586398263966e+01 0 0 -1
2996 1 2.2103733066229267e+00 5.6126119304968265e+00 3.2755736258078009e+01 0 0 0
3884 1 8.5849005717191176e+00 7.5294502837137705e+00 3.7514346629045001e+01 1 0 -1
2053 1 5.0310669359849616e+00 3.7582881881490002e+00 3.2825026468806108e+01 1 -1 0
1788 1 7.1162963767879992e+00 9.2726396708254093e+00 3.2700942405436280e+01 1 0 -1
167 1 5.5213400201586191e+00 7.3787580504468595e+00 3.0609291673571473e+01 0 1 -1
1715 1 8.9451061745989016e+00 5.0085792509164699e+00 3.5607742438674123e+01 1 0 -1
1380 1 8.9507118718448773e+00 5.3947522597127264e+00 3.1858099811161498e+01 1 -1 0
3470 1 9.7522298359694091e+00 9.4513725996921014e+00 2.9082142855331842e+01 0 0 0
3422 1 1.0568128608026550e+01 8.1987519322358740e+00 3.5523798517491812e+01 0 1 -1
2141 1 3.7783560537252989e+00 9.3857104223556700e+00 2.9888274253414881e+01 0 1 0
3443 1 5.9828816625600467e+00 6.1764752926463302e+00 3.6307616012007529e+01 0 0 -1
1342 1 1.1042731715088314e+01 7.6989785323150741e+00 3.0871538590929866e+01 1 0 1
3473 1 1.0043311864466917e+01 9.9309151995427953e+00 3.2990908030266155e+01 1 0 -1
2143 1 9.7300344050561201e+00 1.2014622450130894e+01 3.1379423040866140e+01 0 1 0
1860 1 1.0860806605858393e+00 2.1384591005750631e+00 3.5292642626864655e+01 1 0 -1
1388 1 3.0936009776800870e+00 1.7030897154026980e+00 3.0089323868257402e+01 1 0 0
3435 1 6.9783691107213341e+00 1.3466023509414355e+00 3.3210823745925069e+01 1 1 -1
488 1 5.6264983119149559e+00 1.8989111842729607e+00 3.5841260197955300e+01 1 0 0
3365 1 3.2674095686115749e+00 5.0990720485763519e-01 3.6077182225406624e+01 1 0 -1
2122 1 6.5916954307972677e+00 6.0278130790990625e+00 3.3212647269690279e+01 0 1 -1
1008 1 9.9797605530018014e+00 1.0927191757458679e+01 3.6021616410395133e+01 0 -1 0
3796 1 1.9094510134722771e+00 7.7917639436170880e+00 3.4890142926546247e+01 1 0 0
3069 1 4.5861154522247743e-01 5.9314835899697291e+00 3.0744979426593503e+01 0 -1 0
2591 1 2.1846422536593728e+00 1.0801997339482778e+01 3.2036779077902970e+01 0 -1 -1
4327 1 5.3735124742025722e+00 1.1184755392776623e+01 3.1373075927775062e+01 0 0 -1
1745 1 4.9052202943648053e+00 3.8739317178733979e+00 3.7750173502119722e+01 0 0 0
1034 1 2.3080139630952408e+00 2.8652828875335596e+00 3.2999409743058891e+01 -1 0 0
2730 1 7.0965420084730662e+00 3.7735544671335919e-01 3.7593117944237193e+01 0 1 0
9 1 5.7945741990830790e-01 1.1975260995548741e+01 3.7678941990693950e+01 0 0 0
1702 1 6.9432465896801254e+00 1.0442687757642021e+01 2.9003222703492860e+01 0 1 -1
4241 1 9.4715114102183922e+00 2.6631505922067611e-01 2.9211345637603134e+01 -1 0 0
111 1 6.5688297227772807e-02 9.6119944033845854e+00 3.3619754462619639e+01 -1 1 0
4632 1 7.4592884029856750e+00 1.2198054851202839e+01 3.5283418723910465e+01 0 1 -1
4669 1 1.0540227166841021e-01 1.2176258745906415e+01 3.0973685459176679e+01 1 -1 0
2539 1 1.7226536466462188e+00 3.7816157870715017e-02 3.2021768921300847e+01 1 1 0
464 1 7.5613094203471198e-01 1.2924400634382344e+01 4.5989205006575986e+00 1 1 1
2924 1 1.7687963238917375e+00 2.4295653240137483e+01 8.8841988098151781e+00 1 0 1
3465 1 3.6524578599292905e+00 1.3700515051678392e+01 4.9642581447145151e+00 1 0 0
2708 1 4.6280457279402922e+00 1.8195840454519512e+01 9.3263279717043073e+00 0 0 -1
3001 1 1.1835226930463165e+01 1.9598812534944720e+01 8.6623747049778856e+00 0 0 1
4676 1 8.1770121782680611e+00 1.4744826062590283e+01 6.9812401245643798e+00 1 1 1
2908 1 9.3894107296382572e+00 1.3256441260197624e+01 3.1961933888562188e+00 1 0 1
2630 1 1.1346587623507315e+01 1.6565900054639009e+01 4.6188214259030707e+00 0 0 0
2687 1 4.0547751894238893e+00 1.9498650063262243e+01 3.7311383067553305e+00 1 0 0
1762 1 4.4612108296032833e+00 1.5283221207072382e+01 3.0218694363655687e+00 1 0 1
1824 1 5.2458737345954729e+00 2.3077601211054937e+01 1.0605985407266445e+01 1 0 0
4646 1 1.3112673149392726e+00 2.1281483009260182e+01 5.5386781845193349e+00 1 1 2
1250 1 9.4700463976371125e+00 1.8567150092754542e+01 3.8172153556937891e+00 1 1 2
471 1 1.0846820566793800e+00 1.9699533606721413e+01 3.3307108530123974e+00 0 0 0
4597 1 3.6195135365193485e+00 2.2812275308832437e+01 4.7976118447911080e+00 0 0 1
138 1 1.0632384708686690e+01 1.4035833500724847e+01 5.8818816334052570e+00 0 0 1
3510 1 5.8931999015685816e+00 2.1686466159323178e+01 3.7104055031906711e+00 1 1 -1
4642 1 7.9998054955649405e+00 2.2422863761422096e+01 5.1758975164195782e+00 0 0 0
1348 1 1.1225343568525778e+01 2.0413999535556233e+01 3.2901867319531894e+00 0 0 1
414 1 9.2629179727417217e+00 2.4061187809154259e+01 2.8488038221749221e+00 1 0 0
2615 1 8.6803087365819671e+00 1.9629536984384153e+01 1.0520939905922603e+01 1 1 1
1803 1 3.5245653228641158e+00 1.5837499713209262e+01 8.9517402633502741e+00 0 0 0
3424 1 1.1390079031456977e+00 1.7231140915660763e+01 8.0377438604289058e+00 2 0 0
986 1 5.4395347551185864e+00 1.4161049441477472e+01 7.0618943151809752e+00 1 -1 1
3821 1 7.4477422578099990e+00 1.6737571300191764e+01 5.2321656332043647e+00 0 1 1
4672 1 2.0403743136150569e+00 1.6184410179706752e+01 5.6200173424371309e+00 1 1 1
3819 1 9.2710647669044786e+00 1.7402460825270758e+01 8.2140439077096161e+00 0 0 1
2952 1 4.4320830679320835e+00 1.7463110043853355e+01 5.4264870771188125e+00 1 0 0
2876 1 1.3521176741136667e+00 2.1721395928742869e+01 9.3322706598221252e+00 0 -1 0
3746 1 9.9864648761889239e+00 2.1529122359926443e+01 7.3423967254798645e+00 1 0 1
394 1 8.0290367750082829e+00 1.9418607387428430e+01 6.5692669963724972e+00 1 0 0
2595 1 1.2030029683154048e+01 2.1459067117535920e+01 5.6502070378664682e+00 0 0 0
904 1 1.1754857352343153e+01 1.6895634978955677e+01 7.4806941132761082e+00 0 -1 0
1823 1 5.4018418445206082e+00 1.9840914315854018e+01 7.2599645747564630e+00 0 0 0
2953 1 5.2751799803048538e+00 2.2643463529806489e+01 7.8633015971052300e+00 0 1 1
74 1 2.3316046503536328e-01 1.9972657883243976e+01 7.5336536075848377e+00 1 0 0
877 1 9.7752882715852909e+00 2.3515707620280821e+01 9.5687520888145450e+00 1 0 0
3851 1 7.1196728602803594e+00 2.4238147871401942e+01 6.7124995185197971e+00 1 0 1
377 1 7.6135916830720483e+00 1.5518602265197401e+01 2.5779586820102436e+00 0 0 1
112 1 1.0620185785054682e+01 1.5944625596835422e+01 1.0626856028721456e+01 0 1 0