LAMMPS data file via write_data, version 16 Mar 2018, timestep = 100000

6768 atoms
2 atom types

2.4786468188375110e-01 4.8972135318115761e+01 xlo xhi
2.4685567789485319e-01 4.8772780252514977e+01 ylo yhi
-7.2566414595805284e-01 6.0787664145957976e+01 zlo zhi

Masses

1 18.015
2 12.01

Atoms # atomic

22 1 4.3438804906409993e+00 4.5039916827623232e+00 5.1121213590537540e-01 1 1 1
5547 1 2.6555801274272861e+00 2.1902217227572178e+00 7.7681487774187996e-01 0 0 0
218 1 7.3623049583988234e+00 1.6984958349333723e+00 1.4470284833726224e+00 -1 0 0
1919 1 6.5883781649799671e+00 4.4145211345767494e+00 1.9108944805313528e+00 1 -1 0
1390 1 1.1042811593266382e+01 2.9473559578353745e+00 2.0390692983651721e+00 0 0 1
6657 1 9.5698383299419465e+00 1.1243462317578952e+00 2.9606990544149365e+00 1 0 1
3586 1 1.4882919510110767e+01 1.2688867537241684e+00 2.3399422464480795e+00 0 0 0
2074 1 2.4628884721356687e+00 6.6919313084045831e+00 8.3938415647920062e-01 0 0 0
6516 1 7.7642527635605472e+00 6.1177042171247589e+00 -5.8319732277760328e-02 1 -1 1
6406 1 1.5111234674321368e+01 1.7863102349680521e+01 3.8376840259661131e+00 0 -1 1
2233 1 1.0389457977723875e+01 5.0058582654459132e+00 -7.7441949520988818e-03 1 1 0
1577 1 1.3721531445839739e+01 3.1714175174324204e+00 9.6864139183469145e-01 1 2 1
3204 1 1.4059558516314171e+01 5.6932675591497359e+00 -7.7501942477484986e-02 0 1 1
1619 1 1.5932592359802561e+01 9.1399837561340611e+00 7.6248678695415499e+00 0 0 1
4840 1 3.7959023332798374e+00 9.9384470954483888e+00 1.2131529580235132e+00 0 -1 1
1983 1 1.2633261643539628e+00 9.7290888884400140e+00 2.5690608666521526e+00 1 0 0
604 1 8.2575805656547612e+00 2.2626517464634880e+01 9.4872544634632572e+00 -1 -1 1
2128 1 6.2945914837538739e+00 9.5804877185221446e+00 1.9378233056404848e+00 1 0 0
1899 1 9.2995818406696547e+00 1.2521706087964890e+00 5.8303547530440518e+00 0 1 0
5171 1 1.2128070178380452e+00 1.3742373188848174e+00 7.5549383380212038e+00 1 1 0
1988 1 1.3381516418596158e+00 1.9809365980755519e+01 5.1849994394787569e+00 1 0 0
5575 1 1.5324043779815533e+01 1.1744126198412470e+01 2.3270156766360226e+00 0 0 1
452 1 3.4387146276303882e+00 1.2241968875115081e+01 2.7602005380056402e+00 0 0 1
6622 1 8.2253431323833548e-01 1.3109253449926259e+01 3.6868457611300700e+00 -1 2 1
6447 1 7.4316245538265191e+00 1.1819593236735775e+01 1.1976734946079324e+00 0 0 1
6606 1 7.0924019364588098e+00 1.4448077097255885e+01 2.6120957935694280e+00 -1 1 1
1989 1 8.5592972273078054e+00 1.6281639292481991e+01 9.6627420199384129e-01 1 0 0
1770 1 1.0139045989474283e+01 1.2328636389850807e+01 1.6084096949565154e+00 0 0 1
3373 1 1.0846855090662087e+01 1.4635419780500490e+01 2.2739016787206134e+00 0 0 1
1847 1 1.3257279341512852e+01 1.5244127543277905e+01 1.3631548329189513e+00 0 -1 1
5124 1 1.4764776817946000e+01 1.3154711453943714e+01 -4.8623030540541401e-02 1 1 1
4735 1 6.4192474253523484e+00 1.7327099961590342e+01 1.1574987096159649e+01 -1 1 0
278 1 4.8973514216632168e+00 1.8600625208599318e+01 3.9968965280971025e-01 1 -1 0
269 1 4.4527519690480393e+00 1.4467787718595535e+01 1.3094230677817476e+00 0 -1 0
6724 1 3.0709475875427974e+00 1.6740564106213185e+01 1.1785137239215984e+00 1 0 1
3351 1 1.2804743183690340e+01 1.9775299283205204e+01 3.7926544172396737e-01 1 0 0
3443 1 6.0644271094545834e+00 1.9725525950692479e+01 2.6675904323642636e+00 0 0 0
304 1 7.8584535778198141e+00 1.3034851182737771e+01 1.1357566820423152e+01 -1 0 0
1586 1 8.5476090240151255e+00 1.8680738364680398e+01 2.1345432756289431e+00 1 0 1
5467 1 9.7711359494036056e+00 2.0103819958840070e+01 5.2062269763794422e-01 0 0 0
1720 1 1.5692628210671552e+01 1.5896352108479759e+01 1.1533384890895272e+01 -1 -1 0
5038 1 1.3146814441163095e+01 1.9130550800687026e+01 6.4928917005438622e+00 0 1 1
1870 1 3.9117263068918002e+00 2.2798573787568536e+01 2.5667522813928600e-01 -1 0 0
2264 1 2.7353207978444019e+00 2.0913499114156128e+01 1.7052156150820994e+00 0 0 1
228 1 7.1541396199041065e+00 2.2319867301535339e+01 2.9875032178420571e+00 0 1 0
6390 1 1.0319365173524455e+01 1.1384901439408523e+01 1.0717476312383345e+01 1 0 1
3227 1 9.8508694928355975e+00 2.2648659278125326e+01 1.4863419080802442e+00 1 -1 0
3499 1 1.1040344900703897e+01 2.2734669475484171e+01 4.0640416510854509e+00 0 -1 0
6441 1 1.6028972630441672e+01 7.6116169970318381e+00 9.7408459964227205e+00 -1 0 1
5472 1 1.6038852949715132e+00 2.3679840157743119e+00 3.5428138193500294e+00 0 1 0
3344 1 3.8177756580733613e-01 2.0660883945577954e+01 2.9039743518766836e-01 0 0 0
5390 1 5.1502238659901147e+00 1.6987107878690064e+00 5.8103972166564999e+00 1 1 0
1473 1 7.0445914357437127e+00 5.4201709159460645e+00 4.3006964905131229e+00 1 0 1
5194 1 1.1500975056086135e+01 4.3669840100997588e+00 4.1255257112985726e+00 1 0 1
164 1 1.1346537333885909e+01 1.4981377979576360e+00 7.7511441459261903e+00 0 0 0
2064 1 9.2609385481274629e+00 3.9037256158639915e+00 5.3141438926760571e+00 0 0 0
5282 1 8.8199307780530134e-01 1.5879016127417637e+01 9.2154844963729587e+00 1 1 0
3322 1 1.2867029597941338e+01 3.2304976972947221e+00 6.2073028789835769e+00 -1 0 1
387 1 1.6022765485515436e+01 2.7081650618346735e+00 8.3375174772175971e+00 0 0 0
2025 1 1.6694114721743389e+00 4.8729175470230315e+00 4.6910265680123366e+00 0 1 0
556 1 3.5425218906405291e+00 5.6038911365933144e+00 6.6084472062497133e+00 1 1 1
5473 1 1.5424334150695360e+00 4.2119961058440332e+00 8.0579649948491756e+00 0 1 0
5482 1 7.4074694705895689e+00 8.2128914089593685e+00 4.5255082657885053e+00 1 1 0
5481 1 5.5738706234435718e+00 4.2790098117690585e+00 6.1980528059637487e+00 0 -1 0
456 1 8.8791828462028590e+00 8.3017466088581422e+00 1.3434895873248580e+00 0 -1 0
276 1 1.0923378005211822e+01 6.7833362625280760e+00 3.0098261294828013e+00 1 -1 0
1450 1 1.3447751513923304e+01 8.0710137075507404e+00 3.3389560904269793e+00 2 1 1
2231 1 1.5246941363810051e+00 1.0674539728622895e+01 5.4221117148554976e+00 0 1 0
6418 1 4.3355737327860755e+00 8.5998539381067598e+00 6.3383500516316182e+00 1 0 1
1900 1 1.4581288697441808e+01 7.2998021450635484e+00 5.9240121068404719e+00 -1 1 0
3549 1 4.3656658672886932e+00 1.1628363037852749e+01 5.3155811831803437e+00 1 1 0
2202 1 6.7375526911165586e+00 1.1552710119789307e+01 6.7932980746676108e+00 0 0 0
6422 1 6.8719220869288007e+00 8.7821439174341016e+00 7.4829278761934912e+00 0 -1 1
421 1 1.0106012209832320e+01 8.5299118980150599e+00 4.7271583911931501e+00 2 1 0
1636 1 1.0810798642209820e+01 1.0926123400417477e+01 4.0867553592074124e+00 1 1 1
3068 1 1.5503833550779239e+01 7.1582310857316420e+00 1.9094278169641723e+00 -1 0 1
6479 1 1.3529169196975447e+01 1.0912263900181127e+01 4.1256426618164950e+00 0 2 1
3455 1 1.3565653581859230e+01 1.0523514182956431e+01 6.9666731380801705e+00 -1 2 0
2207 1 1.8357232411868292e+00 1.5410066082316966e+01 5.1027911353295110e+00 0 1 1
4813 1 4.1233333438440809e+00 1.4133468953878305e+01 6.2568220414348605e+00 1 0 1
3932 1 6.3176047006257177e+00 1.5403822960411105e+01 5.1426977161391383e+00 1 0 0
57 1 9.2829497834937218e+00 1.2190716456918059e+01 6.3290058910624838e+00 2 -1 0
3174 1 8.9699568411232722e+00 1.4815023171853726e+01 6.0596013210832380e+00 0 1 1
3559 1 1.5327574088660983e+01 1.5356022277590691e+01 3.0893680438114437e+00 0 0 0
3807 1 1.4391506537666661e+01 1.3518314114070524e+01 6.2303094324213752e+00 1 -2 0
133 1 6.5243968557873115e+00 1.8452024411616428e+01 5.3660294060415641e+00 0 0 0
4709 1 8.9300814452247561e+00 1.9567416358786161e+01 6.1032594515651315e+00 1 0 0
546 1 1.0899265281204347e+01 1.5837223810259934e+01 4.6275080442713756e+00 1 1 1
348 1 1.0287672626151181e+01 1.8534632723562176e+01 4.1797201012064695e+00 -1 -1 0
2036 1 1.1436729901326293e+01 2.0125037031812901e+01 9.6851548887553349e+00 -1 -1 0
34 1 1.3380441506755469e+01 1.6126461762816213e+01 5.6727384534501679e+00 1 0 0
1396 1 2.5576963246571331e+00 2.2192429731305150e+01 4.1059236283668676e+00 1 2 1
1324 1 4.9396437991047080e+00 2.3110993895353314e+01 5.0510356155963478e+00 0 0 1
1761 1 8.5457944408234709e+00 1.5628999808564132e+01 1.1138707852076626e+01 0 0 0
4995 1 8.6594358649741618e+00 2.1927829584939332e+01 5.4248483987507115e+00 1 0 1
5179 1 1.0258715495256041e+01 2.3410235177994178e+01 7.5896392410210272e+00 0 0 1
5150 1 1.2478425091950708e+01 2.0084833517085166e+01 3.6832122274925245e+00 0 1 1
6489 1 1.2069133217124937e+01 2.2994157946499108e+01 9.1480775351136767e+00 0 0 1
5095 1 5.8855870136182036e+00 1.1205438193094768e+00 8.9955028226665252e+00 1 0 1
5082 1 1.3544993975476762e+00 1.7592185861955059e+01 2.9422909421596946e+00 2 -1 1
216 1 6.8140308695938332e+00 3.9627448988092313e+00 8.7189341240896638e+00 0 0 0
3495 1 1.4396095900009179e+01 2.2990171480770424e+01 7.4438070084403929e+00 0 2 1
4915 1 9.6292099879781912e+00 2.4017151042477018e+00 1.0861787267923688e+01 0 0 1
5387 1 2.5731607075216951e+00 6.9577592429059809e-01 5.4609478703832623e+00 -1 0 0
1456 1 1.5147175543422547e+01 2.2136114132594935e+00 4.9701158294072503e+00 1 1 1
4985 1 1.7430269748941596e+00 7.2335392185912832e+00 1.0424796261245108e+01 0 1 0
102 1 3.4906642875357856e+00 5.3541109479562854e+00 1.0017758097866047e+01 1 1 1
352 1 9.4287595768672183e+00 4.1324809937712992e+00 8.1448481766424319e+00 1 0 0
3565 1 6.5491150525402846e+00 8.5056217733287767e+00 1.0031563362810781e+01 0 1 0
1323 1 1.0609433482471660e+01 6.3392526654060868e+00 8.7269333614037574e+00 1 0 1
238 1 1.3305333324157971e+01 5.6845025508312972e+00 7.5269172012807051e+00 0 1 0
3047 1 3.3796606321826883e+00 7.6029490027594071e-01 9.6410750481388465e+00 0 0 1
2332 1 1.4632345518575169e+01 4.9415671048933962e+00 9.5961948928865386e+00 2 0 1
489 1 2.5005360437226494e+00 9.5553942447347033e+00 8.2270890515381865e+00 1 0 1
3282 1 5.6767659958588990e-01 1.1669075181245587e+01 9.6111955559714666e+00 1 0 0
1936 1 4.6887240074294851e+00 1.0451709882928055e+01 9.9189255638782630e+00 1 0 0
3384 1 6.1325376700958500e+00 1.2475716114877702e+01 9.1464922799702890e+00 0 0 0
5330 1 1.1129845502183706e+01 1.0970469347669018e+01 8.1094481492035815e+00 0 0 0
6721 1 9.7329207151612653e+00 8.4006203769988392e+00 7.3818055819659776e+00 1 0 0
5025 1 1.2808568601195983e+01 1.7155577414031740e+01 -4.1316308423560200e-01 -1 0 0
462 1 7.5021575111838523e-01 6.7968403147839229e+00 3.1657612305826772e+00 2 0 0
3993 1 1.2179663429537143e+01 1.3818111789627364e+01 9.1302916211386744e+00 0 0 1
1855 1 2.1242010723681712e+00 1.3674218189337722e+01 1.0399451758228079e+01 0 0 0
6649 1 5.3475970984443570e+00 2.3151573666698891e+01 1.0014243805679278e+01 -1 0 1
1917 1 4.3782365622344184e+00 1.4530831274967934e+01 8.9794112252532372e+00 1 1 0
1531 1 9.7116610781049957e+00 1.5119672427924423e+01 8.5998220905881571e+00 0 1 1
3167 1 1.2347138331316881e+01 3.3948662444420772e+00 1.0551926218052314e+01 -1 1 1
5420 1 1.5282059215937709e+01 2.0382077109940880e+01 1.6477885997076589e+00 0 0 0
5271 1 1.5873799109209831e+01 1.7123735223748227e+01 9.2587677001533066e+00 0 1 0
3231 1 1.3653289108708195e+01 1.5761376874658543e+01 8.1267473891956286e+00 0 0 1
137 1 2.6051989356545224e+00 1.8070984841921568e+01 9.8363198021214604e+00 1 -2 1
3433 1 2.0557791136603925e+00 1.9946164011696478e+01 7.8788845917492694e+00 2 1 0
5274 1 1.4911946184071141e+01 2.2746452150618961e+01 2.7461116078827916e+00 0 1 0
1762 1 8.2248628016276548e+00 1.9895712329912474e+01 9.0256292234815181e+00 0 -1 0
5568 1 5.5636969294213063e+00 1.9291024059201469e+01 7.6202769840866846e+00 1 0 0
5092 1 5.0507829618161466e+00 1.7332419345200289e+01 9.3547574702911209e+00 1 1 0
1322 1 1.0904548595132221e+01 1.7835693063210023e+01 8.0359122372729299e+00 2 1 1
5331 1 1.3331369791431714e+01 2.3453400952441356e+01 5.0092101902180017e+00 0 0 0
6368 1 6.7425620768687242e+00 2.4078856497286782e+01 6.9495326468949328e+00 1 0 1
5431 1 1.4833473844175899e+01 2.0238139189727718e+01 9.0939140653046415e+00 0 1 0
2129 1 4.1459692954382836e+00 2.1742670628250686e+01 7.8740312432976314e+00 0 0 1
388 1 1.6045590829727786e+01 2.0741269875750234e+01 1.1442291427624735e+01 1 0 0
4014 1 5.3419858478252831e+00 2.4180954470526018e+01 1.8379414003361649e+00 1 1 1
3692 1 1.5678214478991290e+01 2.0261010434794485e+01 5.5992312829045030e+00 1 0 0
277 1 6.5039957642658619e+00 5.6839368566872555e+00 1.0851483470114632e+01 0 -2 1
3754 1 1.1194610650362176e+01 2.3948092939038041e+01 1.1568215484606386e+01 2 1 0
6658 1 8.4990166281563830e+00 1.9013425643927057e+01 1.1555437366558953e+01 0 1 0
2143 1 9.4336051165011501e+00 6.2550890292054984e+00 1.1185719536595053e+01 1 1 0
3354 1 1.1702291765497225e+01 1.1655868761489911e+01 -4.6861317377554784e-01 1 0 0
3862 1 1.5307055649886902e+01 2.6012618634105422e-01 8.2333474975101719e+00 0 0 1
1418 1 5.4391515868553357e+00 5.1026167483500728e-01 2.9688936392282232e+00 1 0 1
1982 1 1.0616009991017075e+01 9.3556043040888479e+00 -6.7842144200062648e-01 0 2 1
3606 1 1.2793003039068882e+00 1.6158232130918776e+01 -6.5019810694430191e-01 1 1 0
367 1 2.7741053829390006e+00 3.9848062057541758e+00 1.2175561670918887e+01 1 0 0
448 1 9.1310433614819679e+00 3.4565007613571375e+00 1.3129903498141941e+01 1 0 0
231 1 8.6553163669466819e+00 9.4353253658111003e-01 1.4236657482464304e+01 0 2 0
3444 1 1.1790046114820957e+01 5.3100209819719675e+00 1.2249609354473886e+01 0 1 0
1655 1 3.3700258173021251e+00 1.9919938289742479e+01 2.3418620349520932e+01 0 0 1
6415 1 5.5958575218475231e+00 1.7950106252625593e+00 1.4243185903208868e+01 0 0 1
405 1 1.0584903943563115e+00 7.5439531981738570e+00 1.3118694927023189e+01 -1 -1 0
3136 1 1.3031451562714222e+01 2.2287346602581081e+01 2.3679474770957853e+01 -1 0 0
271 1 8.6593097347566292e+00 2.3127616461019119e+01 1.2277701184196024e+01 0 1 0
5527 1 4.9580496803070693e+00 5.0819128669150100e+00 1.3462725111849267e+01 2 1 0
3224 1 7.1936782689866430e+00 4.2240800617866476e+00 1.5660154156183978e+01 -1 2 1
6635 1 9.8762228356162396e+00 1.6270581781004761e+01 2.3123436416231542e+01 1 0 1
3498 1 1.1063038203375495e+01 8.2786175584533179e+00 1.3284843178731153e+01 0 -1 0
2001 1 1.2586613646280544e+01 2.1110122084261459e+01 1.7414012636382818e+01 -1 -1 0
6705 1 1.5124637892268389e+01 4.4087061390088289e+00 1.3087634517005300e+01 0 0 1
43 1 1.4302429177526637e+01 7.1781353231660106e+00 1.6163629994407124e+01 0 -1 0
6 1 1.4126268145609901e+01 6.9807067534655767e+00 1.3413828685498226e+01 0 0 0
220 1 2.0526279926036115e+00 9.9779077248601613e+00 1.4545368712853513e+01 2 0 0
2213 1 4.2869778489674379e+00 1.0326175247304134e+01 1.2581569088669006e+01 1 0 1
1672 1 6.8103763574874057e+00 9.7315404551189779e+00 1.3678837831746446e+01 -1 0 0
1980 1 1.5845396880244540e+01 2.2609567153354185e+01 1.7389058783242007e+01 0 0 0
6759 1 1.2082520086545358e+01 1.0658950255938283e+01 1.3169600197008522e+01 0 -1 1
6694 1 3.1082152280880919e+00 1.3597420670048297e+00 1.2354667110928487e+01 0 1 1
5424 1 2.9748331244179682e+00 1.2780957763129242e+01 1.2858707743085109e+01 1 1 0
4740 1 8.2017812616653565e+00 4.5638983996998184e-01 1.7471494193621783e+01 0 0 1
6730 1 5.3245774973187139e+00 1.3691045831600013e+01 1.4185788516254997e+01 0 1 0
5067 1 7.3073953449764657e+00 1.2275742922473595e+01 1.3891112672639272e+01 0 -1 1
207 1 9.9600700923994818e+00 1.8478052679311293e+01 1.3667766016599083e+01 0 0 0
5222 1 9.4964111157350608e+00 1.3675212397953874e+01 1.5095161168700791e+01 1 0 1
254 1 1.0625099945654776e+01 1.5071121371379672e+01 1.2968913901823624e+01 1 0 0
249 1 6.7639848348245801e-01 2.1157696908656490e+01 2.3635650386445434e+01 2 0 0
5349 1 1.3281652984377219e+01 2.3324688915606103e+01 1.9226423676629729e+01 1 0 0
5416 1 2.8436745062620634e+00 1.7589325397530541e+01 1.3600111018267908e+01 2 -1 0
1918 1 5.2466585553777323e+00 1.6730665875950375e+01 1.3905464983773417e+01 2 0 0
317 1 2.1318987773163567e+00 4.0079006249494209e-01 2.3300274989937815e+01 0 0 0
3152 1 6.8007109553061884e+00 1.8852470211062585e+01 1.5166814466019810e+01 1 1 1
2223 1 7.2442851168007971e+00 2.0767125505218839e+01 1.3181678416588179e+01 0 1 1
5497 1 1.1957576568980176e+01 1.6626883621795578e+01 1.4519060866920453e+01 0 -1 0
457 1 1.4683902532667444e+01 1.9054647506532760e+01 1.3345594009511972e+01 -1 0 0
3097 1 1.4359266357346305e+01 1.8219236414820376e+01 2.3234855361817470e+01 0 1 1
5391 1 1.1316264468624881e+00 2.3275095825148011e+01 1.2687087205164230e+01 0 0 0
172 1 3.5931977677086504e+00 2.3184523523940680e+01 1.3994642390096608e+01 0 0 0
3172 1 1.5165226183877643e+01 7.2474957901545247e+00 2.0608625429623572e+01 0 -1 1
116 1 5.0830735953445449e+00 2.1670798789824421e+01 1.2203121069646965e+01 2 0 0
2230 1 1.4727512812852032e+01 3.8536250343233278e+00 2.2943975056557885e+01 1 0 1
3092 1 9.0395467211674649e+00 2.2432055325949907e+01 1.5285105335300031e+01 0 0 1
42 1 8.6609546834406377e+00 9.0434254616218368e+00 1.1806592188096500e+01 -1 -1 0
3878 1 9.1720597000434072e+00 2.4135219987155413e+01 2.0945033168006159e+01 0 -1 1
2277 1 3.5161616751002791e+00 1.1899229130764271e+01 2.3347385445687117e+01 1 1 1
1955 1 3.2093887444323941e+00 1.2658657924433545e+00 1.6590672729387411e+01 0 1 0
5546 1 1.4384872064780307e+00 3.0454707271397790e+00 1.7440955422049342e+01 3 0 1
415 1 1.8863847247504395e+00 3.2443369536739177e+00 2.0076123580908568e+01 2 1 1
5463 1 7.5234386242366416e+00 1.6590662915143066e+00 2.3252217229916958e+01 1 0 0
17 1 5.8465735085311081e+00 2.3724147102152555e+00 1.7222480104307241e+01 0 0 0
5159 1 5.9591241220601923e+00 3.2172161927444658e+00 1.9791818269742166e+01 0 0 0
5461 1 1.1174138665981232e+01 2.1915144002086731e+01 2.1078546152950494e+01 -1 1 0
3134 1 1.1567276369958694e+01 4.6847053163059220e+00 1.5093863730831268e+01 0 0 1
1591 1 1.0402565537897601e+01 2.5460836708255208e+00 1.6210635769713036e+01 0 -1 1
3079 1 9.9483561751998071e+00 3.2897776526447648e+00 1.8930475654083811e+01 -1 -1 1
3137 1 1.4081039549578280e+01 3.6740805507406726e+00 1.5558748340521330e+01 1 0 1
3428 1 8.6026267976224724e-01 2.1284209466508631e+01 2.0954912069020583e+01 1 0 1
5503 1 1.4976071482704883e+01 8.4198972014401252e-01 1.6868130496037733e+01 2 0 0
155 1 3.1505058707640270e+00 6.5662969062858778e+00 1.5091402364824241e+01 0 0 0
1575 1 7.7965218518603385e-01 5.0792167422358681e+00 1.5817012453707072e+01 1 0 1
209 1 3.8818992775263621e+00 7.0504144134361075e+00 1.9569725556373442e+01 0 -1 0
3258 1 1.2216172347874428e+01 2.0303985429157432e+01 1.2385923749871397e+01 0 1 1
3033 1 8.0845633639820900e+00 6.9182211934813944e+00 1.6744778797243455e+01 0 1 1
3873 1 7.7932602115819511e+00 5.1692439728306905e+00 1.8915404967732389e+01 1 1 0
339 1 1.0958777345335042e+01 7.3092327642113322e+00 1.5792571577982986e+01 0 0 0
5213 1 1.1697637330896304e+01 1.8561329899998444e+01 2.3222962891394445e+01 1 -1 1
1417 1 2.3776814699356170e+00 9.8892739504785911e+00 1.7164189337849198e+01 -1 -1 1
5432 1 4.4988357748653174e+00 8.1865485338300736e+00 1.7127648952724417e+01 2 2 1
6609 1 6.9317637068118163e+00 9.1237369835521918e+00 1.6734153319007994e+01 1 0 1
1341 1 9.3419946109919358e+00 1.0539892734389158e+01 1.7336222834372425e+01 0 -1 1
1734 1 1.1218788705792212e+01 1.1707253092531207e+01 1.5809460150469643e+01 0 1 0
101 1 1.0813741345318792e+01 8.1072083853387831e+00 1.8419291054627038e+01 0 1 0
5210 1 1.2538931208870839e+01 8.9869841609080598e+00 2.1643229510375413e+01 0 1 1
45 1 1.4893555216021053e+01 1.0890319982432977e+01 1.8116496450391118e+01 -1 1 0
5284 1 2.0806716056281056e+00 1.8195606502806811e+01 1.7701371272431114e+01 1 0 0
135 1 2.3105320298880181e+00 1.5001576081856570e+01 1.7292431621488756e+01 1 -1 0
3038 1 5.0894211502753910e+00 1.3759201105443296e+01 1.7130701335276068e+01 0 1 1
1964 1 7.3595858580335403e+00 1.2562269346671606e+01 1.8456189107643421e+01 1 1 0
2091 1 9.4613556350574761e+00 1.4461425759377812e+01 1.9128095650677533e+01 1 1 0
3820 1 9.0533662098805134e+00 1.5688939431956435e+01 1.6846720933196341e+01 1 0 0
3072 1 1.5227144297850582e+01 1.4315319442669026e+01 1.5630009756758266e+01 1 0 1
1908 1 1.3304008105115477e+01 1.2756433248620041e+01 1.6963311945849522e+01 0 0 0
3797 1 1.5721155280889443e+01 1.4252627516401862e+01 1.9058049949425129e+01 -1 0 0
3763 1 1.3845267553189915e+01 1.5409976581165276e+01 2.0453633667155767e+01 -1 -1 0
3808 1 4.3862029927756065e+00 1.8737914933435846e+01 1.9304643213720691e+01 1 -1 0
345 1 2.4893989269633194e+00 1.9708908558319127e+01 1.5459403021365343e+01 1 -1 0
449 1 4.8531862899613332e+00 2.0176453281869673e+01 1.6500109080646506e+01 0 0 1
3793 1 3.4884548855645126e-01 4.3912408407254757e+00 1.3303627184194760e+01 0 1 0
6560 1 4.2285450959555622e+00 1.6643657066252629e+01 2.1077859494109898e+01 1 1 1
5397 1 6.5099757492721215e+00 1.6203220971556544e+01 1.6995679158049580e+01 1 1 0
1339 1 7.1016971296393248e+00 1.8296024255261514e+01 1.8860554066111806e+01 -1 -1 1
4858 1 1.0247520153741590e+01 2.0358225299504028e+01 1.8843281930712081e+01 0 -1 1
2244 1 1.1365350238382197e+01 1.7646413700290253e+01 1.6841519863999086e+01 0 2 1
3257 1 9.1866331975139595e+00 1.9492878419917080e+01 1.6494966540698659e+01 0 -1 0
39 1 1.4513103598407929e+01 1.6262627983300021e+01 1.3927580935246111e+01 0 0 1
6451 1 1.2971026305566205e+01 1.7662607623200522e+01 1.9207588133049246e+01 0 0 1
3042 1 4.7059924299519640e+00 2.2693008783729599e+01 1.6593410141571866e+01 2 0 1
5645 1 7.1570285260942699e+00 2.3151131010806001e+01 1.7237032543626221e+01 0 0 1
3640 1 7.0974208197488151e+00 2.2717575815967290e+01 2.0064430642556804e+01 2 0 0
1542 1 1.3098968413603744e+01 2.2691435748490939e+01 1.3248135867863262e+01 0 0 1
3731 1 4.5709206712129653e+00 1.5176423286353724e+00 2.2634626235282500e+01 0 1 0
4744 1 1.5007066940432887e+01 1.9931535297471740e+01 1.7749789333505763e+01 0 -1 1
4736 1 1.3447238558551247e+00 5.1764117939024046e-01 2.0416447612123530e+01 0 0 1
2175 1 5.0875743224539471e+00 2.3504331683342603e+01 2.1359472271879916e+01 0 0 0
3705 1 8.4957910977570705e+00 1.4538084869810333e+00 2.0685744852368924e+01 1 2 0
1783 1 1.0829897961113062e+00 1.3107466239451186e+01 2.2974491852126324e+01 0 0 0
1334 1 1.5797499553155490e+01 1.4293152360500725e+00 2.3302145012911474e+01 -2 0 1
3570 1 1.1646534887953909e+01 4.7777583849609622e+00 2.0420214852210513e+01 -1 0 0
6713 1 1.6162901696954911e+01 1.9102076975688462e+01 1.5505453070681657e+01 1 0 0
2040 1 1.3815546410188757e+01 1.7979211615801458e+00 1.2181220707442662e+01 1 1 0
2054 1 1.5760209459452776e+01 2.3090976917998137e+01 1.2591351134538062e+01 0 1 0
107 1 4.0706448570095386e+00 4.3109324927024177e+00 2.3534822426417460e+01 0 1 0
4796 1 3.9721528851933843e+00 4.4300373316198955e+00 2.0688554429747754e+01 1 0 1
3461 1 1.1806023456679322e+01 2.3090959437460420e+01 1.5601764085689034e+01 1 0 0
1728 1 7.5507001846822703e+00 6.7604098209611161e+00 2.0995962355623387e+01 0 1 0
6631 1 1.0421550042846183e+01 7.0749684808082440e+00 2.1530609608744093e+01 2 1 1
2076 1 8.0942671805114585e+00 1.2428229753165152e+01 2.3179528996078687e+01 0 1 0
5438 1 1.4116518900968146e+01 4.3937390543217330e+00 2.0370339013613449e+01 1 -1 0
4865 1 1.3577558124981204e+01 8.6693776092818968e+00 1.8727485852970787e+01 1 0 1
1807 1 1.2331830989147674e+01 7.0495073073155323e-01 1.6841984608122512e+01 0 1 0
5590 1 3.1917990663641977e+00 1.2205103747024179e+01 1.8615807155845332e+01 0 -1 1
5534 1 1.1190192853263035e+00 7.3870892690583556e+00 2.0709102351674893e+01 1 1 0
3489 1 4.7407317295988207e+00 9.1507981380149488e+00 2.1201440501510856e+01 0 0 0
503 1 7.4678792458904626e+00 9.3337221526142180e+00 2.1415217453176076e+01 0 0 0
567 1 1.5214754330564199e+01 6.2566583564371365e+00 2.3733029145567720e+01 0 1 1
5256 1 8.9790702756399945e+00 1.1408927002642264e+01 2.0749329955461398e+01 0 0 0
1527 1 1.1600593324104127e+01 1.1345702905901572e+01 2.1212800268176327e+01 0 -1 1
5334 1 3.2494702253176597e+00 1.7307418644438911e+01 2.3523832695035370e+01 0 0 0
3146 1 1.4434138690928309e+01 1.1561348143842865e+01 1.2183765419508994e+01 0 2 1
5340 1 3.5807406413592475e+00 2.0684389217554301e+01 2.0851248915254587e+01 0 0 0
479 1 8.4490047970943893e-01 1.2488862498301339e+01 2.0185031541044211e+01 1 0 0
3415 1 1.8723230830584230e+00 1.5709835455689516e+01 2.0175232492492874e+01 1 1 1
4853 1 3.1058545827271816e-01 3.4341162397829350e-01 1.2336087196106609e+01 0 0 1
2251 1 2.6215971682813919e+00 1.9590291562404463e+01 1.1996904197170370e+01 0 0 0
6753 1 1.4879066329263319e+01 2.1913053926112074e+01 2.1009401540292384e+01 0 0 1
2282 1 6.2639831530914032e+00 1.4673335243562541e+01 2.1513914290734469e+01 0 0 1
3122 1 4.9367392071562506e+00 1.1965477668236966e+01 2.0600603593553835e+01 2 1 1
6748 1 1.2302118320881164e+00 1.4135102901773385e+01 1.4818235612726744e+01 2 2 1
468 1 1.5180430184409284e+01 1.8959288487452611e+01 2.0736368639151852e+01 1 0 0
5048 1 1.1916959341041014e+01 3.5631918048662308e+00 2.3138176258762687e+01 0 1 1
2073 1 1.5008234743497884e+01 1.4637104168170234e+01 2.2945005534526711e+01 0 0 0
5070 1 1.5529293770232600e+01 3.5064713952572801e+00 1.8301740425104974e+01 -1 1 0
1458 1 1.2069125888399173e+01 1.3713457620812795e+01 1.9488515600248792e+01 0 0 1
3902 1 1.0689989384986132e+01 1.8227605631905277e+01 2.0513745717081367e+01 1 0 1
3780 1 1.6163223928369632e+01 8.6440467671275254e+00 1.2313914544661563e+01 1 0 0
1438 1 7.7481269970141655e+00 2.0467928757098456e+01 2.3830854310032407e+01 1 2 1
3749 1 8.0584307922808485e+00 2.0404290896142406e+01 2.0988788163633142e+01 1 2 0
3206 1 8.3551585789010137e+00 1.6254570394006148e+01 2.0758640425204931e+01 0 0 1
3096 1 6.3853060724233321e+00 5.6018487105387491e+00 2.3574182880832019e+01 -1 0 1
1814 1 1.6167758456574743e+00 7.8743615082769578e+00 2.3177708334290521e+01 1 2 0
1547 1 1.0233293563664956e+00 1.5673521219295258e+01 2.3591742673244653e+01 1 0 1
1903 1 1.2538988682669318e+01 2.9537620456709135e-01 1.3939985400728188e+01 0 0 0
5021 1 1.2585344761088333e+01 1.2851589768700858e+01 2.3163412897689785e+01 0 0 1
4834 1 3.4730413061421799e+00 9.3813609110232274e+00 2.3772545016296604e+01 0 0 1
3302 1 1.6350001526751726e+01 1.2282000662165393e+01 1.4406779749978703e+01 0 0 0
51 1 1.2975874903936745e+01 1.4321152598298434e+01 1.1655731528834758e+01 1 2 0
5169 1 1.6487619022013117e+01 1.3452193354736419e+00 1.2282549930424331e+01 1 2 0
370 1 1.6246299239065586e+01 4.2777770558423478e-01 2.0922187741916748e+01 -1 0 0
53 1 2.8671319502326753e-01 8.8574125616969575e+00 1.8545788525523911e+01 1 0 0
3618 1 5.1602041047473790e-01 1.6343124244092078e+01 1.3523876795956479e+01 0 -1 0
20 1 2.9164625396744270e-01 2.0900151071396103e+01 1.1623760825710283e+01 0 0 0
623 2 2.4786468188375110e-01 3.0599527546844643e+00 2.6745317904449234e+01 0 0 0
625 2 2.4786468188375110e-01 2.4685567789485319e-01 2.6745317904449234e+01 0 0 0
627 2 1.4659714477895629e+00 9.5012994709224818e-01 2.6745317904449234e+01 0 0 0
634 2 1.4659714477895629e+00 2.3566784854870622e+00 2.6745317904449234e+01 0 0 0
636 2 2.6840782136953747e+00 3.0599527546844643e+00 2.6745317904449234e+01 0 0 0
638 2 2.6840782136953747e+00 2.4685567789485319e-01 2.6745317904449234e+01 0 0 0
640 2 3.9021849796010630e+00 9.5012994709224818e-01 2.6745317904449234e+01 0 0 0
655 2 3.9021849796010630e+00 2.3566784854870622e+00 2.6745317904449234e+01 0 0 0
1973 1 1.0576644108197211e+01 2.2960772176132949e+01 3.5998541369847302e+01 0 1 -1
657 2 5.1202917455069983e+00 3.0599527546844643e+00 2.6745317904449234e+01 0 0 0
659 2 5.1202917455069983e+00 2.4685567789485319e-01 2.6745317904449234e+01 0 0 0
661 2 6.3383985114127501e+00 9.5012994709222776e-01 2.6745317904449234e+01 0 0 0
684 2 6.3383985114127501e+00 2.3566784854870622e+00 2.6745317904449234e+01 0 0 0
686 2 7.5565052773183750e+00 3.0599527546844643e+00 2.6745317904449234e+01 0 0 0
688 2 7.5565052773183750e+00 2.4685567789485319e-01 2.6745317904449234e+01 0 0 0
690 2 8.7746120432241597e+00 9.5012994709222776e-01 2.6745317904449234e+01 0 0 0
721 2 8.7746120432241597e+00 2.3566784854870622e+00 2.6745317904449234e+01 0 0 0
723 2 9.9927188091302455e+00 3.0599527546844643e+00 2.6745317904449234e+01 0 0 0
725 2 9.9927188091302455e+00 2.4685567789485319e-01 2.6745317904449234e+01 0 0 0
727 2 1.1210825575036312e+01 9.5012994709222776e-01 2.6745317904449234e+01 0 0 0
766 2 1.1210825575036312e+01 2.3566784854870622e+00 2.6745317904449234e+01 0 0 0
768 2 1.2428932340941749e+01 3.0599527546844643e+00 2.6745317904449234e+01 0 0 0
770 2 1.2428932340941749e+01 2.4685567789485319e-01 2.6745317904449234e+01 0 0 0
1884 1 2.6444933627807941e+00 1.8644237253527979e+01 3.5521825511150880e+01 1 0 -1
4745 1 8.0882771738441335e+00 3.8374294594369216e+00 2.4676783631838454e+01 0 1 1
772 2 1.3647039106847435e+01 9.5012994709224818e-01 2.6745317904449234e+01 0 0 0
813 2 1.3647039106847435e+01 2.3566784854870622e+00 2.6745317904449234e+01 0 0 0
815 2 1.4865145872752999e+01 3.0599527546844643e+00 2.6745317904449234e+01 0 0 0
817 2 1.4865145872752999e+01 2.4685567789485319e-01 2.6745317904449234e+01 0 0 0
819 2 1.6083252638659037e+01 9.5012994709224818e-01 2.6745317904449234e+01 0 0 0
860 2 1.6083252638659037e+01 2.3566784854870622e+00 2.6745317904449234e+01 0 0 0
3581 1 1.0213420342711787e+01 5.1949707166252654e+00 2.4210365472794937e+01 1 0 0
628 2 2.4786468188375110e-01 7.2795983698689346e+00 2.6745317904449234e+01 0 0 0
630 2 2.4786468188375110e-01 4.4665012930792711e+00 2.6745317904449234e+01 0 0 0
632 2 1.4659714477895629e+00 5.1697755622765458e+00 2.6745317904449234e+01 0 0 0
647 2 1.4659714477895629e+00 6.5763241006713082e+00 2.6745317904449234e+01 0 0 0
649 2 2.6840782136953747e+00 7.2795983698689346e+00 2.6745317904449234e+01 0 0 0
651 2 2.6840782136953747e+00 4.4665012930792711e+00 2.6745317904449234e+01 0 0 0
653 2 3.9021849796010630e+00 5.1697755622765458e+00 2.6745317904449234e+01 0 0 0
676 2 3.9021849796010630e+00 6.5763241006713082e+00 2.6745317904449234e+01 0 0 0
4898 1 1.5468076874122989e+01 2.2362367678710715e+00 3.5629594343122633e+01 1 1 0
5277 1 1.2186140864286104e+01 1.3502283499390806e+01 3.5911199379217337e+01 -1 0 -1
678 2 5.1202917455069983e+00 7.2795983698689346e+00 2.6745317904449234e+01 0 0 0
680 2 5.1202917455069983e+00 4.4665012930792711e+00 2.6745317904449234e+01 0 0 0