
# Create simulation box and atoms

read_data data.graphite_substrate_1000
  orthogonal box = (0 0 -1.03859) to (49.22 49.0196 61.1006)
  3 by 2 by 5 MPI processor grid
  reading atoms ...
  6768 atoms
  reading velocities ...
  6768 velocities
group water type 1
4008 atoms in group water
group graphite type 2
2760 atoms in group graphite

# Define potential

pair_style sw
pair_coeff * * mWC.sw mW C
Reading potential file mWC.sw with DATE: 2019-02-27


# Fix graphite atoms in place

fix 5 graphite setforce 0.0 0.0 0.0
velocity graphite set 0.0 0.0 0.0


# Equilibration of molecular water

# Add velocity/set timestep

velocity	    water create ${TEMP} ${SEED} rot yes dist gaussian
velocity	    water create 225 ${SEED} rot yes dist gaussian
velocity	    water create 225 25868 rot yes dist gaussian
timestep	    5.0

# Define output

compute			1 water msd
compute			3 water temp
thermo	    	50
thermo_style	custom step temp press vol etotal ke pe c_1[4] c_3

# Neighbor lists

neigh_modify    delay 0 every 1 check yes

# Set fixes

fix             1 water momentum 10 linear 1 1 1 rescale
fix             2 water nve
fix             3 water temp/csvr ${TEMP} ${TEMP} 500.0 ${SEED}
fix             3 water temp/csvr 225 ${TEMP} 500.0 ${SEED}
fix             3 water temp/csvr 225 225 500.0 ${SEED}
fix             3 water temp/csvr 225 225 500.0 25868
fix             4 water press/berendsen iso ${PRES} ${PRES} 1000.0 modulus 20000
fix             4 water press/berendsen iso -1000 ${PRES} 1000.0 modulus 20000
fix             4 water press/berendsen iso -1000 -1000 1000.0 modulus 20000

# Run 0.5 ns equilibration

dump		    1 all atom 2000 ${DIR}/eq.${NAME}-${TEMP}.dump
dump		    1 all atom 2000 test_2/eq.${NAME}-${TEMP}.dump
dump		    1 all atom 2000 test_2/eq.het_freeze_test-${TEMP}.dump
dump		    1 all atom 2000 test_2/eq.het_freeze_test-225.dump

reset_timestep  0

run	            100000
Neighbor list info ...
  update every 1 steps, delay 0 steps, check yes
  max neighbors/atom: 2000, page size: 100000
  master list distance cutoff = 7.76
  ghost atom cutoff = 7.76
  binsize = 3.88, bins = 13 13 17
  1 neighbor lists, perpetual/occasional/extra = 1 0 0
  (1) pair sw, perpetual
      attributes: full, newton on
      pair build: full/bin/atomonly
      stencil: full/bin/3d
      bin: standard
Per MPI rank memory allocation (min/avg/max) = 4.121 | 4.236 | 4.566 Mbytes
Step Temp Press Volume TotEng KinEng PotEng c_1[4] c_3 
       0    133.23112   -1309.3276    149926.08   -35971.017    2687.4238   -38658.441            0          225 
      50    173.47783   -1640.1927    148690.24   -36407.515    3499.2458    -39906.76   0.86876269    292.96842 
     100    168.30895    -1326.488    147812.29   -36844.389    3394.9838   -40239.373    1.9592193    284.23925 
     150    163.67773   -1545.1531    147054.64   -37183.984    3301.5666   -40485.551    2.8589608    276.41806 
     200    158.27904   -1212.5568    146371.31   -37501.142    3192.6689   -40693.811    3.5977651    267.30078 
     250    153.50595   -1154.5043    145927.05   -37737.543    3096.3902   -40833.933    4.3226653    259.24002 
     300    153.19001   -1166.2907    145599.34    -37975.17    3090.0174   -41065.187    4.9407588    258.70647 
     350    150.77983   -1379.2135    145024.56    -38180.83    3041.4014   -41222.232    5.5830849    254.63617 
     400    145.26874    -1023.731    144745.69   -38335.104    2930.2364    -41265.34    6.2084828    245.32907 
     450    146.09135   -1099.8586     144688.1    -38456.54    2946.8292   -41403.369    6.6302757    246.71828 
     500    144.62137   -1143.8007    144471.49   -38590.844    2917.1782   -41508.022    7.1940659    244.23579 
     550    140.84663   -1215.4274    144277.63   -38649.622    2841.0373   -41490.659    7.7165443    237.86103 
     600    139.73661   -1328.7748     143842.9   -38801.496     2818.647   -41620.143    8.2445902    235.98643 
     650    140.56121   -1037.1007    143636.62   -38857.216    2835.2801   -41692.496    8.6736562    237.37902 
     700    137.31499   -1128.8724    143572.37   -38952.052    2769.8001   -41721.852    9.0118377    231.89682 
     750    139.92594    -951.7491    143525.72   -38939.725    2822.4659    -41762.19    9.3285183    236.30617 
     800    135.97352    -1109.797    143567.13   -38998.118    2742.7411   -41740.859    9.6495299    229.63135 
     850    140.00684   -1042.8751    143519.98    -39054.16    2824.0977   -41878.257    9.9630009    236.44279 
     900     136.5815   -962.59045    143311.27   -39120.883    2755.0048   -41875.888    10.461404     230.6581 
     950      139.637   -1114.6863    143304.76   -39181.082    2816.6377    -41997.72    10.719054    235.81821 
    1000    134.69475   -922.49186    143165.38   -39214.763    2716.9468    -41931.71    11.023868    227.47176 
    1050    139.33483   -823.76207    143243.94   -39280.797    2810.5427    -42091.34    11.323215    235.30792 
    1100    137.70951   -1005.1792    143416.98    -39342.27    2777.7581   -42120.028    11.548392    232.56308 
    1150    136.47903    -1068.977    143358.67   -39354.715    2752.9379   -42107.653    11.915138    230.48506 
    1200    135.36941   -844.57362    143408.97   -39358.011    2730.5555   -42088.566    12.233626    228.61113 
    1250    133.52198   -989.07138    143411.02   -39374.837    2693.2909   -42068.128    12.590204    225.49121 
    1300    135.27299   -1015.3561    143378.14   -39427.794    2728.6106   -42156.405    12.877957    228.44829 
    1350    136.79907   -951.76026    143435.09   -39439.722    2759.3934   -42199.115     13.19152    231.02553 
    1400    134.91885     -1083.25    143438.84   -39493.191    2721.4673   -42214.658    13.535545    227.85023 
    1450     133.5652   -852.11925    143423.69   -39512.073    2694.1627   -42206.235    13.819327     225.5642 
    1500     136.4195   -908.37299    143534.31   -39527.194    2751.7371   -42278.931    14.024999    230.38452 
    1550    137.56352   -990.15055     143601.7   -39452.427    2774.8133    -42227.24    14.323832    232.31653 
    1600    135.11907   -1072.0103    143646.87    -39463.62    2725.5059   -42189.125    14.673504    228.18836 
    1650    133.41912   -970.65397    143675.77   -39516.511     2691.216   -42207.727    14.898564    225.31749 
    1700    133.97084   -980.97858    143629.14    -39564.04    2702.3448   -42266.385    15.050035    226.24924 
    1750    132.65558   -845.99509    143676.68   -39597.152    2675.8144   -42272.966    15.236166    224.02802 
    1800    134.53645    -941.0087    143859.71   -39547.098    2713.7537   -42260.851    15.432335    227.20443 
    1850    136.21628    -1064.208     143842.8   -39529.073    2747.6379   -42276.711    15.764227    230.04132 
    1900    134.94555   -928.42226    143793.83   -39525.985    2722.0058   -42247.991    16.019389    227.89532 
    1950    134.72719   -922.12852    143864.83   -39594.476    2717.6012   -42312.077    16.254186    227.52655 
    2000    134.73315   -952.91473    143885.85    -39632.11    2717.7215   -42349.831    16.382079    227.53662 
    2050     134.6423   -1065.5141    143884.69   -39604.074    2715.8888   -42319.963    16.591927    227.38318 
    2100    133.74417   -820.96071    143983.71   -39647.645    2697.7725   -42345.418     16.82727    225.86643 
    2150    132.48645   -1000.8648    144197.32   -39630.856     2672.403   -42303.259    16.987315    223.74241 
    2200    133.39975   -942.70014     144256.3   -39609.915    2690.8253   -42300.741    17.142149    225.28478 
    2250      134.798   -927.87658    144313.97   -39598.617    2719.0296   -42317.646    17.356664    227.64614 
    2300    135.19045   -1133.7675    144365.74     -39600.3    2726.9457   -42327.246    17.587741     228.3089 
    2350    134.30589   -1070.6936    144264.67   -39639.223    2709.1031   -42348.326    17.779724    226.81506 
    2400    136.76052   -1036.8656    144217.61   -39686.206    2758.6158   -42444.822    18.031038    230.96043 
    2450    133.95738   -949.44651    144292.61    -39653.15    2702.0732   -42355.224    18.169563     226.2265 
    2500    136.71214   -1022.0757    144191.02   -39611.941      2757.64   -42369.581    18.444123    230.87873 
    2550    132.00508   -758.71721    144354.65   -39627.475    2662.6932   -42290.169    18.660853    222.92947 
    2600    136.29943   -1024.1431    144522.06   -39645.756    2749.3151   -42395.071    18.810087    230.18174 
    2650    133.73315   -1078.1634    144553.56   -39659.531    2697.5503   -42357.082     18.99864    225.84782 
    2700    135.49108   -909.56028    144466.07   -39655.609    2733.0097   -42388.618    19.199497     228.8166 
    2750    136.00701    -874.1618    144586.75   -39643.267    2743.4167   -42386.684    19.410038    229.68791 
    2800    134.98664   -905.00889    144731.15   -39635.936    2722.8347   -42358.771    19.541568    227.96471 
    2850    137.11736   -910.13774    144720.47    -39592.88    2765.8137   -42358.694    19.726709    231.56306 
    2900    136.32539   -909.80217    144724.67   -39605.593    2749.8387   -42355.431    19.902774    230.22558 
    2950    137.89019   -1078.5592    144885.43   -39611.833    2781.4026   -42393.235    20.116917    232.86822 
    3000    136.63532   -1191.3482    144732.69   -39634.513    2756.0904   -42390.604    20.386544    230.74899 
    3050    136.82005   -912.24044    144633.91   -39652.726    2759.8165   -42412.542    20.567752    231.06096 
    3100    135.57444   -1191.4137    144682.16   -39739.117    2734.6912   -42473.808    20.701491    228.95738 
    3150    130.45104    -959.9232    144574.69    -39721.12    2631.3465   -42352.467    21.006192    220.30502 
    3200    135.27812   -969.12955    144617.73   -39721.251    2728.7141   -42449.965     21.20138    228.45696 
    3250    136.66748   -1043.9089    144613.18   -39714.477    2756.7391   -42471.216     21.36618    230.80331 
    3300    135.13651   -965.10334    144575.53   -39693.565    2725.8576   -42419.423    21.586191     228.2178 
    3350    133.50104   -1230.2434    144507.29   -39727.524    2692.8683   -42420.393    21.772618    225.45583 
    3400    133.01875    -926.2309    144452.53   -39728.723      2683.14   -42411.863    21.911536    224.64134 
    3450    134.91246   -936.64028    144482.03   -39710.582    2721.3382    -42431.92     22.20988    227.83943 
    3500    134.17198   -920.10209    144536.94   -39697.117    2706.4019   -42403.519    22.518491    226.58891 
    3550     137.8128   -921.34569    144648.92   -39648.347    2779.8415   -42428.189    22.766149    232.73751 
    3600    134.02776   -1050.6647     144643.7   -39666.048    2703.4929   -42369.541    22.806087    226.34536 
    3650    132.90269   -1027.5778    144782.45    -39702.84     2680.799   -42383.639    22.957122    224.44535 
    3700    134.12198   -1097.4253    144757.09   -39682.507    2705.3935     -42387.9    23.004931    226.50448 
    3750    135.43223   -902.42012    144829.75   -39742.765    2731.8226   -42474.588    23.167519    228.71721 
    3800    135.22396   -1155.4473    145026.02   -39679.507    2727.6216   -42407.128    23.486689    228.36549 
    3850    134.52722   -1036.4215    144934.96   -39704.405    2713.5677   -42417.973    23.734474    227.18885 
    3900    132.80982     -1025.29    144879.63   -39777.445    2678.9257   -42456.371    23.896442    224.28851 
    3950    133.19597   -1082.4035    144744.15   -39730.097    2686.7147   -42416.811    23.989665    224.94063 
    4000    135.84604    -1010.849    144675.64   -39726.272    2740.1698   -42466.442    24.117121    229.41607 
    4050    134.72394   -1156.5295    144519.03   -39790.392    2717.5357   -42507.928    24.331014    227.52106 
    4100    133.47774   -1003.5016    144446.25   -39821.849    2692.3985   -42514.248    24.609342    225.41649 
    4150     133.5589   -1012.2223    144391.02     -39768.1    2694.0355   -42462.135    24.895294    225.55355 
    4200    132.31815   -984.60646    144333.65   -39818.711    2669.0082   -42487.719    25.091217    223.45819 
    4250    133.86615   -975.73971    144359.32   -39806.066    2700.2331   -42506.299    25.273527    226.07244 
    4300    133.50178    -1014.736    144379.09   -39803.353    2692.8833   -42496.236     25.32513    225.45708 
    4350    134.46951   -1131.0717    144315.46    -39778.35    2712.4034   -42490.754     25.42447    227.09138 
    4400    133.10566   -982.35818    144401.66   -39758.409    2684.8931   -42443.302    25.745336    224.78812 
    4450    133.30415   -935.57596    144487.06    -39780.73    2688.8969   -42469.627    25.874766    225.12333 
    4500    131.96456   -901.93347    144508.88   -39828.312    2661.8758   -42490.188    26.244276    222.86104 
    4550    131.11503   -961.27745    144534.54   -39822.417    2644.7398   -42467.157    26.592195    221.42635 
    4600    134.69492   -933.21008    144770.93   -39795.877    2716.9504   -42512.827    26.924586    227.47206 
    4650    134.13854   -1076.6904    144724.43   -39804.602    2705.7274   -42510.329    27.132069    226.53244 
    4700    133.79371   -1058.4494    144763.31   -39799.039    2698.7719    -42497.81    27.304702    225.95009 
    4750    135.76983   -908.49216    144759.24   -39790.997    2738.6325   -42529.629    27.412841    229.28736 
    4800    136.10353   -1158.1641    144584.65   -39820.752    2745.3637   -42566.116    27.750357    229.85091 
    4850    131.54489    -1000.771     144473.2   -39800.958    2653.4106   -42454.369    27.906862     222.1523 
    4900    132.95586   -893.48683    144558.55   -39819.502    2681.8715   -42501.374    28.153085    224.53514 
    4950    131.76603   -914.88789    144681.26   -39826.197    2657.8712   -42484.068     28.46613    222.52575 
    5000     131.8468   -988.56991     144855.1   -39849.289    2659.5005    -42508.79     28.46576    222.66217 
    5050    135.02107   -1004.0568    144866.21   -39834.946    2723.5292   -42558.475    28.664907    228.02286 
    5100    133.65351     -864.076    144826.05    -39817.78    2695.9439   -42513.724    28.836302    225.71333 
    5150     134.1642   -1056.8739    144947.53   -39841.958    2706.2451   -42548.203    28.779747    226.57578 
    5200    135.20641   -1216.0709    144873.45   -39838.866    2727.2676   -42566.134    28.726894    228.33585 
    5250    133.52842   -1057.5354     144755.1   -39827.792    2693.4206   -42521.212    28.894105    225.50207 
    5300    131.72221   -898.73258    144877.96   -39811.755    2656.9874   -42468.743    29.053393    222.45177 
    5350    134.09986   -973.15302    144907.65   -39767.479    2704.9473   -42472.426      29.2048    226.46712 
    5400    131.39922   -943.53267    144883.21   -39802.121    2650.4723   -42452.594    29.531684    221.90629 
    5450    132.02418   -1082.3661    144784.98   -39778.425    2663.0784   -42441.504    29.681834    222.96172 
    5500    134.08909   -1048.1809    144764.72   -39793.085      2704.73   -42497.815    29.767505    226.44893 
    5550    130.83222   -939.28757    144697.29    -39810.92    2639.0353   -42449.955    30.134948    220.94875 
    5600    131.82699   -981.22507    144665.19   -39796.672    2659.1009   -42455.773    30.248723    222.62871 
    5650     133.1208   -1045.5432    144727.62   -39725.414    2685.1984   -42410.613    30.429143    224.81368 
    5700    133.40333     -955.399    144679.05   -39724.767    2690.8974   -42415.664    30.664966    225.29082 
    5750    130.62725    -1007.515    144744.82   -39730.127    2634.9008   -42365.028      30.7113     220.6026 
    5800    134.56668   -1087.6732    144697.87   -39706.334    2714.3635   -42420.698    30.878747    227.25548 
    5850    135.31683   -1051.8301    144831.01   -39672.722    2729.4949   -42402.217      31.0457    228.52233 
    5900    134.94276   -935.10451    144803.95   -39652.983    2721.9495   -42374.932    31.374512     227.8906 
    5950     133.7151    -922.9235    144936.73   -39668.043    2697.1863   -42365.229    31.561431    225.81735 
    6000    133.19546   -797.24257    145110.42   -39760.912    2686.7045   -42447.616    31.728232    224.93978 
    6050    132.99652   -1197.9255    145093.99   -39766.221    2682.6917   -42448.913    31.981909    224.60381 
    6100    132.28631    -1013.772    145085.62    -39783.12    2668.3659   -42451.486     32.00482    223.40441 
    6150    134.51567   -1099.9271     144947.2   -39790.812    2713.3346   -42504.147    32.008869    227.16934 
    6200    133.27403   -1108.2575    144752.46    -39831.81    2688.2893   -42520.099    32.100892    225.07246 
    6250    136.22594   -1092.6219    144711.36   -39846.373    2747.8328   -42594.206    32.227813    230.05764 
    6300    134.80184   -831.66857     144788.5   -39802.938     2719.107   -42522.045    32.558982    227.65262 
    6350    133.81504   -890.77666    144958.05   -39793.551    2699.2021   -42492.753     32.67903    225.98612 
    6400    133.44424   -1124.9349    145085.89   -39763.013    2691.7227   -42454.736    32.850121    225.35991 
    6450    134.40966   -1053.0295    144970.69     -39752.4    2711.1963   -42463.596    32.940622    226.99031 
    6500    134.07315   -1069.2133    144898.37   -39756.055    2704.4086   -42460.464    33.012911    226.42202 
    6550    133.66642   -1097.4101    144794.73   -39774.348    2696.2042   -42470.552    33.221469    225.73512 
    6600    133.53754   -1091.6875    144767.31   -39796.129    2693.6046   -42489.734    33.383236    225.51748 
    6650    132.43475   -909.39155    144868.64   -39808.838      2671.36   -42480.198    33.452864    223.65509 
    6700    134.13104   -1010.9828    144931.37   -39786.019    2705.5762   -42491.595    33.606407    226.51978 
    6750    134.41906   -1000.0854    144917.91   -39793.471    2711.3858   -42504.856    33.597917    227.00618 
    6800    135.68275    -988.5302    144934.78   -39784.667    2736.8761   -42521.543     33.85461     229.1403 
    6850    133.81492   -975.63342    144947.02   -39790.277    2699.1998   -42489.476    34.053291    225.98592 
    6900    134.41733   -1014.2859    145042.54   -39791.691    2711.3509   -42503.042    34.392067    227.00326 
    6950    134.47068   -994.03565    144918.99   -39807.958    2712.4271   -42520.385    34.469297    227.09336 
    7000    132.35011   -1117.1289    144850.09   -39836.179    2669.6528   -42505.832    34.746006    223.51215 
    7050    132.49118   -920.88884    144848.52   -39814.578    2672.4983   -42487.076    34.945692    223.75038 
    7100    136.00526   -1071.5332    144856.42   -39763.499    2743.3813    -42506.88    35.053831    229.68494 
    7150    136.86031   -1027.4842    144705.15   -39756.705    2760.6288   -42517.333    35.372759    231.12896 
    7200    138.70168   -898.10294    144844.88   -39728.754    2797.7712   -42526.525    35.675786    234.23864 
    7250    134.65209   -1064.4035    144891.25   -39736.112    2716.0863   -42452.198    35.870834    227.39972 
    7300    134.51396   -884.00672    144901.03   -39716.263    2713.3001   -42429.563    36.060037    227.16645 
    7350    133.07235   -1045.8364    144978.66   -39708.016    2684.2213   -42392.237     36.22151    224.73187 
    7400    132.07529    -1009.648    144865.98   -39733.855    2664.1094   -42397.964    36.376153    223.04804 
    7450    134.06672   -1033.2813    144853.14   -39729.823    2704.2789   -42434.102    36.449068    226.41116 
    7500    135.31094   -1108.2401    144752.22   -39757.194     2729.376    -42486.57    36.658988    228.51238 
    7550    133.52129   -1142.0221    144569.76   -39756.513    2693.2768    -42449.79     36.99843    225.49003 
    7600    135.89693   -929.69628    144514.33   -39733.442    2741.1962   -42474.638    37.281208      229.502 
    7650    135.65174   -1069.7609    144463.01   -39719.506    2736.2505   -42455.757    37.240659    229.08793 
    7700    133.10313   -1133.4554    144393.39   -39776.331     2684.842   -42461.173    37.434385    224.78384 
    7750    134.10657   -1100.1665    144365.27    -39785.33    2705.0826   -42490.413    37.539946    226.47845 
    7800    136.35347   -935.66201    144294.26   -39802.508    2750.4051   -42552.913    37.556718      230.273 
    7850    133.16183   -991.01311    144328.76   -39847.254    2686.0261    -42533.28    37.755512    224.88298 
    7900    131.69423   -1128.3193    144422.02    -39825.95     2656.423   -42482.373    37.881849    222.40451 
    7950    133.28277   -1102.1014    144278.87   -39802.298    2688.4656   -42490.764    37.958132    225.08722 
    8000    133.35522      -1019.9    144329.55   -39796.464     2689.927   -42486.391    38.172186    225.20958 
    8050    131.64464   -902.10995    144445.07   -39814.541    2655.4226   -42469.964    38.201681    222.32076 
    8100    132.57186   -976.95017    144580.64   -39814.443    2674.1259   -42488.569    38.357584    223.88665 
    8150    132.51421   -921.65811    144548.66   -39799.142     2672.963   -42472.105    38.506812    223.78929 
    8200     133.0203   -807.41104    144601.91   -39851.608    2683.1713   -42534.779    38.718413    224.64397 
    8250    135.00689   -1065.0871    144751.35   -39856.108    2723.2431   -42579.351    38.929916     227.9989 
    8300    132.17358   -1148.2413    144539.59   -39887.462     2666.092   -42553.554    39.172808    223.21403 
    8350    133.00042   -1052.3688    144492.66   -39867.498    2682.7703   -42550.269    39.319358    224.61039 
    8400    132.03105   -1057.2586    144538.49    -39889.13     2663.217   -42552.347    39.601781    222.97332 
    8450    129.29466   -1067.5549    144486.26   -39899.851    2608.0209   -42507.872    39.626514    218.35212 
    8500    133.04685   -961.92405    144352.39   -39852.154    2683.7068    -42535.86    39.779375     224.6888 
    8550    131.30462   -938.16076    144455.66   -39815.874     2648.564   -42464.438    39.928968    221.74653 
    8600    132.66898   -1007.4283    144516.39   -39778.445    2676.0847    -42454.53    40.028631    224.05065 
    8650    133.65225   -941.37805    144508.92   -39806.057    2695.9185   -42501.976    40.108236     225.7112 
    8700    133.49995   -1013.4278    144521.21   -39845.999    2692.8464   -42538.846    40.195797    225.45399 
    8750    133.54132   -895.56549    144518.19   -39812.803     2693.681   -42506.484    40.220871    225.52387 
    8800    132.27842   -1105.3524    144576.81   -39837.412    2668.2068   -42505.619    40.372166    223.39109 
    8850    132.96637   -939.55184    144617.62   -39849.182    2682.0834   -42531.265    40.398088    224.55289 
    8900    134.76779   -962.69215    144757.55   -39814.758    2718.4202   -42533.178    40.519757    227.59512 
    8950    132.72119   -1107.7359    144740.04   -39823.707    2677.1378   -42500.845    40.529361    224.13882 
    9000    136.42215   -1154.5711    144696.46   -39805.852    2751.7905   -42557.642    40.693688    230.38899 
    9050    135.96587   -1207.3881    144618.54   -39826.125    2742.5869   -42568.711    40.970648    229.61843 
    9100    132.89782   -944.18623    144522.55   -39836.762    2680.7007   -42517.463    41.145139    224.43712 
    9150    134.43178   -941.66074    144602.13   -39795.963    2711.6425   -42507.605    41.468886    227.02767 
    9200    132.47972    -1119.639    144456.42   -39834.092    2672.2672   -42506.359    41.655885    223.73104 
    9250    131.94284   -1031.4295    144469.59    -39857.88    2661.4378   -42519.318    41.756189    222.82436 
    9300    133.91463   -788.78785    144573.52   -39856.985    2701.2109   -42558.196    41.956699     226.1543 
    9350    134.14751   -885.12078    144711.03    -39808.05    2705.9085   -42513.959    42.049869     226.5476 
    9400    131.73444   -990.65949    144640.48   -39797.831     2657.234   -42455.065     42.19575    222.47241 
    9450    134.06561   -990.42284    144546.29   -39784.081    2704.2563   -42488.337    42.587769    226.40927 
    9500    133.89436   -987.61451    144598.68   -39837.905     2700.802   -42538.707    42.835488    226.12007 
    9550    131.98498   -1065.2152    144544.82   -39862.317    2662.2877   -42524.605    42.941888    222.89552 
    9600     130.0799   -946.45356    144570.71   -39874.656    2623.8602   -42498.516    43.179908    219.67824 
    9650    133.02534   -947.54353    144642.83   -39836.758    2683.2729   -42520.031    43.196705    224.65247 
    9700    134.03271   -882.70308    144696.22   -39808.205    2703.5928   -42511.798    43.301284    226.35372 
    9750    132.91062   -1061.7757    144622.15   -39843.854    2680.9589   -42524.813    43.334982    224.45874 
    9800    133.92507   -1127.5857    144556.63   -39854.109    2701.4216    -42555.53    43.644102    226.17194 
    9850    131.67348    -1008.627    144308.41   -39886.367    2656.0044   -42542.371     43.89997    222.36947 
    9900    131.82525   -995.28292    144332.55   -39907.051    2659.0657   -42566.117    44.189174    222.62577 
    9950    135.96257   -902.39967    144492.43   -39823.671    2742.5203   -42566.191    44.149357    229.61286 
   10000    131.85174   -895.96221     144630.4   -39842.097    2659.6001   -42501.697     44.28357     222.6705 
   10050    132.23967    -1183.276    144675.83   -39905.971    2667.4251   -42573.396    44.431691    223.32564 
   10100    133.15145   -1047.2324    144608.55   -39878.551    2685.8167   -42564.367    44.585317    224.86544 
   10150    133.19647   -927.08446    144615.95   -39914.216    2686.7249   -42600.941    44.647803    224.94148 
   10200    130.53498   -995.81349    144546.47   -39905.966    2633.0396   -42539.005    44.998952    220.44678 
   10250    131.16016   -943.13388    144610.63   -39927.452    2645.6503   -42573.102    44.930043    221.50258 
   10300    131.44846   -989.25918    144547.35   -39905.329    2651.4655   -42556.795    44.955888    221.98945 
   10350    132.91874   -914.57065    144742.97   -39854.075    2681.1228   -42535.198    44.949937    224.47246 
   10400    132.28654   -1020.4511    144898.29   -39832.519    2668.3705    -42500.89    45.020214     223.4048 
   10450    137.24131   -1011.4082    145040.23   -39784.963     2768.314   -42553.277     45.02509    231.77239 
   10500    132.32536   -1173.1388    144978.11   -39825.108    2669.1536   -42494.262    45.144166    223.47035 
   10550    132.46936   -1110.4656    145003.11   -39855.195    2672.0581   -42527.253    45.407815    223.71353 
   10600     132.7987   -955.82064    144907.77   -39907.369    2678.7014    -42586.07    45.693295    224.26973 
   10650    131.83023   -993.69242     144826.9   -39914.243    2659.1663   -42573.409    45.909193    222.63419 
   10700    133.54475   -1033.9423    144916.66   -39940.756    2693.7502   -42634.506    46.072039    225.52966 
   10750    132.03101   -946.62411    144977.65   -39921.456    2663.2161   -42584.672     46.17525    222.97325 
   10800    132.29191   -995.68762    144975.45   -39914.237    2668.4788   -42582.715     46.42172    223.41386 
   10850     132.9261   -906.49797    145035.04   -39903.683    2681.2713   -42584.954     46.75443    224.48489 
   10900    130.35049   -882.26159    145104.32   -39868.877    2629.3183   -42498.195    46.959597    220.13521 
   10950    136.87396   -888.50752    145217.87    -39849.05     2760.904   -42609.954     47.08221    231.15201 
   11000    130.94906   -1089.5206    145194.48   -39880.907     2641.392   -42522.299    47.339106    221.14606 
   11050      134.166   -973.10867    145183.65   -39837.563    2706.2815   -42543.845    47.576861    226.57883 
   11100    133.84083   -946.32904     145204.4    -39839.49    2699.7224   -42539.213    47.644422    226.02968 
   11150    133.73502   -894.86198    145297.62    -39844.47    2697.5879   -42542.058    47.737593    225.85097 
   11200    132.54666   -932.03829    145440.86    -39875.49    2673.6174   -42549.107    47.911737    223.84408 
   11250     131.2472   -1017.9871       145414   -39866.462    2647.4058   -42513.868    48.083469    221.64956 
   11300    131.46062   -1010.3687    145414.29   -39838.339    2651.7107    -42490.05    48.239917    222.00998 
   11350    133.08267   -1040.2969    145228.92    -39829.14    2684.4293    -42513.57    48.435071    224.74929 
   11400     133.4921   -947.96075    145276.59   -39852.244     2692.688   -42544.932    48.314612    225.44073 
   11450    132.06186   -994.39475    145252.16   -39845.741    2663.8385    -42509.58     48.42016    223.02536 
   11500    130.54748   -1123.6034    145212.34   -39881.247    2633.2917   -42514.539    48.604531    220.46788 
   11550    132.94452    -1155.948     145093.3    -39915.36    2681.6426   -42597.003    48.508997    224.51598 
   11600    132.98196   -934.21497    145081.26   -39883.041     2682.398   -42565.439     48.57766    224.57922 
   11650    133.66617    -933.2053    145166.87   -39875.071    2696.1992   -42571.271    48.585168     225.7347 
   11700    133.35244   -888.28999     145157.9   -39859.218    2689.8709   -42549.089    48.638301    225.20488 
   11750    135.25427   -952.35726    145250.26   -39824.671     2728.233   -42552.904    48.766811    228.41668 
   11800    132.79406   -1094.8611    145152.13   -39826.322    2678.6079    -42504.93    48.799185     224.2619 
   11850    134.36169   -806.54321    145177.21   -39796.696    2710.2286   -42506.925    48.975336     226.9093 
   11900    134.55229   -1133.9279    145146.44   -39830.884    2714.0732   -42544.957    49.446304    227.23118 
   11950      133.758   -1056.3848    145056.37   -39830.304    2698.0515   -42528.355    49.640363    225.88979 
   12000    133.97923   -1179.0723    144913.03   -39838.286     2702.514     -42540.8     49.91021     226.2634 
   12050    133.66134   -1009.0634    144715.49   -39902.554    2696.1019   -42598.656    50.123527    225.72656 
   12100    131.00996   -897.97689    144655.19   -39878.717    2642.6204   -42521.338    50.308614    221.24891 
   12150     131.1747   -953.91115    144821.48   -39893.014    2645.9434   -42538.958     50.48637    221.52713 
   12200    133.59592   -1119.7164    144887.79   -39886.276    2694.7821   -42581.059    50.589697    225.61606 
   12250    130.54068   -1095.8532    144674.51   -39918.158    2633.1546   -42551.312    50.680672     220.4564 
   12300    132.06806   -923.53078    144611.81   -39955.309    2663.9636   -42619.272    50.867497    223.03583 
   12350    130.22622   -916.31443    144586.77    -39924.51    2626.8116   -42551.321    50.840778    219.92534 
   12400    134.44079   -988.16964       144694    -39894.32    2711.8242   -42606.144    51.070176    227.04288 
   12450    130.16948   -1162.2926    144608.35   -39883.337     2625.667   -42509.004    51.162418    219.82951 
   12500    135.90197   -1056.5246     144547.2   -39845.677    2741.2979   -42586.975    51.327028    229.51051 
   12550    130.95869   -939.68556    144579.31   -39866.717    2641.5864   -42508.304     51.46724    221.16234 
   12600    131.35325   -1104.3942    144541.16   -39945.103    2649.5451   -42594.648    51.576373    221.82867 
   12650    132.28321   -995.40441     144641.3   -39961.567    2668.3034    -42629.87    51.722529    223.39918 
   12700    131.21752   -978.98839    144559.25   -39958.492    2646.8072   -42605.299    51.989938    221.59944 
   12750    128.07869   -916.11351    144660.75   -39984.018    2583.4935   -42567.511    52.106283    216.29861 
   12800    134.62722   -903.23066    144670.67   -39961.157    2715.5848   -42676.742    52.246127    227.35773 
   12850    130.60661   -1072.1388    144670.03   -39946.456    2634.4844   -42580.941    52.309475    220.56774 
   12900    132.91609   -1048.2186    144578.83   -39890.543    2681.0693   -42571.612    52.548803    224.46798 
   12950     132.7446   -1042.8708     144627.3   -39884.295    2677.6101   -42561.905    52.713979    224.17836 
   13000    131.79647   -1115.1169    144475.52   -39926.646    2658.4853   -42585.131      52.9481    222.57717 
   13050    132.91293   -1023.7973    144534.12   -39913.105    2681.0056   -42594.111     53.21679    224.46265 
   13100    135.81515   -980.92736    144525.86   -39889.144    2739.5467   -42628.691     53.48448     229.3639 
   13150    131.49622   -945.21171    144639.36   -39915.682    2652.4289   -42568.111    53.818465    222.07011 
   13200    131.72077    -951.5556    144754.52   -39941.306    2656.9583   -42598.265     53.87463    222.44933 
   13250    127.84452    -896.6115    144703.91   -39938.786      2578.77   -42517.556    53.933088    215.90314 
   13300    131.99735    -939.7406    144951.71   -39891.421    2662.5373   -42553.959    54.125671    222.91642 
   13350    130.48941   -1080.6044     144942.3   -39934.895    2632.1204   -42567.015    54.500451    220.36982 
   13400    129.98597   -1092.0947    144898.32   -39946.236    2621.9655   -42568.202    54.386785    219.51961 
   13450    131.55209   -1152.0309     144869.9   -39951.391    2653.5558   -42604.946    54.477341    222.16445 
   13500    132.83652    -767.7158    144876.99   -39925.188    2679.4642   -42604.652    54.652079    224.33359 
   13550    130.55176   -962.41311    144956.17   -39927.027    2633.3779   -42560.405    54.933042     220.4751 
   13600     133.4218   -1149.0447     144886.7    -39898.55      2691.27    -42589.82      55.0193    225.32202 
   13650    135.11833   -1196.3203    144752.45   -39890.474    2725.4909   -42615.965    55.377119    228.18711 
   13700    130.74048    -901.7254    144644.53   -39884.223    2637.1848   -42521.408    55.534893    220.79383 
   13750    130.20812   -1001.9282    144685.26   -39873.881    2626.4465   -42500.327    55.962408    219.89478 
   13800    135.77079   -1047.3832    144544.92   -39831.414    2738.6517   -42570.066    56.177462    229.28897 
   13850    134.13012   -1102.9269    144493.03   -39830.658    2705.5577   -42536.216    56.378319    226.51823 
   13900    135.63083   -880.84515    144644.99   -39789.651    2735.8286    -42525.48    56.566729    229.05261 
   13950    130.84458   -1020.3146    144630.24   -39829.232    2639.2845   -42468.516      56.8577    220.96962 
   14000    132.90064    -931.9682    144579.78   -39824.797    2680.7576   -42505.554    56.996188    224.44188 
   14050    135.25247   -973.88399    144613.89   -39807.685    2728.1967   -42535.881    57.147267    228.41364 
   14100    133.96816   -916.76767    144713.24   -39793.095    2702.2907   -42495.386    57.545033     226.2447 
   14150    134.52331   -1210.0513     144683.4   -39808.731    2713.4887   -42522.219    57.860576    227.18223 
   14200    131.69928   -845.58318    144626.59   -39870.492    2656.5249   -42527.016    57.910791    222.41304 
   14250    133.33808   -892.63868    144817.41   -39857.289    2689.5813    -42546.87      58.2909    225.18063 
   14300    134.99073   -990.79138    144865.74     -39826.5    2722.9172   -42549.417    58.441053    227.97162 
   14350    134.37787   -921.80549    144823.19   -39836.504     2710.555   -42547.059      58.7108    226.93662 
   14400      131.427   -964.17225    144910.63   -39877.508    2651.0327   -42528.541    58.847938    221.95321 
   14450    133.25382    -862.2447    144920.16    -39885.11    2687.8818   -42572.991     58.99026    225.03834 
   14500    134.12666   -966.55429    145018.15   -39843.237    2705.4878   -42548.725    59.240231    226.51237 
   14550    132.11843   -1083.5957    144980.93   -39819.143    2664.9795   -42484.123    59.503513    223.12089 
   14600    131.76279   -1105.8322    144846.55   -39907.286    2657.8059   -42565.092    59.704377    222.52029 
   14650    133.11987   -999.63847    144874.37   -39903.498    2685.1798   -42588.678    59.783783    224.81213 
   14700    132.10591    -951.2315    144910.17   -39934.906    2664.7271   -42599.633    59.914306    223.09975 
   14750    132.73048   -946.92147     144947.5   -39904.256    2677.3252   -42581.581    59.952891    224.15451 
   14800     135.9664   -935.82329    145155.59   -39852.275    2742.5976   -42594.872    60.174765    229.61933 
   14850    134.09698   -1042.4946    145270.83   -39885.914    2704.8891   -42590.803    60.431187    226.46225 
   14900    132.86221   -1095.8271    145145.58   -39934.091    2679.9824   -42614.073    60.685658    224.37698 
   14950    132.85654   -1000.0878    145017.65   -39925.544    2679.8682   -42605.412    60.716924    224.36742 
   15000    131.00124   -975.47641    145093.74   -40003.733    2642.4445   -42646.178     60.90309    221.23418 
   15050     131.8129   -1071.0153    145246.44     -39972.2    2658.8167   -42631.016    61.083595    222.60491 
   15100    132.00041   -827.48095    145238.23   -39908.284    2662.5989   -42570.883    61.069513    222.92157 
   15150    133.49664   -1022.9399    145281.26   -39829.592    2692.7796   -42522.372    61.059407    225.44841 
   15200    135.17441    -975.5285    145329.89   -39850.634    2726.6222   -42577.256    61.148843    228.28182 
   15250    133.69112   -1103.2017     145303.6   -39831.151    2696.7026   -42527.854    61.086582    225.77685 
   15300     131.7658   -1039.7688    145289.36    -39935.33    2657.8666   -42593.197    61.112607    222.52537 
   15350    128.36325   -897.75705    145357.67   -39922.839    2589.2334   -42512.073    61.254748    216.77917 
   15400    131.98558   -1041.9057    145201.39   -39938.455    2662.2998   -42600.755    61.169595    222.89654 
   15450     130.3038   -1056.3596    145178.15   -39928.988    2628.3764   -42557.365    61.335412    220.05636 
   15500    132.09885    -1069.088    145027.51   -39940.317    2664.5847   -42604.901    61.367674    223.08783 
   15550    134.68187   -861.57138    144945.47    -39937.13    2716.6871   -42653.817    61.420417    227.45002 
   15600    132.05166   -1232.5059    144845.03   -40020.086    2663.6328   -42683.719     61.23752    223.00813 
   15650    131.83582   -855.61049    144810.55   -39994.545     2659.279   -42653.824    61.446636    222.64362 
   15700    131.77488   -840.30592    144848.82   -40017.875    2658.0498   -42675.925    61.424537    222.54071 
   15750    132.92677   -1019.1437    144902.67   -39985.704    2681.2846   -42666.989    61.556957    224.48601 
   15800    132.49325   -882.22698    144954.98   -39988.538    2672.5402   -42661.078    61.603041    223.75389 
   15850    132.07376   -1135.4014    144925.94   -40046.141    2664.0786   -42710.219    61.755757    223.04546 
   15900    132.31551   -966.80178    144827.43   -39961.761     2668.955   -42630.716    61.966794    223.45373 
   15950    129.96835   -928.95009    144977.58   -39943.008    2621.6099   -42564.618    62.084005    219.48984 
   16000    134.20934   -937.04365    144914.69     -39907.6    2707.1557   -42614.755    62.249209    226.65201 
   16050    136.52449    -900.0294    144980.25   -39851.236    2753.8549   -42605.091    62.257693    230.56183 
   16100    133.87542   -882.50288    144959.74   -39838.953    2700.4201   -42539.374    62.503495    226.08809 
   16150    134.50455    -955.8889    145003.57   -39843.433    2713.1102   -42556.543    62.633837    227.15055 
   16200    134.87697   -1058.7272    145081.67    -39867.73    2720.6225   -42588.352    62.824761     227.7795 
   16250    133.79889   -972.95185    145089.53   -39857.226    2698.8763   -42556.102    63.060982    225.95884 
   16300    134.42745   -1138.9573    145102.76   -39856.204    2711.5552   -42567.759    63.451862    227.02036 
   16350    133.94514   -1029.5032    144961.62   -39874.396    2701.8263   -42576.222    63.700535    226.20582 
   16400    134.21928   -1113.9024    144932.48   -39904.666    2707.3561   -42612.022    63.863575     226.6688 
   16450    131.72604   -1035.1338    144855.16   -39928.077    2657.0645   -42585.141     63.95342    222.45822 
   16500    134.64987    -1021.015    144904.34   -39939.646    2716.0415   -42655.687    64.330217    227.39597 
   16550    134.60946   -989.76149     144804.8   -39963.248    2715.2265   -42678.475    64.538975    227.32773 
   16600    132.15541   -958.28463    144917.43   -39924.009    2665.7255   -42589.734    64.685391    223.18334 
   16650    132.11298   -1040.0769     145013.5   -39898.975    2664.8696   -42563.845    64.836196    223.11168 
   16700    131.78257   -978.38338    144991.12   -39925.393    2658.2049   -42583.598    64.985567     222.5537 
   16750    132.79806   -1045.6331    145013.67     -39923.6    2678.6885   -42602.288    65.276067    224.26865 
   16800    133.04471   -1072.4189    144858.08   -39893.281    2683.6637   -42576.945    65.458884    224.68519 
   16850     134.5477   -1014.2328    144769.26   -39891.387    2713.9807   -42605.368    65.589366    227.22343 
   16900    134.00217   -1021.6192    144711.68   -39922.851    2702.9768   -42625.828    65.791949    226.30214 
   16950     131.9308   -982.16695    144717.02   -39892.308    2661.1949   -42553.503    65.939328    222.80403 
   17000    131.77449   -915.19104    144765.37   -39930.554    2658.0418   -42588.595    66.204629    222.54004 
   17050    131.13582   -1139.4834    144682.18   -39948.342    2645.1593   -42593.501    66.377389    221.46147 
   17100    131.49515   -1031.4245    144570.04   -39972.757    2652.4073   -42625.164    66.502638     222.0683 
   17150    132.41294    -1029.745    144609.51   -39936.121    2670.9203   -42607.041    66.920042    223.61827 
   17200    131.65449    -1217.395    144555.72   -39923.082    2655.6214   -42578.704    67.121055     222.3374 
   17250    134.15909   -903.00365    144541.94   -39913.499     2706.142   -42619.641     67.42195    226.56714 
   17300    133.94922   -1188.7439    144478.79    -39916.54    2701.9087   -42618.448      67.7236    226.21272 
   17350    134.05771   -935.18073    144548.24   -39873.593    2704.0971    -42577.69    68.054862    226.39594 
   17400    133.98222   -1096.9371    144528.54   -39890.016    2702.5742   -42592.591    68.424133    226.26844 
   17450     133.3709    -969.8143     144517.8   -39902.832    2690.2433   -42593.075    68.489946    225.23605 
   17500    130.85968    -907.5522    144548.43   -39951.533    2639.5891   -42591.122    68.809138    220.99512 
   17550    131.63958   -1200.3082    144562.75    -39973.53    2655.3206   -42628.851    68.976434    222.31221 
   17600    131.38228   -1026.4733     144486.4   -39998.428    2650.1305   -42648.558    69.294133    221.87768 
   17650    129.46926   -1050.9547     144562.8   -39965.135    2611.5427   -42576.678    69.526798    218.64698 
   17700    131.29463   -1037.7173    144443.67   -40032.537    2648.3627     -42680.9      69.8135    221.72967 
   17750    131.89733   -963.57669    144432.59   -40026.277    2660.5197   -42686.797    69.976919     222.7475 
   17800    132.20621   -952.56388    144587.44   -40012.587    2666.7501   -42679.337    70.281481    223.26913 
   17850    130.99444   -1101.9146    144573.42   -39972.704    2642.3073   -42615.011    70.546097     221.2227 
   17900    131.34697   -1006.1628    144445.32   -39988.444    2649.4183   -42637.862    70.783231    221.81805 
   17950    131.18676   -934.48537    144259.62   -39996.738    2646.1867   -42642.925    70.848855    221.54749 
   18000    132.10305   -909.81433    144312.33   -39975.101    2664.6694   -42639.771    70.968186    223.09492 
   18050    132.10551   -1027.3708    144333.95   -39973.291     2664.719    -42638.01    71.096865    223.09908 
   18100     133.3209   -768.49654    144563.58   -39954.477    2689.2348   -42643.712    71.389845    225.15162 
   18150    133.84343   -885.02407    144657.41    -39948.63    2699.7747   -42648.405    71.717714    226.03406 
   18200    134.22586   -987.01766    144669.81   -39908.334    2707.4888   -42615.822    71.957136    226.67991 
   18250    133.03973   -1054.4996    144598.92   -39928.602    2683.5632   -42612.165     72.20462    224.67678 
   18300    132.43205   -927.66071    144557.27   -39913.147    2671.3056   -42584.452    72.160663    223.65053 
   18350    133.95565   -1001.4709    144818.18   -39897.873    2702.0383   -42599.911    72.450946    226.22357 
   18400    133.75591   -1067.8025    144759.77   -39908.175    2698.0094   -42606.184    72.615374    225.88626 
   18450    134.83497   -1050.1389    144650.82   -39879.532    2719.7753   -42599.307    72.798939    227.70858 
   18500    132.50072   -1023.8342    144737.14   -39925.554    2672.6907   -42598.245    72.767009     223.7665 
   18550    134.29091   -1040.7366    144685.76   -39926.862     2708.801   -42635.663     72.77559    226.78977 
   18600    133.10368   -1112.7876    144498.77   -39916.897    2684.8531    -42601.75       73.048    224.78477 
   18650    133.28259   -1001.4607    144538.62   -39915.066    2688.4621   -42603.528    73.286204    225.08693 
   18700    130.36834   -878.25365    144649.87   -39911.515    2629.6783   -42541.193    73.520421    220.16535 
   18750    131.15153   -910.11371    144632.06   -39941.927    2645.4761   -42587.403    73.714037      221.488 
   18800    133.65477   -854.00103    144741.72   -39884.736    2695.9693   -42580.705     73.80465    225.71545 
   18850    133.58708   -931.89375    145148.16   -39860.831    2694.6039   -42555.435    73.930114    225.60114 
   18900    135.89855   -1026.9407    145054.86   -39850.133    2741.2289   -42591.362    74.098002    229.50474 
   18950    134.32009   -913.58978    145137.23   -39841.269    2709.3895   -42550.659    74.187664    226.83904 
   19000    133.48894   -1057.0926    145176.19   -39859.055    2692.6242   -42551.679    74.430864    225.43539 
   19050    134.28444   -1138.9432    145112.12   -39852.149    2708.6705   -42560.819    74.497344    226.77884 
   19100    135.71494   -1110.3069     144940.5   -39877.215    2737.5252    -42614.74     74.69031    229.19466 
   19150    135.06967   -1010.9848    144659.28   -39879.398    2724.5095   -42603.907    74.705333    228.10493 
   19200    133.88834   -968.04576    144523.67   -39910.483    2700.6808   -42611.164    74.875771    226.10991 
   19250    133.26077   -1024.3714    144612.77   -39918.951    2688.0218   -42606.973    74.963989    225.05007 
   19300    132.86409   -982.31444    144550.54   -39870.284    2680.0203   -42550.305    75.007698    224.38016 
   19350    133.68779   -955.12654    144441.66   -39900.743    2696.6354   -42597.379    74.937619    225.77123 
   19400    134.13428   -796.31805    144526.68    -39925.23    2705.6416   -42630.872    75.031732    226.52526 
   19450    132.36927   -1004.4361    144628.83   -39922.114    2670.0393   -42592.154    75.370013    223.54451 
   19500    132.51181   -966.37844     144643.2    -39879.64    2672.9144   -42552.555    75.344164    223.78522 
   19550    133.46868   -1184.7485     144576.4   -39893.512    2692.2156   -42585.727    75.278305    225.40119 
   19600    135.01588   -1083.1371    144499.33   -39885.884    2723.4244   -42609.308    75.405264    228.01409 
   19650    133.45962   -1029.7257    144513.32   -39954.748    2692.0328   -42646.781     75.40319    225.38588 
   19700    132.92913   -1039.1252    144402.27   -39911.438    2681.3323    -42592.77    75.599086       224.49 
   19750    131.23397   -974.76581    144350.65   -39920.436     2647.139   -42567.575    75.711946    221.62722 
   19800    130.05082   -940.77305    144315.08   -39927.642    2623.2736   -42550.915    75.707217    219.62913 
   19850    132.71746   -1057.6629    144320.41   -39901.533    2677.0626   -42578.596    76.161156    224.13253 
   19900     133.5531   -1031.1485    144318.23   -39883.376    2693.9185   -42577.295    76.172466    225.54376 
   19950     132.2983   -944.84882    144285.67   -39914.594    2668.6078   -42583.202    76.448263    223.42466 
   20000    133.02367   -892.78133    144472.02   -39901.683    2683.2393   -42584.922    76.528474    224.64966 
   20050    133.77919    -923.0726    144685.47   -39875.716    2698.4789   -42574.195    76.631147    225.92557 
   20100    133.84505   -952.68052    144713.42   -39931.363    2699.8074   -42631.171    76.866916     226.0368 
   20150    131.65627   -1108.8541    144561.48   -39982.076    2655.6572   -42637.734    77.072283     222.3404 
   20200     131.6944   -1042.0633       144545   -40003.361    2656.4264   -42659.788     77.22542    222.40479 
   20250    131.29235   -961.98605    144586.46    -39976.54    2648.3165   -42624.856    77.476133    221.72581 
   20300    133.09547   -1011.5611    144610.23   -40005.706    2684.6876   -42690.394    77.628483    224.77092 
   20350    130.64029   -956.33857    144661.18   -40024.218    2635.1639   -42659.382    77.990021    220.62462 
   20400     129.6902   -813.71268    144705.33   -40013.955    2615.9994   -42629.954    77.920586    219.02011 
   20450    132.23497   -966.38161    144773.93   -39993.161    2667.3304   -42660.491     77.97479    223.31771 
   20500    132.67647    -981.5773    144692.95   -40025.273    2676.2359   -42701.509    78.185331    224.06331 
   20550    131.87061   -1159.1722    144748.41   -39980.889    2659.9807    -42640.87    78.305855    222.70237 
   20600    134.02998   -1038.2052    144749.48   -40006.734    2703.5377   -42710.271    78.460024    226.34911 
   20650    132.38343    -851.4659    144974.26    -40014.31    2670.3249   -42684.634     78.84691    223.56842 
   20700    132.11849   -992.87588    145058.99   -39964.773    2664.9808   -42629.753    78.971224    223.12099 
   20750    132.11118   -962.56964    145080.08   -39921.582    2664.8333   -42586.415    79.095462    223.10865 
   20800    132.57261   -1019.5891    145168.57   -39911.252    2674.1408   -42585.393    79.143876     223.8879 
   20850     132.5552   -991.84411    145077.57   -39964.803    2673.7896   -42638.592    79.180889     223.8585 
   20900    134.61717   -1029.1943     145029.9   -39907.264    2715.3821   -42622.646    79.260993    227.34076 
   20950    133.05768    -785.2141    145167.43   -39879.779    2683.9253   -42563.705    79.314613    224.70709 
   21000    132.32994   -1176.8088    145268.63   -39897.263     2669.246    -42566.51    79.424042     223.4781 
   21050     132.8043   -1131.0943    145271.22   -39939.456    2678.8143    -42618.27    79.690661    224.27919 
   21100    131.96204   -1001.5903    145400.61   -39861.907    2661.8249   -42523.732    79.885198    222.85678 
   21150    131.80059   -960.64404    145434.56   -39884.983    2658.5684   -42543.551    79.900861    222.58413 
   21200       132.28   -967.28183    145458.84   -39934.174    2668.2386   -42602.413    79.971242    223.39375 
   21250    133.60437    -1047.621    145457.42   -39883.235    2694.9528   -42578.188    80.109421    225.63035 
   21300    133.24907   -1115.3225    145451.56   -39871.472    2687.7859   -42559.258     80.33821    225.03031 
   21350    133.48705   -996.45798    145523.72    -39910.88    2692.5863   -42603.466    80.425111    225.43222 
   21400    134.72019   -993.41416    145377.55   -39909.214    2717.4601   -42626.675    80.619479    227.51473 
   21450    133.30935   -1101.5365    145295.27   -39940.822    2689.0018   -42629.824    80.715109    225.13211 
   21500    133.07253   -936.39696    145410.47   -39905.637    2684.2248   -42589.861    80.792762    224.73217 
   21550    130.70507   -873.21639    145389.53   -39897.219    2636.4705   -42533.689    80.710473    220.73402 
   21600     132.8173   -1024.6204    145367.73   -39975.305    2679.0765   -42654.382    80.650641    224.30113 
   21650    134.07808    -1035.287       145271   -39951.422    2704.5079   -42655.929    80.785463    226.43034 
   21700    130.58913   -1013.3936    145144.04   -40027.252    2634.1318   -42661.384    81.065317    220.53822 
   21750    129.79236   -1104.5956    145102.25   -40052.825    2618.0601   -42670.885    81.171398    219.19264 
   21800    131.17729   -971.71681    145148.35   -40049.278    2645.9957   -42695.274     81.27556     221.5315 
   21850    130.53606    -1063.463       145152   -40032.246    2633.0613   -42665.307    81.488974    220.44859 
   21900    132.50834   -1007.8016    145091.54   -40012.879    2672.8445   -42685.724    81.353987    223.77937 
   21950    132.64247   -1052.5482    145054.68   -40037.518    2675.5501   -42713.068    81.532295    224.00589 
   22000    132.11245   -1058.6521    145120.14     -40050.8    2664.8589   -42715.659    81.831295    223.11079 
   22050     134.1358   -979.71306    145066.41   -39999.145    2705.6722   -42704.817    82.002206    226.52781 
   22100    131.29846   -1016.0433    145155.65   -40027.991    2648.4398    -42676.43     82.14881    221.73613 
   22150    132.04034   -834.91867    145200.93   -40057.178    2663.4043   -42720.582    82.115357    222.98901 
   22200    132.48728   -940.19721    145429.13   -40041.346    2672.4198   -42713.766    82.286692    223.74381 
   22250    130.35181   -865.24635    145517.53   -40044.314    2629.3448   -42673.659    82.480558    220.13743 
   22300    132.49677   -937.55953    145530.15    -39996.31    2672.6111   -42668.921     82.74122    223.75983 
   22350     131.8181   -928.89923    145528.35   -39994.868    2658.9215   -42653.789    82.938131    222.61369 
   22400    132.99947   -994.23645    145489.23   -39985.315    2682.7511   -42668.066    83.016258    224.60878 
   22450    132.40761   -978.67595    145432.34   -40058.687    2670.8127   -42729.499    83.185289    223.60926 
   22500    130.91249   -1111.3942    145311.51   -40108.731    2640.6545   -42749.386    83.338152    221.08431 
   22550    128.71324   -1025.1544    145307.09   -40084.701    2596.2931   -42680.994    83.367251    217.37023 
   22600    131.81375   -1053.9386    145311.37   -40076.501    2658.8337   -42735.334    83.774138    222.60634 
   22650    132.43729     -1120.66    145402.25    -40037.23    2671.4114   -42708.641    83.924236    223.65939 
   22700    132.54572   -1029.6281    145468.97   -40006.744    2673.5985   -42680.343    84.138756     223.8425 
   22750    135.74658   -1038.6138    145461.51   -39992.958    2738.1634   -42731.122    84.422313    229.24809 
   22800    135.12945   -1013.6363    145504.06   -40009.346    2725.7153   -42735.062    84.598868    228.20589 
   22850     134.7707   -1032.4236    145544.78   -39956.182    2718.4789   -42674.661    84.803082    227.60004 
   22900    130.77153   -900.73985    145468.65    -39984.28    2637.8111   -42622.091    84.993714    220.84626 
   22950    133.92693   -1055.6705    145563.76   -39927.502    2701.4591   -42628.961    84.978369    226.17508 
   23000    132.52494   -962.37417    145490.44   -39930.439    2673.1793   -42603.618    85.188704     223.8074 
   23050    131.36232    -977.2874     145429.6   -39970.545    2649.7279   -42620.273    85.271322    221.84397 
   23100    132.48456   -967.67787    145449.55   -39923.885    2672.3649    -42596.25     85.25436    223.73922 
   23150    133.45473   -985.18929    145488.15   -39916.959    2691.9342   -42608.893    85.537725    225.37763 
   23200    132.29621   -1043.3611       145411   -39916.097    2668.5656   -42584.663    85.600131    223.42113 
   23250     131.1381   -1046.8671    145284.25   -39930.909    2645.2051   -42576.114    85.873585    221.46531 
   23300    132.35341   -899.36224    145255.39   -39928.926    2669.7193   -42598.645    85.900104    223.51772 
   23350    132.51709   -1132.5563    145099.38   -39955.341     2673.021   -42628.362    86.098883    223.79415 
   23400    133.27038   -855.09866    145149.45   -39911.113    2688.2158   -42599.328    86.283333     225.0663 
   23450    131.87224   -1129.8142     145075.1   -39921.224    2660.0135   -42581.238    86.269772    222.70512 
   23500    133.04169   -955.56111    145098.64   -39878.283    2683.6027   -42561.886    86.493439    224.68009 
   23550    135.78154   -853.33652    145259.36   -39812.285    2738.8686   -42551.154    86.800317    229.30713 
   23600    134.46868   -969.06486    145281.33   -39784.383    2712.3867   -42496.769    86.838072    227.08998 
   23650    132.67194   -1079.4892    145208.76   -39830.877    2676.1445   -42507.021    86.809481    224.05566 
   23700    134.82778   -1048.2171    145208.76   -39854.019    2719.6302   -42573.649    86.752211    227.69643 
   23750    135.32004   -1067.2727    145148.52   -39848.391    2729.5597    -42577.95    86.796523    228.52776 
   23800    135.19787   -1159.8873    145133.01   -39843.126    2727.0954   -42570.221      86.9134    228.32143 
   23850    134.20624   -832.86591    145121.71   -39847.585    2707.0931   -42554.678    87.016694    226.64677 
   23900    133.28063   -1151.3685    145099.28   -39836.351    2688.4224   -42524.774     87.16203    225.08361 
   23950    137.03052   -1055.4638    145051.82    -39771.22     2764.062   -42535.282    87.196993     231.4164 
   24000    134.06902   -975.75727    145089.79   -39844.983    2704.3251   -42549.308    87.224392    226.41503 
   24050    132.70831   -990.93061    144970.87   -39839.057    2676.8781   -42515.935    87.201567    224.11708 
   24100    132.52923   -973.74686    145010.15   -39876.543    2673.2659   -42549.809    87.245079    223.81465 
   24150    135.40605   -1204.7967    144912.28   -39827.089    2731.2946   -42558.383    87.253067    228.67301 
   24200    132.57477   -1118.3551    144751.36   -39892.865    2674.1846   -42567.049    87.436356    223.89156 
   24250    133.44735   -851.94114    144683.82   -39872.736    2691.7855   -42564.521     87.42104    225.36517 
   24300    135.22277   -992.74409    144836.09   -39887.863    2727.5977   -42615.461    87.591013    228.36349 
   24350    133.69104   -947.88086    144917.16   -39888.909    2696.7009    -42585.61    87.592151    225.77671 
   24400    134.37344   -996.47623    144905.25    -39877.63    2710.4656   -42588.095    87.535226    226.92913 
   24450     133.8767   -1024.8884    144964.02   -39902.781     2700.446   -42603.227     87.36866    226.09026 
   24500    132.99197   -941.67875    144970.07   -39865.916    2682.5999   -42548.516    87.411037    224.59613 
   24550    132.04567   -998.82591    144983.46   -39831.217    2663.5119   -42494.728    87.540438    222.99802 
   24600    135.03398   -1093.9492    144884.15   -39851.349    2723.7896   -42575.139    87.685058    228.04466 
   24650    134.95833   -1030.3792    144829.58   -39878.778    2722.2635   -42601.042    87.804444     227.9169 
   24700    132.82533   -956.76289    144803.67   -39904.445    2679.2386   -42583.684    87.998254     224.3147 
   24750    130.96671   -998.07743    144777.74   -39919.072    2641.7481    -42560.82    88.104599    221.17588 
   24800    135.22396   -966.52846    144866.19   -39966.071    2727.6216   -42693.692    88.048699    228.36549 
   24850    132.42979   -942.42039    144863.54   -39979.095    2671.2601   -42650.355    88.141817    223.64672 
   24900    130.96777   -1001.2164    144794.71    -39948.26    2641.7695    -42590.03    88.160556    221.17767 
   24950    130.04686   -1093.5037    144776.01    -39990.65    2623.1935   -42613.844    88.252943    219.62243 
   25000    131.25358   -944.15162    144724.76   -39969.967    2647.5346   -42617.502    88.642512    221.66034 
   25050    131.17373   -1165.2383    144466.35   -39974.821    2645.9239   -42620.745    88.675241    221.52549 
   25100    131.35394   -990.56622    144428.49   -39975.975     2649.559   -42625.534    88.586478    221.82983 
   25150    132.58038   -947.07999    144538.42   -39980.632    2674.2976   -42654.929    88.889442    223.90103 
   25200     132.1052   -912.28056    144629.81     -39964.7    2664.7128   -42629.413    88.999914    223.09856 
   25250    131.99646   -1032.4327    144678.48   -39914.438    2662.5192   -42576.957     89.11646     222.9149 
   25300    131.49811   -998.76222    144712.58   -39916.946    2652.4669   -42569.413    89.062253    222.07329 
   25350    130.46731   -1090.6793     144691.1   -39936.074    2631.6746   -42567.749    89.140756     220.3325 
   25400    131.98824   -847.16214    144718.53   -39901.409    2662.3534   -42563.763    89.438547    222.90102 
   25450    132.16551   -1013.4828    144774.74   -39921.202    2665.9293   -42587.131    89.591076    223.20041 
   25500    133.03898   -964.67544    144665.69   -39857.478    2683.5481   -42541.026    89.775314    224.67551 
   25550    132.71396   -992.04366    144749.61   -39878.319     2676.992   -42555.311    89.846678    224.12662 
   25600    133.07801   -972.27084     144719.9   -39812.891    2684.3355   -42497.227    90.014469    224.74143 
   25650     132.3858   -991.36704    144609.46   -39796.257    2670.3728    -42466.63    90.221269    223.57243 
   25700    132.69514   -927.15844    144653.21   -39823.238    2676.6125    -42499.85     90.64724    224.09484 
   25750    134.63484   -1052.2181    144591.64   -39780.828    2715.7384   -42496.566    90.571485    227.37059 
   25800    135.08026   -927.21641    144674.66   -39795.888    2724.7231   -42520.611    90.839865    228.12282 
   25850    133.22865   -840.75646    144669.17   -39791.825     2687.374   -42479.199    91.217936    224.99582 
   25900    133.34962   -991.44565    144762.16   -39846.725     2689.814   -42536.539    91.168467    225.20012 
   25950    134.14873   -926.48775    144824.67   -39830.511    2705.9331   -42536.444      91.0447    226.54966 
   26000    130.36596   -1112.8667    144689.65   -39825.433    2629.6303   -42455.063    90.933562    220.16134 
   26050    133.96656   -922.06858    144600.77    -39745.14    2702.2584   -42447.398    90.816204      226.242 
   26100    134.26529   -1009.5525    144644.27   -39743.905    2708.2841   -42452.189    90.941908    226.74649 
   26150    135.61951   -1021.2398    144560.94   -39706.481    2735.6004   -42442.081     91.22066     229.0335 
   26200    134.69898   -962.50718    144751.21   -39679.471    2717.0322   -42396.503    91.411568    227.47892 
   26250    136.40066   -948.06354    144764.24   -39737.142    2751.3571   -42488.499    91.516105    230.35271 
   26300    132.18701   -863.90444    144767.41   -39747.941    2666.3629   -42414.304    91.734286    223.23671 
   26350    133.97378   -1034.2855    144847.02   -39776.491     2702.404   -42478.895    91.965452    226.25419 
   26400    132.72917    -955.8236    144801.39   -39812.051     2677.299    -42489.35    92.265257    224.15231 
   26450    131.69059   -955.80005    144750.86    -39783.81    2656.3496    -42440.16    92.311589    222.39836 
   26500    131.87414   -1103.6423    144599.66   -39815.167     2660.052   -42475.219    92.484408    222.70834 
   26550    132.71389    -971.7637    144502.44   -39856.513    2676.9906   -42533.504    92.507619     224.1265 
   26600    132.42728   -945.83236     144637.6    -39878.87    2671.2094   -42550.079    92.566946    223.64247 
   26650    131.23775   -1018.7016    144614.97   -39896.564    2647.2153   -42543.779    92.841646    221.63361 
   26700    134.28115   -961.86191     144699.9   -39841.995    2708.6042   -42550.599    93.092454    226.77329 
   26750    132.36348   -1113.5555    144798.87   -39836.717    2669.9225    -42506.64    93.238181    223.53474 
   26800    133.41659    -935.9592    144850.96   -39837.057    2691.1648   -42528.222    93.439282    225.31321 
   26850    132.95514   -913.83568    144869.01   -39835.008    2681.8569   -42516.865    93.634505    224.53392 
   26900    135.31715   -813.56228    144918.14   -39769.853    2729.5014   -42499.354    93.538065    228.52287 
   26950    134.49364    -904.3054       145094   -39763.283    2712.8903   -42476.173    93.659996    227.13214 
   27000    135.28225   -1012.1374    145172.31   -39770.705    2728.7974   -42499.502    93.799913    228.46393 
   27050    135.89686   -964.24284    145116.11   -39814.914    2741.1948   -42556.109    93.811619    229.50188 
   27100    133.69061   -1163.2795    145285.54   -39812.839    2696.6923   -42509.532    94.259053    225.77599 
   27150    136.02189   -907.07258    145204.66   -39756.658    2743.7169   -42500.375    94.394438    229.71304 
   27200    133.95365   -982.46698    145326.41   -39771.769     2701.998   -42473.767    94.748828     226.2202 
   27250    135.06582   -1127.3566    145289.83   -39761.343    2724.4318   -42485.775    94.909465    228.09843 
   27300    133.12251   -1040.0151    145203.82   -39781.965    2685.2329   -42467.198     94.95102    224.81657 
   27350    133.34083   -1045.4315    145046.88   -39813.081    2689.6367   -42502.718    95.308807    225.18527 
   27400     133.5338   -1019.9659       144877   -39832.283    2693.5292   -42525.813    95.716361    225.51116 
   27450    133.72181   -1024.3649    144818.29   -39858.879    2697.3216     -42556.2    96.157479    225.82868 
   27500    133.54864   -925.22127    144651.89   -39859.319    2693.8284   -42553.148    96.171583    225.53622 
   27550    134.58633   -1027.8375    144644.95   -39828.299      2714.76   -42543.059    96.563431    227.28868 
   27600    134.15785   -806.48987    144765.69   -39797.996    2706.1171   -42504.113     96.72972    226.56506 
   27650     133.4882   -908.19414    144758.92   -39777.166    2692.6094   -42469.775    96.928618    225.43415 
   27700    136.05544   -1034.4767    144784.59   -39775.977    2744.3936    -42520.37    97.189392    229.76969 
   27750    136.21057   -964.66593    144916.72   -39725.353    2747.5227   -42472.876    97.678682    230.03168 
   27800      137.297    -932.1993    144962.27   -39773.843    2769.4373    -42543.28    97.929544    231.86644 
   27850    135.79737   -1101.6149     145005.7    -39766.54     2739.188   -42505.728    98.169938    229.33387 
   27900    135.01036   -814.27652    145186.52   -39745.454    2723.3131   -42468.767    98.256259    228.00477 
   27950    134.16197   -1115.6119    145210.32   -39749.331       2706.2   -42455.531     98.32819    226.57201 
   28000    137.31815   -1193.0954    145100.57   -39707.339    2769.8639   -42477.203    98.570026    231.90215 
   28050    133.25002   -1150.2143    144882.36   -39794.974    2687.8051   -42482.779    98.879427    225.03192 
   28100    134.79631   -1069.1612    144762.77   -39791.584    2718.9954   -42510.579    99.109411    227.64328 
   28150    134.04354   -1067.5889    144648.86   -39811.077    2703.8113   -42514.888    99.216251    226.37201 
   28200    134.07974   -1088.2641    144516.51   -39847.306    2704.5414   -42551.847    99.153695    226.43314 
   28250    132.56616   -950.83659    144645.54   -39813.225    2674.0108   -42487.236    99.208937    223.87702 
   28300    135.99426    -869.7354    144797.42   -39811.676    2743.1596   -42554.836    99.446487    229.66638 
   28350    137.75748   -1074.9753    144889.95    -39781.16    2778.7255   -42559.885    99.678827    232.64408 
   28400    134.14461   -1146.6618    144907.88   -39844.568      2705.85   -42550.418    99.870822     226.5427 
   28450    134.62759   -983.45812     144898.2    -39840.12    2715.5922   -42555.712      100.205    227.35835 
   28500    136.65145    -1054.369    144991.41   -39833.775    2756.4158   -42590.191    100.68039    230.77624 
   28550    133.20439   -1043.4209    144948.01   -39919.695    2686.8846    -42606.58    100.82028    224.95485 
   28600    131.48025    -981.0478    144908.66   -39898.179    2652.1067   -42550.285    100.97306    222.04313 
   28650    133.62175   -820.24131    144992.33    -39915.84    2695.3033   -42611.143    101.11184     225.6597 
   28700    132.38913   -1010.3293    145154.22   -39932.584    2670.4398   -42603.024    101.22348    223.57805 
   28750    129.68234   -985.48834    145264.05   -39937.533    2615.8409   -42553.374    101.24673    219.00684 
   28800    132.86592   -1129.1276    145092.16    -39944.29    2680.0573   -42624.347    101.18393    224.38325 
   28850    132.29346   -942.30209    145196.92   -39930.061    2668.5101   -42598.572    101.06636    223.41648 
   28900    133.78433   -1193.4621    144995.11   -39927.335    2698.5827   -42625.918    101.17319    225.93426 
   28950    132.19207    -891.3198    144947.62   -39930.856     2666.465   -42597.321    101.10189    223.24526 
   29000    132.58057    -883.2174    145072.17   -39903.865    2674.3015   -42578.166    101.14639    223.90136 
   29050    132.28927    -989.1739    145134.52   -39879.229    2668.4256   -42547.655    101.25648    223.40941 
   29100    130.59018   -863.01008    145318.73   -39920.198    2634.1531   -42554.351    101.30287       220.54 
   29150     132.8802   -1080.2402    145190.16   -39927.226    2680.3453   -42607.572    101.56016    224.40736 
   29200    130.76933   -953.16851    144983.25   -39941.713    2637.7667    -42579.48    101.61356    220.84254 
   29250    134.28236   -1092.7536     145071.5   -39882.205    2708.6286   -42590.834     101.8015    226.77533 
   29300    130.47991   -1029.0331    144973.76   -39899.926    2631.9287   -42531.855    102.15038    220.35377 
   29350    132.52992   -915.06709     144927.6   -39880.832    2673.2798   -42554.111     102.3369    223.81582 
   29400    130.74283   -995.24764    144999.68   -39924.169    2637.2321   -42561.402    102.42819    220.79778 
   29450    130.97076   -1012.3627    145043.11   -39911.353    2641.8297   -42553.183    102.71565    221.18271 
   29500    131.93745   -981.75121    145199.35   -39930.827     2661.329   -42592.156    102.97721    222.81526 
   29550    132.94625   -944.61143    145120.49   -39981.771    2681.6776   -42663.449    103.21868    224.51891 
   29600    131.72691   -887.94409    145160.72   -39984.847    2657.0822   -42641.929    103.28619     222.4597 
   29650    134.11228   -1094.0733    145158.42     -39916.5    2705.1978   -42621.698      103.465    226.48809 
   29700    132.95249   -953.37762    145234.76   -39928.524    2681.8035   -42610.327    103.87954    224.52945 
   29750    132.89747   -818.67519    145272.98   -39917.118    2680.6938   -42597.812     103.8621    224.43654 
   29800    131.97075   -1023.6354    145448.27    -39903.96    2662.0006   -42565.961    104.02339    222.87149 
   29850    134.40412    -934.1835    145475.05   -39867.691    2711.0845   -42578.776    104.07686    226.98095 
   29900    135.14935   -1146.2644    145403.76   -39867.493    2726.1167    -42593.61    104.15461     228.2395 
   29950    131.67423   -1034.5987    145313.66   -39894.114    2656.0196   -42550.133    104.37124    222.37074 
   30000    132.13082   -872.34554    145220.53   -39886.665    2665.2294   -42551.895    104.46472    223.14181 
   30050     131.5692   -985.34543    145391.89   -39821.942     2653.901   -42475.843    104.41249    222.19336 
   30100    134.29708   -1080.4739     145518.9    -39808.88    2708.9255   -42517.806    104.61064    226.80019 
   30150    136.69695   -1139.5933    145328.52   -39782.626    2757.3335    -42539.96    104.89982    230.85307 
   30200    136.72399   -972.88959     145149.3   -39768.948     2757.879   -42526.827     104.8722    230.89874 
   30250    135.90974   -982.08535    145186.32   -39761.648    2741.4547   -42503.103    105.00998    229.52364 
   30300     134.4785   -1001.2524    145184.01   -39758.996    2712.5848   -42471.581    105.23446    227.10656 
   30350    134.15851   -1038.8006    145368.74   -39805.163    2706.1302   -42511.293     105.6669    226.56616 
   30400    135.26894   -1088.2713    145279.86   -39810.088    2728.5289   -42538.617    105.73482    228.44145 
   30450     136.0556    -1100.938    145221.53   -39820.875    2744.3967   -42565.272    105.88875    229.76996 
   30500    134.19603   -1010.8214    145283.81    -39795.08    2706.8871   -42501.967    106.04445    226.62953 
   30550    132.61611   -1067.4469       145275   -39787.528    2675.0184   -42462.547     106.1319    223.96138 
   30600    133.46149   -1057.7796    145270.16   -39807.169    2692.0706    -42499.24    106.25219    225.38904 
   30650    132.45383   -1158.2315     145171.2   -39814.525     2671.745    -42486.27    106.29189    223.68732 
   30700    133.65626   -1028.6813    145039.36   -39808.201    2695.9993     -42504.2    106.78247    225.71797 
   30750     134.2623   -966.65462    144895.31   -39815.136    2708.2238    -42523.36    107.14492    226.74144 
   30800    130.66814   -1123.7942    144905.07   -39838.612    2635.7256   -42474.337    107.32529    220.67165 
   30850    132.88792   -1164.7021    144804.92   -39821.519    2680.5011    -42502.02    107.66929     224.4204 
   30900    135.08474   -1117.6468    144644.48   -39818.407    2724.8135    -42543.22    107.70978    228.13038 
   30950    131.90108   -1059.5787    144549.52   -39820.854    2660.5954   -42481.449     107.8606    222.75384 
   31000    134.45911   -993.02445    144456.69   -39747.537    2712.1938   -42459.731    107.92773    227.07382 
   31050    134.74037   -830.04061    144578.32   -39713.027    2717.8671   -42430.894    108.01222    227.54881 
   31100    133.24934   -836.79435    144877.31   -39735.916    2687.7913   -42423.708    108.39457    225.03077 
   31150    133.73957    -880.9326    144795.32   -39737.182    2697.6798   -42434.862    108.39524    225.85866 
   31200     133.6301   -920.42389    144883.01   -39740.952    2695.4716   -42436.424    108.66148    225.67379 
   31250    130.77843   -1108.5375    144772.07   -39790.273    2637.9503   -42428.224    109.29184    220.85792 
   31300    132.61079   -906.27931    144605.11   -39797.216    2674.9111   -42472.127    109.54455    223.95239 
   31350    132.61817   -937.69811    144656.83    -39789.28    2675.0598    -42464.34     109.5818    223.96485 
   31400    131.54185   -1225.4695    144599.54   -39771.207    2653.3493   -42424.557    109.43535    222.14717 
   31450    132.54985   -976.59314    144637.15   -39733.659    2673.6818   -42407.341    109.68773    223.84947 
   31500    135.21104   -916.44051    144737.36   -39731.875     2727.361   -42459.236    109.69564    228.34367 
   31550    133.91173   -1096.4271    144665.25   -39730.428    2701.1524   -42431.581    109.99061     226.1494 
   31600    133.29703   -1135.4715    144433.83   -39766.759    2688.7534   -42455.512    110.40261    225.11131 
   31650    133.65163    -928.6594    144380.12   -39770.542    2695.9059   -42466.448    110.60061    225.71015 
   31700    135.94077   -1163.6174    144457.34   -39765.645    2742.0806   -42507.726    110.75425    229.57605 
   31750     132.8839   -938.02529    144427.18   -39757.026      2680.42   -42437.446    110.82564    224.41361 
   31800    133.30595   -916.34825    144381.52   -39819.072    2688.9333   -42508.005    110.95992    225.12638 
   31850    134.73577   -966.36884    144546.69   -39882.405    2717.7742    -42600.18    110.95128    227.54104 
   31900    130.38381   -1027.1754     144470.3   -39920.903    2629.9904   -42550.893    111.03003    220.19148 
   31950    133.24075   -1068.2007    144557.86   -39913.384     2687.618   -42601.002    111.20668    225.01626 
   32000    132.07407   -1052.1714       144536   -39906.647    2664.0848   -42570.732    111.15929    223.04598 
   32050    132.23159   -990.72685    144625.43   -39932.306     2667.262   -42599.568    111.38913    223.31199 
   32100    134.41521   -1144.4686    144515.86    -39932.39    2711.3083   -42643.698    111.76911    226.99969 
   32150    132.11012   -959.13135    144564.85   -39957.411    2664.8119   -42622.223    112.23689    223.10686 
   32200    132.90457   -975.94388    144522.99   -39941.038     2680.837   -42621.875    112.36472    224.44853 
   32250    132.71733   -1152.4609    144483.57   -39877.746      2677.06   -42554.806    112.55273     224.1323 
   32300    129.77919   -802.26774    144535.68    -39876.21    2617.7943   -42494.005    112.63638    219.17039 
   32350    131.07839   -1051.9685    144668.76   -39867.696    2644.0007   -42511.696    112.82501    221.36447 
   32400    131.30685   -956.21887    144585.63   -39870.713     2648.609   -42519.322    113.10837     221.7503 
   32450    131.44338    -1087.467    144529.02   -39867.491     2651.363   -42518.854    113.20688    221.98087 
   32500    130.26952   -1061.8832    144484.91   -39933.354    2627.6848   -42561.039    113.20122    219.99846 
   32550     131.5321   -1028.5848    144511.41   -39916.963    2653.1526   -42570.115     113.2324     222.1307 
   32600    131.18705   -1033.6891    144519.63   -39921.436    2646.1925   -42567.629    113.40486    221.54798 
   32650     134.0343   -1069.3401     144625.9   -39871.708    2703.6247   -42575.333    114.04613     226.3564 
   32700    135.32675   -854.62124    144688.87   -39820.575     2729.695    -42550.27     114.2118    228.53908 
   32750    134.19456   -1017.4833    144770.83   -39783.444    2706.8576   -42490.302     114.5319    226.62706 
   32800    136.50828   -951.22418    144785.63   -39773.208    2753.5279   -42526.736    114.35417    230.53445 
   32850    135.11763   -985.13259    144857.36   -39738.639    2725.4768   -42464.116     114.5936    228.18592 
   32900    133.41915   -1057.5341    144788.45   -39795.764    2691.2166   -42486.981    114.82576    225.31754 
   32950    134.71608   -1198.8299    144679.62   -39794.205     2717.377   -42511.582    114.95141    227.50778 
   33000    135.11012    -1040.121    144628.11   -39820.425    2725.3254   -42545.751    115.07813    228.17324 
   33050     129.5429   -941.35993     144569.5   -39918.048    2613.0283   -42531.076    115.21993    218.77136 
   33100    132.26636   -941.02083    144575.22   -39894.788    2667.9634   -42562.751    115.55402    223.37071 
   33150    132.35847   -836.17037    144743.85   -39872.482    2669.8214   -42542.304    115.82344    223.52627 
   33200    131.93005   -996.14252     144839.9   -39894.791    2661.1797   -42555.971    116.08412    222.80276 
   33250       133.69   -1040.4297    144782.56   -39899.405    2696.6799   -42596.085    115.94958    225.77495 
   33300    133.36437   -995.05797    144747.25       -39869    2690.1116   -42559.112    115.81373    225.22503 
   33350    132.97548    -966.1314    144724.43   -39855.412    2682.2671   -42537.679    115.74204    224.56827 
   33400    131.89192   -977.90608    144658.64   -39863.492    2660.4106   -42523.902    115.77345    222.73836 
   33450    132.30149   -890.06192     144770.2   -39888.597    2668.6722   -42557.269    115.90314    223.43005 
   33500    131.67487   -1093.5116    144454.53   -39922.897    2656.0325    -42578.93    115.83022    222.37182 
   33550    133.31231   -1091.9769    144502.84   -39949.674    2689.0615   -42638.735    115.96433    225.13711 
   33600    132.98743   -1008.8526    144507.86   -39876.268    2682.5082   -42558.776    116.22971    224.58845 
   33650    134.57049   -994.71202    144607.43   -39841.405    2714.4405   -42555.845    116.22584    227.26192 
   33700     134.0308   -911.44386    144659.59   -39831.718    2703.5542   -42535.272    116.35748    226.35049 
   33750    134.13688   -1062.6896    144722.49   -39863.044     2705.694   -42568.738    116.79134    226.52964 
   33800    132.69461   -1026.9395     144650.9   -39876.521    2676.6019   -42553.123    116.87102    224.09395 
   33850    132.85704   -969.81329    144749.54   -39892.625    2679.8783   -42572.503    116.91278    224.36826 
   33900    135.46522    -933.3552    144827.77   -39922.676    2732.4882   -42655.164    117.02741    228.77294 
   33950    135.66135   -1084.1272    144796.85   -39886.609    2736.4442   -42623.053    117.34749    229.10415 
[...]
   92000     129.9712   -1151.1738    144460.15   -39937.426    2621.6675   -42559.094    283.51705    219.49466 
   92050    135.91566   -854.59403    144410.23   -39925.548     2741.574   -42667.122    283.58216    229.53363 
   92100    131.66904   -963.28153    144503.71   -39951.979    2655.9148   -42607.894    283.99831    222.36196 
   92150     133.4724   -954.19604    144654.61   -39938.992    2692.2907   -42631.283    283.85146    225.40747 
   92200    130.77195   -972.37418    144660.06   -39928.899    2637.8195   -42566.718    283.91427    220.84696 
   92250    132.27646   -1120.7065    144679.21   -39960.403    2668.1673   -42628.571    284.19292    223.38778 
   92300    131.23918   -1028.1674    144758.55   -39974.886     2647.244    -42622.13    284.13095    221.63601 
   92350    133.34214   -1167.7103    144710.82   -39997.457    2689.6633    -42687.12    284.44873    225.18749 
   92400    128.93094   -1028.3042    144612.08   -39971.534    2600.6842   -42572.219     284.6524    217.73787 
   92450    132.22327   -1113.5536    144582.78   -39906.291    2667.0944   -42573.385      284.837    223.29795 
   92500    135.52837    -1154.342    144535.84   -39840.598    2733.7619    -42574.36    284.70802    228.87958 
   92550     134.7701   -989.44116    144572.13   -39825.871    2718.4668   -42544.338    284.29235    227.59902 
   92600    136.43271   -931.55286    144686.48   -39773.953    2752.0035   -42525.956    284.74931    230.40682 
   92650    137.54981   -1058.1154    144678.85    -39786.47    2774.5366   -42561.007    285.32016    232.29337 
   92700    135.44276   -1026.8478    144798.39   -39836.058     2732.035   -42568.093     285.7448      228.735 
   92750    134.60316   -1056.3771    144715.62   -39915.831    2715.0994    -42630.93    286.12001    227.31709 
   92800    133.82598   -993.16121    144742.26   -39932.194    2699.4227   -42631.616    285.75352    226.00459 
   92850    131.65184   -1030.0565     144862.9   -39896.012    2655.5678    -42551.58    286.24433    222.33291 
   92900    131.63323   -716.02027    144958.65   -39982.897    2655.1924    -42638.09    286.42871    222.30148 
   92950    130.95989   -1003.3559    145088.13   -39973.093    2641.6105   -42614.703    286.29394    221.16435 
   93000    134.17528   -1012.7553    145077.79   -39961.279    2706.4686   -42667.748    287.01282    226.59449 
   93050    132.81629   -865.68059    145171.02   -39888.504    2679.0561    -42567.56    287.40765    224.29943 
   93100    132.51474   -953.35229    145170.61   -39961.137    2672.9736   -42634.111    287.38109    223.79018 
   93150    133.41866    -1091.394    145060.04   -39949.611    2691.2066   -42640.817    287.93927    225.31671 
   93200    131.22878   -929.13708    144966.54   -39901.334    2647.0343   -42548.369    287.72269    221.61846 
   93250    131.25277   -1113.6747    144977.71   -39887.223    2647.5182   -42534.741     287.8648    221.65897 
   93300    134.58236   -922.26864    145035.83   -39892.812    2714.6799   -42607.492     287.9833    227.28197 
   93350    134.04076   -1112.6932    144952.07   -39878.049    2703.7552   -42581.804    288.39431    226.36732 
   93400    137.11173   -1068.2327    145001.37   -39877.067    2765.7001   -42642.767    289.15803    231.55355 
   93450    133.31457   -1077.0569    144888.85    -39894.12    2689.1071   -42583.227    289.21715    225.14093 
   93500    134.24129   -887.09425    144902.33    -39921.07       2707.8    -42628.87    289.33013    226.70596 
   93550    134.87385   -960.48929    144842.41   -39935.505    2720.5596   -42656.064    289.75655    227.77424 
   93600    136.04654   -950.83525    144802.28   -39909.223     2744.214   -42653.437    289.95551    229.75466 
   93650    132.65997    -1084.374    144682.33   -39994.339     2675.903   -42670.242    290.24484    224.03544 
   93700    132.89366   -1166.9547     144625.6   -40006.801    2680.6168   -42687.418    290.22206    224.43009 
   93750    132.83849   -1067.3867    144599.59   -40047.595     2679.504   -42727.099    290.49816    224.33692 
   93800    128.49479   -938.54059     144609.2   -40108.564    2591.8866   -42700.451    291.03198    217.00131 
   93850    130.77934   -962.80549    144701.44   -40076.261    2637.9685   -42714.229    291.37918    220.85944 
   93900    132.48167   -950.64955    144690.17   -40030.031    2672.3066   -42702.338     291.6596    223.73433 
   93950    132.44385   -1001.9134    144690.12   -40064.759    2671.5436   -42736.302    292.26117    223.67045 
   94000    130.83564   -879.46133    144694.55   -40012.744    2639.1042   -42651.848    292.19653    220.95452 
   94050    132.59105   -821.42585    144823.64   -39984.882    2674.5129   -42659.395    292.62926    223.91906 
   94100    133.07842   -1160.3473    144860.41   -39975.799    2684.3436   -42660.142     292.7859    224.74212 
   94150    130.61227   -1089.6753    144725.47   -39965.851    2634.5987    -42600.45    292.86832     220.5773 
   94200    134.82676   -1080.0801    144605.87   -39959.852    2719.6097   -42679.461    293.55712    227.69471 
   94250    131.65496   -994.81669    144534.66   -39967.102    2655.6309   -42622.733    293.43628    222.33819 
   94300    133.22691   -795.99859    144626.14   -39930.836    2687.3389   -42618.175    293.83087    224.99289 
   94350    133.01761   -1075.2725    144698.36   -39904.518    2683.1171   -42587.635    294.69004    224.63943 
   94400    132.26773   -990.00367    144605.22   -39889.241    2667.9912   -42557.232    295.19505    223.37304 
   94450    133.43006   -1033.9543    144744.54   -39907.423    2691.4366    -42598.86     295.6119    225.33597 
   94500    132.80502   -1049.5245    144729.21   -39935.092    2678.8289   -42613.921      295.707    224.28041 
   94550     133.3767   -907.50792    144818.52    -39914.54    2690.3603   -42604.901    295.94167    225.24585 
   94600     136.4853   -1018.3997    144893.87    -39884.23    2753.0643   -42637.294    296.36275    230.49564 
   94650    131.92527   -903.24886    145069.08   -39923.837    2661.0832    -42584.92    296.72399    222.79468 
   94700     132.9802   -1147.6517    145008.38   -39992.019    2682.3624   -42674.382    296.83607    224.57624 
   94750    131.24292   -1008.2273    144713.72   -40022.048    2647.3195   -42669.368    296.39136    221.64234 
   94800    131.88268   -1122.2957    144694.75   -39948.137    2660.2243   -42608.361    296.72093    222.72277 
   94850    130.39866   -977.99124    144608.39   -39963.308    2630.2898   -42593.598    296.73593    220.21655 
   94900    131.74617   -1054.3487     144615.2   -39991.597    2657.4707   -42649.068    296.90171    222.49223 
   94950    132.32783   -902.43871    144584.91   -39957.366    2669.2035    -42626.57    296.86909    223.47453 
   95000    131.34186   -1073.7812    144639.46   -39945.903    2649.3152   -42595.218     297.0968    221.80942 
   95050    136.26703    -926.9057     144611.6   -39904.218    2748.6616    -42652.88    297.24408    230.12703 
   95100    131.45459   -1125.5758    144480.62   -39886.258    2651.5891   -42537.847    297.43837    221.99979 
   95150    133.60247   -906.71187    144434.28   -39909.441    2694.9144   -42604.355    297.38256    225.62713 
   95200    134.76694   -1058.6992    144525.01    -39882.81     2718.403   -42601.213    297.60151    227.59368 
   95250    131.10261   -1000.5456    144460.02   -39860.283    2644.4893   -42504.772    298.05323    221.40538 
   95300    135.25535   -910.31526    144660.13   -39878.513    2728.2547   -42606.768    298.49169     228.4185 
   95350    132.65734   -1061.3468    144727.69   -39926.938      2675.85   -42602.788    298.67955      224.031 
   95400    134.72317   -1062.4387    144595.98   -39931.158    2717.5202   -42648.678    298.80844    227.51976 
   95450    129.31042   -937.43023    144530.63   -39974.826    2608.3387   -42583.164    298.65146    218.37873 
   95500    131.03174    -970.1423    144543.87   -39985.343    2643.0598   -42628.403    298.41648     221.2857 
   95550    130.21678   -1032.7031    144570.65   -39972.442     2626.621   -42599.063    298.31294    219.90939 
   95600    136.04591   -948.04197    144506.43   -39929.198    2744.2013     -42673.4    298.58767    229.75359 
   95650    133.67275   -917.88986    144595.79    -39867.78     2696.332   -42564.112    298.58025    225.74583 
   95700    135.25038   -1061.1614    144601.79   -39880.694    2728.1546   -42608.849    298.36536    228.41011 
   95750    130.84386   -1018.1459    144572.54   -39911.536      2639.27   -42550.806    298.48386     220.9684 
   95800    135.35539   -1003.9581    144616.63    -39856.48    2730.2728   -42586.752    298.51098    228.58746 
   95850    134.87265   -1144.6847    144580.89   -39864.251    2720.5354   -42584.786    298.70906    227.77221 
   95900    133.68819   -1049.3772    144421.89   -39906.085    2696.6435   -42602.729    298.59284     225.7719 
   95950    131.91635   -1053.2145    144358.44   -39923.919    2660.9034   -42584.822    298.75948    222.77962 
   96000    132.36769   -927.69395    144346.31   -39961.427    2670.0075   -42631.435    298.97936    223.54185 
   96050    134.31309   -1112.4578    144494.65   -39949.617    2709.2483   -42658.866    299.09124    226.82722 
   96100    136.31085   -971.44849    144640.86   -39946.109    2749.5455   -42695.655    299.51025    230.20104 
   96150    131.32425   -1204.9394    144560.11   -39963.205      2648.96   -42612.165    299.45864    221.77968 
   96200    132.94962   -939.98898    144460.13   -39982.057    2681.7455   -42663.803    299.56661     224.5246 
   96250    131.41285   -1062.1784    144401.69   -39990.785    2650.7471   -42641.533    299.69668    221.92931 
   96300     132.2842   -1089.5191     144297.8   -39993.962    2668.3233   -42662.285    300.10865    223.40084 
   96350    131.73986   -996.79524    144310.53   -39995.639    2657.3434   -42652.983    300.38333    222.48157 
   96400    134.87722   -985.58276    144272.55   -39940.543    2720.6274   -42661.171    300.94883    227.77992 
   96450    133.93008   -801.69238    144495.19   -39976.244    2701.5227   -42677.767    301.32233     226.1804 
   96500     131.0529   -946.94297    144638.26   -39981.127    2643.4866   -42624.614     301.9025    221.32143 
   96550    132.04972   -918.02424    144637.38   -39980.965    2663.5937   -42644.559    302.43999    223.00486 
   96600    133.65106   -947.55846    144794.84   -39928.996    2695.8944   -42624.891     302.1225    225.70918 
   96650    131.61168   -1147.7028    144678.09   -40012.805    2654.7578   -42667.563    302.56071    222.26509 
   96700    132.78855   -1074.7864     144686.8   -39990.086    2678.4966   -42668.583    302.83187    224.25258 
   96750    134.82085   -989.65316    144620.52    -39956.53    2719.4905   -42676.021    303.09565    227.68473 
   96800    132.57909   -931.53476    144657.69   -39974.947    2674.2715   -42649.219    303.24173    223.89885 
   96850    131.71275   -916.19471    144719.27   -39991.664    2656.7966   -42648.461    303.72625    222.43579 
   96900    133.70663   -879.47434    144823.39   -39953.112    2697.0154   -42650.127    304.00617    225.80304 
   96950    133.78974    -1175.964     144843.5    -39938.06    2698.6918   -42636.752    304.22518    225.94339 
   97000    132.38022   -905.66046    144731.82   -39908.173    2670.2601   -42578.433    303.86182      223.563 
   97050    132.31316   -904.24654    144798.28   -39972.831    2668.9074   -42641.738    304.17728    223.44974 
   97100    130.76566   -1040.2261    144761.35   -40009.786    2637.6927   -42647.479    304.67466    220.83634 
   97150    132.87684     -861.573    144771.25   -39951.266    2680.2775   -42631.544    304.84833    224.40169 
   97200    134.72793   -956.70954    144738.53    -39922.26    2717.6162   -42639.877    305.04039    227.52781 
   97250    133.12917   -886.55692    144771.76   -39953.235    2685.3673   -42638.602    305.10369    224.82782 
   97300    133.74037   -951.65962    144918.01   -39914.261     2697.696   -42611.957    305.48599    225.86002 
   97350    134.73917   -969.56968    145087.08   -39896.301     2717.843   -42614.144    305.48663    227.54679 
   97400    131.89056   -1007.6455    145033.24   -39966.093    2660.3832   -42626.476    305.60806    222.73607 
   97450    133.36214   -900.82687    144957.48   -39949.564    2690.0666    -42639.63    305.52222    225.22126 
   97500    132.53742   -1185.9884    144863.32   -39958.495     2673.431   -42631.926    305.64025    223.82848 
   97550    132.18823   -981.34634    144873.63   -39951.497    2666.3875   -42617.884    305.74817    223.23877 
   97600     133.9751   -927.21218    144861.97   -39912.842    2702.4307   -42615.272    305.87852    226.25642 
   97650     130.1701   -1051.8877    144876.78   -39945.712    2625.6795   -42571.391    305.63146    219.83056 
   97700    134.93872   -983.13563    144832.08   -39953.266    2721.8681   -42675.134    305.15927    227.88379 
   97750    135.02747   -1031.3462    144826.21   -39939.871    2723.6583   -42663.529    305.02037    228.03367 
   97800    133.12114   -1140.0421    144688.23   -39949.399    2685.2053   -42634.604    304.62949    224.81426 
   97850    134.51095   -1022.9982    144636.62   -39990.058    2713.2394   -42703.297    304.71217    227.16137 
   97900    132.59874   -1042.1838     144692.2    -39992.75     2674.668   -42667.418    305.10788    223.93204 
   97950    132.06206    -975.5789    144740.24   -39951.667    2663.8425    -42615.51    305.47518    223.02569 
   98000    131.91637   -1129.6215    144641.72     -39999.2    2660.9037   -42660.104    305.15756    222.77965 
   98050    132.02872    -955.8461    144534.04   -40001.432      2663.17   -42664.602    304.88119    222.96939 
   98100     135.0056   -870.67817    144655.26   -39950.696    2723.2171   -42673.914    304.84569    227.99674 
   98150     133.2443   -930.97895    144634.99   -39962.195    2687.6896   -42649.884     304.6696    225.02226 
   98200    131.34858   -1009.6529    144703.43   -39970.504    2649.4508   -42619.955    304.90214    221.82077 
   98250    134.21365   -999.70166    144774.36   -39965.392    2707.2425   -42672.634     305.0096    226.65929 
   98300    133.20332   -1101.0988    144831.77   -39953.737     2686.863     -42640.6    305.05884    224.95305 
   98350    133.35119   -891.67273    144888.66   -39942.536    2689.8457   -42632.382    305.60092    225.20277 
   98400    130.93025   -1202.0598    144882.79   -39966.411    2641.0125   -42607.424    305.54861    221.11429 
   98450    132.55691   -960.82048    144831.78   -39983.141    2673.8242   -42656.965    305.86669     223.8614 
   98500    129.73396   -1090.8535    144818.06   -40036.145     2616.882   -42653.027    306.04768    219.09401 
   98550    134.38558   -853.56652    144975.72   -39989.418    2710.7105   -42700.129    306.60947    226.94964 
   98600    131.45461   -1065.0948    145139.09   -39962.158    2651.5895   -42613.748    306.79016    221.99983 
   98650    131.80551   -1083.3985    145192.61   -39945.911    2658.6676   -42604.579    306.98617    222.59243 
   98700    134.63829   -885.05875    145195.14    -39884.04     2715.808   -42599.848    307.42009    227.37642 
   98750    131.49222     -1101.22    145196.06   -39957.584    2652.3482   -42609.932    307.79247    222.06335 
   98800    132.51256   -1156.6774    144998.82   -39968.165    2672.9297   -42641.095    307.94999     223.7865 
   98850     133.4665   -1133.3368    145129.22   -39972.787    2692.1717   -42664.959    308.23949    225.39751 
   98900    129.31764   -982.53134    145009.41   -40009.786    2608.4845   -42618.271    308.60907    218.39094 
   98950    130.70751   -854.94267    145085.44   -39969.292    2636.5197   -42605.812    308.77872    220.73814 
   99000    132.03505   -991.15261    145035.38   -39933.558    2663.2978   -42596.855    308.97452    222.98009 
   99050    132.37667   -877.31014    145040.55   -39960.612    2670.1885   -42630.801    308.89201      223.557 
   99100    131.15504   -1031.9652    145081.68   -39995.443    2645.5468    -42640.99    309.29305    221.49392 
   99150    133.13668   -953.67424    145081.83   -39990.168    2685.5188   -42675.687    309.39153     224.8405 
   99200     131.9951   -1017.3848       145090   -39968.656    2662.4918   -42631.148    310.05904    222.91261 
   99250    132.39094   -898.79516    145213.93    -39957.54    2670.4763   -42628.016    310.19993     223.5811 
   99300    132.00629   -1147.5137    145223.17   -39970.698    2662.7176   -42633.416    310.36832    222.93151 
   99350    129.92447   -967.43459    145278.75   -39984.302    2620.7248   -42605.027    310.44806    219.41574 
   99400    132.52371   -1069.7623    145247.87    -39988.24    2673.1545   -42661.394    310.51294    223.80533 
   99450    134.59273    -1036.055    145118.07   -39964.352     2714.889   -42679.241    310.41438    227.29947 
   99500    132.48848   -871.54763    145159.17   -39991.336    2672.4439    -42663.78    310.73838    223.74583 
   99550    133.26456   -954.66593    145208.69   -39962.283    2688.0984   -42650.382    311.01988    225.05647 
   99600     134.0157   -1026.3448    145262.41   -39971.612    2703.2497   -42674.862    311.09556    226.32499 
   99650    133.20263   -847.26848    145273.66   -39957.575    2686.8492   -42644.424    310.95001    224.95189 
   99700    130.74349   -935.49164    145479.32   -40005.471    2637.2454   -42642.717    311.11172     220.7989 
   99750    133.12138     -935.519     145559.8   -40013.095    2685.2102   -42698.305    311.86396    224.81467 
   99800     134.2661   -1050.1374    145635.81   -39984.263    2708.3005   -42692.564    311.87056    226.74787 
   99850    130.80067   -945.68569    145643.99   -40030.483    2638.3988   -42668.881    311.71226    220.89546 
   99900    132.21361   -1109.3529    145542.66   -40038.516    2666.8995   -42705.416    312.22178    223.28164 
   99950    132.03114    -950.4312    145431.72   -39987.571    2663.2189    -42650.79    312.41406    222.97348 
  100000     131.2964   -924.69268    145441.52   -40038.918    2648.3983   -42687.316    312.73012    221.73265 
Loop time of 436.015 on 30 procs for 100000 steps with 6768 atoms

Performance: 99.079 ns/day, 0.242 hours/ns, 229.350 timesteps/s
99.3% CPU use with 30 MPI tasks x no OpenMP threads

MPI task timing breakdown:
Section |  min time  |  avg time  |  max time  |%varavg| %total
---------------------------------------------------------------
Pair    | 71.303     | 185.45     | 375.32     | 788.5 | 42.53
Neigh   | 2.7283     | 5.456      | 15.66      | 192.8 |  1.25
Comm    | 37.353     | 163.62     | 215.74     | 460.0 | 37.53
Output  | 0.17445    | 0.18284    | 0.28067    |   4.3 |  0.04
Modify  | 5.909      | 79.826     | 190.18     | 999.7 | 18.31
Other   |            | 1.482      |            |       |  0.34

Nlocal:    225.6 ave 527 max 149 min
Histogram: 24 0 0 0 0 0 0 0 4 2
Nghost:    1433.27 ave 1858 max 961 min
Histogram: 12 0 0 0 0 0 0 0 15 3
Neighs:    0 ave 0 max 0 min
Histogram: 30 0 0 0 0 0 0 0 0 0
FullNghs:  26263.6 ave 93641 max 9129 min
Histogram: 24 0 0 0 0 0 0 0 2 4

Total # of neighbors = 787908
Ave neighs/atom = 116.417
Neighbor list builds = 6131
Dangerous builds = 0

write_data		${DIR}/data.eq-${NAME}-${TEMP}
write_data		test_2/data.eq-${NAME}-${TEMP}
write_data		test_2/data.eq-het_freeze_test-${TEMP}
write_data		test_2/data.eq-het_freeze_test-225
undump          1

reset_timestep  0

unfix           2
unfix           3
unfix           4


################################################
#######         Run Simulation         #########
################################################

log				${DIR}/log.run_${NAME}
log				test_2/log.run_${NAME}
log				test_2/log.run_het_freeze_test
