LAMMPS data file via write_data, version 16 Mar 2018, timestep = 100000

6750 atoms
2 atom types

3.1335894622102600e-01 4.8906641053777115e+01 xlo xhi
3.1208332911977976e-01 4.8707552601290885e+01 ylo yhi
-1.2923959946271779e-01 6.0191239599462300e+01 zlo zhi

Masses

1 18.015
2 12.01

Atoms # atomic

2259 1 1.4886876317895203e+00 3.4011014553932024e+00 4.0032987395684128e+00 0 -1 1
268 1 7.6778929983729061e-01 1.0497332140573192e+00 2.8362024101304328e+00 1 0 1
5468 1 5.5849644515397285e+00 1.5501226906257883e+00 3.2203554928602500e+00 -1 0 0
5108 1 9.2772907997469076e+00 4.2032788277644526e+00 9.0173388852551595e-01 0 -1 1
6412 1 7.4238582960234210e+00 1.3295418588068831e+01 2.6502805328634835e+00 0 0 1
1389 1 1.1783263194186794e+01 1.7422165379634347e+00 9.5016847747611699e-01 1 0 1
318 1 1.1003813759388510e+01 1.4616867290095323e+00 3.4739980714278946e+00 0 1 0
517 1 4.6721754290528619e+00 1.5235750946180502e+01 8.1466206848420236e-02 1 0 0
3521 1 2.1746987721095516e+00 5.9554808454345221e-01 1.4511554679052668e-01 1 0 1
6740 1 6.3318013743905057e+00 3.8712555361593575e+00 1.9215379766843910e+00 1 1 0
4933 1 4.0459145147172375e+00 1.1487551260243832e+01 3.0815279162724757e-01 0 0 0
6530 1 1.0429511876639522e+01 4.1234663412728825e+00 3.6765721796246140e+00 1 2 1
2255 1 9.6466666365847260e+00 2.0589761113540156e+01 8.4237403725781981e+00 1 0 1
382 1 1.5434272498899060e+00 7.5537186763573505e+00 2.1266316654869835e+00 1 1 0
4878 1 6.6514661867601630e+00 2.2406659190676496e+01 9.3954402650567257e+00 1 0 1
1884 1 6.4195574339172339e+00 7.8384694592251885e+00 3.3330354077219781e+00 0 1 0
3570 1 8.8963019862454313e+00 1.1200094837597206e+01 3.2593696486992707e+00 0 -1 0
1934 1 8.3026667296734367e+00 8.7859311955680450e+00 1.4729988639892131e+00 -1 1 0
4812 1 9.7375339158118983e+00 2.2975604742882904e+01 6.8589010656351554e+00 1 -1 1
3387 1 4.4380865407792163e+00 1.2998918600150564e+01 2.6920572278047050e+00 0 0 1
3750 1 2.9463518529468957e+00 1.3521840145348408e+01 5.4866312925374086e+00 2 1 0
3462 1 9.5294208174703012e+00 1.6531566977857320e+01 6.3327947560878306e-01 0 -2 1
3020 1 8.3351158628556234e+00 1.5219538907562480e+01 4.3388430435998497e+00 0 0 1
32 1 1.1459186975175722e+01 1.8610890380328049e+00 1.1178052733869094e+01 1 0 0
4919 1 7.6008199098501921e+00 2.4173462876544487e+01 5.1140384968205597e+00 1 1 1
1862 1 1.1279683632060962e+01 1.5614387361438038e+01 2.1168696109445508e+00 1 0 1
3004 1 3.5271519615870743e+00 1.7775329940063823e+01 3.6252229542477044e+00 -1 1 1
3173 1 4.7555495927263181e+00 8.0074462691855484e+00 3.2983640969677180e-01 1 1 1
5571 1 3.2747490542729421e+00 2.4064752948199573e+01 7.5382115785632564e+00 2 0 1
510 1 5.1290436569854183e+00 1.7495027876760563e+01 1.5342430832369220e+00 1 0 0
2222 1 7.8337695782032624e+00 1.7936626193533197e+01 2.4132263589011238e+00 0 1 1
4714 1 4.0563355760763162e+00 2.3748384050374614e+01 2.2929809185264491e+00 0 0 1
6716 1 8.0918737876802389e+00 1.0397525544543391e+00 4.1406311015751474e+00 1 0 1
5151 1 1.4660259010948378e+00 1.8715330515630651e+01 1.9983648001025318e+00 0 0 0
3041 1 1.7800616152285202e+00 2.2448741093267227e+01 1.2294607421766812e+00 0 1 1
2107 1 1.5148787354506950e+00 1.3108013434528129e+01 2.1404171951441007e+00 2 -1 0
3441 1 1.0519111418115605e+01 5.2566240930215047e+00 1.0857631811837594e+01 1 -1 1
2160 1 8.9065037253090313e+00 2.1144026306790320e+01 -1.9861643932767514e-02 1 0 0
1774 1 3.6303333060641307e-01 3.5717948397172243e+00 9.1983386019432327e+00 1 1 0
3765 1 3.5006533361332499e+00 2.5613286528201282e+00 5.0833446191836060e+00 1 -1 0
3453 1 5.7829721251819031e+00 2.2839012785015885e+01 6.5122063703814641e+00 2 -1 0
2172 1 1.1175709568001508e+01 1.9527965345684521e+01 1.1196424418522181e+01 0 -1 1
3280 1 1.0957432326067782e+01 9.8285189173379592e+00 1.0393840508883740e+01 0 0 1
5448 1 8.0954560807594800e-01 1.4291670903399023e+01 9.5006402550215832e+00 1 0 0
2269 1 8.1828156143016670e+00 7.3794011128443149e-01 6.8031063382792007e+00 0 1 1
1664 1 8.7664887095602690e+00 1.3996209121216447e+01 -1.0265349340293452e-01 0 0 1
2074 1 3.2229442958849099e+00 7.0047464288855386e+00 6.4270777107595443e+00 0 -2 0
1981 1 1.9902268322343390e+00 8.6379054325285178e+00 4.3090430425231787e+00 0 -1 0
3700 1 1.2231719198766145e+01 1.8021897021918534e+01 8.8574352548958775e+00 -1 -1 0
1727 1 6.4488321263924639e+00 5.4628609344011236e+00 4.2759538637443795e+00 0 0 0
4963 1 4.6614050936137490e+00 4.8517814976941080e+00 5.9694103944794366e+00 -1 0 1
5102 1 8.7794005840913112e+00 5.2530415902858154e+00 5.5155836609112914e+00 1 -1 0
6591 1 8.9079652660518445e+00 7.8694132841170452e+00 6.9830594809024475e+00 0 0 1
98 1 1.1447181262561797e+01 6.6518000899762830e+00 6.8158248821082301e+00 1 1 0
6726 1 4.3818222256729644e+00 9.8107723889225085e+00 3.2502780690877611e+00 1 -2 1
4769 1 5.6297051291851483e+00 1.1917539560985977e+01 5.4085213425857530e+00 2 0 1
5511 1 7.6459192793418973e-01 7.3436002283633801e+00 9.8919752101051852e+00 1 1 0
5005 1 6.9282043442210686e+00 9.4641165180679376e+00 5.5642150031722890e+00 1 1 1
5364 1 4.3438245474219501e+00 1.1520739427105433e+01 7.6281655087181246e+00 1 -1 0
1606 1 5.8228875191560601e+00 1.3288452011098732e+01 9.5674675829824682e+00 0 0 1
185 1 1.0860357590430949e+01 1.5198839659428916e+01 5.0105650632729857e+00 0 0 1
5214 1 1.1574177952696440e+01 1.1467031223356180e+01 2.8185257693568029e+00 0 1 1
436 1 9.7943009545712183e+00 1.0268687083237053e+01 7.9077827539050052e+00 2 0 0
1731 1 2.2521807568457022e+00 1.6223887381391265e+01 5.5334634890886676e+00 1 1 0
3115 1 4.4589584973893537e+00 1.5931026135266862e+01 7.3325973204610264e+00 0 0 1
29 1 1.0282697133114569e+01 2.2577107398073192e+01 1.1420413178561427e+01 0 0 1
5477 1 8.9915095083097984e+00 1.2212059920411054e+01 6.1063193348721105e+00 0 1 0
1557 1 3.6785615653043702e+00 1.5262762783022184e+01 1.0995652433186081e+01 1 2 1
3463 1 7.0524796100387634e+00 1.4070209635891409e+01 7.2258439381574444e+00 0 -1 0
1523 1 8.3871305846674797e+00 1.6702580154410665e+01 7.9984878516066402e+00 1 -1 1
1726 1 1.2449254320577833e+01 1.5443438103250907e+01 1.0347325171334239e+01 0 1 1
483 1 8.0752022748917742e+00 1.7821490702713422e+01 5.4494170730524640e+00 -1 0 0
1516 1 9.9585829957695644e+00 2.1148012320902247e+01 4.4901463089978417e+00 0 0 1
6698 1 5.5052524283267337e+00 1.8595259488794603e+01 6.5993613297962384e+00 2 2 1
6659 1 1.0537273987627415e+01 1.5075462689484933e+01 8.2622074449417173e+00 0 0 1
4835 1 1.0296890993986834e+01 1.9069871794466664e+01 6.3570215154232415e+00 0 0 1
405 1 1.2898275260244372e+00 2.0549059093491369e+01 6.7039634172111580e+00 0 -1 0
3653 1 3.7922212078932507e+00 1.9849292206741744e+01 5.1476193576732285e+00 1 0 0
3555 1 9.4193379037366629e+00 2.3644878811240012e+01 7.0448890090914995e-01 1 -1 0
14 1 5.4394515358652278e+00 2.1839068246902428e+01 3.7462894029173448e+00 1 -1 0
6433 1 7.8770337564128630e+00 2.0589033235995149e+01 2.8606615331687362e+00 0 -1 1
484 1 7.0737744243508738e-01 5.8519233525410623e+00 7.4839116406557986e+00 2 0 0
2042 1 1.8315434201882705e+00 2.2297872765526112e+01 8.6978490969385636e+00 2 1 0
477 1 8.6437179950443959e+00 2.0517653471101212e+00 1.0274983047983214e+01 0 1 0
2257 1 1.2410524090577837e+01 2.3947641928613063e+01 6.7995681868569147e+00 0 0 1
326 1 2.4706279629571077e+00 3.8910937079685728e+00 1.0573669553238970e+01 1 1 0
3514 1 1.8174720163237219e+00 1.1080853453374893e+00 6.9308856482187782e+00 1 1 1
5334 1 3.8888627020540327e+00 5.2455643565176457e-01 8.8318795527435352e+00 1 0 0
3833 1 4.8513044246690198e+00 2.8622493597086507e+00 9.8346747636458325e+00 0 0 1
3486 1 1.2203879508265238e+01 1.2696176981635363e+01 5.1971331153926448e+00 1 0 1
3193 1 8.6567857437823648e+00 3.1702685878735926e+00 7.7168672590408107e+00 0 0 1
5371 1 2.2793789055679570e+00 4.9199350376879103e+00 1.9483204925172606e+00 1 1 0
6674 1 6.0646289770251789e+00 4.3034568402349791e+00 8.1957616029139633e+00 1 0 1
3273 1 7.0910155588327335e+00 6.7600652521501852e+00 8.8291721686021258e+00 -1 0 1
5303 1 1.1111249851764661e+01 4.5185115336820436e+00 8.2629420337310293e+00 3 1 0
2985 1 1.1986902499605955e+01 2.2338007390803689e+01 3.0769529730868515e+00 1 -1 1
5486 1 3.4773417150076380e+00 6.8692455200782598e+00 1.0110078264107324e+01 1 1 0
1412 1 5.3265382365453418e+00 8.7193223588574131e+00 7.7032701672528079e+00 1 0 1
6666 1 6.0203117565366551e+00 1.0695589709173602e+01 1.0211257584922105e+01 1 0 1
1308 1 4.1092790116599653e+00 4.6091836349705044e+00 2.0079949420538462e-01 0 1 1
6332 1 8.3694921992975573e+00 9.5102389593799970e+00 1.1373794855257685e+01 0 0 1
3178 1 3.6770927385998382e+00 1.9347674259350921e+01 1.1388256456877530e+01 0 -1 0
1372 1 8.7224959666341562e+00 2.4297372999292204e+01 9.6524707399121468e+00 0 0 1
2221 1 9.0604161914194066e+00 1.2930233212176923e+01 9.4091900741091159e+00 1 0 0
3711 1 7.9093222763839588e+00 1.8549280860647563e+01 9.7489293790029716e+00 1 0 0
5429 1 4.4237172510111575e+00 2.4477667090067285e+01 1.0072406291150282e+01 1 0 0
107 1 1.3641321896922174e+00 2.0485657215403208e+01 1.0808636685012850e+01 0 0 0
1948 1 1.9685545328998590e+00 9.1091376904377199e+00 1.3455109367664336e-02 2 0 0
5046 1 2.2149914413941314e+00 1.6798395362274899e+01 9.0469323074222512e+00 0 1 0
5590 1 5.6089123189262047e+00 1.9865318334799618e+01 9.0841522665704613e+00 2 -1 1
558 1 8.3932006400217389e+00 6.9187038978989799e+00 1.1234105864251038e+01 -1 0 1
3109 1 1.5904276616950797e+00 1.1947523789117287e+01 7.9012770447757799e+00 0 -1 1
3397 1 9.9166741879888498e+00 6.5502414008785808e+00 3.1789903340455367e-02 0 0 0
4790 1 1.1955403827395836e+01 1.2248308145800509e+01 1.1521014974228981e+01 3 1 1
4937 1 6.6225478016838819e+00 1.0407977559068531e+01 1.9320032934305531e-01 1 0 1
1894 1 3.4328888735768714e-01 1.1229101220521446e+01 8.3710080339024395e-01 0 0 0
6542 1 1.2300116945532920e+01 1.1549652319021558e+01 7.6322047980568577e+00 3 0 1
4975 1 1.2364628737278029e+01 8.7566317033786234e-01 8.7892994771551329e+00 0 -1 0
6597 1 1.8242546945131777e+00 1.4525988746772210e+01 -1.1574363163352075e-01 0 1 1
393 1 6.3523524643116991e-01 2.1730452176372712e+01 1.8017936915563688e+01 1 1 0
2267 1 7.8539126112170432e-01 4.5768385048862346e+00 2.3519685832620890e+01 0 1 1
6513 1 4.4939468688449420e+00 2.7061788013156645e+00 1.6110839828621607e+01 0 1 1
6337 1 2.7665982564736522e+00 3.9384984706288151e-01 1.8844588590155301e+01 1 0 1
2084 1 8.1205583602625957e+00 3.2758916164145795e+00 1.2782533761759320e+01 1 1 0
2184 1 8.7101039570737520e+00 9.0588829679991434e-01 1.4338755046712171e+01 1 -1 0
2207 1 3.1117303419504294e+00 1.3165439258399427e+01 1.2808267157232629e+01 0 -1 0
140 1 6.2538737054198563e+00 1.2001072445225606e+01 1.4060533152885572e+01 0 -1 0
3939 1 1.4224157713679695e+00 5.6475371071285654e+00 1.5735061948586047e+01 0 1 0
1866 1 7.5688151290848893e+00 6.0978484137612288e+00 1.3482864695202693e+01 1 0 0
1482 1 7.8334062326086968e+00 1.8101605911310219e+01 1.2245437914346228e+01 -1 0 1
42 1 6.6998856029239553e+00 7.0050739981391992e+00 2.3548256379857555e+01 0 1 1
252 1 5.8337003572726696e+00 2.2640467607109521e+01 1.2442914363221986e+01 0 -2 0
1325 1 3.0664271992582486e+00 7.9030971811278850e+00 1.2438889995796552e+01 -1 -1 1
3755 1 5.1288201344755926e+00 7.1239917520363374e+00 1.4349547068045883e+01 1 0 0
216 1 8.3930952918594937e+00 9.7129346589182646e+00 1.4285190599953383e+01 0 1 0
183 1 5.4429124750126610e+00 2.4825627093493092e+00 1.2814550962200872e+01 1 -1 0
5072 1 2.0292913586607888e+00 2.3090112772675511e+01 2.0586611107800508e+01 1 0 1
101 1 9.8737840917408128e+00 7.1881234598578745e+00 1.4886193744575680e+01 0 0 1
1992 1 8.7658849817456144e+00 2.0841974730083304e+01 2.3089798349512368e+01 1 1 0
134 1 6.5583416192124810e-01 1.3461050868022111e+01 1.5271078253597356e+01 0 2 1
5338 1 4.8166670722189053e-01 6.4475346315070645e+00 1.9656926248461385e+01 1 1 0
3557 1 7.6807521410012169e+00 7.3548899113554422e-01 1.9074287707266173e+01 0 -1 0
6632 1 3.4599036270033343e+00 1.3487422952845508e+01 1.5601566165764311e+01 0 0 1
1329 1 1.1684483425479414e+01 7.5631194886764641e+00 1.2413188066282611e+01 0 1 1
3800 1 8.4111769571252157e+00 1.2637335534908608e+01 1.6122264260064828e+01 0 1 0
5037 1 9.9134245220016020e+00 1.4850394542654678e+01 1.5042127246603769e+01 0 0 1
1813 1 3.7655031716366616e+00 1.5692223870210329e+01 1.7069491634502295e+01 0 -1 0
4848 1 9.2305873053119623e+00 2.4018222255461911e+01 2.1208454743155329e+01 0 1 1
4897 1 2.5065805543548443e+00 1.7374739645317391e+01 1.2677788445180891e+01 0 -2 1
3213 1 5.9136396386511088e+00 1.6160791033339407e+01 1.2621172062684694e+01 0 0 0
5056 1 1.8523166049888913e+00 2.1754390146495716e+01 1.5095687771441455e+01 0 -1 0
475 1 1.0259314219160732e+01 1.6964370441985924e+01 1.2512305702248645e+01 1 1 0
3586 1 3.8515994228566142e-01 2.0634814779718774e+01 2.3694553543955251e+01 1 -1 0
3080 1 8.1142929955584648e+00 2.1034873995011544e+01 1.2948516083914377e+01 0 0 0
1722 1 1.1507288075566493e+01 7.2190175780800665e+00 2.0876297336774407e+01 0 1 1
6747 1 4.3208761071690631e+00 2.1072725994541308e+01 1.3760576214299906e+01 0 0 1
5182 1 6.2908574693818728e+00 1.9501719905431482e+01 1.4896965027950555e+01 1 -1 0
1734 1 1.1381739690347187e+01 6.9471692208613267e-01 1.6541755008215308e+01 0 0 0
1392 1 1.0640323874097067e+01 1.8248940169992100e+01 1.5057920650950473e+01 1 0 1
5061 1 9.4374873314468584e+00 1.6302413177314044e+01 2.0853923595019012e+01 1 0 0
96 1 1.1896409411204887e+01 2.3710492062802732e+01 1.3583533654478426e+01 1 0 0
5291 1 2.3247704248915375e+00 1.1967876412280245e+00 1.5317160674678702e+01 1 1 0
1988 1 1.5908343224700365e+00 1.9768085512457274e+00 1.2826100319110731e+01 0 1 0
5545 1 5.1352269238013131e+00 1.4425131594919178e+00 1.8494420928435961e+01 -1 0 1
3224 1 1.1719087997926946e+01 2.0400875615379210e+01 2.0622040844903911e+01 0 1 1
3650 1 5.0272329217751430e+00 5.4170349190589526e+00 1.6439182245600730e+01 0 0 0
5321 1 9.4677068045600254e+00 2.9735133285900868e+00 1.8769603638018584e+01 1 1 0
177 1 1.0939540135091208e+01 3.4417104866714734e+00 1.6233719290818954e+01 0 0 0
3411 1 8.8521590235578991e+00 1.7966908233885192e+01 2.3472556345005529e+01 0 0 0
2009 1 1.0722273928849530e+01 1.5969290533195894e+01 2.3831836234308092e+01 1 2 0
6484 1 2.7010755504047550e+00 7.2096701843370248e+00 1.7604328870566537e+01 1 0 1
2006 1 7.6720260982474233e+00 8.4174248372703815e+00 1.7454328545674553e+01 -1 1 0
5179 1 7.9884522879821995e+00 5.3952440226556853e+00 1.6845610452931620e+01 1 2 0
1844 1 1.0782960604829382e+01 6.1983263064850229e+00 1.7528611248869240e+01 1 0 0
3200 1 1.7701874540750655e+00 9.5091422023830550e+00 1.6955108928703567e+01 0 2 1
3247 1 6.8656856820031253e-01 9.8383306040984184e+00 1.4550037229972945e+01 0 0 1
1666 1 5.9740680441377245e+00 9.4650072413606239e+00 1.5506147867336725e+01 1 1 1
5508 1 3.9596980946554377e+00 1.1004410988873428e+01 1.6963134672535546e+01 0 0 0
1826 1 5.2437997414467041e+00 2.2925772394507806e+01 2.3512972167800019e+01 1 0 1
1920 1 9.6200280352010203e+00 1.0722011278799762e+01 1.7371805836671385e+01 0 0 1
5416 1 1.2385809144353978e+01 2.3521414965068274e+01 2.3799302253921404e+01 0 1 0
3543 1 4.5640832254316832e+00 1.2216456360488751e+01 1.9665181193136835e+01 0 1 0
6599 1 5.7425243611688384e+00 1.4903446980309063e+01 1.9084988039126255e+01 0 -1 0
6454 1 8.5343667440666486e+00 1.4601172508034585e+01 1.8391578915350866e+01 0 1 1
3363 1 9.2498677050657303e+00 1.1331945252403283e+01 1.9966004473379069e+01 0 1 0
3995 1 2.2545741226376408e+00 1.7597805049405682e+01 1.5578806067620153e+01 0 0 1
6544 1 2.6648811527611418e+00 1.9942086692694456e+01 1.7382940331625559e+01 0 0 1
3664 1 1.2268683295225973e+01 7.2058236994477038e+00 2.3715122808041528e+01 -1 1 0
3075 1 5.8624154275374103e+00 1.6847274070386575e+01 1.5310629730034607e+01 -1 0 1
12 1 8.1774239288349850e+00 1.6516866239740224e+01 1.6543759582465860e+01 0 0 0
3955 1 1.0455547157419790e+01 1.8373353495361084e+01 1.9370498441264566e+01 0 0 1
6481 1 8.3588047634047022e+00 1.9186475840409003e+01 1.7648789718481591e+01 1 0 0
28 1 2.3141447592681348e+00 1.8879962662163596e+01 2.3176002502380353e+01 0 0 1
3721 1 5.7097155259199450e+00 2.3376878228023731e+01 1.6954852775906197e+01 0 0 0
2054 1 8.5941463674431642e+00 2.3654493650090608e+01 1.6648893135600467e+01 0 -1 0
5526 1 5.2945800897004540e+00 2.0522703915623119e+01 1.7233196538579048e+01 0 1 0
5432 1 5.9117414443839413e+00 2.0777535889989078e+01 1.9857984892178848e+01 1 1 0
1943 1 9.2318806641774582e+00 2.1075241332050847e+01 1.5768269530180794e+01 1 0 0
5589 1 2.2072643898089952e+00 2.1133842379349121e+00 2.3235502128397105e+01 1 -1 0
5609 1 1.4423255054331170e+00 1.7488855696881329e+00 2.0976981507452283e+01 0 0 0
5565 1 4.5064009512242063e+00 3.1712980875777501e+00 2.2861516137784530e+01 0 1 1
100 1 5.1405287257121124e+00 3.5520481090296734e+00 2.0163148955204164e+01 0 0 0
4843 1 1.1324611928463376e+01 2.6218516887202732e+00 2.3170178840145343e+01 1 1 1
3676 1 7.9338029272220245e+00 4.0626953904949898e+00 2.0800771081637535e+01 1 0 0
2081 1 1.1959421772047698e+00 2.3477238020456806e+01 2.3234781428880439e+01 0 -1 0
159 1 3.2252387619859726e+00 4.5147665503423022e+00 1.3777180177392692e+01 1 -1 0
2298 1 1.1618470931981456e+01 2.1148048175512713e+01 2.3322945835302530e+01 1 0 1
497 1 2.6590205578777684e+00 7.4225930162732308e+00 2.1225155449283339e+01 3 -1 0
5431 1 4.3841124717244107e+00 1.0360158295376641e+01 1.2470644096136700e+01 2 1 0
1915 1 4.6548274971811896e+00 6.3644765764905369e+00 1.9843678278487218e+01 0 2 1
534 1 9.0416305940088364e+00 6.4286957089472248e+00 1.9892998056945338e+01 1 0 0
3122 1 1.1143650331726151e+01 9.8274382462400798e+00 2.1381483371756588e+01 1 1 1
3958 1 1.1166658989750651e+01 4.0903122286736533e+00 1.3518820551323564e+01 1 0 1
120 1 3.2552288722317262e+00 1.0126901865768874e+01 2.1347450433434801e+01 1 0 0
1500 1 9.6420279975681566e+00 1.3818858885817580e+01 1.2305630624788192e+01 1 0 1
1723 1 6.9299636828812872e-01 1.1611335996948670e+01 2.1185717159131279e+01 -1 0 0
5253 1 4.6567069903598854e+00 2.2860109045732045e+01 2.1089228748052385e+01 0 1 1
2018 1 6.6191547319011095e+00 8.0729684647320639e+00 2.0714522197852883e+01 -1 1 0
419 1 8.8947488176540421e+00 3.8360112667718140e+00 2.3395296042212387e+01 2 1 0
6663 1 1.1726031668216997e+01 2.7996662284072182e+00 2.0546565465392977e+01 0 0 1
4803 1 3.0812648049199320e+00 1.4490338311739263e+01 2.3309733559334408e+01 1 0 1
6590 1 2.3671666611243443e+00 1.3752746976841234e+01 2.0637819742927178e+01 1 0 1
1885 1 6.9824533707957626e+00 1.3566034497587305e+01 1.2110365444516891e+01 1 1 0
6364 1 6.6155346354747664e+00 1.6633436467842881e+01 2.1155283947509975e+01 1 -1 1
2135 1 5.9872062929224787e+00 1.4895000969423194e+01 2.3171296367926200e+01 0 0 0
2294 1 6.7434450015216747e+00 1.0899604486568455e+01 2.0915334541408949e+01 0 0 0
1870 1 1.2072092500480517e+01 2.2322525624284062e+01 1.5763668457837561e+01 0 0 0
6594 1 1.0330926537840316e+01 1.3503513356266664e+01 2.0853839530649037e+01 -1 1 1
2007 1 2.4986385296656146e+00 1.8597496168257713e+01 1.9999505840049370e+01 0 0 0
1748 1 8.9187856502160408e+00 2.1475688981509581e+01 2.0247523276269479e+01 -1 1 0
4845 1 2.0335624689009442e+00 1.6153352878671626e+01 1.9638292109055097e+01 2 0 1
5258 1 4.9850097037317189e+00 1.8987144688111492e+01 2.1319609519003468e+01 -1 0 0
5032 1 6.6985701581471062e+00 9.6717785330997366e+00 2.3846669956191604e+01 1 1 0
234 1 1.2207416053114194e+01 1.4544765821895430e+01 1.6241249709834989e+01 0 0 0
6347 1 1.0100265010714040e+01 1.3175592209104307e+01 2.3492801089598320e+01 1 1 1
4793 1 7.4614183895659796e+00 1.2523201935895811e+01 2.3241296191037350e+01 0 1 1
3473 1 1.1907996251619952e+01 9.0127249644532004e+00 1.6612862816020414e+01 0 1 1
333 1 5.1066464120841981e-01 7.1892933855421486e+00 1.3686706503866921e+01 1 -1 0
5288 1 1.2382013404713536e+01 1.2283633218476949e+01 1.7980475995655485e+01 1 0 0
3749 1 1.2315803626816704e+01 1.7340928695928781e+01 1.7410462383613353e+01 0 0 0
6673 1 1.1833933418865630e+00 1.6380935103044774e+01 2.3961668409542185e+01 0 1 1
3945 1 9.8685604857791880e+00 9.6444661474396920e+00 2.3779473856921438e+01 0 0 1
6642 1 1.0916300936767764e+00 1.1065137133237728e+01 1.1965991355615637e+01 0 0 1
618 2 3.1335894622102600e-01 3.1176177796805669e+00 2.6751657105401645e+01 0 0 0
620 2 3.1335894622102600e-01 3.1208332911977976e-01 2.6751657105401645e+01 0 0 0
622 2 1.5281909989099358e+00 1.0134669417599880e+00 2.6751657105401645e+01 0 0 0
629 2 1.5281909989099358e+00 2.4162341670402694e+00 2.6751657105401645e+01 0 0 0
631 2 2.7430230515988456e+00 3.1176177796805669e+00 2.6751657105401645e+01 0 0 0
633 2 2.7430230515988456e+00 3.1208332911977976e-01 2.6751657105401645e+01 0 0 0
635 2 3.9578551042876748e+00 1.0134669417599880e+00 2.6751657105401645e+01 0 0 0
650 2 3.9578551042876748e+00 2.4162341670402694e+00 2.6751657105401645e+01 0 0 0
652 2 5.1726871569766653e+00 3.1176177796805669e+00 2.6751657105401645e+01 0 0 0
654 2 5.1726871569766653e+00 3.1208332911977976e-01 2.6751657105401645e+01 0 0 0
656 2 6.3875192096655358e+00 1.0134669417599880e+00 2.6751657105401645e+01 0 0 0
679 2 6.3875192096655358e+00 2.4162341670402694e+00 2.6751657105401645e+01 0 0 0
681 2 7.6023512623543237e+00 3.1176177796805669e+00 2.6751657105401645e+01 0 0 0
683 2 7.6023512623543237e+00 3.1208332911977976e-01 2.6751657105401645e+01 0 0 0
5223 1 9.2913396835924740e+00 6.5297393900089320e+00 2.4194611923408342e+01 1 0 0
1088 2 1.0032015367732305e+01 2.4159126158885972e+01 3.3310342894598890e+01 0 0 0
685 2 8.8171833150430281e+00 1.0134669417599880e+00 2.6751657105401645e+01 0 0 0
716 2 8.8171833150430281e+00 2.4162341670402694e+00 2.6751657105401645e+01 0 0 0
718 2 1.0032015367732305e+01 3.1176177796805669e+00 2.6751657105401645e+01 0 0 0
720 2 1.0032015367732305e+01 3.1208332911977976e-01 2.6751657105401645e+01 0 0 0
722 2 1.1246847420420648e+01 1.0134669417599698e+00 2.6751657105401645e+01 0 0 0
761 2 1.1246847420420648e+01 2.4162341670402694e+00 2.6751657105401645e+01 0 0 0
763 2 1.2461679473110046e+01 3.1176177796805669e+00 2.6751657105401645e+01 0 0 0
765 2 1.2461679473110046e+01 3.1208332911977976e-01 2.6751657105401645e+01 0 0 0
623 2 3.1335894622102600e-01 7.3259194555215235e+00 2.6751657105401645e+01 0 0 0
625 2 3.1335894622102600e-01 4.5203850049607590e+00 2.6751657105401645e+01 0 0 0
627 2 1.5281909989099358e+00 5.2217686176009641e+00 2.6751657105401645e+01 0 0 0
642 2 1.5281909989099358e+00 6.6245358428814125e+00 2.6751657105401645e+01 0 0 0
644 2 2.7430230515988456e+00 7.3259194555215235e+00 2.6751657105401645e+01 0 0 0
646 2 2.7430230515988456e+00 4.5203850049607590e+00 2.6751657105401645e+01 0 0 0
648 2 3.9578551042876748e+00 5.2217686176009641e+00 2.6751657105401645e+01 0 0 0
671 2 3.9578551042876748e+00 6.6245358428814125e+00 2.6751657105401645e+01 0 0 0
1911 1 6.5180852292837130e+00 1.7398142877780355e+01 2.4614092596159438e+01 1 -1 0
673 2 5.1726871569766653e+00 7.3259194555215235e+00 2.6751657105401645e+01 0 0 0
675 2 5.1726871569766653e+00 4.5203850049607590e+00 2.6751657105401645e+01 0 0 0
677 2 6.3875192096655358e+00 5.2217686176009641e+00 2.6751657105401645e+01 0 0 0
708 2 6.3875192096655358e+00 6.6245358428814125e+00 2.6751657105401645e+01 0 0 0
710 2 7.6023512623543237e+00 7.3259194555215235e+00 2.6751657105401645e+01 0 0 0
712 2 7.6023512623543237e+00 4.5203850049607590e+00 2.6751657105401645e+01 0 0 0
714 2 8.8171833150430281e+00 5.2217686176009641e+00 2.6751657105401645e+01 0 0 0
753 2 8.8171833150430281e+00 6.6245358428814125e+00 2.6751657105401645e+01 0 0 0
755 2 1.0032015367732305e+01 7.3259194555215235e+00 2.6751657105401645e+01 0 0 0
757 2 1.0032015367732305e+01 4.5203850049607590e+00 2.6751657105401645e+01 0 0 0
759 2 1.1246847420420648e+01 5.2217686176009641e+00 2.6751657105401645e+01 0 0 0
800 2 1.1246847420420648e+01 6.6245358428814125e+00 2.6751657105401645e+01 0 0 0
802 2 1.2461679473110046e+01 7.3259194555215235e+00 2.6751657105401645e+01 0 0 0
804 2 1.2461679473110046e+01 4.5203850049607590e+00 2.6751657105401645e+01 0 0 0
636 2 3.1335894622102600e-01 1.1534221131362928e+01 2.6751657105401645e+01 0 0 0
638 2 3.1335894622102600e-01 8.7286866808017383e+00 2.6751657105401645e+01 0 0 0
640 2 1.5281909989099358e+00 9.4300702934422134e+00 2.6751657105401645e+01 0 0 0
663 2 1.5281909989099358e+00 1.0832837518722235e+01 2.6751657105401645e+01 0 0 0
665 2 2.7430230515988456e+00 1.1534221131362928e+01 2.6751657105401645e+01 0 0 0
667 2 2.7430230515988456e+00 8.7286866808017383e+00 2.6751657105401645e+01 0 0 0
669 2 3.9578551042876748e+00 9.4300702934422134e+00 2.6751657105401645e+01 0 0 0
700 2 3.9578551042876748e+00 1.0832837518722235e+01 2.6751657105401645e+01 0 0 0
702 2 5.1726871569766653e+00 1.1534221131362928e+01 2.6751657105401645e+01 0 0 0
704 2 5.1726871569766653e+00 8.7286866808017383e+00 2.6751657105401645e+01 0 0 0
706 2 6.3875192096655358e+00 9.4300702934422134e+00 2.6751657105401645e+01 0 0 0
745 2 6.3875192096655358e+00 1.0832837518722235e+01 2.6751657105401645e+01 0 0 0
747 2 7.6023512623543237e+00 1.1534221131362928e+01 2.6751657105401645e+01 0 0 0
749 2 7.6023512623543237e+00 8.7286866808017383e+00 2.6751657105401645e+01 0 0 0
2271 1 1.0912649599877316e+01 2.0909137062099546e+01 3.5667012820320778e+01 0 0 0
751 2 8.8171833150430281e+00 9.4300702934422134e+00 2.6751657105401645e+01 0 0 0
792 2 8.8171833150430281e+00 1.0832837518722235e+01 2.6751657105401645e+01 0 0 0
794 2 1.0032015367732305e+01 1.1534221131362928e+01 2.6751657105401645e+01 0 0 0
796 2 1.0032015367732305e+01 8.7286866808017383e+00 2.6751657105401645e+01 0 0 0
798 2 1.1246847420420648e+01 9.4300702934422134e+00 2.6751657105401645e+01 0 0 0
839 2 1.1246847420420648e+01 1.0832837518722235e+01 2.6751657105401645e+01 0 0 0
841 2 1.2461679473110046e+01 1.1534221131362928e+01 2.6751657105401645e+01 0 0 0
843 2 1.2461679473110046e+01 8.7286866808017383e+00 2.6751657105401645e+01 0 0 0
657 2 3.1335894622102600e-01 1.5742522807203727e+01 2.6751657105401645e+01 0 0 0
659 2 3.1335894622102600e-01 1.2936988356643045e+01 2.6751657105401645e+01 0 0 0
661 2 1.5281909989099358e+00 1.3638371969283122e+01 2.6751657105401645e+01 0 0 0
692 2 1.5281909989099358e+00 1.5041139194563163e+01 2.6751657105401645e+01 0 0 0
694 2 2.7430230515988456e+00 1.5742522807203727e+01 2.6751657105401645e+01 0 0 0
696 2 2.7430230515988456e+00 1.2936988356643045e+01 2.6751657105401645e+01 0 0 0
698 2 3.9578551042876748e+00 1.3638371969283122e+01 2.6751657105401645e+01 0 0 0
737 2 3.9578551042876748e+00 1.5041139194563163e+01 2.6751657105401645e+01 0 0 0
739 2 5.1726871569766653e+00 1.5742522807203727e+01 2.6751657105401645e+01 0 0 0
741 2 5.1726871569766653e+00 1.2936988356643045e+01 2.6751657105401645e+01 0 0 0
743 2 6.3875192096655358e+00 1.3638371969283122e+01 2.6751657105401645e+01 0 0 0
784 2 6.3875192096655358e+00 1.5041139194563163e+01 2.6751657105401645e+01 0 0 0
786 2 7.6023512623543237e+00 1.5742522807203727e+01 2.6751657105401645e+01 0 0 0
788 2 7.6023512623543237e+00 1.2936988356643045e+01 2.6751657105401645e+01 0 0 0
1625 1 4.8212384476497858e+00 1.6307251214508458e+01 3.5661141910197529e+01 -1 1 0
790 2 8.8171833150430281e+00 1.3638371969283122e+01 2.6751657105401645e+01 0 0 0
831 2 8.8171833150430281e+00 1.5041139194563163e+01 2.6751657105401645e+01 0 0 0
833 2 1.0032015367732305e+01 1.5742522807203727e+01 2.6751657105401645e+01 0 0 0
835 2 1.0032015367732305e+01 1.2936988356643045e+01 2.6751657105401645e+01 0 0 0
837 2 1.1246847420420648e+01 1.3638371969283122e+01 2.6751657105401645e+01 0 0 0
873 2 1.1246847420420648e+01 1.5041139194563163e+01 2.6751657105401645e+01 0 0 0
875 2 1.2461679473110046e+01 1.5742522807203727e+01 2.6751657105401645e+01 0 0 0
877 2 1.2461679473110046e+01 1.2936988356643045e+01 2.6751657105401645e+01 0 0 0
6403 1 1.2343924579920948e+01 1.1408066804780047e+01 2.4462442124714428e+01 0 1 1
686 2 3.1335894622102600e-01 1.9950824483044517e+01 2.6751657105401645e+01 0 0 0
688 2 3.1335894622102600e-01 1.7145290032483697e+01 2.6751657105401645e+01 0 0 0
690 2 1.5281909989099358e+00 1.7846673645123420e+01 2.6751657105401645e+01 0 0 0
729 2 1.5281909989099358e+00 1.9249440870404143e+01 2.6751657105401645e+01 0 0 0
731 2 2.7430230515988456e+00 1.9950824483044517e+01 2.6751657105401645e+01 0 0 0
733 2 2.7430230515988456e+00 1.7145290032483697e+01 2.6751657105401645e+01 0 0 0
735 2 3.9578551042876748e+00 1.7846673645123420e+01 2.6751657105401645e+01 0 0 0
776 2 3.9578551042876748e+00 1.9249440870404143e+01 2.6751657105401645e+01 0 0 0
1101 2 1.2461679473110046e+01 2.4159126158885972e+01 3.3310342894598890e+01 0 0 0
778 2 5.1726871569766653e+00 1.9950824483044517e+01 2.6751657105401645e+01 0 0 0
780 2 5.1726871569766653e+00 1.7145290032483697e+01 2.6751657105401645e+01 0 0 0
782 2 6.3875192096655358e+00 1.7846673645123420e+01 2.6751657105401645e+01 0 0 0
823 2 6.3875192096655358e+00 1.9249440870404143e+01 2.6751657105401645e+01 0 0 0
825 2 7.6023512623543237e+00 1.9950824483044517e+01 2.6751657105401645e+01 0 0 0
827 2 7.6023512623543237e+00 1.7145290032483697e+01 2.6751657105401645e+01 0 0 0
428 1 7.6941212020512184e+00 1.0033611368633434e+01 3.5985413229974483e+01 0 1 -1
829 2 8.8171833150430281e+00 1.7846673645123420e+01 2.6751657105401645e+01 0 0 0
865 2 8.8171833150430281e+00 1.9249440870404143e+01 2.6751657105401645e+01 0 0 0
867 2 1.0032015367732305e+01 1.9950824483044517e+01 2.6751657105401645e+01 0 0 0
869 2 1.0032015367732305e+01 1.7145290032483697e+01 2.6751657105401645e+01 0 0 0
871 2 1.1246847420420648e+01 1.7846673645123420e+01 2.6751657105401645e+01 0 0 0
899 2 1.1246847420420648e+01 1.9249440870404143e+01 2.6751657105401645e+01 0 0 0
903 2 1.2461679473110046e+01 1.7145290032483697e+01 2.6751657105401645e+01 0 0 0
723 2 3.1335894622102600e-01 2.4159126158885972e+01 2.6751657105401645e+01 0 0 0
725 2 3.1335894622102600e-01 2.1353591708324689e+01 2.6751657105401645e+01 0 0 0
727 2 1.5281909989099358e+00 2.2054975320964555e+01 2.6751657105401645e+01 0 0 0