LAMMPS data file via write_data, version 16 Mar 2018, timestep = 6000000

6768 atoms
2 atom types

2.4541040069877340e-01 4.8974589599292813e+01 xlo xhi
2.4441138755278402e-01 4.8775224542849273e+01 ylo yhi
-7.2876262239348577e-01 6.0790762622390204e+01 zlo zhi

Masses

1 18.015
2 12.01

Atoms # atomic

1978 1 2.2883547840519380e+00 3.2865943176815575e+00 2.0523192701120547e+00 2 1 0
1829 1 1.2120895666317486e+01 2.2560466530384613e+01 8.2349617074012493e-01 1 -1 0
5226 1 6.1843583969130167e+00 2.1813906508673133e+00 1.9711553158564432e+00 1 2 1
5251 1 8.9447384870345878e+00 2.3400275393078149e+00 1.0029588383525077e+00 2 1 0
4770 1 6.0162881933810413e+00 2.4344899204554793e+01 4.8000088901023563e+00 -1 -3 1
6398 1 4.8140942431339209e+00 4.1405918242271191e+00 6.3467884130120877e-01 2 1 1
2072 1 5.6831388172368813e+00 6.7613510878440044e+00 1.8056996666692942e+00 -1 2 0
3453 1 8.3380968452541904e+00 6.4121460336197842e+00 6.9533565323046509e-01 1 1 0
6656 1 9.7240166268898740e+00 4.8040730972698578e+00 2.1150245112828112e+00 -1 1 1
2099 1 1.0383788151283340e+00 2.3879536626646935e+01 8.3697136841538420e+00 -1 -2 0
622 1 2.0538756146041517e+00 9.5875019499704006e+00 1.7956613173359095e+00 -1 1 1
3224 1 4.5325164802338591e+00 8.9267639133498644e+00 5.0130479835829855e-01 2 -1 1
3085 1 5.8868799526466091e+00 1.1063647992371751e+01 1.7604881271376382e+00 1 1 1
10 1 8.3952581904990478e+00 1.1215581812930344e+01 8.2072324643317707e-01 2 0 1
3300 1 9.5764612782529035e+00 8.9286108734734313e+00 1.5140951472462287e+00 -2 -1 0
3754 1 1.2303541464732922e+01 1.8046534272424161e+01 5.5056406904323669e+00 4 3 0
5532 1 2.4481517602466245e+00 1.2314836336029375e+01 1.8369542045791079e+00 0 2 0
6658 1 4.4440921533288584e+00 1.3378865967294152e+01 8.1097229708978724e-01 2 4 0
249 1 6.0957569201978368e+00 1.5552275282249175e+01 1.4801178704954934e+00 1 -2 0
2215 1 8.3784794887358736e+00 1.5614981590689604e+01 4.1698737474161041e-01 -1 1 1
3870 1 9.8440069034246473e+00 1.3546656401262473e+01 1.6818885682425488e+00 -2 1 0
5511 1 2.0130684462920398e+00 1.7667311169847164e+01 2.0419378608727321e+00 0 -1 0
3462 1 4.3945774669066253e+00 1.7704885552675108e+01 5.2868900261787743e-01 -1 2 0
3508 1 5.8130836352088204e+00 2.0026363016106846e+01 1.7178394004454374e+00 0 -1 0
6376 1 8.3815336610105398e+00 2.0059055335937540e+01 8.1594475732115690e-01 0 -3 1
5090 1 9.5765356991206403e+00 1.7766882732624975e+01 1.6372053928552166e+00 0 2 0
4015 1 1.2031215845544502e+01 1.8182422190819601e+01 1.0306847906178558e+00 -2 1 0
6440 1 2.3060179249896908e+00 2.0559052646051985e+01 1.6771864134635024e+00 -1 1 1
3682 1 2.2355559500557867e+00 2.3978322427390239e+01 3.5041050336789170e-02 0 0 0
2333 1 4.4209472658188691e+00 2.2176763780074243e+01 6.7522935421485886e-01 0 0 1
2024 1 1.2166512586694504e+01 2.2542131825244820e+01 8.2554676994481770e+00 1 0 0
512 1 4.7729531307900954e+00 2.1779573833841592e+01 8.3559717895774313e+00 -1 0 1
1923 1 9.7159868783750571e+00 2.2362664496849835e+01 1.6145284999133258e+00 1 0 0
3335 1 1.2239718912224895e+01 1.3398286291261833e+01 8.1700838669218676e+00 2 1 1
1976 1 9.5504025207699583e-01 1.9666879735807201e+00 5.9241761587223376e+00 1 2 0
3412 1 6.1261820250192391e+00 2.3071699870591065e+00 4.8084174920528673e+00 1 -2 0
2002 1 4.8879221437869145e+00 4.4032633048474610e+00 5.7837120581432213e+00 -2 2 0
365 1 8.7211955045547587e+00 2.3263510806838084e+00 5.7477336156002830e+00 0 0 0
4758 1 9.8989344520375355e-01 1.9555429867127078e+01 7.9219757728360811e+00 2 1 1
4793 1 2.3862009225903837e+00 3.9572282297955916e+00 4.7846168606632409e+00 1 3 1
3587 1 1.3096592003411611e+00 6.2805103750995244e+00 5.6450244013662321e+00 4 0 0
4750 1 5.9390572567687565e+00 6.5068741953374172e+00 4.5174371210998663e+00 -2 0 1
3203 1 1.2260501866631113e+01 9.1286453487225785e+00 8.5234111287342138e+00 0 3 1
3172 1 8.4925187398495137e+00 6.7834662506646177e+00 5.3984336759730756e+00 -2 0 1
3264 1 9.7074827138289681e+00 4.3581678885267392e+00 4.5680751227273042e+00 -1 4 1
2271 1 2.1344779781844387e+00 8.6632714130002437e+00 4.3555510436269573e+00 5 0 0
2231 1 8.1867924888309473e-01 1.0893269555910575e+01 5.1567465024041841e+00 0 0 0
1931 1 4.8510053734070988e+00 8.7290651813152476e+00 5.6310387395561916e+00 2 2 0
5235 1 6.1197881162775056e+00 1.1042911534212269e+01 4.6338993703456781e+00 -2 -2 0
1623 1 8.6932349332028167e+00 1.1082311609098989e+01 5.4475224198320475e+00 1 -2 1
1869 1 2.0102789419925693e+00 5.3326371116018567e-01 1.9882743125275080e+00 1 0 0
6673 1 9.8328248852530322e+00 8.7350702777163285e+00 4.2053706609607948e+00 1 -1 1
1486 1 2.3089175583612245e+00 1.2896343703260602e+01 4.3671844358496097e+00 -3 4 1
3030 1 9.4802866097149330e-01 1.5121308291682302e+01 5.2286900373295779e+00 -1 1 1
4965 1 4.7527166938867511e+00 1.3531819199215507e+01 5.6428638729135727e+00 1 1 1
3302 1 6.0380948689855121e+00 1.5547408850023503e+01 4.2608593198265039e+00 -1 0 0
1461 1 7.4060507847652870e+00 2.1957054570176862e+01 8.9287310496030514e+00 -2 -2 1
4776 1 8.6313827851058171e+00 1.5555237457730236e+01 5.2668517505224681e+00 4 3 1
1972 1 9.8548703247306229e+00 1.3203590101146942e+01 4.3802269446399960e+00 0 0 0
3223 1 2.1266150473801537e+00 1.7352497240244741e+01 4.8569580450082013e+00 2 1 1
3476 1 6.6640227272441499e-01 1.9511289911384367e+01 5.3702560160326804e+00 2 1 1
5174 1 4.6619460308323850e+00 1.7732402512476249e+01 5.2511552487116324e+00 -2 0 1
6385 1 6.1931461547845688e+00 1.9946517835267315e+01 4.4847091759279314e+00 0 -2 1
4772 1 8.8505441269698206e+00 1.9944802439728605e+01 5.3637433440347504e+00 3 3 1
2307 1 9.8308311091986020e+00 1.7751330290935048e+01 4.3363892057224653e+00 1 0 1
1647 1 1.0971773194003169e+00 2.3699408432345741e+01 5.5119290841102240e+00 1 -1 0
6466 1 2.2459067658189502e+00 2.1320901856795246e+01 4.5391787938083494e+00 1 1 1
2048 1 4.7054417217697297e+00 2.1913548293868811e+01 5.6575181971268211e+00 -2 1 0
5119 1 1.1991179823078413e+01 8.9157424157642833e+00 5.8435285401619170e+00 -1 2 0
1559 1 1.2071080479241980e+01 4.6823583838639999e+00 5.7525811522489487e+00 -1 -1 1
3666 1 1.0005024475268122e+01 2.2170696602062936e+01 4.1602568478076689e+00 1 -1 0
3214 1 1.1442808945910476e+01 2.0244495675430791e+01 9.3497955441075362e+00 2 -2 1
485 1 1.0570845522310210e+00 2.0324566207220016e+00 8.6882281828057053e+00 0 1 0
5589 1 3.6499154298388605e+00 1.9572935892702701e+00 9.0912521968149278e+00 2 -1 1
219 1 4.7665968053499910e+00 4.2579875930470115e+00 8.5517801251252017e+00 -2 0 0
6469 1 7.3599275737811842e+00 4.6996978570378412e+00 9.4075262680180831e+00 -1 0 1
4724 1 8.5608288446410548e+00 2.4166626754456386e+00 8.5879418013249378e+00 -3 2 1
4777 1 1.1182004296182596e+01 2.1711241307424824e+00 9.7773988756191059e+00 -1 -4 1
3567 1 3.4706606311492245e+00 6.5597349392454092e+00 9.5146338350462845e+00 1 0 0
5297 1 9.5070571079054111e-01 6.4182245263958135e+00 8.2738259846848567e+00 1 3 0
6392 1 8.4384283086338598e+00 6.6806642777972032e+00 8.1965610610911135e+00 4 0 1
5098 1 1.0808452475194704e+01 6.9685309839839729e+00 9.3487424229678879e+00 0 2 0
3362 1 9.9442756752109596e-01 1.0855866924335198e+01 7.9966910717826902e+00 4 1 1
3084 1 3.5761523826534778e+00 2.4007501749562273e+01 9.3742650328719428e+00 3 -1 1
6528 1 3.6716948856800529e+00 1.0718702595350711e+01 9.0555685939789470e+00 1 1 1
5147 1 4.9140633599693455e+00 8.6706463541346377e+00 8.2600351789277795e+00 1 0 0
141 1 7.3731815045847657e+00 8.8010360944576789e+00 9.2897500176365515e+00 1 -1 0
6748 1 8.5263742816934212e+00 1.1173020020946932e+01 8.3185780970100787e+00 -1 4 1
3625 1 1.2096395621040003e+01 2.2247779899370620e+01 5.6492562791475880e+00 1 -2 1
5302 1 1.1025902700479262e+01 1.1288409119983656e+01 9.3754345154797782e+00 1 0 0
110 1 1.1942365749849171e+00 1.5021350179135952e+01 7.7837439108041782e+00 2 0 0
4875 1 3.7261926930672593e+00 1.5196911286925516e+01 8.9054005961683167e+00 1 -1 1
5243 1 5.3543005178187473e+00 1.3242673928874051e+01 8.3424139006265303e+00 2 0 1
1705 1 7.6523094584667071e+00 1.3160912716808054e+01 9.5674974463038698e+00 1 1 1
3433 1 8.7866674318840818e+00 1.5341417271897591e+01 7.8736966339433767e+00 1 -1 0
3159 1 1.1034071062185751e+01 1.5737393823728199e+01 9.1705946993361334e+00 -3 1 1
3830 1 8.2300367719964722e+00 2.4410783521544630e+01 7.9750234000992535e+00 -1 1 0
5292 1 5.1830250621403042e+00 1.7429429321663005e+01 7.8887909037678039e+00 1 0 0
4962 1 3.5564498898959838e+00 1.9332514459203932e+01 9.0620412795198177e+00 -1 2 1
5659 1 8.9886642878277154e+00 1.9662748505084441e+01 8.2529073150905070e+00 -1 -2 0
3923 1 7.4790428839659437e+00 1.7301997299677371e+01 9.0554302361313113e+00 0 -3 1
6445 1 1.2007002344119046e+01 8.9074691352644066e+00 7.6786087783581847e-01 -2 -2 1
3003 1 1.2276202163847238e+01 4.5312832222513304e+00 8.3578618812331946e+00 1 0 1
5557 1 1.2347930407795744e+01 4.6263979555886605e+00 9.3505225395432712e-01 -2 -2 0
367 1 1.2245673405868720e+01 1.3432230711190760e+01 5.3613777412093064e+00 2 0 0
2211 1 6.0348807595524478e+00 2.4404202227950002e+01 1.8022122395162614e+00 0 -2 0
5298 1 8.6512994668480072e+00 2.4393139236479765e+01 5.4327243279465165e+00 0 0 0
3540 1 2.3558605567460349e+00 3.7406367847025548e+00 1.3095269397614111e+01 1 -1 0
283 1 2.2090607865031107e+00 3.8937505018896230e+00 1.5754237090147413e+01 -2 1 0
2302 1 1.2358610994392016e+01 1.3601360159834918e+01 1.9440247744181672e+01 2 0 1
3044 1 6.4272180930916516e+00 2.3385776286527169e+00 1.2750927555210836e+01 -1 2 1
3138 1 1.2312673093345941e+01 4.7770860942357691e+00 1.6743353771527321e+01 -1 0 1
1787 1 6.1988041669439617e+00 2.4085630190955754e+00 1.5629040201521196e+01 1 1 1
3646 1 9.6625360395883355e+00 4.4218464352335793e+00 1.3482324769754310e+01 3 -1 0
1961 1 1.2166665428462135e+01 2.2443051468081734e+01 1.6806132428120019e+01 -3 1 0
2179 1 9.8594780363106285e+00 4.7519839280667826e+00 1.6139678830975033e+01 1 1 0
3479 1 1.0711813645497566e+01 2.2547034080943167e+00 1.2290703703183000e+01 1 1 0
4847 1 2.2341689350261875e+00 8.2944259250593646e+00 1.5970760429458402e+01 1 0 1
5006 1 5.7986176485880137e+00 6.5624127532596397e+00 1.3409479962780614e+01 1 3 0
3135 1 6.0541740884323669e+00 6.5601799222455925e+00 1.6002862682739099e+01 1 0 1
4833 1 3.7288495942398536e+00 1.5320862607714799e+01 1.1844180932587960e+01 1 0 1
1882 1 2.6572969692980601e+00 8.3023832147074970e+00 1.3073400534068746e+01 -1 1 0
1928 1 3.5471120976821138e+00 1.0822375211824783e+01 1.1744188273705966e+01 -1 -1 0
3163 1 5.8640872333126994e+00 1.0984555217955686e+01 1.2792276205256099e+01 1 0 1
1429 1 6.1279085992773368e+00 1.0871620296766633e+01 1.5585074741312578e+01 -1 2 1
449 1 1.1086061198674974e+01 1.0941021286474717e+01 1.2075502152291030e+01 -3 1 1
3832 1 9.6020394639682536e+00 9.3004996364740418e+00 1.2937797131589436e+01 -1 1 0
5547 1 7.3907452963712545e+00 1.7491228027369846e+01 1.1844126744496965e+01 2 -1 0
3408 1 9.6742649551144435e+00 9.1456008134171931e+00 1.5788847624493190e+01 0 3 1
3192 1 2.6887079627857293e+00 1.2888778951177365e+01 1.2873933327288471e+01 1 2 1
2155 1 9.9282956226838976e+00 2.2389080188298909e+01 2.2948731895739375e+01 0 2 0
3067 1 5.9944059203457511e+00 1.5508039500144834e+01 1.3014452357369072e+01 0 1 1
5076 1 8.1400678854182318e-01 2.3902991060476612e+01 1.9338338883333851e+01 2 0 0
3568 1 1.0778084014247593e+01 1.5813520099498216e+01 1.1758325871792998e+01 3 1 0
555 1 1.0052552366593979e+01 1.3325677841959424e+01 1.3016410896227566e+01 -3 2 1
1690 1 8.2266783402635124e-01 2.4153332545039277e+01 1.6619135617337893e+01 2 2 1
2212 1 2.1550279824575824e+00 1.7282576812906427e+01 1.3039540775976144e+01 -2 2 0
5459 1 2.0937848633811065e+00 1.7620437582123795e+01 1.5854976502891873e+01 0 1 0
3167 1 5.9597390104161336e+00 1.9467400792123051e+01 1.2695296093247334e+01 2 -1 1
1572 1 5.9134418297083524e+00 1.9849071784530143e+01 1.5646487245180111e+01 1 0 0
2094 1 1.0760731827263330e+01 6.8265213100678208e+00 1.2271408712224874e+01 1 0 0
4839 1 9.6804109186610194e+00 1.3488285226682009e+01 2.0484265962640741e+01 -1 -1 1
5347 1 9.6098314905824864e+00 1.7844382262574008e+01 1.2883196552846691e+01 1 -1 0
370 1 9.6721371411025245e+00 1.7951115443667966e+01 1.5694403538948158e+01 2 1 0
5443 1 1.7904497648850421e+00 2.1768573063424597e+01 1.3067071144078874e+01 -1 -1 0
5048 1 9.7035261552079923e+00 1.4042211827379742e+01 2.3159794944327054e+01 -1 2 1
3803 1 2.2281772197816081e+00 2.2083759363511891e+01 2.0409269905276361e+01 1 -3 0
3920 1 1.2218671950278923e+01 2.2337726435171014e+01 1.9216706376378635e+01 1 1 0
5218 1 9.7720599936147394e+00 1.8013034856160136e+01 2.2918934035641300e+01 3 2 0
5403 1 3.3195264068730665e+00 2.3804759590013404e+01 1.2008079738117484e+01 3 -2 0
3065 1 9.4007123396128893e+00 2.2318126973140831e+01 1.3200217363479625e+01 0 4 1
492 1 9.5296457524284222e+00 2.2298498737486440e+01 1.5892507284852336e+01 -4 0 1
5484 1 1.2355433203246564e+00 1.7317048864638447e+00 1.6897063702789389e+01 -1 0 0
2278 1 1.1564768442194013e+00 1.9011461929400912e+00 1.9358934754337678e+01 3 2 1
1915 1 4.7500069179490296e+00 4.2601634175242165e+00 1.6906448894582798e+01 -1 1 0
2345 1 4.8611210646026937e+00 4.3749728624850430e+00 1.9544491054319959e+01 0 2 0
494 1 8.9344604972397210e+00 2.2118751346313035e+00 1.6746228422565402e+01 0 1 0
3089 1 8.7331379518233128e+00 2.1991232104783025e+00 1.9295052360583760e+01 -1 3 1
598 1 1.1755821672357256e+00 5.9731193180211157e+00 1.7165333782401561e+01 -1 1 1
5664 1 7.5014042789108448e-01 6.6407720155075403e+00 1.9721167372279872e+01 0 2 1
2247 1 8.3868940300484489e+00 6.9584814119506477e+00 1.9494135076527961e+01 -3 4 1
473 1 8.4959639748902962e+00 6.9028280449761894e+00 1.6888352381789840e+01 -2 -2 1
5150 1 1.2088121316051607e+01 1.7968636307542919e+01 1.6721547424703260e+01 -3 1 1
6690 1 3.3013090693149882e+00 1.9780157016644491e+01 1.1982457835072880e+01 0 0 1
3348 1 7.7767607527768290e-01 1.0550181153586557e+01 1.6564927473584852e+01 0 3 0
4997 1 1.0270538319776623e+00 1.0697315618280655e+01 1.9375090989788816e+01 1 0 1
4735 1 5.1468326637900521e+00 8.8606436420776173e+00 1.6826238079293464e+01 0 1 0
5116 1 5.0226210422813988e+00 8.8135397515894489e+00 1.9389969660990982e+01 -1 0 0
511 1 8.5469771272975041e+00 1.1589509004902476e+01 1.6671909210043793e+01 0 -3 1
5704 1 3.4484320436390781e+00 6.0960181985260897e+00 1.2097320403484787e+01 -2 0 1
3829 1 8.4489597112429298e+00 1.1202750542593376e+01 1.9595730065728151e+01 2 1 0
5035 1 7.3620662494321722e+00 1.3413453299267106e+01 1.2117220849875153e+01 5 1 1
3480 1 2.1585894751003729e+00 1.2896456116732173e+01 1.5745900759848407e+01 1 0 0
3028 1 1.4105909980587481e+00 1.5279092458367760e+01 1.6792639173180792e+01 -3 3 1
1816 1 5.9431108100438852e+00 1.5303016756440671e+01 1.5647234330173212e+01 -2 0 0
3760 1 4.7327214089792164e+00 1.2780756972807074e+01 1.6587736434727656e+01 -2 1 0
5331 1 4.7988491817536447e+00 1.3116106578797151e+01 1.9319100283384206e+01 1 -1 0
2332 1 9.5939527039376458e+00 1.3840616102666653e+01 1.5652629563451821e+01 2 0 1
4936 1 8.3586760853975210e+00 1.5904183346927327e+01 1.6656442985125352e+01 -2 0 0
1500 1 8.5667438839143344e+00 1.5687947660952277e+01 1.9468060173394960e+01 0 -3 0
6393 1 7.0639314482774624e+00 2.1820136438291609e+01 1.1797326035999440e+01 1 1 1
3908 1 8.1998754852300160e-01 1.9813471490057523e+01 1.9558325513370828e+01 -1 0 0
1966 1 1.1759837136329736e+00 1.9886201253689226e+01 1.7045648860578460e+01 0 0 0
3569 1 4.7975261999095444e+00 1.7756819098909428e+01 1.6818901009418852e+01 1 5 0
1728 1 4.6757156416087238e+00 1.7640861075254705e+01 1.9408102822586251e+01 1 2 0
6745 1 6.8435544340316792e+00 8.7597047740553151e+00 1.1899775427922782e+01 -2 -1 0
1837 1 8.3529766283315432e+00 2.0373901071511213e+01 1.9322765348403617e+01 0 -1 1
5053 1 8.4823857288161708e+00 2.0219906953210675e+01 1.6695594622475770e+01 -3 0 1
5239 1 1.2126890698619722e+01 1.7936553266543324e+01 1.9458548392187843e+01 -2 1 1
6588 1 3.8412793125346876e+00 1.7259019139497123e+00 1.2025307222979874e+01 -2 1 1
5253 1 2.2170021020772896e+00 2.2115952851143636e+01 1.5811728988954286e+01 1 3 0
5587 1 2.1529962432704255e+00 1.7370818326322027e+01 2.0437593704835916e+01 2 1 1
3041 1 4.9452465212302936e+00 2.2244004206659408e+01 1.6618516043678557e+01 -1 2 1
222 1 4.7757549230163292e+00 2.2170171492935893e+01 1.9547865938510299e+01 0 -1 0
313 1 2.5777021069705115e+00 1.7172575331530375e+01 2.3126959648106681e+01 1 0 0
6641 1 6.0924617679289064e+00 2.3973897720027022e+01 1.2801917749460722e+01 1 -2 0
6447 1 1.0962360055627205e+01 2.0047298688611718e+01 1.2154257040977049e+01 3 -1 1
2165 1 1.2344001900400963e+01 4.8211608769952390e+00 1.9532361874870599e+01 0 3 0
5341 1 2.2661958189646905e+00 4.3075925456973678e+00 2.0459096043740299e+01 0 2 0
6723 1 2.1795710223022389e+00 4.2886954777164190e+00 2.2957374404396788e+01 2 -1 0
2300 1 6.2339022457760080e+00 2.1632223778224704e+00 2.0387764515921976e+01 -1 3 1
2263 1 5.7672542978296448e+00 1.8848444286071477e+00 2.3114817681052667e+01 1 1 0
5099 1 7.4069989988710141e+00 4.8481030163794498e+00 1.2065918005971644e+01 0 -3 1
2227 1 6.2107185497955477e+00 6.4502957544452855e+00 2.2935272356786395e+01 3 -1 1
3358 1 5.8045024314112137e+00 6.5742817613214015e+00 2.0444134281146102e+01 -3 1 1
3448 1 9.4222572492754892e+00 2.2663957901013944e+01 2.0286464082571776e+01 2 -1 0
1594 1 9.9550180829491737e+00 4.5243824308755247e+00 2.3215318514178314e+01 -6 3 1
1954 1 9.6851133685939601e+00 4.4176859541570117e+00 2.0406814091079831e+01 2 -1 0
2125 1 2.4884780291211817e+00 8.7036423477050917e+00 2.3097333733440745e+01 0 -1 0
6527 1 2.5417901726037999e+00 8.6410924633585875e+00 2.0287572111712720e+01 1 -1 1
3313 1 5.7681522200580027e+00 1.9984285957346078e+01 2.0423931769577276e+01 2 -2 1
1606 1 6.1766545456523714e+00 1.1030164554498889e+01 2.0853565255682703e+01 3 1 0
6603 1 5.9999733902034063e+00 1.1013373124930679e+01 2.3462661309800676e+01 1 1 1
4933 1 9.5545084377651133e+00 1.8240464020751610e+01 2.0333817742866142e+01 0 1 1
5420 1 9.9548201761035564e+00 9.0266225274165883e+00 2.3116064459253380e+01 0 -1 0
174 1 9.8733612196174274e+00 8.9337114710798691e+00 2.0452562062792673e+01 1 -2 0
3826 1 2.4563623586410253e+00 2.1870165040219817e+01 2.3124334786519590e+01 5 -2 0
5441 1 1.1571778486660955e+00 1.4926903455581485e+01 1.9298125760218245e+01 1 0 0
3867 1 2.3292766796872746e+00 1.3013563802916279e+01 2.3152617687471171e+01 0 -1 0
1494 1 2.0797264735944827e+00 1.2794542785360683e+01 2.0528596927975986e+01 -2 1 1
1958 1 5.9254796882490224e+00 1.9928995530691566e+01 2.2969361711358353e+01 2 2 0
3913 1 5.7190919551643313e+00 1.5273728446781641e+01 2.3132108251429305e+01 -2 -1 0
5388 1 6.0369293859534547e+00 1.5492200444922362e+01 2.0443440663839194e+01 -2 -2 0
3294 1 1.2242901963521495e+01 1.3241364667680180e+01 1.6860285009124155e+01 3 2 1
2096 1 1.0899779278241944e+01 2.4446772409241987e+01 1.2109072558168059e+01 1 0 0
2093 1 6.1578674991680868e+00 2.4344128157739600e+01 1.5459461014204063e+01 -2 -1 0
3846 1 1.2343591303220528e+01 9.1467534022649879e+00 1.6623012130483552e+01 -1 1 1
5633 1 5.9058681238934323e+00 2.4286162316294995e+01 2.0377570669052528e+01 3 0 1
6558 1 8.3694303955171083e+00 1.6044317603049528e+01 2.3855955001233234e+01 -2 -1 1
3573 1 5.9527957192174643e+00 2.4297332152701124e+01 2.3178947727341313e+01 -2 -2 0
1758 1 1.2394172127095239e+01 9.2222882114648801e+00 1.9421113092814270e+01 1 4 0
3465 1 1.3345043985333445e+00 1.5974408525493184e+00 2.3345608001428989e+01 2 1 0
1462 1 1.5540812255098368e+00 1.9399897458746779e+01 2.3846875295569799e+01 0 1 1
2088 1 8.7626698857898457e+00 6.6983422314683443e+00 2.3861887836034576e+01 0 2 0
6491 1 1.2328680384183922e+01 2.2557692233148458e+01 2.3790886672485520e+01 1 -2 1
623 2 2.4541040069877340e-01 3.0577918603233032e+00 2.6744986899469449e+01 0 0 0
625 2 2.4541040069877340e-01 2.4441138755278402e-01 2.6744986899469449e+01 0 0 0
627 2 1.4636398806636328e+00 9.4775650574538073e-01 2.6744986899469449e+01 0 0 0
634 2 1.4636398806636328e+00 2.3544467421305777e+00 2.6744986899469449e+01 0 0 0
636 2 2.6818693606284922e+00 3.0577918603233032e+00 2.6744986899469449e+01 0 0 0
638 2 2.6818693606284922e+00 2.4441138755278402e-01 2.6744986899469449e+01 0 0 0
640 2 3.9000988405936461e+00 9.4775650574538073e-01 2.6744986899469449e+01 0 0 0
655 2 3.9000988405936461e+00 2.3544467421305777e+00 2.6744986899469449e+01 0 0 0
5068 1 1.2313656171673951e+01 1.3762621874344436e+01 2.3889486630699690e+01 0 1 0
657 2 5.1183283205582111e+00 3.0577918603233032e+00 2.6744986899469449e+01 0 0 0
659 2 5.1183283205582111e+00 2.4441138755278402e-01 2.6744986899469449e+01 0 0 0
661 2 6.3365578005230265e+00 9.4775650574538073e-01 2.6744986899469449e+01 0 0 0
684 2 6.3365578005230265e+00 2.3544467421305777e+00 2.6744986899469449e+01 0 0 0
686 2 7.5547872804885188e+00 3.0577918603233032e+00 2.6744986899469449e+01 0 0 0
688 2 7.5547872804885188e+00 2.4441138755278402e-01 2.6744986899469449e+01 0 0 0
3042 1 1.2270311387999408e+01 6.8876477311197826e-01 2.4273622099282203e+01 1 0 1
690 2 8.7730167604510605e+00 9.4775650574538073e-01 2.6744986899469449e+01 0 0 0
721 2 8.7730167604510605e+00 2.3544467421305777e+00 2.6744986899469449e+01 0 0 0
723 2 9.9912462404176487e+00 3.0577918603233032e+00 2.6744986899469449e+01 0 0 0
725 2 9.9912462404176487e+00 2.4441138755278402e-01 2.6744986899469449e+01 0 0 0
727 2 1.1209475720385054e+01 9.4775650574538073e-01 2.6744986899469449e+01 0 0 0
766 2 1.1209475720385054e+01 2.3544467421305777e+00 2.6744986899469449e+01 0 0 0
768 2 1.2427705200347280e+01 3.0577918603233032e+00 2.6744986899469449e+01 0 0 0
770 2 1.2427705200347280e+01 2.4441138755278402e-01 2.6744986899469449e+01 0 0 0
5594 1 8.5898559005916351e+00 2.0182334034683180e+01 2.3905941575859018e+01 1 3 1
628 2 2.4541040069877340e-01 7.2778625694792360e+00 2.6744986899469449e+01 0 0 0
630 2 2.4541040069877340e-01 4.4644820967083714e+00 2.6744986899469449e+01 0 0 0
632 2 1.4636398806636328e+00 5.1678272149015081e+00 2.6744986899469449e+01 0 0 0
647 2 1.4636398806636328e+00 6.5745174512865221e+00 2.6744986899469449e+01 0 0 0
649 2 2.6818693606284922e+00 7.2778625694792360e+00 2.6744986899469449e+01 0 0 0
651 2 2.6818693606284922e+00 4.4644820967083714e+00 2.6744986899469449e+01 0 0 0
653 2 3.9000988405936461e+00 5.1678272149015081e+00 2.6744986899469449e+01 0 0 0
676 2 3.9000988405936461e+00 6.5745174512865221e+00 2.6744986899469449e+01 0 0 0
1999 1 1.8383380460032501e+00 1.2231294960764393e+01 3.5949751896518762e+01 2 0 -1
678 2 5.1183283205582111e+00 7.2778625694792360e+00 2.6744986899469449e+01 0 0 0
680 2 5.1183283205582111e+00 4.4644820967083714e+00 2.6744986899469449e+01 0 0 0
682 2 6.3365578005230265e+00 5.1678272149015081e+00 2.6744986899469449e+01 0 0 0
713 2 6.3365578005230265e+00 6.5745174512865221e+00 2.6744986899469449e+01 0 0 0
715 2 7.5547872804885188e+00 7.2778625694792360e+00 2.6744986899469449e+01 0 0 0
717 2 7.5547872804885188e+00 4.4644820967083714e+00 2.6744986899469449e+01 0 0 0
719 2 8.7730167604510605e+00 5.1678272149015081e+00 2.6744986899469449e+01 0 0 0
758 2 8.7730167604510605e+00 6.5745174512865221e+00 2.6744986899469449e+01 0 0 0
760 2 9.9912462404176487e+00 7.2778625694792360e+00 2.6744986899469449e+01 0 0 0
762 2 9.9912462404176487e+00 4.4644820967083714e+00 2.6744986899469449e+01 0 0 0
764 2 1.1209475720385054e+01 5.1678272149015081e+00 2.6744986899469449e+01 0 0 0
805 2 1.1209475720385054e+01 6.5745174512865221e+00 2.6744986899469449e+01 0 0 0
807 2 1.2427705200347280e+01 7.2778625694792360e+00 2.6744986899469449e+01 0 0 0
809 2 1.2427705200347280e+01 4.4644820967083714e+00 2.6744986899469449e+01 0 0 0
5643 1 4.8588875674059437e+00 2.1971733700128098e+01 2.4009722541108086e+01 0 0 1
641 2 2.4541040069877340e-01 1.1497933278634861e+01 2.6744986899469449e+01 0 0 0
643 2 2.4541040069877340e-01 8.6845528058639587e+00 2.6744986899469449e+01 0 0 0
645 2 1.4636398806636328e+00 9.3878979240568921e+00 2.6744986899469449e+01 0 0 0
668 2 1.4636398806636328e+00 1.0794588160443178e+01 2.6744986899469449e+01 0 0 0
670 2 2.6818693606284922e+00 1.1497933278634861e+01 2.6744986899469449e+01 0 0 0
672 2 2.6818693606284922e+00 8.6845528058639587e+00 2.6744986899469449e+01 0 0 0
674 2 3.9000988405936461e+00 9.3878979240568921e+00 2.6744986899469449e+01 0 0 0
705 2 3.9000988405936461e+00 1.0794588160443178e+01 2.6744986899469449e+01 0 0 0
707 2 5.1183283205582111e+00 1.1497933278634861e+01 2.6744986899469449e+01 0 0 0
709 2 5.1183283205582111e+00 8.6845528058639587e+00 2.6744986899469449e+01 0 0 0
711 2 6.3365578005230265e+00 9.3878979240568921e+00 2.6744986899469449e+01 0 0 0
750 2 6.3365578005230265e+00 1.0794588160443178e+01 2.6744986899469449e+01 0 0 0
752 2 7.5547872804885188e+00 1.1497933278634861e+01 2.6744986899469449e+01 0 0 0
754 2 7.5547872804885188e+00 8.6845528058639587e+00 2.6744986899469449e+01 0 0 0
2148 1 8.2995696145081475e+00 2.3368989979868746e+00 2.4223759601447981e+01 1 1 0
756 2 8.7730167604510605e+00 9.3878979240568921e+00 2.6744986899469449e+01 0 0 0
797 2 8.7730167604510605e+00 1.0794588160443178e+01 2.6744986899469449e+01 0 0 0
799 2 9.9912462404176487e+00 1.1497933278634861e+01 2.6744986899469449e+01 0 0 0
801 2 9.9912462404176487e+00 8.6845528058639587e+00 2.6744986899469449e+01 0 0 0
803 2 1.1209475720385054e+01 9.3878979240568921e+00 2.6744986899469449e+01 0 0 0
844 2 1.1209475720385054e+01 1.0794588160443178e+01 2.6744986899469449e+01 0 0 0
846 2 1.2427705200347280e+01 1.1497933278634861e+01 2.6744986899469449e+01 0 0 0
848 2 1.2427705200347280e+01 8.6845528058639587e+00 2.6744986899469449e+01 0 0 0
662 2 2.4541040069877340e-01 1.5718003987787309e+01 2.6744986899469449e+01 0 0 0
664 2 2.4541040069877340e-01 1.2904623515020260e+01 2.6744986899469449e+01 0 0 0
666 2 1.4636398806636328e+00 1.3607968633214353e+01 2.6744986899469449e+01 0 0 0
697 2 1.4636398806636328e+00 1.5014658869601528e+01 2.6744986899469449e+01 0 0 0
699 2 2.6818693606284922e+00 1.5718003987787309e+01 2.6744986899469449e+01 0 0 0
701 2 2.6818693606284922e+00 1.2904623515020260e+01 2.6744986899469449e+01 0 0 0
703 2 3.9000988405936461e+00 1.3607968633214353e+01 2.6744986899469449e+01 0 0 0
742 2 3.9000988405936461e+00 1.5014658869601528e+01 2.6744986899469449e+01 0 0 0
6391 1 4.7856077207234007e+00 1.3194333349585721e+01 2.4058168959109569e+01 -2 -2 1
744 2 5.1183283205582111e+00 1.5718003987787309e+01 2.6744986899469449e+01 0 0 0
746 2 5.1183283205582111e+00 1.2904623515020260e+01 2.6744986899469449e+01 0 0 0
748 2 6.3365578005230265e+00 1.3607968633214353e+01 2.6744986899469449e+01 0 0 0
789 2 6.3365578005230265e+00 1.5014658869601528e+01 2.6744986899469449e+01 0 0 0
791 2 7.5547872804885188e+00 1.5718003987787309e+01 2.6744986899469449e+01 0 0 0
793 2 7.5547872804885188e+00 1.2904623515020260e+01 2.6744986899469449e+01 0 0 0
795 2 8.7730167604510605e+00 1.3607968633214353e+01 2.6744986899469449e+01 0 0 0
836 2 8.7730167604510605e+00 1.5014658869601528e+01 2.6744986899469449e+01 0 0 0
838 2 9.9912462404176487e+00 1.5718003987787309e+01 2.6744986899469449e+01 0 0 0
840 2 9.9912462404176487e+00 1.2904623515020260e+01 2.6744986899469449e+01 0 0 0
842 2 1.1209475720385054e+01 1.3607968633214353e+01 2.6744986899469449e+01 0 0 0
878 2 1.1209475720385054e+01 1.5014658869601528e+01 2.6744986899469449e+01 0 0 0
880 2 1.2427705200347280e+01 1.5718003987787309e+01 2.6744986899469449e+01 0 0 0
882 2 1.2427705200347280e+01 1.2904623515020260e+01 2.6744986899469449e+01 0 0 0
601 1 1.1958264030313963e+00 1.5269339713924611e+01 2.3933533762424027e+01 0 0 1
3947 1 4.9421226914427594e+00 1.7934114231961313e+01 2.4184392250763882e+01 3 2 1
691 2 2.4541040069877340e-01 1.9938074696947680e+01 2.6744986899469449e+01 0 0 0
693 2 2.4541040069877340e-01 1.7124694224175133e+01 2.6744986899469449e+01 0 0 0
695 2 1.4636398806636328e+00 1.7828039342369770e+01 2.6744986899469449e+01 0 0 0
734 2 1.4636398806636328e+00 1.9234729578762554e+01 2.6744986899469449e+01 0 0 0
736 2 2.6818693606284922e+00 1.9938074696947680e+01 2.6744986899469449e+01 0 0 0
738 2 2.6818693606284922e+00 1.7124694224175133e+01 2.6744986899469449e+01 0 0 0
740 2 3.9000988405936461e+00 1.7828039342369770e+01 2.6744986899469449e+01 0 0 0
781 2 3.9000988405936461e+00 1.9234729578762554e+01 2.6744986899469449e+01 0 0 0
783 2 5.1183283205582111e+00 1.9938074696947680e+01 2.6744986899469449e+01 0 0 0
785 2 5.1183283205582111e+00 1.7124694224175133e+01 2.6744986899469449e+01 0 0 0
787 2 6.3365578005230265e+00 1.7828039342369770e+01 2.6744986899469449e+01 0 0 0
828 2 6.3365578005230265e+00 1.9234729578762554e+01 2.6744986899469449e+01 0 0 0
830 2 7.5547872804885188e+00 1.9938074696947680e+01 2.6744986899469449e+01 0 0 0
832 2 7.5547872804885188e+00 1.7124694224175133e+01 2.6744986899469449e+01 0 0 0
6674 1 4.6812168326338179e+00 4.4456556410479875e+00 2.4107562196246391e+01 1 -1 0
834 2 8.7730167604510605e+00 1.7828039342369770e+01 2.6744986899469449e+01 0 0 0
870 2 8.7730167604510605e+00 1.9234729578762554e+01 2.6744986899469449e+01 0 0 0
872 2 9.9912462404176487e+00 1.9938074696947680e+01 2.6744986899469449e+01 0 0 0
874 2 9.9912462404176487e+00 1.7124694224175133e+01 2.6744986899469449e+01 0 0 0
876 2 1.1209475720385054e+01 1.7828039342369770e+01 2.6744986899469449e+01 0 0 0
904 2 1.1209475720385054e+01 1.9234729578762554e+01 2.6744986899469449e+01 0 0 0
908 2 1.2427705200347280e+01 1.7124694224175133e+01 2.6744986899469449e+01 0 0 0
3469 1 1.1031164222494563e+00 2.4098101854306861e+01 2.3961144603218219e+01 0 0 0
728 2 2.4541040069877340e-01 2.4158145406106573e+01 2.6744986899469449e+01 0 0 0
730 2 2.4541040069877340e-01 2.1344764933333572e+01 2.6744986899469449e+01 0 0 0
732 2 1.4636398806636328e+00 2.2048110051531019e+01 2.6744986899469449e+01 0 0 0
773 2 1.4636398806636328e+00 2.3454800287904582e+01 2.6744986899469449e+01 0 0 0
775 2 2.6818693606284922e+00 2.4158145406106573e+01 2.6744986899469449e+01 0 0 0
777 2 2.6818693606284922e+00 2.1344764933333572e+01 2.6744986899469449e+01 0 0 0