LAMMPS data file via write_data, version 16 Mar 2018, timestep = 100000

6768 atoms
2 atom types

0.0000000000000000e+00 4.9219999999999999e+01 xlo xhi
0.0000000000000000e+00 4.9019635930410494e+01 ylo yhi
-1.9229436089195318e-01 6.0254294360892445e+01 zlo zhi

Masses

1 18.015
2 12.01

Atoms # atomic

91 1 3.7084167520394158e+00 4.0003902991468863e+00 1.4081185606867923e+00 -1 0 0
3795 1 3.9472703125227997e+00 1.6249864073778961e+00 -1.0330116389455368e-01 1 1 0
3258 1 2.1886498410268098e+00 6.6616730703494265e-01 1.9995813769456809e+00 0 2 1
3593 1 8.5610871906856705e+00 1.3383647920909392e+00 1.7914858647711738e+00 0 0 0
4986 1 9.2692026141430894e-01 1.6050456685924093e+01 7.5396269196954782e+00 2 1 1
307 1 1.1120817491695272e+01 1.5940433403529983e+00 1.6890597589088929e+00 2 -1 0
2340 1 1.1155771116097503e+01 4.4765097532570666e+00 1.4524780138585427e+00 0 0 1
388 1 1.1287477637081720e+01 2.4232969618649694e+01 4.2437564519844417e-01 1 0 0
326 1 4.4989763458707213e+00 3.7851113795249351e+00 4.0081136918033780e+00 0 0 0
1495 1 8.2781689411910850e+00 4.1583689131947548e+00 1.4896590289293572e+00 0 0 1
3242 1 5.8155528832542736e+00 8.6539731204443981e+00 8.3232284928300881e-01 0 1 1
1548 1 4.3103178421657484e-01 2.6212853276203973e+00 2.7824653146436424e+00 0 1 1
6617 1 9.5340684534367757e+00 9.4753991071494674e+00 2.3466868456124912e+00 2 1 1
59 1 7.4699087113672462e+00 1.8435436441663935e+01 9.4589799354922555e+00 0 0 1
6481 1 1.2756927159898894e+00 9.1929428089236911e+00 2.0492524723537677e+00 1 1 1
5392 1 6.5822805633839669e+00 6.0059015785776582e-01 1.3196771307198157e-01 0 2 0
4837 1 6.2828814229543832e+00 1.0432007124577854e+01 3.1298291514177294e+00 0 1 1
2344 1 9.0625233367995168e+00 1.2901801785426715e+01 3.8639546139418746e-01 0 0 1
3821 1 1.1886787095131034e+01 5.2107828902826432e+00 6.4474255529178599e+00 1 0 0
5377 1 9.8983005530707793e+00 3.8416920884489008e+00 1.0073776697499634e+01 1 0 0
3322 1 4.4068584977123724e+00 1.3694570117118968e+01 1.7437600543203764e+00 -1 0 1
2009 1 4.5660524408900605e+00 1.2369169776747398e+01 3.8655450302263441e+00 -1 1 0
5050 1 1.1068245207347415e+01 2.1320070975172449e+01 1.1226569007672808e+01 0 0 0
3515 1 8.3092219163280685e+00 1.5894393067086716e+01 3.4545255227558918e+00 0 0 1
5436 1 1.1181324693482809e+01 1.5870980156130674e+01 3.4003195330506175e+00 1 0 0
3545 1 8.9342528356251858e+00 2.3321812608605885e+01 1.0279993910719066e+01 0 1 1
6563 1 2.5024772910410560e+00 1.7886280901703920e+01 7.6287872268894541e-01 1 1 0
3080 1 6.7637960912238375e+00 2.1629011742495582e+01 9.6814504055729440e+00 1 1 1
5312 1 4.4771303642806322e+00 1.9346172915276835e+01 3.8072066798278690e+00 0 0 0
4942 1 4.4984762987879492e+00 1.6730497938969176e+01 5.1679473577315331e+00 2 -1 1
3447 1 5.2600409741047720e+00 1.8585755636748907e+01 1.2462087549708902e+00 0 -1 1
313 1 7.5391280140029702e+00 1.9024752383664524e+01 4.1133666584278998e+00 0 0 0
5331 1 1.0421242122735423e+00 2.1730821604002251e+01 2.8495174203606854e+00 0 0 0
1936 1 3.3110731539209151e+00 2.1891536698123918e+01 4.4209369709709980e+00 1 0 0
3611 1 1.3599143027305618e+00 2.1750218922588389e+00 1.1486440879932092e+01 1 1 0
5182 1 6.4390475641859455e+00 2.1910746398700518e+01 2.7345797976496473e+00 -1 0 0
5314 1 7.9287703956563260e-01 2.2334785130156291e+01 1.1830141265519001e-01 1 0 0
5008 1 1.1461788255837837e+01 9.5236800844109588e+00 6.0951713535480341e+00 1 0 1
4905 1 9.4575622017432259e+00 2.0459383260643317e+01 3.7751302349281475e+00 1 0 1
1330 1 3.7456351833100689e+00 1.2927344629151885e+00 4.4093664041449108e+00 0 1 1
211 1 3.3394926255071646e+00 3.5405417819186451e+00 7.8938648492380512e+00 0 0 0
1635 1 6.5865085394212555e+00 2.2579352352594114e+01 1.6777883811979510e-01 1 0 0
4736 1 5.6845083485547621e+00 2.1706301094228202e+00 7.3634193328512296e+00 0 0 1
359 1 8.0423231428115329e+00 9.2596658622460093e-01 4.3795586544858622e+00 1 0 0
6510 1 1.2106185499927545e+01 1.5569937324678702e+00 4.3452699419019716e+00 1 1 1
3105 1 7.6211675437338595e+00 3.3850682958962550e+00 5.9703128121236357e+00 0 2 1
5038 1 1.0633838251870165e+01 2.6900475345526815e+00 6.3339892912652704e+00 0 1 1
139 1 3.0765323696098310e+00 5.1714436817327396e+00 5.6771786109745062e+00 1 0 1
4962 1 1.1824825142225610e+00 1.3525039329905002e+01 8.8430518665267144e+00 1 1 1
5194 1 6.9665692529961492e+00 5.1079515173725705e+00 4.0046543976075633e+00 1 0 1
3852 1 8.4673409385063110e+00 7.6782200326906755e+00 4.1763603091537957e+00 0 1 0
3224 1 1.3316137556323098e+00 9.3367023553441815e+00 1.0453668450070607e+01 -1 2 1
4839 1 2.7623189147242773e+00 1.1112166094216626e+01 5.4926000913963708e+00 0 1 1
3810 1 6.0019592069916312e+00 8.6838774252294275e+00 5.0499222038689462e+00 0 -1 0
3467 1 2.1480868884991002e+00 8.3301548027519718e+00 4.4694574292089317e+00 1 0 1
1384 1 8.8772713678807644e+00 1.9711703733322999e+01 1.1832687948478457e+01 0 0 1
6717 1 4.3531329252114732e+00 7.1631667836567683e+00 3.0472821770290155e+00 2 2 1
5132 1 1.1437612469808325e+01 1.1064830261981308e+01 3.7955398317864111e+00 0 1 0
94 1 8.4928203642597193e+00 1.2675889101658274e+01 3.2053495428933489e+00 0 0 0
421 1 1.0428628202579647e+01 1.0723454094719969e+01 8.4996525742106890e+00 2 1 0
2041 1 1.0257934130930959e+01 2.0172345700772144e+01 5.7361553723929948e-01 0 1 0
5707 1 1.6897260336254472e+00 1.5911160798862740e+01 5.0435741209886142e+00 2 1 0
42 1 1.0434285777428441e+01 7.4837636941929082e+00 1.0425711935944257e+01 -1 -1 0
4758 1 6.3460510590974195e+00 1.4666279534800346e+01 4.8685690110804245e+00 2 1 1
5420 1 5.4826449822857208e+00 1.5324418747532366e+01 9.6769923900113159e+00 0 0 0
3302 1 7.5046282407187705e+00 1.3979701466857206e+01 7.0721342439193853e+00 0 0 0
1823 1 9.5360732162884598e-02 5.2628139642869218e+00 9.8240079649092333e+00 2 0 0
5374 1 9.6914308624324086e+00 1.2722709238469655e+01 6.2526314445204774e+00 0 0 0
3344 1 8.9903393662257240e+00 1.5905028898334697e+01 8.5800885521115813e+00 0 0 0
161 1 6.1871790851696895e+00 2.1975788976383974e+01 6.3170610951050072e+00 0 1 1
529 1 4.9844390307343653e+00 1.7217065134376131e+01 7.7183122798908652e+00 0 0 0
3372 1 9.7177586296123675e+00 1.9296372183085186e+01 6.9055906987636293e+00 -2 -1 1
3125 1 6.6530379877235912e+00 1.9342046119058935e+01 6.8286242692064079e+00 0 0 1
2180 1 2.9902418960841675e+00 2.2425021044831993e+01 7.2126052141933599e+00 2 0 1
356 1 1.1442369415212394e+01 1.7025905907461336e+01 7.6672436961061230e+00 -1 1 0
1933 1 8.2367772495357041e+00 2.2907642814657166e+01 4.6013317934057172e+00 0 2 0
11 1 2.5515292296296201e+00 4.6233120439708131e+00 1.0704957774510159e+01 0 1 0
5641 1 1.0291351300432886e+01 2.2803937314866399e+01 6.2750854654813013e+00 1 0 0
3905 1 2.9226487645951544e+00 1.7522308025799184e+01 1.1193466767505464e+01 1 1 0
5059 1 1.1268511088423184e+01 2.1175474590669545e+01 8.1278679337886359e+00 0 -1 1
1812 1 1.4073676087333709e+00 2.1542987649101008e+01 1.1266308746359460e+01 1 0 0
5525 1 6.3566084614827889e-01 2.6266684492360266e+00 8.4025774099664243e+00 0 0 0
1903 1 7.2243353069231118e+00 2.0332670251615488e+00 9.9803275664436555e+00 0 0 0
4939 1 2.0313509066553794e+00 1.5096940593467266e+01 9.9785397901208150e-01 0 0 1
3644 1 1.0634065184401189e+01 1.4502036046607762e+00 8.8767391021978330e+00 1 1 0
2226 1 6.6539340737932418e-01 1.2567495294238148e+01 6.1253295503079492e+00 -1 1 1
1373 1 1.4635342622926135e+00 7.4034962237286406e+00 8.3669860707214152e+00 0 1 1
5006 1 3.6637733894826128e+00 7.3272423853281072e+00 7.1766083945291594e+00 1 1 0
3793 1 5.8416213732597759e+00 5.7276353948007337e+00 5.4338311324192656e-01 1 1 0
74 1 8.0441223796332135e+00 4.9415891074856759e+00 8.2565051472648641e+00 0 0 1
5690 1 5.5796723695658663e+00 5.6555587165257144e+00 9.0901004358683597e+00 0 0 1
5140 1 9.8523765672420822e+00 7.2033761310647044e+00 6.5934619476567207e+00 0 -1 1
6517 1 6.6254497572075826e+00 1.4686142256200066e+01 8.7963987743376215e-02 1 0 1
6537 1 1.7834213461385617e+00 6.2180032751199632e-01 6.4672597209475287e+00 1 0 1
1382 1 2.8673561336866249e+00 1.1436783614457578e+01 9.8714013326529617e+00 1 -1 1
2091 1 1.6987874868168755e+00 2.0457134495663368e+01 8.4888270720100767e+00 1 1 0
228 1 6.1163319567500363e+00 8.6437584111497241e+00 9.6535727895046968e+00 0 1 0
5443 1 4.4698692303563821e+00 1.0619310194864198e+01 7.8648057358413865e+00 1 -1 0
3605 1 8.6793439214576882e+00 1.1971344880300924e+01 1.0113180202776697e+01 1 1 0
1810 1 8.7696934849875472e+00 8.4811298083886495e+00 8.7311751906214869e+00 1 -1 0
3333 1 9.9489259789261419e-01 4.6522445387993754e+00 9.3587245584914736e-01 -1 0 0
1866 1 2.7842830624762938e+00 1.4788386444773069e+01 1.0751154360487041e+01 0 0 0
3755 1 6.2534415647004860e+00 1.2534363812475402e+01 8.9867690628722947e+00 0 0 0
6671 1 7.4406188024925752e+00 1.7029043097386719e+01 1.0810554509252621e+00 1 0 1
3375 1 1.2137561494116840e+01 1.4368589955020164e+01 6.8017439695739101e+00 0 1 1
3377 1 1.1447065232110090e+01 7.2723644638877101e+00 1.6551733165343407e+00 0 1 0
3771 1 1.0080272904023738e+01 1.4379628897148592e+01 1.0388959629546243e+01 0 -1 0
3143 1 2.4369706343813919e+00 1.7976496726782440e+01 8.5208827094726409e+00 0 0 0
27 1 3.5444527554724141e+00 1.0283118682105041e+01 3.1501748522360984e-01 1 0 0
4863 1 1.8213370138771054e-01 4.5205511828617713e+00 4.7432610402981528e+00 -1 -1 1
1854 1 9.0777110379839265e-01 1.7798140241381081e+01 3.3874547702982607e+00 1 0 1
157 1 4.7986165162200392e+00 2.3764574341156077e+01 8.7093504207099830e+00 0 0 0
5617 1 1.1914311066421913e+01 1.6976971944940360e+01 1.2474783757725765e+00 0 1 0
4981 1 1.1968771760877386e+01 1.8027733449368970e+01 4.9484163061599622e+00 1 0 1
1787 1 5.3055433393688061e+00 1.8615849022731602e+01 1.1514999302200630e+01 1 1 1
3416 1 1.1924837459390455e+01 9.3211918113197409e+00 1.1645984209970937e+01 -1 1 0
5487 1 5.7495701418902643e+00 4.2142772212209927e+00 1.1176921598344833e+01 0 0 0
5462 1 1.1643479497658607e+01 1.4268381840128212e+01 -1.1743998092024020e-01 0 0 0
5597 1 1.2122259461837752e+01 1.9641519047522380e+01 2.6702178497545872e+00 0 -1 1
5248 1 1.2220034108480181e+01 5.7542122454493416e+00 9.1944733935339382e+00 0 0 0
304 1 1.3022377123233391e+00 2.4469407907345147e+01 7.1241939139181509e+00 -1 0 0
6761 1 4.2232139031590394e+00 2.4453403060093240e+01 3.5055347117437035e+00 0 1 0
62 1 1.1882951053857944e+01 2.4257773051801433e+01 5.0966056698722175e+00 0 -1 0
4927 1 5.3200402024604028e+00 1.2810983781516624e+01 2.3758299638344553e+01 1 2 0
1537 1 4.9392044966498636e+00 1.4499784600449171e+01 1.3412786538937194e+01 0 -2 1
339 1 1.1835589338308624e+01 1.1780733010020455e+01 2.3672924545226333e+01 0 0 0
5453 1 7.6486506690606693e-01 1.0424481209274594e+00 2.2960191899316754e+01 0 1 0
1832 1 1.0962743136476940e+01 5.5419778196586735e+00 1.2651673211179819e+01 0 3 0
4921 1 1.0536186142281828e+01 1.8096021608050062e+01 1.3273805238704760e+01 -1 0 1
495 1 2.2562963191979764e+00 1.8237822114792049e+01 2.3364754776303233e+01 -1 0 1
299 1 2.7543665014020084e+00 5.8978417803271004e+00 1.3363831703061694e+01 -1 1 0
1980 1 3.7798635291813589e+00 1.3939321089664345e+00 1.2841529278018712e+01 0 0 0
5103 1 8.1783466709203765e+00 4.0844381602005750e+00 1.3060735245625755e+01 1 -1 0
5473 1 6.3399178730549473e+00 8.3791918213478862e+00 1.2399276278431708e+01 0 1 0
3679 1 1.1631347184742355e+01 7.1798493329419486e+00 1.4888546867569058e+01 1 0 0
575 1 1.0626337104070203e+01 7.5934038709791931e+00 1.7218376359995787e+01 0 0 1
4973 1 3.4869524201513165e+00 1.2296399631716691e+01 1.2412897210732535e+01 0 1 1
253 1 2.4396105628557287e+00 8.4594563163519183e+00 1.3355092358496464e+01 1 1 0
2300 1 4.6662559289230847e+00 1.0261663961790026e+01 1.3426534831064370e+01 0 1 1
2191 1 6.2724322780161073e+00 1.1515433362335434e+01 1.5786511174327146e+01 1 0 0
116 1 9.2040524909582739e+00 8.1890958155625313e+00 1.3482788396206004e+01 2 0 0
466 1 9.5176196305624785e+00 1.5637733830390115e+01 1.2791542942679049e+01 0 0 1
1898 1 1.0277636786753758e+01 8.7772194120500677e-02 2.3493245335195308e+01 -1 0 0
164 1 1.0694159625043091e+00 1.2199443056943876e+01 1.3749444087960239e+01 0 0 0
3287 1 8.9976360286965065e+00 1.2239324207493329e+01 1.5135860837402801e+01 0 1 0
3336 1 5.6618647432599936e+00 1.4367049372319483e+01 1.6046529507571485e+01 0 2 0
2258 1 7.5416499991934325e+00 1.7130890500808867e+01 1.6684631952507406e+01 0 -1 0
3168 1 1.1166275119557376e+00 1.8549682471331554e+01 1.5601206121485752e+01 0 1 0
3323 1 6.4773469456842026e-01 1.5123117885712892e+01 1.6917313766790674e+01 1 1 1
5524 1 9.7129997326845672e+00 1.0895566320651453e+01 1.2732491700716059e+01 2 1 0
400 1 6.3220919217770737e+00 1.8400711158823849e+01 1.4828252012767607e+01 1 0 0
30 1 3.6470099403117437e+00 1.7624956449380036e+01 1.6379964034190841e+01 1 1 0
1969 1 9.7326229500101196e+00 1.8516171746376326e+01 1.5931849263135017e+01 -1 -1 0
306 1 7.5696440809839229e+00 2.1011327688081085e+01 1.3969414248444652e+01 -1 -1 1
3489 1 2.0508985011380254e+00 1.5844046780795534e+01 1.3809735030988582e+01 0 0 0
3006 1 1.5614482649554766e+00 1.2562470213319507e+01 1.6517499016197359e+01 1 0 1
3097 1 7.1779146298106848e+00 2.3217367870343356e+01 1.5723863300131663e+01 0 1 1
1532 1 4.2807333089021249e+00 2.2829714618197396e+01 2.3569328554652952e+01 0 -1 1
487 1 2.8206770987715903e+00 1.7302176676768390e+00 1.6635965626691103e+01 -1 0 1
4896 1 1.0005728970477797e+01 7.5141292620936184e-01 1.7041504672746154e+01 1 0 1
2243 1 5.3355677633297569e+00 1.7599978517891561e+00 1.7910917580134182e+01 -1 1 1
1724 1 2.0364016968507510e+00 4.4353774299593489e+00 1.5414936230671820e+01 2 0 0
4743 1 1.0343418814261616e+01 2.3403080177880135e+01 2.0911226006829832e+01 0 -1 1
3048 1 1.2303358720844511e+01 1.7864135854768261e+01 1.7159263132039079e+01 0 0 1
3908 1 4.3027641263773893e+00 6.2200226141372772e+00 1.7964023198987888e+01 1 0 0
3501 1 3.9563409458512648e+00 4.1726967580754435e+00 2.0740680892199315e+01 1 1 0
5397 1 8.7986892067696694e+00 1.4914213089996352e+01 1.5109295063624518e+01 1 1 0
5309 1 5.4530375282365737e+00 6.0029663932314401e+00 1.3364061604512532e+01 -2 1 0
4883 1 8.2537342221938061e+00 4.0293436287684923e+00 1.5989445147386121e+01 1 0 1
405 1 7.9713089751022999e+00 8.3673884402979350e+00 1.6184462099382831e+01 -1 -1 0
3890 1 4.8634369252737386e+00 1.7872240298964993e+01 2.2962174209094883e+01 0 1 0
5268 1 3.0714158527699253e+00 8.7342494422861510e+00 1.6432278816131312e+01 1 -1 0
6670 1 3.8135072813767166e+00 8.5527340087319317e+00 2.0796466303841516e+01 2 -1 1
3619 1 5.9229486788452883e+00 7.7197234265572030e+00 1.9265066345803731e+01 0 2 0
5141 1 6.5027211469116404e+00 6.0300691575588807e+00 1.6186268254069372e+01 0 0 0
1924 1 9.6632812377184578e+00 1.1289680504445187e+01 1.7690684952376738e+01 -1 1 0
5363 1 5.6081151666082505e+00 2.9078127554757810e-01 2.2799738937292020e+01 0 1 0
1613 1 1.4044850945789455e+00 2.3792779225122164e+01 2.1250391195402759e+01 0 0 1
1894 1 1.9190613572583946e+00 1.3392917811752728e+01 2.1544808409874385e+01 1 0 0
3113 1 3.6211367744117444e+00 1.1328629886969665e+01 1.7773757365021023e+01 0 1 1
2106 1 4.2816666845954527e+00 1.5569633959325573e+01 1.7998289988071367e+01 0 1 0
3690 1 9.9589714239944076e+00 1.3310862170597298e+01 1.9583415939995749e+01 1 0 0
3137 1 1.1047653409100933e+01 1.2793838178481458e+00 1.2000328631124377e+01 1 0 1
3734 1 1.0556173592551513e+01 1.5094742612928041e+01 1.7150620996198089e+01 0 1 0
217 1 7.8385487706683712e+00 1.7627843917367905e+01 1.9387449565787481e+01 -1 -1 0
5048 1 3.8867548503913074e+00 1.9307690813383001e+01 1.8753814196077961e+01 0 1 1
2078 1 1.0714543709401429e+01 2.1053104413924988e+01 1.9593725736299515e+01 0 0 0
1708 1 1.0081431528641973e+01 2.1113093465280567e+01 1.6858110437082406e+01 1 -1 1
2128 1 1.9747165833361322e+00 2.3432799820543163e+01 1.6547697852653545e+01 1 0 0
3521 1 5.8275003933021789e+00 2.0297876082451978e+01 2.3252007874873744e+01 2 -1 1
3040 1 2.2786716133349536e+00 2.1673187553698842e+01 1.8608712931421714e+01 0 1 1
254 1 4.2551148587849230e+00 2.3813692720580242e+01 1.4788074920476735e+01 1 0 0
1672 1 5.7335915315723955e+00 2.0958680404021603e+01 2.0048778879168939e+01 -1 0 0
1371 1 5.5227892650638930e+00 2.1166911701597368e+01 1.2031418088224241e+01 -1 1 1
3023 1 7.5662918760313769e+00 2.2264611159746060e+01 1.8131109586645390e+01 0 1 1
3284 1 1.2083141755208970e+01 1.2155023952333025e+01 1.3740926162408078e+01 0 0 1
6534 1 1.2470637829568427e+00 2.7554441202328106e+00 2.0648890082704447e+01 0 1 1
5705 1 1.3547207896936624e+00 7.8872626857199157e-01 1.8561252172128494e+01 1 0 0
3076 1 6.4220800373860412e+00 4.0331421577615219e+00 1.9068660990549510e+01 2 1 1
429 1 8.6379930521835462e+00 1.5627130514040823e+01 2.3392799099691661e+01 0 -1 0
6411 1 1.2246822296881584e+01 1.4867178082458180e+01 1.3820191777911443e+01 0 0 1
5023 1 1.1277850628214779e+01 8.3801551551962827e-01 2.1074248627910272e+01 -1 1 0
4953 1 8.9510687015482642e+00 3.1107867677985528e+00 2.0693002257133212e+01 0 1 1
6359 1 1.7167175930274072e+00 6.2963856118619601e+00 1.9656446522613429e+01 1 -1 1
6540 1 4.6163295926322077e+00 6.4828881427751179e+00 2.2724542826769216e+01 1 1 0
4906 1 7.3832894132728741e+00 6.3812071463585758e+00 2.3579427853904484e+01 1 0 1
145 1 7.9567913078058634e+00 6.1936597552178050e+00 2.0851860685398325e+01 0 1 0
1963 1 7.4099138955365786e+00 1.3469249764685296e+00 1.6014790626038216e+01 -1 0 0
5349 1 1.0273324218022218e+01 2.2591432715167848e+01 1.3766548059805510e+01 1 0 0
2193 1 1.0865027112645379e+01 5.5242623633970798e+00 1.9460275228593403e+01 1 1 0
3764 1 2.6861851721917240e-01 8.9130061706430048e+00 1.7532810866872328e+01 1 0 0
5458 1 9.3277348117439418e-01 9.3026536129075836e+00 2.0436912358664038e+01 1 1 0
3214 1 1.4670917970356598e-01 5.8691899998117991e+00 1.7006815358713609e+01 2 1 1
6564 1 1.1429905503514368e+01 2.7523356687633211e+00 1.4161217812734730e+01 0 1 1
1506 1 6.8335271859065179e+00 1.0274461930503152e+01 1.7892504180707046e+01 0 1 1
430 1 1.0226097871888163e+01 8.1739123459349727e+00 2.1321875979630438e+01 2 0 0
4937 1 1.1490854513132668e+01 1.1145253409145596e+01 2.0903451078130256e+01 0 0 0
1333 1 9.8554883992438889e+00 2.2903283520129950e+01 2.3392834677971067e+01 -1 -1 1
258 1 8.1424302402715032e+00 9.0958329720652464e-01 1.3173400478909420e+01 0 1 0
2031 1 3.6737712968296616e+00 1.1480209551580463e+01 2.0507434411003331e+01 1 0 0
4861 1 6.4586138302339817e+00 1.2250551186787481e+01 2.0870064385796873e+01 1 0 1
3329 1 1.2029065819418823e-01 5.3013291560446643e+00 2.1952263254892177e+01 -1 0 0
3210 1 7.8673641448041698e+00 1.4424751282935567e+01 2.0910196131320667e+01 1 1 0
478 1 1.4059537221032536e+00 1.9246216547907952e+01 1.2922132805709683e+01 1 -1 1
6418 1 1.1654414911154049e+01 1.4624789059975928e+01 2.1494650908908245e+01 1 0 1
3047 1 1.0337779542197676e+01 1.6791191139217730e+01 1.9619141632727075e+01 0 0 1
3622 1 1.3409000017279000e+00 1.5356506109828015e+01 1.9550578036970691e+01 2 0 1
1376 1 1.9696650205755990e+00 1.8038410088801044e+01 2.0532330179185145e+01 2 0 1
4967 1 4.2922867006168781e+00 2.3025533108032210e+01 2.0713569820622137e+01 0 0 1
5015 1 1.2121547621072274e+01 1.7616854273053821e+01 2.3265139173489104e+01 1 0 0
3146 1 8.2718692493127044e+00 1.9924567909384212e+01 2.0380344382297970e+01 0 2 1
5299 1 5.3040281023528548e+00 1.6814869721173441e+01 2.0205304047409264e+01 1 2 0
5445 1 8.6117935264305050e+00 2.0406519853408167e+01 2.3131171519706985e+01 0 1 1
166 1 2.2822809834736685e-01 8.5792437779683546e+00 2.3072823461118976e+01 1 0 0
3797 1 4.6520438557987145e+00 3.1145283733663520e+00 2.3219773123777987e+01 0 0 0
3867 1 8.3784889517121694e-02 2.0678112584467968e+01 2.0305109638827552e+01 1 -1 0
3857 1 1.1345395248587005e+01 3.8653457697526714e+00 1.6868952340637261e+01 -1 0 0
6656 1 6.7104739241562408e+00 1.2136651644510967e-01 2.0006475007202972e+01 0 0 1
2222 1 8.4266165661542978e+00 1.0737949843368654e+01 2.2551901497521662e+01 1 1 0
5564 1 8.3760946792586015e+00 2.4352479077785979e+01 1.9519346248095236e+01 0 -1 0
5249 1 1.2043512534603989e+01 9.4898766125268885e+00 1.8456529821642725e+01 -1 2 0
5531 1 9.1034090079850607e+00 2.9248314413476448e+00 2.3406953013669238e+01 0 1 0
4745 1 5.7637505316528626e-01 2.0446643838462851e+01 2.3411273130554278e+01 0 1 1
5424 1 9.4929628938975252e+00 1.3042957366194189e+01 2.3870145233394759e+01 1 1 0
1454 1 5.9270237970592294e+00 1.5434340468968573e+01 2.3515659659809867e+01 0 1 1
6490 1 4.7060978777862559e+00 9.8415626447015363e+00 2.3505139114766170e+01 0 1 1
155 1 3.4280064965546972e+00 2.2637443752883581e+01 1.2259103675512421e+01 0 0 0
5226 1 6.7843917698336682e+00 1.6425616126649846e+01 1.2290621180500256e+01 2 1 1
3051 1 1.2161136974268381e+01 1.8678458864481112e+01 2.0631648147880362e+01 0 0 1
1332 1 2.1871353161100870e-01 2.1126835078173276e+01 1.6316816927415331e+01 1 0 0
354 1 9.6124388569608179e+00 1.8093626421302620e+01 2.3971914354836517e+01 0 0 0
1814 1 7.2545185930821121e-01 1.1569332896076961e+01 2.3932150769832610e+01 1 2 0
623 2 0.0000000000000000e+00 2.8417180249513345e+00 2.6802296891012979e+01 0 0 0
625 2 0.0000000000000000e+00 0.0000000000000000e+00 2.6802296891012979e+01 0 0 0
627 2 1.2305000000000001e+00 7.1042950623783474e-01 2.6802296891012979e+01 0 0 0
634 2 1.2305000000000001e+00 2.1312885187134998e+00 2.6802296891012979e+01 0 0 0
636 2 2.4610000000000003e+00 2.8417180249513345e+00 2.6802296891012979e+01 0 0 0
638 2 2.4610000000000003e+00 0.0000000000000000e+00 2.6802296891012979e+01 0 0 0
640 2 3.6915000000000004e+00 7.1042950623783474e-01 2.6802296891012979e+01 0 0 0
655 2 3.6914999999999996e+00 2.1312885187134998e+00 2.6802296891012979e+01 0 0 0
657 2 4.9220000000000006e+00 2.8417180249513332e+00 2.6802296891012979e+01 0 0 0
659 2 4.9220000000000006e+00 0.0000000000000000e+00 2.6802296891012979e+01 0 0 0
661 2 6.1524999999999999e+00 7.1042950623783407e-01 2.6802296891012979e+01 0 0 0
684 2 6.1524999999999999e+00 2.1312885187134989e+00 2.6802296891012979e+01 0 0 0
686 2 7.3829999999999991e+00 2.8417180249513345e+00 2.6802296891012979e+01 0 0 0
688 2 7.3829999999999991e+00 0.0000000000000000e+00 2.6802296891012979e+01 0 0 0
6442 1 2.6387419017811049e+00 7.8101937398135428e+00 2.4112162898146497e+01 0 0 1
690 2 8.6134999999999984e+00 7.1042950623783407e-01 2.6802296891012979e+01 0 0 0
721 2 8.6134999999999984e+00 2.1312885187135002e+00 2.6802296891012979e+01 0 0 0
723 2 9.8440000000000012e+00 2.8417180249513332e+00 2.6802296891012979e+01 0 0 0
725 2 9.8440000000000012e+00 0.0000000000000000e+00 2.6802296891012979e+01 0 0 0
727 2 1.1074500000000002e+01 7.1042950623783330e-01 2.6802296891012979e+01 0 0 0
766 2 1.1074500000000002e+01 2.1312885187135002e+00 2.6802296891012979e+01 0 0 0
5193 1 1.1226226401055563e+01 4.3930139698782567e+00 2.4008146786556775e+01 0 0 0
628 2 0.0000000000000000e+00 7.1042950623783341e+00 2.6802296891012979e+01 0 0 0
630 2 0.0000000000000000e+00 4.2625770374269996e+00 2.6802296891012979e+01 0 0 0
632 2 1.2305000000000001e+00 4.9730065436648339e+00 2.6802296891012979e+01 0 0 0
647 2 1.2305000000000001e+00 6.3938655561404980e+00 2.6802296891012979e+01 0 0 0
649 2 2.4610000000000003e+00 7.1042950623783341e+00 2.6802296891012979e+01 0 0 0
651 2 2.4610000000000003e+00 4.2625770374269996e+00 2.6802296891012979e+01 0 0 0
653 2 3.6914999999999996e+00 4.9730065436648339e+00 2.6802296891012979e+01 0 0 0
676 2 3.6914999999999996e+00 6.3938655561404980e+00 2.6802296891012979e+01 0 0 0
678 2 4.9220000000000006e+00 7.1042950623783341e+00 2.6802296891012979e+01 0 0 0
680 2 4.9220000000000006e+00 4.2625770374269978e+00 2.6802296891012979e+01 0 0 0
682 2 6.1524999999999999e+00 4.9730065436648339e+00 2.6802296891012979e+01 0 0 0
713 2 6.1524999999999999e+00 6.3938655561404980e+00 2.6802296891012979e+01 0 0 0
715 2 7.3830000000000009e+00 7.1042950623783341e+00 2.6802296891012979e+01 0 0 0
717 2 7.3829999999999991e+00 4.2625770374269996e+00 2.6802296891012979e+01 0 0 0
110 1 2.9438240822176804e+00 1.3342738642336595e+01 2.4594893184652857e+01 1 0 0
719 2 8.6135000000000002e+00 4.9730065436648339e+00 2.6802296891012979e+01 0 0 0
758 2 8.6135000000000002e+00 6.3938655561404980e+00 2.6802296891012979e+01 0 0 0
760 2 9.8440000000000012e+00 7.1042950623783341e+00 2.6802296891012979e+01 0 0 0
762 2 9.8440000000000012e+00 4.2625770374270004e+00 2.6802296891012979e+01 0 0 0
764 2 1.1074500000000002e+01 4.9730065436648339e+00 2.6802296891012979e+01 0 0 0
805 2 1.1074500000000002e+01 6.3938655561404980e+00 2.6802296891012979e+01 0 0 0
641 2 0.0000000000000000e+00 1.1366872099805333e+01 2.6802296891012979e+01 0 0 0
643 2 0.0000000000000000e+00 8.5251540748539991e+00 2.6802296891012979e+01 0 0 0
645 2 1.2305000000000001e+00 9.2355835810918343e+00 2.6802296891012979e+01 0 0 0
668 2 1.2305000000000001e+00 1.0656442593567498e+01 2.6802296891012979e+01 0 0 0
670 2 2.4610000000000003e+00 1.1366872099805333e+01 2.6802296891012979e+01 0 0 0
672 2 2.4610000000000003e+00 8.5251540748539991e+00 2.6802296891012979e+01 0 0 0
674 2 3.6915000000000004e+00 9.2355835810918343e+00 2.6802296891012979e+01 0 0 0
705 2 3.6914999999999996e+00 1.0656442593567499e+01 2.6802296891012979e+01 0 0 0
707 2 4.9220000000000006e+00 1.1366872099805333e+01 2.6802296891012979e+01 0 0 0
709 2 4.9220000000000006e+00 8.5251540748539991e+00 2.6802296891012979e+01 0 0 0
711 2 6.1524999999999999e+00 9.2355835810918343e+00 2.6802296891012979e+01 0 0 0
750 2 6.1524999999999999e+00 1.0656442593567499e+01 2.6802296891012979e+01 0 0 0
752 2 7.3829999999999991e+00 1.1366872099805333e+01 2.6802296891012979e+01 0 0 0
754 2 7.3830000000000009e+00 8.5251540748539991e+00 2.6802296891012979e+01 0 0 0
756 2 8.6134999999999984e+00 9.2355835810918343e+00 2.6802296891012979e+01 0 0 0
797 2 8.6134999999999984e+00 1.0656442593567498e+01 2.6802296891012979e+01 0 0 0
799 2 9.8440000000000012e+00 1.1366872099805333e+01 2.6802296891012979e+01 0 0 0
801 2 9.8440000000000012e+00 8.5251540748539956e+00 2.6802296891012979e+01 0 0 0
803 2 1.1074500000000002e+01 9.2355835810918343e+00 2.6802296891012979e+01 0 0 0
844 2 1.1074500000000002e+01 1.0656442593567498e+01 2.6802296891012979e+01 0 0 0
846 2 1.2304999999999998e+01 1.1366872099805333e+01 2.6802296891012979e+01 0 0 0
2161 1 1.5842805722554814e+00 1.5986030112378975e+01 2.4671141338880417e+01 1 1 0
5456 1 6.9144996122792417e+00 3.9103676370558218e+00 2.4815299773480497e+01 1 0 1
662 2 0.0000000000000000e+00 1.5629449137232333e+01 2.6802296891012979e+01 0 0 0
664 2 0.0000000000000000e+00 1.2787731112280996e+01 2.6802296891012979e+01 0 0 0
666 2 1.2305000000000001e+00 1.3498160618518829e+01 2.6802296891012979e+01 0 0 0
697 2 1.2305000000000001e+00 1.4919019630994494e+01 2.6802296891012979e+01 0 0 0
699 2 2.4610000000000003e+00 1.5629449137232328e+01 2.6802296891012979e+01 0 0 0
701 2 2.4610000000000003e+00 1.2787731112280996e+01 2.6802296891012979e+01 0 0 0
703 2 3.6915000000000004e+00 1.3498160618518829e+01 2.6802296891012979e+01 0 0 0
742 2 3.6915000000000004e+00 1.4919019630994494e+01 2.6802296891012979e+01 0 0 0
6661 1 1.0543611414622017e+01 7.2407688290180596e+00 2.4116532700818471e+01 0 -1 1
744 2 4.9220000000000006e+00 1.5629449137232333e+01 2.6802296891012979e+01 0 0 0
746 2 4.9220000000000006e+00 1.2787731112280996e+01 2.6802296891012979e+01 0 0 0
748 2 6.1524999999999990e+00 1.3498160618518829e+01 2.6802296891012979e+01 0 0 0
789 2 6.1524999999999990e+00 1.4919019630994494e+01 2.6802296891012979e+01 0 0 0
791 2 7.3829999999999991e+00 1.5629449137232333e+01 2.6802296891012979e+01 0 0 0
793 2 7.3829999999999991e+00 1.2787731112280996e+01 2.6802296891012979e+01 0 0 0
795 2 8.6135000000000002e+00 1.3498160618518835e+01 2.6802296891012979e+01 0 0 0
836 2 8.6135000000000002e+00 1.4919019630994494e+01 2.6802296891012979e+01 0 0 0
838 2 9.8440000000000012e+00 1.5629449137232328e+01 2.6802296891012979e+01 0 0 0
840 2 9.8440000000000012e+00 1.2787731112280996e+01 2.6802296891012979e+01 0 0 0
842 2 1.1074500000000002e+01 1.3498160618518829e+01 2.6802296891012979e+01 0 0 0
878 2 1.1074500000000002e+01 1.4919019630994494e+01 2.6802296891012979e+01 0 0 0
691 2 0.0000000000000000e+00 1.9892026174659328e+01 2.6802296891012979e+01 0 0 0
693 2 0.0000000000000000e+00 1.7050308149707998e+01 2.6802296891012979e+01 0 0 0
695 2 1.2305000000000001e+00 1.7760737655945832e+01 2.6802296891012979e+01 0 0 0
734 2 1.2305000000000001e+00 1.9181596668421495e+01 2.6802296891012979e+01 0 0 0
736 2 2.4610000000000003e+00 1.9892026174659328e+01 2.6802296891012979e+01 0 0 0
738 2 2.4610000000000003e+00 1.7050308149707998e+01 2.6802296891012979e+01 0 0 0
740 2 3.6914999999999996e+00 1.7760737655945832e+01 2.6802296891012979e+01 0 0 0
781 2 3.6914999999999996e+00 1.9181596668421495e+01 2.6802296891012979e+01 0 0 0
783 2 4.9220000000000006e+00 1.9892026174659328e+01 2.6802296891012979e+01 0 0 0
785 2 4.9220000000000006e+00 1.7050308149707998e+01 2.6802296891012979e+01 0 0 0
787 2 6.1524999999999999e+00 1.7760737655945832e+01 2.6802296891012979e+01 0 0 0
828 2 6.1524999999999999e+00 1.9181596668421495e+01 2.6802296891012979e+01 0 0 0
830 2 7.3829999999999991e+00 1.9892026174659328e+01 2.6802296891012979e+01 0 0 0
832 2 7.3830000000000009e+00 1.7050308149707998e+01 2.6802296891012979e+01 0 0 0
1077 2 7.3829999999999991e+00 2.1312885187134999e+01 3.3259703108990351e+01 0 0 0
317 1 1.6293515864629267e+00 2.2767387477374918e+01 2.4361785295671691e+01 0 0 0
834 2 8.6134999999999984e+00 1.7760737655945832e+01 2.6802296891012979e+01 0 0 0
870 2 8.6135000000000002e+00 1.9181596668421495e+01 2.6802296891012979e+01 0 0 0
872 2 9.8440000000000012e+00 1.9892026174659335e+01 2.6802296891012979e+01 0 0 0
874 2 9.8440000000000012e+00 1.7050308149707998e+01 2.6802296891012979e+01 0 0 0
876 2 1.1074500000000002e+01 1.7760737655945835e+01 2.6802296891012979e+01 0 0 0
904 2 1.1074500000000002e+01 1.9181596668421495e+01 2.6802296891012979e+01 0 0 0
908 2 1.2304999999999998e+01 1.7050308149707998e+01 2.6802296891012979e+01 0 0 0
728 2 0.0000000000000000e+00 2.4154603212086325e+01 2.6802296891012979e+01 0 0 0