LAMMPS data file via write_data, version 16 Mar 2018, timestep = 6000000

6768 atoms
2 atom types

0.0000000000000000e+00 4.9219999999999999e+01 xlo xhi
0.0000000000000000e+00 4.9019635930410494e+01 ylo yhi
1.9275705322056425e-01 5.9869242946781370e+01 zlo zhi

Masses

1 18.015
2 12.01

Atoms # atomic

3426 1 1.4286665399827310e+00 2.4795349124864323e+00 2.7532220550421234e+00 1 4 0
3400 1 3.9090107481982126e+00 2.2096782739679277e+00 1.5959113229994148e+00 1 0 1
3087 1 5.2609439165787135e+00 1.2477775159512292e-01 5.1705132879104534e+00 1 1 1
1603 1 2.9685425919126918e-01 3.1434839704052381e-01 1.9871860361307161e+00 0 2 1
326 1 8.6561652615143814e+00 1.8754016374117637e+00 2.6342002969288076e+00 0 -2 0
6567 1 1.1259425906196626e+01 2.1335085118137918e+00 1.7747842190573082e+00 1 -1 1
3818 1 1.3066122141760068e+00 6.7326017979938362e+00 2.6403678447616827e+00 -1 0 0
1970 1 3.5977121624158825e+00 6.4268862640515145e+00 1.7967379794275138e+00 2 3 0
5003 1 7.5842686256314922e+00 4.3616744831126217e+00 1.8687481771826080e+00 1 1 1
1989 1 4.9573924778107568e+00 4.4302361621705151e+00 2.8726721933870647e+00 2 1 0
3995 1 9.0502362886637115e+00 6.5196651480252195e+00 2.7852738447827989e+00 3 1 1
101 1 1.1435442300584796e+01 6.3895292359529803e+00 1.7269392754345889e+00 2 0 0
3052 1 1.1164529141220527e+00 1.1557639243802120e+01 2.7238090264205681e+00 1 2 1
1574 1 3.7950069468150684e+00 1.1367729830327885e+01 2.1527811498531078e+00 -1 -1 1
3558 1 4.9444175211279813e+00 8.8191594796254247e+00 2.3909804634698193e+00 1 0 0
3290 1 7.5723086348049105e+00 8.7193852874807849e+00 1.5395893179959734e+00 0 1 0
3276 1 8.6334722352338691e+00 1.1108688368345312e+01 2.4246108398501467e+00 2 2 0
53 1 1.1405134914606192e+01 1.1061773795996759e+01 1.5782850608986791e+00 1 0 0
3380 1 9.6234787354010387e-01 1.5767494662575984e+01 2.3482897151483191e+00 4 0 1
4968 1 3.6729121196581529e+00 1.6197573015621110e+01 1.5441956939548853e+00 -1 1 0
378 1 1.8689956477026418e-01 9.1622600061913229e+00 1.8348883905747342e+00 -1 -1 0
2062 1 5.1320015335487978e+00 1.3811283284072262e+01 2.4280420594252297e+00 1 2 0
2312 1 7.5841895479108343e+00 1.3705860810652894e+01 1.6962232108013178e+00 0 1 1
6598 1 9.0358897697482927e+00 1.5915902523964945e+01 2.6142777118700624e+00 0 -1 1
6669 1 1.1598294378113721e+01 1.5538867014368730e+01 1.4827006592283274e+00 3 3 1
2316 1 1.3369658518256859e+00 2.0484273729266679e+01 2.2841675192385198e+00 -2 -3 1
3557 1 3.9034751566336414e+00 2.0269313565528030e+01 1.6434812604649720e+00 0 -1 0
5606 1 5.2501408651077162e+00 1.7958699948913960e+01 2.6766744417711954e+00 -1 1 1
448 1 7.9752537129211518e+00 1.8210700482381039e+01 1.8266978182125546e+00 2 1 0
3844 1 1.1445526942900923e+01 2.0124419280885942e+01 1.7756322602079551e+00 2 0 0
4954 1 8.8787251106743934e+00 2.0533057684986908e+01 2.7655964929116084e+00 0 1 1
1318 1 1.0206095329253831e+01 1.7537009071073800e+01 9.0489370088485916e+00 0 3 1
1422 1 5.2202405500017912e+00 2.2503912917310618e+01 2.7491615067403381e+00 0 -2 1
4848 1 7.8351288366219567e+00 2.2769100518512811e+01 2.0117686996841639e+00 4 -3 1
3483 1 8.9707446399108957e+00 2.4198756010306816e+01 9.8796688329260398e+00 -2 2 0
5515 1 1.5446814774049837e+00 2.5330767509953716e+00 5.4052580357508822e+00 1 0 1
1663 1 2.5075645363238883e+00 1.1837967814196344e-01 9.1941816130035949e+00 0 0 1
1577 1 6.3130024154682491e+00 2.3199477506664850e+00 6.6059245962508486e+00 -1 3 1
3179 1 2.5953823721379354e+00 2.2071974279995782e+01 8.9369983896674317e+00 0 3 1
6426 1 8.9665764927293043e+00 1.8152054441561964e+00 5.3626879257033373e+00 -3 3 1
3395 1 1.0062061468867560e+01 4.1715965118011376e+00 6.1868375855059394e+00 -2 -1 1
3458 1 2.7539116020299512e+00 4.3986020520274165e+00 6.4556139142383815e+00 -1 2 0
3544 1 1.0249406596279371e+00 6.4144643157792967e+00 5.4616947219638572e+00 1 1 0
411 1 5.1894504923268308e+00 4.4422354972537006e+00 5.5860541694792794e+00 -2 -1 0
234 1 6.2431189731891026e+00 6.6015992229042686e+00 6.4294376805068998e+00 2 -1 0
2144 1 8.7100199824294453e+00 6.4383432324090322e+00 5.4793573874377994e+00 -4 -3 0
1591 1 2.3414106426335133e+00 8.6109949154659802e+00 6.1901001946973810e+00 0 -1 1
6573 1 1.4932737661526234e+00 1.1173749146837467e+01 5.4461557746131213e+00 2 -1 1
1897 1 5.0331071689431841e+00 8.8884331434763766e+00 5.1909298354782596e+00 0 -2 0
1807 1 6.3795061574994261e+00 1.0948226378722161e+01 6.1724349667299414e+00 -2 2 0
1862 1 1.0204742687040513e+01 8.3834019033489078e+00 6.3216643300348201e+00 -1 -1 0
169 1 8.9653060360619339e+00 1.0991740206436349e+01 5.3052342906588965e+00 0 -1 1
4795 1 2.4236441699456983e+00 1.3619616486028971e+01 6.0457216129633560e+00 0 2 1
622 1 1.1083599848102774e+00 1.6001602631171973e+01 5.4204170933675417e+00 0 3 1
4973 1 5.2069427093377918e+00 1.3275555915998165e+01 5.1316458315822384e+00 1 2 1
6621 1 6.4257737340374002e+00 1.5339081886545499e+01 6.0154479206292519e+00 0 -2 1
131 1 1.0368014031928858e+01 1.3377700113433979e+01 6.1946400349135651e+00 2 0 1
1534 1 9.0520355043006226e+00 1.5430643317410812e+01 5.1063422047335463e+00 0 1 0
2126 1 2.4829125425300944e+00 1.8195549138024568e+01 5.9939036613669030e+00 0 -1 0
1430 1 1.0713113129355569e+00 2.0266142646361935e+01 5.3402717607176093e+00 -1 -2 1
3606 1 5.1749318432518265e+00 1.7942544155804427e+01 5.4338693796842161e+00 1 2 0
5643 1 6.5648726551329188e+00 2.0178195884968382e+01 6.4386733513859866e+00 1 0 1
6610 1 1.0290076660332737e+01 1.7674151221468144e+01 6.3150551134796018e+00 0 1 1
286 1 9.0416075057056151e+00 2.0024742384770814e+01 5.3402817702563992e+00 2 -2 0
1769 1 2.5302338814687850e+00 2.2504210883243793e+01 6.1528059619791016e+00 1 -2 0
3258 1 5.1736317459546184e+00 2.2188944229346024e+01 5.4839843088822535e+00 2 3 1
6566 1 1.0554112292611347e+01 2.2146236396430073e+01 6.3365879449106837e+00 1 0 1
4955 1 1.0126738005419607e+01 2.1961465030804533e+01 8.8725153318751797e+00 0 2 1
4879 1 1.2080753229005505e+00 2.1587082984746422e+00 9.9340606150602238e+00 -1 2 1
3346 1 6.2673779143786890e+00 2.3879193678588306e+00 9.2092521239485379e+00 1 3 1
1665 1 5.1255471756273767e+00 2.2266869940436276e+01 1.0123538680159077e+01 2 -2 1
5286 1 8.7625873964387146e+00 2.1359627635240601e+00 9.8026477573219370e+00 0 3 0
3721 1 9.8428210231391429e+00 4.2222188696112797e+00 8.8191353741313740e+00 0 0 0
6498 1 2.5398079279097443e+00 4.3873818197212424e+00 9.1869706787765981e+00 0 0 1
2070 1 8.0636286829391690e-01 7.0444327126087201e+00 9.7967938462173123e+00 -1 0 0
4793 1 4.9205449870615414e+00 4.4678406283981413e+00 1.0021581271362095e+01 -2 1 1
13 1 6.3625703290984905e+00 6.5641364490896450e+00 8.9661818006784060e+00 0 0 0
344 1 8.8497609464413642e+00 6.4001353735735611e+00 9.8963612016697127e+00 1 -2 0
5292 1 2.6448390548161447e+00 8.6162469802353971e+00 8.6411498135671803e+00 -1 1 0
4819 1 1.6999814395285162e+00 1.1099127214351666e+01 9.2432181506662321e+00 2 -1 1
2339 1 5.2204265655464814e+00 8.7972387206558178e+00 9.9129604182224291e+00 0 0 1
113 1 6.4831115493484441e+00 1.0852133108227630e+01 8.9623945999348642e+00 1 -1 1
1407 1 1.0203790354090160e+01 8.5823927368427722e+00 8.8619344411950571e+00 3 -3 1
375 1 8.9156149127873832e+00 1.0766874657560569e+01 9.8908549921262328e+00 1 0 0
3796 1 1.3325420091876614e+00 1.6009812042441816e+01 9.6946108944484966e+00 -1 -1 0
5446 1 2.7364541152745376e+00 1.3724660254604432e+01 8.6168537837501216e+00 3 -1 0
5320 1 5.1791031229177964e+00 1.3181087458393293e+01 9.7300532053890709e+00 0 0 1
4883 1 6.3421447531687987e+00 1.5434755292264169e+01 8.8126672341627756e+00 3 -3 1
1724 1 9.9719646472630163e+00 1.3173706906421376e+01 9.0558727075786116e+00 2 0 0
3230 1 8.7268366574897218e+00 1.5424962901668454e+01 1.0056458900322758e+01 -1 1 1
3682 1 2.8455832351138666e+00 1.8073930439057182e+01 8.9722915082928996e+00 1 0 0
2264 1 1.3956560581442907e+00 1.9959882400203625e+01 1.0004545436606653e+01 1 0 1
4894 1 6.4431566545101635e+00 1.9904975055769420e+01 8.9793362153613892e+00 1 1 1
6630 1 5.2589226600097145e+00 1.7718390201141837e+01 9.8721429676082586e+00 3 1 1
1955 1 8.7879880317938088e+00 1.9734107112083269e+01 1.0001458254049535e+01 2 1 0
1730 1 2.6704644165867237e+00 2.5804770081629075e-01 6.2118835630571487e+00 -2 -3 1
1972 1 1.5274148254521240e+00 2.4302333370207492e+01 9.6753289000279317e+00 3 1 0
3858 1 5.5580877938557718e+00 2.5657525900527334e-01 2.5345555333340539e+00 -1 0 1
6488 1 9.2936215628111434e+00 2.4385979791868262e+01 5.4672801407266611e+00 -2 -3 1
2139 1 6.7372272817466641e+00 2.4304850298870878e+01 8.8048774320486274e+00 0 2 1
3783 1 5.1479690221845038e+00 3.0429760456457866e-01 1.0069626160751243e+01 3 2 0
4874 1 4.4687993981725072e-02 2.2656619243984704e+01 1.5193283008614791e+00 0 1 1
3282 1 3.6997386888487780e+00 2.0898577298169725e+00 1.3805418772589174e+01 2 2 0
3792 1 1.1076926180015647e+00 2.3244290266667664e+00 1.2766985412625184e+01 1 -2 0
5215 1 5.2146231121291375e+00 2.2177499092259080e+01 1.2784853261190523e+01 1 4 1
1463 1 8.8223992184059377e+00 2.4112024385362016e+01 1.2626982758121477e+01 2 3 1
1340 1 7.5567061575857712e+00 4.1219199602895573e+00 1.3622553266189659e+01 3 1 1
6372 1 1.1712282856859932e+01 1.9130435155201349e+00 1.3781161212219503e+01 5 0 1
5438 1 1.1668322451201188e+01 1.8000160462299615e+00 1.6539656520884350e+01 0 0 0
2031 1 5.0422308970069407e+00 1.2918823372965054e+01 2.3927810701088493e+01 1 -2 0
5187 1 3.6064951390635822e+00 6.7211085448566044e+00 1.3624951914342351e+01 -1 -1 0
3182 1 9.9969019029076378e-01 7.0309574533195009e+00 1.2497012531322586e+01 -2 2 1
4862 1 1.4636477255028193e+00 2.0339922067185750e+01 1.2745859689329144e+01 1 0 0
3502 1 1.1103486080018209e+01 6.4907115441760901e+00 1.3425853647562020e+01 -1 -1 0
66 1 8.6438784727466320e+00 1.5491899777540372e+01 2.3726935985134908e+01 2 -1 0
23 1 3.9387720343785397e+00 1.1038162035797344e+01 1.3326875716801577e+01 -2 0 0
333 1 3.7314376487311973e-01 2.9966683042192960e-01 1.6382883778224596e+01 3 2 0
3275 1 2.3746684048336082e-02 2.2822515759249892e+01 1.3497878483539354e+01 3 2 1
3553 1 7.3625957253312961e+00 8.6904219500035804e+00 1.3534139258848644e+01 -1 -1 1
1410 1 8.6253791981854704e+00 1.0707653808739751e+01 1.2901170712769105e+01 -1 0 1
3501 1 1.1417547520619534e+01 1.0274643498818710e+01 1.3214891148232741e+01 1 0 0
1933 1 3.8182466681028671e+00 1.5750677313180546e+01 1.3391722865190518e+01 0 3 0
3321 1 1.1789529855600513e-01 1.3045672776071505e+01 1.6092523884455581e+01 1 2 1
78 1 7.5308654647867961e+00 1.3028744147420200e+01 1.3366701068729240e+01 2 -1 1
1746 1 5.1469891311785521e+00 1.3421286220180008e+01 1.2496308495216152e+01 -2 -1 0
3417 1 9.8384317104698304e+00 2.2307830990915789e+01 2.3560098967256909e+01 1 2 0
2117 1 1.1790212187257188e+01 2.4161868842267971e+01 1.6113434629166257e+01 -1 -1 1
2290 1 1.1569615863175907e+01 1.4963614646754623e+01 1.3362205104765589e+01 1 1 1
1961 1 3.8358988572584054e+00 1.9909549753644203e+01 1.3757576351655231e+01 -1 1 0
1733 1 2.9937065355978759e-01 4.5597585466164725e+00 1.6358498606395056e+01 -2 3 1
4866 1 3.9150149786036303e+00 2.4263900357155155e+01 1.3656374695534193e+01 3 1 1
29 1 7.5980100115106532e+00 1.7493733713606986e+01 1.3939712416471831e+01 -2 -1 0
3209 1 9.0612825190351671e+00 1.9713849671930330e+01 1.2855446525402305e+01 -1 -1 1
461 1 1.1691042636670947e+01 1.9613225183397034e+01 1.3796702978953462e+01 1 1 0
5222 1 4.9551781599149773e+00 8.6499800877131943e+00 1.2500235865501057e+01 2 -2 1
3434 1 8.6143826278039057e+00 6.3821361792905797e+00 1.2401390975598501e+01 0 1 1
4912 1 2.7597587399000650e-01 1.3457162159797717e+01 1.3599060909026337e+01 1 -3 1
6467 1 7.6879578207257238e+00 2.1862256687510992e+01 1.3572580614245318e+01 0 -1 1
3334 1 2.3168558437144120e+00 1.7558451487217727e-01 2.3717515275975160e+01 2 -1 1
299 1 4.1177758900403534e+00 2.0731156432072186e+00 1.6316407178031607e+01 -1 1 0
4860 1 1.7225807968595150e+00 2.1657560987574533e+00 1.7138415773131058e+01 2 2 1
3774 1 1.6035348603301525e+00 2.4326607215509708e+00 2.0026920724024809e+01 -4 -2 0
3028 1 8.8053387654252031e+00 1.5492980911281272e+01 1.2687447748872501e+01 0 2 1
4916 1 5.4819922005692634e+00 2.2077183796614516e+01 2.0092940867180115e+01 -1 2 1
5090 1 8.7353373161132879e+00 2.1373253267399055e+00 1.7522043557985352e+01 0 -1 0
3871 1 9.0557778926808545e+00 2.0629043936560572e+00 2.0276673960321070e+01 0 -1 0
1795 1 3.5383732668656291e+00 6.7721212705725735e+00 1.6414153159562353e+01 2 1 0
3652 1 1.2773802091712685e+00 6.6011702117639608e+00 1.7300290648041319e+01 2 2 0
250 1 1.2277959956974509e+00 7.1205458537887472e+00 1.9907263513165645e+01 0 0 0
3713 1 7.7284995400717929e+00 4.4299126528962622e+00 1.6267388795642358e+01 0 -2 0
54 1 5.1589382499723682e+00 4.3360228965161509e+00 1.9968648835215713e+01 0 4 1
395 1 5.1369580238995711e+00 4.3614339223347418e+00 1.7364100772443781e+01 0 2 0
3267 1 1.1638679995306921e+01 6.3197429400589291e+00 1.6278960413078142e+01 1 1 1
4009 1 9.1170217849143818e+00 6.3927240130234795e+00 1.7383844211636060e+01 0 2 1
3726 1 8.7870966153108743e+00 6.1151598157374529e+00 2.0098609264692215e+01 -1 -1 0
2196 1 3.9446679367387021e+00 1.0755595402264364e+01 1.5978822854598398e+01 -3 1 1
3650 1 1.3878749467027287e+00 1.0919069306685158e+01 1.7038717033343701e+01 0 1 0
3629 1 1.1265195679695088e+00 1.1076940724811625e+01 1.9717249092094203e+01 2 1 0
5057 1 7.5351104315400921e+00 8.7236638802041835e+00 1.6059083195279296e+01 2 0 1
5421 1 5.1468570012824548e+00 8.7799006221026801e+00 1.6863851112093720e+01 2 -2 0
3519 1 5.1201507450000241e+00 8.6896702815711002e+00 1.9525040616821631e+01 2 1 0
3781 1 1.1553893919948695e+01 1.0752195707136789e+01 1.6246326834628011e+01 -2 1 0
6438 1 8.8597149134379229e+00 1.1144045132231858e+01 1.7024070344685210e+01 -1 3 1
1329 1 8.9871803256306855e+00 1.1001833894638423e+01 1.9609745726718163e+01 0 0 1
5203 1 9.9329446208414325e+00 2.2315377326956231e+01 2.0915932724700834e+01 -1 1 0
3266 1 4.0762256138412658e+00 1.5357355969123532e+01 1.6257157118133602e+01 2 0 1
6521 1 1.3409937571132031e+00 1.5459850331083613e+01 1.7116259781739053e+01 2 -1 1
1402 1 1.1943876818009453e+00 1.5383901481033357e+01 2.0019455696490354e+01 1 -2 1
1596 1 7.5803612848854494e+00 1.3449221624374264e+01 1.5991024338049813e+01 2 2 1
6695 1 4.9617739329704431e+00 1.2876480686845953e+01 1.7242589158000783e+01 1 -1 0
2094 1 4.9079634804491379e+00 1.3178209219243112e+01 2.0032093729058520e+01 -1 2 0
5079 1 1.1600241459116893e+01 1.5079974606609737e+01 1.6233858968596099e+01 2 -1 0
1390 1 9.0534502522139384e+00 1.5279283854305053e+01 1.7229122617457080e+01 1 -1 1
6509 1 3.7549621805559683e+00 2.0148699910831883e+01 1.6375994445819241e+01 0 -2 1
1595 1 1.1559119682533924e+01 2.4132224345094496e+01 1.3405190894342375e+01 1 0 1
6671 1 1.1899064952556109e+00 2.0115107439853073e+01 1.7112904368197857e+01 1 1 1
3202 1 7.7815367391864365e+00 1.7391568503234712e+01 1.6513654451048531e+01 0 1 0
5102 1 5.1322679342542576e+00 1.7566055134491112e+01 1.9986862797323084e+01 -1 0 1
2322 1 5.1896990498312832e+00 1.7789464546004776e+01 1.7135725965926333e+01 -1 -3 1
3913 1 1.1579549799877055e+01 1.9665814804548077e+01 1.6557706321664554e+01 -1 2 0
3192 1 8.9043931847669260e+00 1.9719592346634574e+01 1.7234562967296764e+01 2 2 1
6549 1 8.8434535695011292e+00 1.9927388303291995e+01 2.0001649454789099e+01 1 1 0
3288 1 7.4085349134331082e+00 2.2002475945895284e+01 1.6248919258489860e+01 0 -1 0
3418 1 5.0216519493555012e+00 2.2435544526989705e+01 1.7258369261726415e+01 2 -2 0
2289 1 6.5116074298146431e+00 2.4320105526902989e+01 2.1101559967814925e+01 -2 2 1
2003 1 5.2757772719683116e+00 1.7737877892345796e+01 1.2607741293417369e+01 1 -1 0
3993 1 9.1929843712016375e+00 2.2318491834376966e+00 1.2510785780831100e+01 1 -1 1
5457 1 6.4997201670492695e+00 2.5152807494044027e+00 2.3519971727008581e+01 -1 2 0
3549 1 6.5208512641026584e+00 2.1208647328064343e+00 2.1135435470098347e+01 0 1 0
3517 1 2.3929721091781002e+00 4.5765946299073210e+00 2.3491606998329743e+01 2 -2 0
5668 1 2.4857740049686505e+00 4.7312281877464404e+00 2.0907847661784690e+01 2 -1 1
4947 1 6.3329916823187178e+00 6.5738813945456807e+00 2.3545133540756400e+01 1 0 1
1868 1 6.3510860753246643e+00 6.3478271557697292e+00 2.0690523449505719e+01 -3 -1 0
2131 1 1.0729822851390727e+01 4.1195470054331853e+00 2.3565530986737233e+01 3 2 1
3481 1 1.0420799227366931e+01 4.1606014130813520e+00 2.0744684874389630e+01 1 -2 0
337 1 2.5790012396918902e+00 9.2110440279048085e+00 2.3409327339732684e+01 -1 4 0
223 1 1.3128308769073844e+00 1.5876190318143044e+01 1.2428222761191703e+01 3 1 0
12 1 2.6902869952726465e+00 8.9833768567594614e+00 2.0870681602390384e+01 0 -1 1
3918 1 9.9554748290200723e-02 2.2486990663396611e+01 1.6165967191288445e+01 1 0 1
1899 1 6.0447469814656039e+00 1.0980888203594560e+01 2.0572979331947465e+01 1 3 0
357 1 6.2528700796360974e+00 1.0542599454669119e+01 2.3035959347527843e+01 1 -2 0
549 1 1.0054402410838559e+01 8.6526796967996908e+00 2.3525545480769416e+01 0 2 1
84 1 9.8199399340279889e+00 8.6704520605987661e+00 2.0584564086658872e+01 -1 -1 0
147 1 9.1033739495151416e+00 2.4499567268921506e+01 1.9701002187449792e+01 2 1 0
2218 1 2.3669410812704865e+00 1.3123011115948902e+01 2.0808269739205670e+01 2 0 1
1542 1 6.0516515426309674e+00 1.5736792403529627e+01 2.3491183515951693e+01 0 -1 1
3823 1 6.2281108142927204e+00 1.5277575318609479e+01 2.0998023219113190e+01 2 -1 0
3302 1 2.5044381501353881e+00 2.2337581054915919e+01 2.3580391975475074e+01 2 1 0
151 1 9.8119824817193688e+00 1.3021833014615543e+01 2.3460011991893264e+01 0 -2 0
1810 1 9.9573093449121828e+00 1.3409021957346294e+01 2.0628586314803915e+01 1 -1 0
5332 1 8.8203047046311358e+00 1.5538255705409108e+01 1.9886916274869542e+01 0 0 1
4881 1 2.4722729639784733e+00 1.7795115974134436e+01 2.0753032543967436e+01 2 2 1
433 1 1.3237170566936571e+00 2.0018837685225744e+01 1.9800441667564915e+01 1 -2 0
5452 1 2.2455972196808851e+00 1.7802305312871006e+01 2.3769521350380018e+01 1 1 1
3050 1 6.4413128752883662e+00 1.9867402607802735e+01 2.0892726995023807e+01 0 -4 1
4964 1 6.2751093618763329e+00 2.0067764116832194e+01 2.3406530863759922e+01 0 -2 0
1648 1 1.0346417060336899e+01 1.7784608044608316e+01 2.0854167030531620e+01 1 -2 0
3809 1 1.0096079756982016e+01 1.7825987174992683e+01 2.3703056312138806e+01 -1 2 1
3793 1 2.9199253180257361e+00 2.2179764973738838e+01 2.1058183372963487e+01 1 -1 0
2067 1 1.3508644973153089e-01 4.8451636986077977e+00 1.3465124104987478e+01 0 0 0
6697 1 2.6067849360975598e-01 8.8837458309081718e+00 1.6125403675854571e+01 1 -1 1
2030 1 1.9055146811712603e-01 1.7822187831452286e+01 1.6137737683822934e+01 0 0 0
5385 1 3.1188140080261645e-01 9.2158417341073608e+00 1.3379513514914489e+01 -1 -2 1
6597 1 4.6976351324544401e-03 2.0545633928926213e-01 1.3681579125513494e+01 0 0 1
1540 1 2.0804215662891963e+00 1.2244037581511467e+01 2.3379454790369749e+01 0 3 1
5089 1 8.8419541721999764e+00 2.4256522232716449e+01 1.7119477957562449e+01 1 1 1
3563 1 4.9831739462920339e+00 4.1392256299216035e+00 1.2822586604977145e+01 1 1 0
6615 1 2.5877894558018327e-01 1.8154884895255016e+01 1.3553257998954605e+01 2 0 1
1474 1 2.6647197860846403e+00 3.0438446565380348e-02 2.0992636760443141e+01 1 2 1
146 1 1.3622876954756780e+00 2.4486993139219521e+01 1.7090091141949642e+01 2 -1 0
386 1 6.4358679332345519e+00 2.4416017719759612e+01 2.3982288958864434e+01 2 0 0
2110 1 1.4921014508553918e+00 2.4500760158114208e+01 1.9910996369203488e+01 1 2 0
219 1 1.1981953263556007e+00 2.0077676443525483e+01 2.3871027025847109e+01 -1 0 0
6687 1 7.9279708546029033e+00 5.3287268456479353e-02 1.3706213342440986e+01 -2 0 1
1758 1 8.8053514930556815e+00 1.9840564615759636e+01 2.3983753928123392e+01 -2 -1 0
3092 1 1.6380938527497924e+00 1.1476643283287570e+01 1.2222819777502224e+01 0 2 1
623 2 0.0000000000000000e+00 2.8417180249513345e+00 2.6843431278380272e+01 0 0 0
625 2 0.0000000000000000e+00 0.0000000000000000e+00 2.6843431278380272e+01 0 0 0
627 2 1.2305000000000001e+00 7.1042950623783474e-01 2.6843431278380272e+01 0 0 0
634 2 1.2305000000000001e+00 2.1312885187134998e+00 2.6843431278380272e+01 0 0 0
636 2 2.4610000000000003e+00 2.8417180249513345e+00 2.6843431278380272e+01 0 0 0
638 2 2.4610000000000003e+00 0.0000000000000000e+00 2.6843431278380272e+01 0 0 0
640 2 3.6915000000000004e+00 7.1042950623783474e-01 2.6843431278380272e+01 0 0 0
655 2 3.6914999999999996e+00 2.1312885187134998e+00 2.6843431278380272e+01 0 0 0
4720 1 8.7732453102781403e+00 1.0785195521264603e+01 2.4189292893058912e+01 2 -2 1
657 2 4.9220000000000006e+00 2.8417180249513332e+00 2.6843431278380272e+01 0 0 0
659 2 4.9220000000000006e+00 0.0000000000000000e+00 2.6843431278380272e+01 0 0 0
661 2 6.1524999999999999e+00 7.1042950623783407e-01 2.6843431278380272e+01 0 0 0
684 2 6.1524999999999999e+00 2.1312885187134989e+00 2.6843431278380272e+01 0 0 0
686 2 7.3829999999999991e+00 2.8417180249513345e+00 2.6843431278380272e+01 0 0 0
688 2 7.3829999999999991e+00 0.0000000000000000e+00 2.6843431278380272e+01 0 0 0
690 2 8.6134999999999984e+00 7.1042950623783407e-01 2.6843431278380272e+01 0 0 0
721 2 8.6134999999999984e+00 2.1312885187135002e+00 2.6843431278380272e+01 0 0 0
723 2 9.8440000000000012e+00 2.8417180249513332e+00 2.6843431278380272e+01 0 0 0
725 2 9.8440000000000012e+00 0.0000000000000000e+00 2.6843431278380272e+01 0 0 0
727 2 1.1074500000000002e+01 7.1042950623783330e-01 2.6843431278380272e+01 0 0 0
766 2 1.1074500000000002e+01 2.1312885187135002e+00 2.6843431278380272e+01 0 0 0
1427 1 1.6606425481183582e+00 2.3812700517498042e+00 3.5732499994749105e+01 0 -1 0
628 2 0.0000000000000000e+00 7.1042950623783341e+00 2.6843431278380272e+01 0 0 0
630 2 0.0000000000000000e+00 4.2625770374269996e+00 2.6843431278380272e+01 0 0 0
632 2 1.2305000000000001e+00 4.9730065436648339e+00 2.6843431278380272e+01 0 0 0
647 2 1.2305000000000001e+00 6.3938655561404980e+00 2.6843431278380272e+01 0 0 0
649 2 2.4610000000000003e+00 7.1042950623783341e+00 2.6843431278380272e+01 0 0 0
651 2 2.4610000000000003e+00 4.2625770374269996e+00 2.6843431278380272e+01 0 0 0
653 2 3.6914999999999996e+00 4.9730065436648339e+00 2.6843431278380272e+01 0 0 0
676 2 3.6914999999999996e+00 6.3938655561404980e+00 2.6843431278380272e+01 0 0 0
5244 1 4.9901678803781566e+00 1.7447709926398441e-01 2.4418724041871446e+01 -1 -1 0
678 2 4.9220000000000006e+00 7.1042950623783341e+00 2.6843431278380272e+01 0 0 0
680 2 4.9220000000000006e+00 4.2625770374269978e+00 2.6843431278380272e+01 0 0 0
682 2 6.1524999999999999e+00 4.9730065436648339e+00 2.6843431278380272e+01 0 0 0
713 2 6.1524999999999999e+00 6.3938655561404980e+00 2.6843431278380272e+01 0 0 0
715 2 7.3830000000000009e+00 7.1042950623783341e+00 2.6843431278380272e+01 0 0 0
717 2 7.3829999999999991e+00 4.2625770374269996e+00 2.6843431278380272e+01 0 0 0
3274 1 5.0548623403045791e+00 8.4943108282485422e+00 2.4242386724427185e+01 0 -2 0
719 2 8.6135000000000002e+00 4.9730065436648339e+00 2.6843431278380272e+01 0 0 0
758 2 8.6135000000000002e+00 6.3938655561404980e+00 2.6843431278380272e+01 0 0 0
760 2 9.8440000000000012e+00 7.1042950623783341e+00 2.6843431278380272e+01 0 0 0
762 2 9.8440000000000012e+00 4.2625770374270004e+00 2.6843431278380272e+01 0 0 0
764 2 1.1074500000000002e+01 4.9730065436648339e+00 2.6843431278380272e+01 0 0 0
805 2 1.1074500000000002e+01 6.3938655561404980e+00 2.6843431278380272e+01 0 0 0
641 2 0.0000000000000000e+00 1.1366872099805333e+01 2.6843431278380272e+01 0 0 0
643 2 0.0000000000000000e+00 8.5251540748539991e+00 2.6843431278380272e+01 0 0 0
645 2 1.2305000000000001e+00 9.2355835810918343e+00 2.6843431278380272e+01 0 0 0
668 2 1.2305000000000001e+00 1.0656442593567498e+01 2.6843431278380272e+01 0 0 0
670 2 2.4610000000000003e+00 1.1366872099805333e+01 2.6843431278380272e+01 0 0 0
672 2 2.4610000000000003e+00 8.5251540748539991e+00 2.6843431278380272e+01 0 0 0
674 2 3.6915000000000004e+00 9.2355835810918343e+00 2.6843431278380272e+01 0 0 0
705 2 3.6914999999999996e+00 1.0656442593567499e+01 2.6843431278380272e+01 0 0 0
707 2 4.9220000000000006e+00 1.1366872099805333e+01 2.6843431278380272e+01 0 0 0
709 2 4.9220000000000006e+00 8.5251540748539991e+00 2.6843431278380272e+01 0 0 0
711 2 6.1524999999999999e+00 9.2355835810918343e+00 2.6843431278380272e+01 0 0 0
750 2 6.1524999999999999e+00 1.0656442593567499e+01 2.6843431278380272e+01 0 0 0
752 2 7.3829999999999991e+00 1.1366872099805333e+01 2.6843431278380272e+01 0 0 0
754 2 7.3830000000000009e+00 8.5251540748539991e+00 2.6843431278380272e+01 0 0 0
5664 1 4.8647549896921616e+00 4.3931385037719961e+00 2.4270131622567757e+01 -1 3 1
756 2 8.6134999999999984e+00 9.2355835810918343e+00 2.6843431278380272e+01 0 0 0
797 2 8.6134999999999984e+00 1.0656442593567498e+01 2.6843431278380272e+01 0 0 0
799 2 9.8440000000000012e+00 1.1366872099805333e+01 2.6843431278380272e+01 0 0 0
801 2 9.8440000000000012e+00 8.5251540748539956e+00 2.6843431278380272e+01 0 0 0
803 2 1.1074500000000002e+01 9.2355835810918343e+00 2.6843431278380272e+01 0 0 0
844 2 1.1074500000000002e+01 1.0656442593567498e+01 2.6843431278380272e+01 0 0 0
846 2 1.2304999999999998e+01 1.1366872099805333e+01 2.6843431278380272e+01 0 0 0
6612 1 1.2217878459765128e+01 1.3150880330021600e+01 2.4427080597457465e+01 -1 -1 1
662 2 0.0000000000000000e+00 1.5629449137232333e+01 2.6843431278380272e+01 0 0 0
664 2 0.0000000000000000e+00 1.2787731112280996e+01 2.6843431278380272e+01 0 0 0
666 2 1.2305000000000001e+00 1.3498160618518829e+01 2.6843431278380272e+01 0 0 0
697 2 1.2305000000000001e+00 1.4919019630994494e+01 2.6843431278380272e+01 0 0 0
699 2 2.4610000000000003e+00 1.5629449137232328e+01 2.6843431278380272e+01 0 0 0
701 2 2.4610000000000003e+00 1.2787731112280996e+01 2.6843431278380272e+01 0 0 0
703 2 3.6915000000000004e+00 1.3498160618518829e+01 2.6843431278380272e+01 0 0 0
742 2 3.6915000000000004e+00 1.4919019630994494e+01 2.6843431278380272e+01 0 0 0
2271 1 1.1318823673478269e+00 1.5117740007262034e+01 2.4105752250394996e+01 3 0 0
744 2 4.9220000000000006e+00 1.5629449137232333e+01 2.6843431278380272e+01 0 0 0
746 2 4.9220000000000006e+00 1.2787731112280996e+01 2.6843431278380272e+01 0 0 0
748 2 6.1524999999999990e+00 1.3498160618518829e+01 2.6843431278380272e+01 0 0 0
789 2 6.1524999999999990e+00 1.4919019630994494e+01 2.6843431278380272e+01 0 0 0
791 2 7.3829999999999991e+00 1.5629449137232333e+01 2.6843431278380272e+01 0 0 0
793 2 7.3829999999999991e+00 1.2787731112280996e+01 2.6843431278380272e+01 0 0 0
266 1 1.1295196494523938e+00 7.0775475348817647e+00 2.4132554702968854e+01 2 -1 0
795 2 8.6135000000000002e+00 1.3498160618518835e+01 2.6843431278380272e+01 0 0 0
836 2 8.6135000000000002e+00 1.4919019630994494e+01 2.6843431278380272e+01 0 0 0
838 2 9.8440000000000012e+00 1.5629449137232328e+01 2.6843431278380272e+01 0 0 0
840 2 9.8440000000000012e+00 1.2787731112280996e+01 2.6843431278380272e+01 0 0 0
842 2 1.1074500000000002e+01 1.3498160618518829e+01 2.6843431278380272e+01 0 0 0
878 2 1.1074500000000002e+01 1.4919019630994494e+01 2.6843431278380272e+01 0 0 0
691 2 0.0000000000000000e+00 1.9892026174659328e+01 2.6843431278380272e+01 0 0 0
693 2 0.0000000000000000e+00 1.7050308149707998e+01 2.6843431278380272e+01 0 0 0
695 2 1.2305000000000001e+00 1.7760737655945832e+01 2.6843431278380272e+01 0 0 0
734 2 1.2305000000000001e+00 1.9181596668421495e+01 2.6843431278380272e+01 0 0 0
736 2 2.4610000000000003e+00 1.9892026174659328e+01 2.6843431278380272e+01 0 0 0
738 2 2.4610000000000003e+00 1.7050308149707998e+01 2.6843431278380272e+01 0 0 0
740 2 3.6914999999999996e+00 1.7760737655945832e+01 2.6843431278380272e+01 0 0 0
781 2 3.6914999999999996e+00 1.9181596668421495e+01 2.6843431278380272e+01 0 0 0
6759 1 1.2133215798114579e+01 4.1406528931076299e+00 3.5720145173994368e+01 -3 -1 0
783 2 4.9220000000000006e+00 1.9892026174659328e+01 2.6843431278380272e+01 0 0 0
785 2 4.9220000000000006e+00 1.7050308149707998e+01 2.6843431278380272e+01 0 0 0
787 2 6.1524999999999999e+00 1.7760737655945832e+01 2.6843431278380272e+01 0 0 0
828 2 6.1524999999999999e+00 1.9181596668421495e+01 2.6843431278380272e+01 0 0 0
830 2 7.3829999999999991e+00 1.9892026174659328e+01 2.6843431278380272e+01 0 0 0
832 2 7.3830000000000009e+00 1.7050308149707998e+01 2.6843431278380272e+01 0 0 0
834 2 8.6134999999999984e+00 1.7760737655945832e+01 2.6843431278380272e+01 0 0 0
870 2 8.6135000000000002e+00 1.9181596668421495e+01 2.6843431278380272e+01 0 0 0
872 2 9.8440000000000012e+00 1.9892026174659335e+01 2.6843431278380272e+01 0 0 0
874 2 9.8440000000000012e+00 1.7050308149707998e+01 2.6843431278380272e+01 0 0 0
876 2 1.1074500000000002e+01 1.7760737655945835e+01 2.6843431278380272e+01 0 0 0
904 2 1.1074500000000002e+01 1.9181596668421495e+01 2.6843431278380272e+01 0 0 0
908 2 1.2304999999999998e+01 1.7050308149707998e+01 2.6843431278380272e+01 0 0 0
1055 2 4.9220000000000006e+00 2.4154603212086325e+01 3.3218568721615583e+01 0 0 0
728 2 0.0000000000000000e+00 2.4154603212086325e+01 2.6843431278380272e+01 0 0 0
730 2 0.0000000000000000e+00 2.1312885187134999e+01 2.6843431278380272e+01 0 0 0
732 2 1.2304999999999993e+00 2.2023314693372832e+01 2.6843431278380272e+01 0 0 0
773 2 1.2304999999999993e+00 2.3444173705848499e+01 2.6843431278380272e+01 0 0 0
775 2 2.4610000000000003e+00 2.4154603212086325e+01 2.6843431278380272e+01 0 0 0
777 2 2.4610000000000003e+00 2.1312885187134995e+01 2.6843431278380272e+01 0 0 0
779 2 3.6914999999999996e+00 2.2023314693372832e+01 2.6843431278380272e+01 0 0 0
820 2 3.6915000000000004e+00 2.3444173705848499e+01 2.6843431278380272e+01 0 0 0
1076 2 7.3830000000000009e+00 2.4154603212086336e+01 3.3218568721615583e+01 0 0 0
822 2 4.9220000000000006e+00 2.4154603212086325e+01 2.6843431278380272e+01 0 0 0
824 2 4.9220000000000006e+00 2.1312885187134995e+01 2.6843431278380272e+01 0 0 0
826 2 6.1524999999999990e+00 2.2023314693372832e+01 2.6843431278380272e+01 0 0 0
862 2 6.1524999999999999e+00 2.3444173705848499e+01 2.6843431278380272e+01 0 0 0
864 2 7.3830000000000009e+00 2.4154603212086336e+01 2.6843431278380272e+01 0 0 0