LAMMPS data file via write_data, version 16 Mar 2018, timestep = 100000

4545 atoms
2 atom types

0.0000000000000000e+00 4.9219999999999999e+01 xlo xhi
0.0000000000000000e+00 4.9019635930410494e+01 ylo yhi
1.7147976451586864e+00 3.1920542141363697e+01 zlo zhi

Masses

1 18.015
2 12.01

Atoms # atomic

91 2 0.0000000000000000e+00 2.8417180249513345e+00 3.2208039421558903e+00 0 0 0
93 2 0.0000000000000000e+00 0.0000000000000000e+00 3.2208039421558903e+00 0 0 0
95 2 1.2305000000000001e+00 7.1042950623783474e-01 3.2208039421558903e+00 0 0 0
102 2 1.2305000000000001e+00 2.1312885187134998e+00 3.2208039421558903e+00 0 0 0
104 2 2.4610000000000003e+00 2.8417180249513345e+00 3.2208039421558903e+00 0 0 0
106 2 2.4610000000000003e+00 0.0000000000000000e+00 3.2208039421558903e+00 0 0 0
108 2 3.6915000000000004e+00 7.1042950623783474e-01 3.2208039421558903e+00 0 0 0
123 2 3.6914999999999996e+00 2.1312885187134998e+00 3.2208039421558903e+00 0 0 0
125 2 4.9220000000000006e+00 2.8417180249513332e+00 3.2208039421558903e+00 0 0 0
127 2 4.9220000000000006e+00 0.0000000000000000e+00 3.2208039421558903e+00 0 0 0
98 2 0.0000000000000000e+00 4.2625770374269996e+00 3.2208039421558903e+00 0 0 0
100 2 1.2305000000000001e+00 4.9730065436648339e+00 3.2208039421558903e+00 0 0 0
115 2 1.2305000000000001e+00 6.3938655561404980e+00 3.2208039421558903e+00 0 0 0
119 2 2.4610000000000003e+00 4.2625770374269996e+00 3.2208039421558903e+00 0 0 0
121 2 3.6914999999999996e+00 4.9730065436648339e+00 3.2208039421558903e+00 0 0 0
144 2 3.6914999999999996e+00 6.3938655561404980e+00 3.2208039421558903e+00 0 0 0
148 2 4.9220000000000006e+00 4.2625770374269978e+00 3.2208039421558903e+00 0 0 0
96 2 0.0000000000000000e+00 7.1042950623783341e+00 3.2208039421558903e+00 0 0 0
117 2 2.4610000000000003e+00 7.1042950623783341e+00 3.2208039421558903e+00 0 0 0
146 2 4.9220000000000006e+00 7.1042950623783341e+00 3.2208039421558903e+00 0 0 0
111 2 0.0000000000000000e+00 8.5251540748539991e+00 3.2208039421558903e+00 0 0 0
113 2 1.2305000000000001e+00 9.2355835810918343e+00 3.2208039421558903e+00 0 0 0
140 2 2.4610000000000003e+00 8.5251540748539991e+00 3.2208039421558903e+00 0 0 0
142 2 3.6915000000000004e+00 9.2355835810918343e+00 3.2208039421558903e+00 0 0 0
177 2 4.9220000000000006e+00 8.5251540748539991e+00 3.2208039421558903e+00 0 0 0
109 2 0.0000000000000000e+00 1.1366872099805333e+01 3.2208039421558903e+00 0 0 0
136 2 1.2305000000000001e+00 1.0656442593567498e+01 3.2208039421558903e+00 0 0 0
138 2 2.4610000000000003e+00 1.1366872099805333e+01 3.2208039421558903e+00 0 0 0
173 2 3.6914999999999996e+00 1.0656442593567499e+01 3.2208039421558903e+00 0 0 0
175 2 4.9220000000000006e+00 1.1366872099805333e+01 3.2208039421558903e+00 0 0 0
92 2 0.0000000000000000e+00 1.4208590124756650e+00 6.2328165361496577e+00 0 0 0
94 2 0.0000000000000000e+00 0.0000000000000000e+00 6.2328165361496577e+00 0 0 0
103 2 1.2305000000000001e+00 2.1312885187134998e+00 6.2328165361496577e+00 0 0 0
105 2 2.4610000000000003e+00 1.4208590124756650e+00 6.2328165361496577e+00 0 0 0
107 2 2.4610000000000003e+00 0.0000000000000000e+00 6.2328165361496577e+00 0 0 0
124 2 3.6914999999999996e+00 2.1312885187134998e+00 6.2328165361496577e+00 0 0 0
420 2 0.0000000000000000e+00 2.8417180249513345e+00 9.2448291301437635e+00 0 0 0
421 2 0.0000000000000000e+00 0.0000000000000000e+00 9.2448291301437635e+00 0 0 0
422 2 1.2305000000000001e+00 7.1042950623783474e-01 9.2448291301437635e+00 0 0 0
426 2 1.2305000000000001e+00 2.1312885187134998e+00 9.2448291301437635e+00 0 0 0
427 2 2.4610000000000003e+00 2.8417180249513345e+00 9.2448291301437635e+00 0 0 0
428 2 2.4610000000000003e+00 0.0000000000000000e+00 9.2448291301437635e+00 0 0 0
429 2 3.6915000000000004e+00 7.1042950623783474e-01 9.2448291301437635e+00 0 0 0
437 2 3.6914999999999996e+00 2.1312885187134998e+00 9.2448291301437635e+00 0 0 0
126 2 4.9220000000000006e+00 1.4208590124756650e+00 6.2328165361496577e+00 0 0 0
128 2 4.9220000000000006e+00 0.0000000000000000e+00 6.2328165361496577e+00 0 0 0
438 2 4.9220000000000006e+00 2.8417180249513332e+00 9.2448291301437635e+00 0 0 0
439 2 4.9220000000000006e+00 0.0000000000000000e+00 9.2448291301437635e+00 0 0 0
101 2 1.2305000000000001e+00 3.5521475311891644e+00 6.2328165361496577e+00 0 0 0
122 2 3.6914999999999996e+00 3.5521475311891644e+00 6.2328165361496577e+00 0 0 0
97 2 0.0000000000000000e+00 5.6834360499026637e+00 6.2328165361496577e+00 0 0 0
99 2 0.0000000000000000e+00 4.2625770374269996e+00 6.2328165361496577e+00 0 0 0
116 2 1.2305000000000001e+00 6.3938655561404980e+00 6.2328165361496577e+00 0 0 0
118 2 2.4610000000000003e+00 5.6834360499026637e+00 6.2328165361496577e+00 0 0 0
120 2 2.4610000000000003e+00 4.2625770374269996e+00 6.2328165361496577e+00 0 0 0
145 2 3.6914999999999996e+00 6.3938655561404980e+00 6.2328165361496577e+00 0 0 0
424 2 0.0000000000000000e+00 4.2625770374269996e+00 9.2448291301437635e+00 0 0 0
425 2 1.2305000000000001e+00 4.9730065436648339e+00 9.2448291301437635e+00 0 0 0
433 2 1.2305000000000001e+00 6.3938655561404980e+00 9.2448291301437635e+00 0 0 0
435 2 2.4610000000000003e+00 4.2625770374269996e+00 9.2448291301437635e+00 0 0 0
436 2 3.6914999999999996e+00 4.9730065436648339e+00 9.2448291301437635e+00 0 0 0
448 2 3.6914999999999996e+00 6.3938655561404980e+00 9.2448291301437635e+00 0 0 0
147 2 4.9220000000000006e+00 5.6834360499026637e+00 6.2328165361496577e+00 0 0 0
149 2 4.9220000000000006e+00 4.2625770374269978e+00 6.2328165361496577e+00 0 0 0
450 2 4.9220000000000006e+00 4.2625770374269978e+00 9.2448291301437635e+00 0 0 0
114 2 1.2305000000000001e+00 7.8147245686161639e+00 6.2328165361496577e+00 0 0 0
143 2 3.6914999999999996e+00 7.8147245686161639e+00 6.2328165361496577e+00 0 0 0
423 2 0.0000000000000000e+00 7.1042950623783341e+00 9.2448291301437635e+00 0 0 0
434 2 2.4610000000000003e+00 7.1042950623783341e+00 9.2448291301437635e+00 0 0 0
449 2 4.9220000000000006e+00 7.1042950623783341e+00 9.2448291301437635e+00 0 0 0
110 2 0.0000000000000000e+00 9.9460130873296642e+00 6.2328165361496577e+00 0 0 0
112 2 0.0000000000000000e+00 8.5251540748539991e+00 6.2328165361496577e+00 0 0 0
139 2 2.4610000000000003e+00 9.9460130873296642e+00 6.2328165361496577e+00 0 0 0
141 2 2.4610000000000003e+00 8.5251540748539991e+00 6.2328165361496577e+00 0 0 0
431 2 0.0000000000000000e+00 8.5251540748539991e+00 9.2448291301437635e+00 0 0 0
432 2 1.2305000000000001e+00 9.2355835810918343e+00 9.2448291301437635e+00 0 0 0
446 2 2.4610000000000003e+00 8.5251540748539991e+00 9.2448291301437635e+00 0 0 0
447 2 3.6915000000000004e+00 9.2355835810918343e+00 9.2448291301437635e+00 0 0 0
176 2 4.9220000000000006e+00 9.9460130873296642e+00 6.2328165361496577e+00 0 0 0
178 2 4.9220000000000006e+00 8.5251540748539991e+00 6.2328165361496577e+00 0 0 0
465 2 4.9220000000000006e+00 8.5251540748539991e+00 9.2448291301437635e+00 0 0 0
135 2 1.2305000000000001e+00 1.2077301606043163e+01 6.2328165361496577e+00 0 0 0
137 2 1.2305000000000001e+00 1.0656442593567498e+01 6.2328165361496577e+00 0 0 0
172 2 3.6914999999999996e+00 1.2077301606043163e+01 6.2328165361496577e+00 0 0 0
174 2 3.6914999999999996e+00 1.0656442593567499e+01 6.2328165361496577e+00 0 0 0
430 2 0.0000000000000000e+00 1.1366872099805333e+01 9.2448291301437635e+00 0 0 0
444 2 1.2305000000000001e+00 1.0656442593567498e+01 9.2448291301437635e+00 0 0 0
445 2 2.4610000000000003e+00 1.1366872099805333e+01 9.2448291301437635e+00 0 0 0
463 2 3.6914999999999996e+00 1.0656442593567499e+01 9.2448291301437635e+00 0 0 0
464 2 4.9220000000000006e+00 1.1366872099805333e+01 9.2448291301437635e+00 0 0 0
4500 1 3.7998438589315828e+00 2.9012400170931856e+00 1.2544307294541461e+01 1 1 0
805 1 5.8603182867861143e+00 9.9400923560752634e+00 1.1415773281024606e+01 0 0 0
68 1 4.9594554619885471e+00 4.6080909494505484e-01 1.4622745250487574e+01 1 0 0
3726 1 3.6776093566709549e+00 5.3882407040497808e+00 1.1569454764245631e+01 1 0 0
2987 1 1.8879632079625155e+00 7.2121664561253507e+00 1.2332491970577950e+01 0 1 0
2128 1 3.3916268077466922e+00 9.6389227020011869e+00 1.2706657829192885e+01 1 0 0
3825 1 4.9179754281561809e+00 6.9197404770055115e+00 1.5106537866347313e+01 -1 0 1
823 1 3.0713161016402752e+00 3.5571623753607571e+00 1.5205528365883788e+01 1 1 0
2301 1 7.7965351279073203e-01 1.9041858034884185e+00 1.5097769377946948e+01 1 1 0
2244 1 1.9710581053148861e+00 6.2575049901989361e+00 1.5108412068297191e+01 0 -1 1
3083 1 5.4869879663585621e+00 2.1520528898528770e+00 1.6782481396659108e+01 -1 1 1
739 1 1.2331233641341235e+00 1.1033121493065908e+01 1.1634270924016104e+01 -1 0 0
3683 1 9.8985857712015213e-01 1.7789716886454692e+00 1.2029464817412242e+01 1 0 1
3046 1 3.8347403522237520e+00 1.0972507817040780e+01 1.5150432546259283e+01 1 -1 0
2277 1 5.5763028636222707e+00 1.4218371857154316e-01 1.1756933138964357e+01 1 1 0
753 1 6.0008983737817756e+00 6.9755287468898697e+00 1.2106970385819560e+01 0 1 -1
758 1 6.1248173596131616e+00 5.0204469792846007e+00 1.6412860208699112e+01 0 0 0
71 1 4.5106583932023749e+00 4.6553742535571485e-01 2.0857133839390009e+01 -1 0 -1
818 1 5.8687066948410891e+00 1.0049510101456898e+01 2.2793297823873203e+01 1 -2 -1
2154 1 3.6639776437931508e+00 2.8924969246963221e+00 1.9157462546798683e+01 1 1 0
2986 1 2.5542605319837954e+00 4.8809430092217605e+00 2.1790634632133983e+01 1 0 -1
3619 1 1.9561104775203431e+00 5.1403785363207524e+00 1.9114613439985302e+01 2 1 -1
3760 1 2.4707688581736909e+00 7.8728139596402738e+00 1.8881653248799022e+01 0 0 -1
4528 1 4.3389761366470116e+00 8.8705658060896511e+00 1.7127023393313554e+01 -1 1 -1
3878 1 1.9352039756707320e+00 1.0692872104792560e+01 1.9792272288835196e+01 0 -1 0
3110 1 5.0311082383206491e+00 7.7200618896311077e+00 2.0110071857055399e+01 1 -1 -1
677 1 5.6966483979069880e+00 5.2770992584216589e+00 2.4011239198872023e+01 0 1 -1
3778 1 4.6762435447038300e+00 3.0952135237237486e+00 2.2319593527357902e+01 1 1 -1
53 1 2.3328913262885238e+00 9.0838293025837782e+00 2.4029235861702098e+01 0 0 0
4340 1 4.2823404980013073e+00 7.3310731355913292e+00 2.2760029461817545e+01 0 1 0
3632 1 5.5341971583727165e+00 5.0625042444174566e+00 1.9513936017211979e+01 0 0 0
3901 1 1.2339203977827848e+00 1.4318274406946954e+00 1.7906176943907500e+01 1 1 0
2905 1 3.5313341819222392e+00 1.1637006851812055e+01 2.4015536783591905e+01 1 -1 0
1506 1 1.3189228995195692e+00 1.0939159666644322e+01 1.7048486779357479e+01 -1 -1 0
2900 1 1.8857629960194799e-02 4.6609140973305738e+00 2.3438520026881797e+01 1 1 -1
2879 1 4.6202057984733014e-01 8.2633923646803584e+00 1.6960887877520221e+01 1 1 0
613 1 4.8768638519471876e+00 9.5813984922450912e-01 2.8059392460658021e+01 0 1 0
719 1 6.8506105499916425e-01 7.1164798059419365e-01 3.0561366378978445e+01 0 1 0
1432 1 3.9592305652158860e-01 8.8924984513220870e+00 3.0802477386014409e+01 0 1 -1
603 1 2.5490956582661570e+00 4.5641201218998875e+00 2.7616939567599456e+01 1 0 -1
3676 1 1.5993371302134278e+00 7.7221816878493987e+00 2.6315665731890125e+01 2 0 0
2926 1 5.3358958498762910e-01 1.1815878951386328e+01 3.0498043066464547e+01 0 1 0
1593 1 5.4255578514457303e+00 5.4372911086557894e+00 2.6823370120645404e+01 -1 1 0
2342 1 4.9464676090511084e+00 1.1591216984206769e+00 2.4646426544227271e+01 0 0 0
3781 1 4.6346579108453652e+00 2.5536546738747647e+00 3.0950697383991109e+01 1 1 0
4424 1 2.8333684726232895e+00 1.7247180204183716e+00 2.6475761895706217e+01 0 1 1
1599 1 4.5085578122595421e-01 6.6843354841973746e-01 2.7956344451327173e+01 0 0 1
2330 1 2.6051119800980622e+00 7.2484461591718325e+00 3.1052000753955962e+01 1 1 0
4407 1 3.7555386039590548e+00 7.3254907647825513e+00 2.8132514317738771e+01 1 0 0
2266 1 2.7510024037464826e+00 4.4786498618574164e+00 3.0390991325274069e+01 1 1 -1
3627 1 4.8491668297915780e+00 9.9861425242221085e+00 2.8419968084420361e+01 0 0 0
3640 1 8.1483318639457358e-01 1.2131241222917582e+01 2.4593319817403970e+01 2 0 0
4452 1 5.3479737849090236e-01 1.1995490497794016e+01 2.7744592406701923e+01 0 1 0
3826 1 2.7487070891039356e-01 5.3498020668542363e+00 2.5952972907200039e+01 0 1 0
2925 1 4.8397717469334145e+00 1.2100036400711071e+01 2.6382063856255858e+01 0 1 0
3051 1 5.7199771918969500e+00 1.1091342648139234e+01 3.0689375785246945e+01 1 1 0
3013 1 5.5313223016634145e+00 7.6775900695533483e+00 3.0747158161957824e+01 1 1 -1
3120 1 2.5465207574554072e-01 3.4030970362626887e+00 3.0924994341194765e+01 1 0 -1
132 2 0.0000000000000000e+00 1.2787731112280996e+01 3.2208039421558903e+00 0 0 0
134 2 1.2305000000000001e+00 1.3498160618518829e+01 3.2208039421558903e+00 0 0 0
169 2 2.4610000000000003e+00 1.2787731112280996e+01 3.2208039421558903e+00 0 0 0
171 2 3.6915000000000004e+00 1.3498160618518829e+01 3.2208039421558903e+00 0 0 0
214 2 4.9220000000000006e+00 1.2787731112280996e+01 3.2208039421558903e+00 0 0 0
216 2 6.1524999999999990e+00 1.3498160618518829e+01 3.2208039421558903e+00 0 0 0
130 2 0.0000000000000000e+00 1.5629449137232333e+01 3.2208039421558903e+00 0 0 0
165 2 1.2305000000000001e+00 1.4919019630994494e+01 3.2208039421558903e+00 0 0 0
167 2 2.4610000000000003e+00 1.5629449137232328e+01 3.2208039421558903e+00 0 0 0
210 2 3.6915000000000004e+00 1.4919019630994494e+01 3.2208039421558903e+00 0 0 0
212 2 4.9220000000000006e+00 1.5629449137232333e+01 3.2208039421558903e+00 0 0 0
257 2 6.1524999999999990e+00 1.4919019630994494e+01 3.2208039421558903e+00 0 0 0
161 2 0.0000000000000000e+00 1.7050308149707998e+01 3.2208039421558903e+00 0 0 0
206 2 2.4610000000000003e+00 1.7050308149707998e+01 3.2208039421558903e+00 0 0 0
253 2 4.9220000000000006e+00 1.7050308149707998e+01 3.2208039421558903e+00 0 0 0
159 2 0.0000000000000000e+00 1.9892026174659328e+01 3.2208039421558903e+00 0 0 0
163 2 1.2305000000000001e+00 1.7760737655945832e+01 3.2208039421558903e+00 0 0 0
202 2 1.2305000000000001e+00 1.9181596668421495e+01 3.2208039421558903e+00 0 0 0
204 2 2.4610000000000003e+00 1.9892026174659328e+01 3.2208039421558903e+00 0 0 0
208 2 3.6914999999999996e+00 1.7760737655945832e+01 3.2208039421558903e+00 0 0 0
249 2 3.6914999999999996e+00 1.9181596668421495e+01 3.2208039421558903e+00 0 0 0
251 2 4.9220000000000006e+00 1.9892026174659328e+01 3.2208039421558903e+00 0 0 0
196 2 0.0000000000000000e+00 2.4154603212086325e+01 3.2208039421558903e+00 0 0 0
198 2 0.0000000000000000e+00 2.1312885187134999e+01 3.2208039421558903e+00 0 0 0
200 2 1.2304999999999993e+00 2.2023314693372832e+01 3.2208039421558903e+00 0 0 0
241 2 1.2304999999999993e+00 2.3444173705848499e+01 3.2208039421558903e+00 0 0 0
243 2 2.4610000000000003e+00 2.4154603212086325e+01 3.2208039421558903e+00 0 0 0
245 2 2.4610000000000003e+00 2.1312885187134995e+01 3.2208039421558903e+00 0 0 0
247 2 3.6914999999999996e+00 2.2023314693372832e+01 3.2208039421558903e+00 0 0 0
288 2 3.6915000000000004e+00 2.3444173705848499e+01 3.2208039421558903e+00 0 0 0
290 2 4.9220000000000006e+00 2.4154603212086325e+01 3.2208039421558903e+00 0 0 0
292 2 4.9220000000000006e+00 2.1312885187134995e+01 3.2208039421558903e+00 0 0 0
294 2 6.1524999999999990e+00 2.2023314693372832e+01 3.2208039421558903e+00 0 0 0
133 2 0.0000000000000000e+00 1.2787731112280996e+01 6.2328165361496577e+00 0 0 0
170 2 2.4610000000000003e+00 1.2787731112280996e+01 6.2328165361496577e+00 0 0 0
442 2 0.0000000000000000e+00 1.2787731112280996e+01 9.2448291301437635e+00 0 0 0
443 2 1.2305000000000001e+00 1.3498160618518829e+01 9.2448291301437635e+00 0 0 0
461 2 2.4610000000000003e+00 1.2787731112280996e+01 9.2448291301437635e+00 0 0 0
462 2 3.6915000000000004e+00 1.3498160618518829e+01 9.2448291301437635e+00 0 0 0
215 2 4.9220000000000006e+00 1.2787731112280996e+01 6.2328165361496577e+00 0 0 0
484 2 4.9220000000000006e+00 1.2787731112280996e+01 9.2448291301437635e+00 0 0 0
485 2 6.1524999999999990e+00 1.3498160618518829e+01 9.2448291301437635e+00 0 0 0
131 2 0.0000000000000000e+00 1.4208590124756663e+01 6.2328165361496577e+00 0 0 0
166 2 1.2305000000000001e+00 1.4919019630994494e+01 6.2328165361496577e+00 0 0 0
168 2 2.4610000000000003e+00 1.4208590124756663e+01 6.2328165361496577e+00 0 0 0
211 2 3.6915000000000004e+00 1.4919019630994494e+01 6.2328165361496577e+00 0 0 0
441 2 0.0000000000000000e+00 1.5629449137232333e+01 9.2448291301437635e+00 0 0 0
459 2 1.2305000000000001e+00 1.4919019630994494e+01 9.2448291301437635e+00 0 0 0
460 2 2.4610000000000003e+00 1.5629449137232328e+01 9.2448291301437635e+00 0 0 0
482 2 3.6915000000000004e+00 1.4919019630994494e+01 9.2448291301437635e+00 0 0 0
213 2 4.9220000000000006e+00 1.4208590124756663e+01 6.2328165361496577e+00 0 0 0
258 2 6.1524999999999990e+00 1.4919019630994494e+01 6.2328165361496577e+00 0 0 0
483 2 4.9220000000000006e+00 1.5629449137232333e+01 9.2448291301437635e+00 0 0 0
506 2 6.1524999999999990e+00 1.4919019630994494e+01 9.2448291301437635e+00 0 0 0
162 2 0.0000000000000000e+00 1.7050308149707998e+01 6.2328165361496577e+00 0 0 0
164 2 1.2305000000000001e+00 1.6339878643470165e+01 6.2328165361496577e+00 0 0 0
207 2 2.4610000000000003e+00 1.7050308149707998e+01 6.2328165361496577e+00 0 0 0
209 2 3.6915000000000004e+00 1.6339878643470165e+01 6.2328165361496577e+00 0 0 0
457 2 0.0000000000000000e+00 1.7050308149707998e+01 9.2448291301437635e+00 0 0 0
480 2 2.4610000000000003e+00 1.7050308149707998e+01 9.2448291301437635e+00 0 0 0
254 2 4.9220000000000006e+00 1.7050308149707998e+01 6.2328165361496577e+00 0 0 0
504 2 4.9220000000000006e+00 1.7050308149707998e+01 9.2448291301437635e+00 0 0 0
160 2 0.0000000000000000e+00 1.8471167162183658e+01 6.2328165361496577e+00 0 0 0
203 2 1.2305000000000001e+00 1.9181596668421495e+01 6.2328165361496577e+00 0 0 0
205 2 2.4610000000000003e+00 1.8471167162183658e+01 6.2328165361496577e+00 0 0 0
250 2 3.6914999999999996e+00 1.9181596668421495e+01 6.2328165361496577e+00 0 0 0
456 2 0.0000000000000000e+00 1.9892026174659328e+01 9.2448291301437635e+00 0 0 0
458 2 1.2305000000000001e+00 1.7760737655945832e+01 9.2448291301437635e+00 0 0 0
478 2 1.2305000000000001e+00 1.9181596668421495e+01 9.2448291301437635e+00 0 0 0
479 2 2.4610000000000003e+00 1.9892026174659328e+01 9.2448291301437635e+00 0 0 0
481 2 3.6914999999999996e+00 1.7760737655945832e+01 9.2448291301437635e+00 0 0 0
502 2 3.6914999999999996e+00 1.9181596668421495e+01 9.2448291301437635e+00 0 0 0
252 2 4.9220000000000006e+00 1.8471167162183658e+01 6.2328165361496577e+00 0 0 0
503 2 4.9220000000000006e+00 1.9892026174659328e+01 9.2448291301437635e+00 0 0 0
201 2 1.2305000000000001e+00 2.0602455680897162e+01 6.2328165361496577e+00 0 0 0
248 2 3.6915000000000004e+00 2.0602455680897162e+01 6.2328165361496577e+00 0 0 0
197 2 0.0000000000000000e+00 2.2733744199610655e+01 6.2328165361496577e+00 0 0 0
199 2 0.0000000000000000e+00 2.1312885187134999e+01 6.2328165361496577e+00 0 0 0
242 2 1.2304999999999993e+00 2.3444173705848499e+01 6.2328165361496577e+00 0 0 0
244 2 2.4610000000000003e+00 2.2733744199610655e+01 6.2328165361496577e+00 0 0 0
246 2 2.4610000000000003e+00 2.1312885187134995e+01 6.2328165361496577e+00 0 0 0
289 2 3.6915000000000004e+00 2.3444173705848499e+01 6.2328165361496577e+00 0 0 0
475 2 0.0000000000000000e+00 2.4154603212086325e+01 9.2448291301437635e+00 0 0 0
476 2 0.0000000000000000e+00 2.1312885187134999e+01 9.2448291301437635e+00 0 0 0
477 2 1.2304999999999993e+00 2.2023314693372832e+01 9.2448291301437635e+00 0 0 0
498 2 1.2304999999999993e+00 2.3444173705848499e+01 9.2448291301437635e+00 0 0 0
499 2 2.4610000000000003e+00 2.4154603212086325e+01 9.2448291301437635e+00 0 0 0
500 2 2.4610000000000003e+00 2.1312885187134995e+01 9.2448291301437635e+00 0 0 0
501 2 3.6914999999999996e+00 2.2023314693372832e+01 9.2448291301437635e+00 0 0 0
522 2 3.6915000000000004e+00 2.3444173705848499e+01 9.2448291301437635e+00 0 0 0
291 2 4.9220000000000006e+00 2.2733744199610655e+01 6.2328165361496577e+00 0 0 0
293 2 4.9220000000000006e+00 2.1312885187134995e+01 6.2328165361496577e+00 0 0 0
523 2 4.9220000000000006e+00 2.4154603212086325e+01 9.2448291301437635e+00 0 0 0
524 2 4.9220000000000006e+00 2.1312885187134995e+01 9.2448291301437635e+00 0 0 0
525 2 6.1524999999999990e+00 2.2023314693372832e+01 9.2448291301437635e+00 0 0 0
3098 1 1.7439227752422291e+00 1.3858018050912765e+01 1.1625572111184271e+01 1 0 0
760 1 4.5107350947572433e+00 1.4635922073292459e+01 1.2371715564965324e+01 1 -2 1
3058 1 5.3311979402193614e+00 1.7550628464785817e+01 1.2155470184850497e+01 0 0 0
1389 1 2.2058808089458952e+00 1.8714702431819564e+01 1.1986497113194352e+01 1 0 -1
2981 1 4.9811974175594926e+00 2.0580381910208253e+01 1.1754243330210336e+01 1 -1 0
1614 1 3.1243984163710024e+00 2.2833448589140371e+01 1.1991460064222627e+01 0 0 0
2234 1 4.7403288625687052e+00 2.0170933116057057e+01 1.4637616983965128e+01 0 0 0
3784 1 1.6428530970252595e+00 1.2685661886279849e+01 1.4308678051579296e+01 0 0 0
4371 1 3.3531655375363818e+00 1.4805835434319814e+01 1.5105506086982414e+01 -1 1 -1
2399 1 1.3959549980186707e+00 1.7122699810942699e+01 1.4425651984864301e+01 1 1 0
828 1 5.3904830955541092e+00 1.2881865176649452e+01 1.6042006408043662e+01 0 0 0
737 1 3.1464052738748447e+00 2.2440088744341853e+01 1.4933336105022867e+01 -1 0 0
2321 1 8.8940411257013285e-01 2.1214941380280095e+01 1.2672248922112233e+01 0 0 -1
778 1 5.8591352756178539e-01 2.2019626926865929e+01 1.5503303474930833e+01 0 0 1
734 1 4.9382651945411302e+00 1.7117988619415989e+01 1.4985985718446225e+01 -1 0 0
696 1 5.1580251839344839e+00 2.4332771107708968e+01 1.4743325597644080e+01 1 0 -1
586 1 2.5144366444808290e+00 1.8912896303211589e+01 1.6179533583002140e+01 0 0 0
4365 1 3.0409097600794062e+00 2.0883554905181747e+01 2.1600531051758814e+01 -1 -1 0
1405 1 3.5850100123816802e+00 1.3075864085959637e+01 1.9821453303753078e+01 0 -1 0
66 1 1.0685403072506361e+00 1.3521571968998526e+01 2.1929763471487199e+01 1 -1 0
2282 1 3.0520520852993758e+00 1.7583053017728549e+01 1.8576669364550259e+01 0 0 0
3114 1 2.3514951294511812e+00 1.8112210186016505e+01 2.1236426902058479e+01 0 0 -1
833 1 2.4467744788010157e+00 1.4996199341628483e+01 1.7987101658995226e+01 1 0 1
3042 1 5.4117728613148479e+00 1.8050198718602381e+01 2.3671627022641275e+01 0 0 0
3786 1 3.5775129039743550e+00 2.3546156236096831e+01 1.7826992768709019e+01 0 0 0
2375 1 6.9323212553474278e-01 2.0468982965032790e+01 1.7939924305898337e+01 0 0 1
4432 1 3.1131628448356867e+00 1.6320075527135874e+01 2.3235143655569367e+01 0 0 -1
3799 1 4.0842497798148027e+00 1.3778789867230316e+01 2.2221216711009777e+01 1 0 0
662 1 1.9203315647821033e+00 2.2126967183431937e+01 1.9420949865886179e+01 0 1 0
1486 1 5.8634528665137147e+00 2.0073966343640294e+01 2.2079672208045388e+01 0 1 0
1401 1 6.0618441223161872e+00 1.2409636797226526e+01 1.8718378868426772e+01 0 1 -1
2252 1 1.5096656019999188e+00 2.0984188766465088e+01 2.4154030090033185e+01 0 1 0
4446 1 5.5464760710831458e+00 1.9040983379565894e+01 1.9480135795810398e+01 -1 1 0
3052 1 9.5312196265375349e-02 1.6113627917857183e+01 2.0482164751412579e+01 0 0 -1
1503 1 5.5264520934476895e+00 2.4460917290636040e+01 2.1700717323822328e+01 1 0 -1
4377 1 1.3181956769971781e+00 2.3736588110389398e+01 2.5240054474116342e+01 1 0 0
745 1 2.1924060988211576e+00 2.4278638427135082e+01 2.7909204849643647e+01 1 0 0
3145 1 5.5243794930313355e+00 1.9240033042448420e+01 2.6039163165556854e+01 2 0 0
597 1 4.0703323676368450e+00 1.9717966307181708e+01 2.8525132744112351e+01 0 0 0
4437 1 1.7997691564163836e+00 1.8407054764960062e+01 2.7637304339639048e+01 1 1 -1
3755 1 4.3278536873655939e+00 2.2601196565843633e+01 2.8180948636607052e+01 1 -1 -1
4419 1 2.5089588549543147e+00 1.3717386807948703e+01 2.7140092086860680e+01 0 1 0
2878 1 9.8368485461278743e-01 1.5028658146860604e+01 2.5133835110293465e+01 2 1 0
1532 1 1.2370054785318116e-01 1.5292326105804294e+01 3.0516753383416567e+01 1 1 -1
4451 1 4.2407303141945212e+00 2.1634220912561986e+01 2.5425025079835265e+01 -1 1 -1
788 1 5.1887388299523494e+00 1.5307904732221452e+01 3.0319198380424279e+01 0 0 0
4476 1 2.5490121880764449e+00 1.4065313500746516e+01 3.0135199031438688e+01 1 -1 0
1483 1 4.6294717928385216e+00 1.8014535106253138e+01 3.0948180865606869e+01 0 1 0
1525 1 5.4531125854837077e+00 1.5016619905206376e+01 2.7627708047018054e+01 1 1 0
691 1 1.4562602865903971e+00 1.8165168133945947e+01 3.0598406522309588e+01 0 1 0
3887 1 5.7974640628808025e+00 2.1056461330623829e+01 3.0888569347793247e+01 0 0 0
2918 1 3.5799930050021280e+00 1.6597536794627384e+01 2.6175520534656997e+01 -1 0 0
2863 1 9.4199152283440987e-02 1.6097457320075392e+01 2.7742319826134484e+01 1 -1 0
4398 1 4.3708466056772526e+00 2.3960506563454658e+01 3.0919374978110650e+01 0 0 0
891 2 0.0000000000000000e+00 2.5575462224561992e+01 3.2208039421558903e+00 0 0 0
893 2 1.2305000000000001e+00 2.6285891730799833e+01 3.2208039421558903e+00 0 0 0
901 2 1.2305000000000010e+00 2.7706750743275496e+01 3.2208039421558903e+00 0 0 0
905 2 2.4610000000000003e+00 2.5575462224561992e+01 3.2208039421558903e+00 0 0 0
907 2 3.6914999999999991e+00 2.6285891730799833e+01 3.2208039421558903e+00 0 0 0
923 2 3.6914999999999996e+00 2.7706750743275496e+01 3.2208039421558903e+00 0 0 0
927 2 4.9220000000000006e+00 2.5575462224561992e+01 3.2208039421558903e+00 0 0 0
953 2 6.1524999999999990e+00 2.7706750743275496e+01 3.2208039421558903e+00 0 0 0
889 2 0.0000000000000000e+00 2.8417180249513333e+01 3.2208039421558903e+00 0 0 0
903 2 2.4610000000000003e+00 2.8417180249513326e+01 3.2208039421558903e+00 0 0 0
925 2 4.9220000000000006e+00 2.8417180249513336e+01 3.2208039421558903e+00 0 0 0
897 2 0.0000000000000000e+00 2.9838039261988989e+01 3.2208039421558903e+00 0 0 0
899 2 1.2304999999999993e+00 3.0548468768226829e+01 3.2208039421558903e+00 0 0 0
919 2 2.4610000000000003e+00 2.9838039261988989e+01 3.2208039421558903e+00 0 0 0
921 2 3.6915000000000004e+00 3.0548468768226829e+01 3.2208039421558903e+00 0 0 0
949 2 4.9220000000000006e+00 2.9838039261988989e+01 3.2208039421558903e+00 0 0 0
895 2 0.0000000000000000e+00 3.2679757286940330e+01 3.2208039421558903e+00 0 0 0
915 2 1.2304999999999993e+00 3.1969327780702493e+01 3.2208039421558903e+00 0 0 0
945 2 3.6914999999999996e+00 3.1969327780702493e+01 3.2208039421558903e+00 0 0 0
911 2 0.0000000000000000e+00 3.4100616299415996e+01 3.2208039421558903e+00 0 0 0
913 2 1.2305000000000010e+00 3.4811045805653833e+01 3.2208039421558903e+00 0 0 0
917 2 2.4610000000000003e+00 3.2679757286940337e+01 3.2208039421558903e+00 0 0 0
941 2 2.4609999999999985e+00 3.4100616299415996e+01 3.2208039421558903e+00 0 0 0
943 2 3.6915000000000018e+00 3.4811045805653833e+01 3.2208039421558903e+00 0 0 0
947 2 4.9220000000000015e+00 3.2679757286940337e+01 3.2208039421558903e+00 0 0 0
979 2 4.9220000000000006e+00 3.4100616299415996e+01 3.2208039421558903e+00 0 0 0
937 2 1.2304999999999993e+00 3.6231904818129486e+01 3.2208039421558903e+00 0 0 0
975 2 3.6914999999999996e+00 3.6231904818129486e+01 3.2208039421558903e+00 0 0 0
890 2 0.0000000000000000e+00 2.6996321237037659e+01 6.2328165361496577e+00 0 0 0
892 2 0.0000000000000000e+00 2.5575462224561992e+01 6.2328165361496577e+00 0 0 0
894 2 1.2305000000000001e+00 2.4865032718324155e+01 6.2328165361496577e+00 0 0 0
902 2 1.2305000000000010e+00 2.7706750743275496e+01 6.2328165361496577e+00 0 0 0
904 2 2.4610000000000003e+00 2.6996321237037659e+01 6.2328165361496577e+00 0 0 0
906 2 2.4610000000000003e+00 2.5575462224561992e+01 6.2328165361496577e+00 0 0 0
908 2 3.6914999999999996e+00 2.4865032718324166e+01 6.2328165361496577e+00 0 0 0
924 2 3.6914999999999996e+00 2.7706750743275496e+01 6.2328165361496577e+00 0 0 0
1205 2 0.0000000000000000e+00 2.5575462224561992e+01 9.2448291301437635e+00 0 0 0
1206 2 1.2305000000000001e+00 2.6285891730799833e+01 9.2448291301437635e+00 0 0 0
1210 2 1.2305000000000010e+00 2.7706750743275496e+01 9.2448291301437635e+00 0 0 0
1212 2 2.4610000000000003e+00 2.5575462224561992e+01 9.2448291301437635e+00 0 0 0
1213 2 3.6914999999999991e+00 2.6285891730799833e+01 9.2448291301437635e+00 0 0 0
1221 2 3.6914999999999996e+00 2.7706750743275496e+01 9.2448291301437635e+00 0 0 0
926 2 4.9220000000000006e+00 2.6996321237037659e+01 6.2328165361496577e+00 0 0 0
928 2 4.9220000000000006e+00 2.5575462224561992e+01 6.2328165361496577e+00 0 0 0
930 2 6.1524999999999990e+00 2.4865032718324155e+01 6.2328165361496577e+00 0 0 0
954 2 6.1524999999999990e+00 2.7706750743275496e+01 6.2328165361496577e+00 0 0 0
1223 2 4.9220000000000006e+00 2.5575462224561992e+01 9.2448291301437635e+00 0 0 0
1236 2 6.1524999999999990e+00 2.7706750743275496e+01 9.2448291301437635e+00 0 0 0
1204 2 0.0000000000000000e+00 2.8417180249513333e+01 9.2448291301437635e+00 0 0 0
1211 2 2.4610000000000003e+00 2.8417180249513326e+01 9.2448291301437635e+00 0 0 0
1222 2 4.9220000000000006e+00 2.8417180249513336e+01 9.2448291301437635e+00 0 0 0
896 2 0.0000000000000000e+00 3.1258898274464656e+01 6.2328165361496577e+00 0 0 0
898 2 0.0000000000000000e+00 2.9838039261988989e+01 6.2328165361496577e+00 0 0 0
900 2 1.2304999999999993e+00 2.9127609755751163e+01 6.2328165361496577e+00 0 0 0
918 2 2.4609999999999985e+00 3.1258898274464656e+01 6.2328165361496577e+00 0 0 0
920 2 2.4610000000000003e+00 2.9838039261988989e+01 6.2328165361496577e+00 0 0 0
922 2 3.6914999999999991e+00 2.9127609755751152e+01 6.2328165361496577e+00 0 0 0
1208 2 0.0000000000000000e+00 2.9838039261988989e+01 9.2448291301437635e+00 0 0 0
1209 2 1.2304999999999993e+00 3.0548468768226829e+01 9.2448291301437635e+00 0 0 0
1219 2 2.4610000000000003e+00 2.9838039261988989e+01 9.2448291301437635e+00 0 0 0
1220 2 3.6915000000000004e+00 3.0548468768226829e+01 9.2448291301437635e+00 0 0 0
948 2 4.9219999999999979e+00 3.1258898274464656e+01 6.2328165361496577e+00 0 0 0
950 2 4.9220000000000006e+00 2.9838039261988989e+01 6.2328165361496577e+00 0 0 0
952 2 6.1524999999999981e+00 2.9127609755751152e+01 6.2328165361496577e+00 0 0 0
1234 2 4.9220000000000006e+00 2.9838039261988989e+01 9.2448291301437635e+00 0 0 0
916 2 1.2304999999999993e+00 3.1969327780702493e+01 6.2328165361496577e+00 0 0 0
946 2 3.6914999999999996e+00 3.1969327780702493e+01 6.2328165361496577e+00 0 0 0