LAMMPS data file via write_data, version 16 Mar 2018, timestep = 8000000

4545 atoms
2 atom types

0.0000000000000000e+00 4.9219999999999999e+01 xlo xhi
0.0000000000000000e+00 4.9019635930410494e+01 ylo yhi
6.2556119739298310e-01 3.3009778589129489e+01 zlo zhi

Masses

1 18.015
2 12.01

Atoms # atomic

91 2 0.0000000000000000e+00 2.8417180249513345e+00 2.2401823937492256e+00 0 0 0
93 2 0.0000000000000000e+00 0.0000000000000000e+00 2.2401823937492256e+00 0 0 0
95 2 1.2305000000000001e+00 7.1042950623783474e-01 2.2401823937492256e+00 0 0 0
102 2 1.2305000000000001e+00 2.1312885187134998e+00 2.2401823937492256e+00 0 0 0
104 2 2.4610000000000003e+00 2.8417180249513345e+00 2.2401823937492256e+00 0 0 0
106 2 2.4610000000000003e+00 0.0000000000000000e+00 2.2401823937492256e+00 0 0 0
108 2 3.6915000000000004e+00 7.1042950623783474e-01 2.2401823937492256e+00 0 0 0
123 2 3.6914999999999996e+00 2.1312885187134998e+00 2.2401823937492256e+00 0 0 0
125 2 4.9220000000000006e+00 2.8417180249513332e+00 2.2401823937492256e+00 0 0 0
127 2 4.9220000000000006e+00 0.0000000000000000e+00 2.2401823937492256e+00 0 0 0
98 2 0.0000000000000000e+00 4.2625770374269996e+00 2.2401823937492256e+00 0 0 0
100 2 1.2305000000000001e+00 4.9730065436648339e+00 2.2401823937492256e+00 0 0 0
115 2 1.2305000000000001e+00 6.3938655561404980e+00 2.2401823937492256e+00 0 0 0
119 2 2.4610000000000003e+00 4.2625770374269996e+00 2.2401823937492256e+00 0 0 0
121 2 3.6914999999999996e+00 4.9730065436648339e+00 2.2401823937492256e+00 0 0 0
144 2 3.6914999999999996e+00 6.3938655561404980e+00 2.2401823937492256e+00 0 0 0
148 2 4.9220000000000006e+00 4.2625770374269978e+00 2.2401823937492256e+00 0 0 0
96 2 0.0000000000000000e+00 7.1042950623783341e+00 2.2401823937492256e+00 0 0 0
117 2 2.4610000000000003e+00 7.1042950623783341e+00 2.2401823937492256e+00 0 0 0
146 2 4.9220000000000006e+00 7.1042950623783341e+00 2.2401823937492256e+00 0 0 0
111 2 0.0000000000000000e+00 8.5251540748539991e+00 2.2401823937492256e+00 0 0 0
113 2 1.2305000000000001e+00 9.2355835810918343e+00 2.2401823937492256e+00 0 0 0
140 2 2.4610000000000003e+00 8.5251540748539991e+00 2.2401823937492256e+00 0 0 0
142 2 3.6915000000000004e+00 9.2355835810918343e+00 2.2401823937492256e+00 0 0 0
177 2 4.9220000000000006e+00 8.5251540748539991e+00 2.2401823937492256e+00 0 0 0
109 2 0.0000000000000000e+00 1.1366872099805333e+01 2.2401823937492256e+00 0 0 0
136 2 1.2305000000000001e+00 1.0656442593567498e+01 2.2401823937492256e+00 0 0 0
138 2 2.4610000000000003e+00 1.1366872099805333e+01 2.2401823937492256e+00 0 0 0
173 2 3.6914999999999996e+00 1.0656442593567499e+01 2.2401823937492256e+00 0 0 0
175 2 4.9220000000000006e+00 1.1366872099805333e+01 2.2401823937492256e+00 0 0 0
92 2 0.0000000000000000e+00 1.4208590124756650e+00 5.4694247864603804e+00 0 0 0
94 2 0.0000000000000000e+00 0.0000000000000000e+00 5.4694247864603804e+00 0 0 0
103 2 1.2305000000000001e+00 2.1312885187134998e+00 5.4694247864603804e+00 0 0 0
105 2 2.4610000000000003e+00 1.4208590124756650e+00 5.4694247864603804e+00 0 0 0
107 2 2.4610000000000003e+00 0.0000000000000000e+00 5.4694247864603804e+00 0 0 0
124 2 3.6914999999999996e+00 2.1312885187134998e+00 5.4694247864603804e+00 0 0 0
420 2 0.0000000000000000e+00 2.8417180249513345e+00 8.6986671791761161e+00 0 0 0
421 2 0.0000000000000000e+00 0.0000000000000000e+00 8.6986671791761161e+00 0 0 0
422 2 1.2305000000000001e+00 7.1042950623783474e-01 8.6986671791761161e+00 0 0 0
426 2 1.2305000000000001e+00 2.1312885187134998e+00 8.6986671791761161e+00 0 0 0
427 2 2.4610000000000003e+00 2.8417180249513345e+00 8.6986671791761161e+00 0 0 0
428 2 2.4610000000000003e+00 0.0000000000000000e+00 8.6986671791761161e+00 0 0 0
429 2 3.6915000000000004e+00 7.1042950623783474e-01 8.6986671791761161e+00 0 0 0
437 2 3.6914999999999996e+00 2.1312885187134998e+00 8.6986671791761161e+00 0 0 0
126 2 4.9220000000000006e+00 1.4208590124756650e+00 5.4694247864603804e+00 0 0 0
128 2 4.9220000000000006e+00 0.0000000000000000e+00 5.4694247864603804e+00 0 0 0
438 2 4.9220000000000006e+00 2.8417180249513332e+00 8.6986671791761161e+00 0 0 0
439 2 4.9220000000000006e+00 0.0000000000000000e+00 8.6986671791761161e+00 0 0 0
101 2 1.2305000000000001e+00 3.5521475311891644e+00 5.4694247864603804e+00 0 0 0
122 2 3.6914999999999996e+00 3.5521475311891644e+00 5.4694247864603804e+00 0 0 0
97 2 0.0000000000000000e+00 5.6834360499026637e+00 5.4694247864603804e+00 0 0 0
99 2 0.0000000000000000e+00 4.2625770374269996e+00 5.4694247864603804e+00 0 0 0
116 2 1.2305000000000001e+00 6.3938655561404980e+00 5.4694247864603804e+00 0 0 0
118 2 2.4610000000000003e+00 5.6834360499026637e+00 5.4694247864603804e+00 0 0 0
120 2 2.4610000000000003e+00 4.2625770374269996e+00 5.4694247864603804e+00 0 0 0
145 2 3.6914999999999996e+00 6.3938655561404980e+00 5.4694247864603804e+00 0 0 0
424 2 0.0000000000000000e+00 4.2625770374269996e+00 8.6986671791761161e+00 0 0 0
425 2 1.2305000000000001e+00 4.9730065436648339e+00 8.6986671791761161e+00 0 0 0
433 2 1.2305000000000001e+00 6.3938655561404980e+00 8.6986671791761161e+00 0 0 0
435 2 2.4610000000000003e+00 4.2625770374269996e+00 8.6986671791761161e+00 0 0 0
436 2 3.6914999999999996e+00 4.9730065436648339e+00 8.6986671791761161e+00 0 0 0
448 2 3.6914999999999996e+00 6.3938655561404980e+00 8.6986671791761161e+00 0 0 0
147 2 4.9220000000000006e+00 5.6834360499026637e+00 5.4694247864603804e+00 0 0 0
149 2 4.9220000000000006e+00 4.2625770374269978e+00 5.4694247864603804e+00 0 0 0
450 2 4.9220000000000006e+00 4.2625770374269978e+00 8.6986671791761161e+00 0 0 0
114 2 1.2305000000000001e+00 7.8147245686161639e+00 5.4694247864603804e+00 0 0 0
143 2 3.6914999999999996e+00 7.8147245686161639e+00 5.4694247864603804e+00 0 0 0
423 2 0.0000000000000000e+00 7.1042950623783341e+00 8.6986671791761161e+00 0 0 0
434 2 2.4610000000000003e+00 7.1042950623783341e+00 8.6986671791761161e+00 0 0 0
449 2 4.9220000000000006e+00 7.1042950623783341e+00 8.6986671791761161e+00 0 0 0
110 2 0.0000000000000000e+00 9.9460130873296642e+00 5.4694247864603804e+00 0 0 0
112 2 0.0000000000000000e+00 8.5251540748539991e+00 5.4694247864603804e+00 0 0 0
139 2 2.4610000000000003e+00 9.9460130873296642e+00 5.4694247864603804e+00 0 0 0
141 2 2.4610000000000003e+00 8.5251540748539991e+00 5.4694247864603804e+00 0 0 0
431 2 0.0000000000000000e+00 8.5251540748539991e+00 8.6986671791761161e+00 0 0 0
432 2 1.2305000000000001e+00 9.2355835810918343e+00 8.6986671791761161e+00 0 0 0
446 2 2.4610000000000003e+00 8.5251540748539991e+00 8.6986671791761161e+00 0 0 0
447 2 3.6915000000000004e+00 9.2355835810918343e+00 8.6986671791761161e+00 0 0 0
176 2 4.9220000000000006e+00 9.9460130873296642e+00 5.4694247864603804e+00 0 0 0
178 2 4.9220000000000006e+00 8.5251540748539991e+00 5.4694247864603804e+00 0 0 0
465 2 4.9220000000000006e+00 8.5251540748539991e+00 8.6986671791761161e+00 0 0 0
135 2 1.2305000000000001e+00 1.2077301606043163e+01 5.4694247864603804e+00 0 0 0
137 2 1.2305000000000001e+00 1.0656442593567498e+01 5.4694247864603804e+00 0 0 0
172 2 3.6914999999999996e+00 1.2077301606043163e+01 5.4694247864603804e+00 0 0 0
174 2 3.6914999999999996e+00 1.0656442593567499e+01 5.4694247864603804e+00 0 0 0
430 2 0.0000000000000000e+00 1.1366872099805333e+01 8.6986671791761161e+00 0 0 0
444 2 1.2305000000000001e+00 1.0656442593567498e+01 8.6986671791761161e+00 0 0 0
445 2 2.4610000000000003e+00 1.1366872099805333e+01 8.6986671791761161e+00 0 0 0
463 2 3.6914999999999996e+00 1.0656442593567499e+01 8.6986671791761161e+00 0 0 0
464 2 4.9220000000000006e+00 1.1366872099805333e+01 8.6986671791761161e+00 0 0 0
3801 1 2.2130621517396629e+00 2.4843301291875695e+00 1.1530978370100415e+01 1 2 -1
1412 1 2.5819059703307041e+00 7.7725395356090665e+00 1.4190527688599330e+01 -2 3 0
4418 1 3.8472951504459827e+00 4.9828718895357023e+00 1.1251373256221260e+01 2 -2 -1
2913 1 2.5733213201004137e+00 7.5548844056363427e+00 1.1210850421041469e+01 3 1 0
1377 1 4.5984720634568612e+00 9.4097706734539983e+00 1.1276937622154664e+01 1 0 0
3784 1 2.1300545684104377e+00 2.6964433434970281e+00 1.4355716596393886e+01 5 1 0
4505 1 3.8325440229848864e+00 5.1891723381257870e+00 1.4229643468750856e+01 -3 3 0
1658 1 4.7418983689085445e+00 9.5088561868041772e+00 1.4121415522834623e+01 0 1 0
839 1 5.6074694543993564e+00 4.3027228751836066e+00 1.6698528535400705e+01 2 3 0
1460 1 3.7002400552706094e+00 1.8885876873543594e-01 1.4199018615437948e+01 -6 2 -1
3625 1 3.8972380780943405e+00 2.3734197176896217e+00 1.7913198236209780e+01 2 2 0
4430 1 3.9526623331048842e+00 2.2441430188473448e+00 2.0610097558360849e+01 3 -2 1
4508 1 4.8825403544434209e+00 9.4199585727230826e+00 2.1652312413600313e+01 0 -2 0
788 1 5.2281695085702520e+00 6.7397009982420819e+00 1.8135878096821383e+01 -5 -3 0
755 1 6.7285039780235734e-01 5.7867631788161829e+00 1.7535661741581212e+01 5 4 1
663 1 7.3833594892612509e-01 5.4997171247644818e+00 2.0610560179896879e+01 -4 1 0
4369 1 4.4783581352595974e+00 1.2098348997366847e+01 1.7685025056173600e+01 2 -1 0
706 1 2.4807684070740370e+00 1.0352766545930127e+01 1.7943293722881819e+01 4 2 0
3665 1 2.2103775473467202e+00 2.4285412483419061e-01 2.1489655328223151e+01 -2 5 -1
3728 1 2.8430757457037115e-01 8.2879414763889585e+00 2.3928878294204516e+01 2 2 1
2359 1 1.6021292911764677e+00 1.9384106869677573e-01 2.4050856071558201e+01 6 2 -1
2222 1 4.4843038230902355e-01 8.2219508665085304e+00 2.1274412932256393e+01 1 0 -1
3786 1 2.4186106021013876e+00 9.7481236440067836e+00 2.0611439889639623e+01 5 1 0
4358 1 5.2248704140296400e+00 6.4720342036167748e+00 2.1093602817385939e+01 1 1 0
3734 1 5.0034563703292516e+00 9.5417195280409182e+00 2.4675139543284430e+01 0 2 0
79 1 3.1696737113187750e+00 4.7869842520454942e+00 2.4177293739607890e+01 -4 -3 0
3838 1 3.0936022035960216e+00 4.5829684284484085e+00 2.1444812117820238e+01 -1 2 0
834 1 2.6941724368848896e+00 7.7284255151061503e+00 1.7086808113292214e+01 -1 -1 0
4510 1 1.4231772653929058e+00 3.1920874036984928e+00 1.7024621539462903e+01 1 -2 0
3722 1 3.6010448050772177e+00 2.0307056854380798e+00 2.4832642982676536e+01 -4 0 1
1455 1 3.8748612450369264e+00 1.7608395013511111e+00 2.7669400841666924e+01 5 3 0
3006 1 2.4186927259667037e+00 1.0097356601717584e+01 2.5073555315548443e+01 1 4 0
3901 1 9.6918712870020174e-01 5.2994693663413299e+00 2.7799836865087475e+01 -1 -3 0
1556 1 5.3323559513145167e+00 6.4737126364105171e+00 2.7924518259992993e+01 -1 0 -1
675 1 8.0163703609463743e-01 5.6915485446174197e+00 2.5035362503819822e+01 2 0 -1
1348 1 4.0713538610771618e+00 1.2206511498782538e+01 3.1569645062614313e+01 0 0 0
1401 1 2.6580415312198569e+00 9.8391443443572211e+00 2.7892347495469476e+01 4 0 -1
2924 1 5.3784954092012933e+00 6.7332700979843354e+00 2.5161824103244914e+01 -2 4 0
4500 1 1.5711444088783573e+00 2.5422417038435063e+00 2.8837641942448712e+01 -1 0 0
827 1 1.7412462947252914e+00 2.6995315774690010e+00 3.1526100713267070e+01 0 3 0
2338 1 4.2558421128462847e+00 1.9663583819856807e+00 3.2129018588833048e+01 2 -1 0
618 1 5.8392659795103956e+00 3.8309991707501596e+00 2.8537989909492214e+01 2 -3 0
3840 1 5.4061913398389070e+00 6.2973186424236145e+00 3.1995138715411247e+01 1 -1 1
3751 1 2.9771860115644353e+00 7.1100929418385261e+00 2.8745850723862375e+01 0 3 0
2286 1 9.2911848051922263e-01 5.3574970833399833e+00 3.2121354354286595e+01 -1 -2 -1
2928 1 2.8205755537183719e+00 7.2226453923651723e+00 3.1478101958091095e+01 -3 1 0
3813 1 2.2086546092310928e+00 1.0021765351082371e+01 3.2025729877062098e+01 -1 -1 -1
3618 1 4.4389074670944204e+00 1.2048318237596137e+01 2.8693652003712657e+01 0 -1 -1
132 2 0.0000000000000000e+00 1.2787731112280996e+01 2.2401823937492256e+00 0 0 0
134 2 1.2305000000000001e+00 1.3498160618518829e+01 2.2401823937492256e+00 0 0 0
169 2 2.4610000000000003e+00 1.2787731112280996e+01 2.2401823937492256e+00 0 0 0
171 2 3.6915000000000004e+00 1.3498160618518829e+01 2.2401823937492256e+00 0 0 0
214 2 4.9220000000000006e+00 1.2787731112280996e+01 2.2401823937492256e+00 0 0 0
216 2 6.1524999999999990e+00 1.3498160618518829e+01 2.2401823937492256e+00 0 0 0
130 2 0.0000000000000000e+00 1.5629449137232333e+01 2.2401823937492256e+00 0 0 0
165 2 1.2305000000000001e+00 1.4919019630994494e+01 2.2401823937492256e+00 0 0 0
167 2 2.4610000000000003e+00 1.5629449137232328e+01 2.2401823937492256e+00 0 0 0
210 2 3.6915000000000004e+00 1.4919019630994494e+01 2.2401823937492256e+00 0 0 0
212 2 4.9220000000000006e+00 1.5629449137232333e+01 2.2401823937492256e+00 0 0 0
257 2 6.1524999999999990e+00 1.4919019630994494e+01 2.2401823937492256e+00 0 0 0
161 2 0.0000000000000000e+00 1.7050308149707998e+01 2.2401823937492256e+00 0 0 0
206 2 2.4610000000000003e+00 1.7050308149707998e+01 2.2401823937492256e+00 0 0 0
253 2 4.9220000000000006e+00 1.7050308149707998e+01 2.2401823937492256e+00 0 0 0
159 2 0.0000000000000000e+00 1.9892026174659328e+01 2.2401823937492256e+00 0 0 0
163 2 1.2305000000000001e+00 1.7760737655945832e+01 2.2401823937492256e+00 0 0 0
202 2 1.2305000000000001e+00 1.9181596668421495e+01 2.2401823937492256e+00 0 0 0
204 2 2.4610000000000003e+00 1.9892026174659328e+01 2.2401823937492256e+00 0 0 0
208 2 3.6914999999999996e+00 1.7760737655945832e+01 2.2401823937492256e+00 0 0 0
249 2 3.6914999999999996e+00 1.9181596668421495e+01 2.2401823937492256e+00 0 0 0
251 2 4.9220000000000006e+00 1.9892026174659328e+01 2.2401823937492256e+00 0 0 0
196 2 0.0000000000000000e+00 2.4154603212086325e+01 2.2401823937492256e+00 0 0 0
198 2 0.0000000000000000e+00 2.1312885187134999e+01 2.2401823937492256e+00 0 0 0
200 2 1.2304999999999993e+00 2.2023314693372832e+01 2.2401823937492256e+00 0 0 0
241 2 1.2304999999999993e+00 2.3444173705848499e+01 2.2401823937492256e+00 0 0 0
243 2 2.4610000000000003e+00 2.4154603212086325e+01 2.2401823937492256e+00 0 0 0
245 2 2.4610000000000003e+00 2.1312885187134995e+01 2.2401823937492256e+00 0 0 0
247 2 3.6914999999999996e+00 2.2023314693372832e+01 2.2401823937492256e+00 0 0 0
288 2 3.6915000000000004e+00 2.3444173705848499e+01 2.2401823937492256e+00 0 0 0
290 2 4.9220000000000006e+00 2.4154603212086325e+01 2.2401823937492256e+00 0 0 0
292 2 4.9220000000000006e+00 2.1312885187134995e+01 2.2401823937492256e+00 0 0 0
294 2 6.1524999999999990e+00 2.2023314693372832e+01 2.2401823937492256e+00 0 0 0
133 2 0.0000000000000000e+00 1.2787731112280996e+01 5.4694247864603804e+00 0 0 0
170 2 2.4610000000000003e+00 1.2787731112280996e+01 5.4694247864603804e+00 0 0 0
442 2 0.0000000000000000e+00 1.2787731112280996e+01 8.6986671791761161e+00 0 0 0
443 2 1.2305000000000001e+00 1.3498160618518829e+01 8.6986671791761161e+00 0 0 0
461 2 2.4610000000000003e+00 1.2787731112280996e+01 8.6986671791761161e+00 0 0 0
462 2 3.6915000000000004e+00 1.3498160618518829e+01 8.6986671791761161e+00 0 0 0
215 2 4.9220000000000006e+00 1.2787731112280996e+01 5.4694247864603804e+00 0 0 0
484 2 4.9220000000000006e+00 1.2787731112280996e+01 8.6986671791761161e+00 0 0 0
485 2 6.1524999999999990e+00 1.3498160618518829e+01 8.6986671791761161e+00 0 0 0
131 2 0.0000000000000000e+00 1.4208590124756663e+01 5.4694247864603804e+00 0 0 0
166 2 1.2305000000000001e+00 1.4919019630994494e+01 5.4694247864603804e+00 0 0 0
168 2 2.4610000000000003e+00 1.4208590124756663e+01 5.4694247864603804e+00 0 0 0
211 2 3.6915000000000004e+00 1.4919019630994494e+01 5.4694247864603804e+00 0 0 0
441 2 0.0000000000000000e+00 1.5629449137232333e+01 8.6986671791761161e+00 0 0 0
459 2 1.2305000000000001e+00 1.4919019630994494e+01 8.6986671791761161e+00 0 0 0
460 2 2.4610000000000003e+00 1.5629449137232328e+01 8.6986671791761161e+00 0 0 0
482 2 3.6915000000000004e+00 1.4919019630994494e+01 8.6986671791761161e+00 0 0 0
213 2 4.9220000000000006e+00 1.4208590124756663e+01 5.4694247864603804e+00 0 0 0
258 2 6.1524999999999990e+00 1.4919019630994494e+01 5.4694247864603804e+00 0 0 0
483 2 4.9220000000000006e+00 1.5629449137232333e+01 8.6986671791761161e+00 0 0 0
506 2 6.1524999999999990e+00 1.4919019630994494e+01 8.6986671791761161e+00 0 0 0
162 2 0.0000000000000000e+00 1.7050308149707998e+01 5.4694247864603804e+00 0 0 0
164 2 1.2305000000000001e+00 1.6339878643470165e+01 5.4694247864603804e+00 0 0 0
207 2 2.4610000000000003e+00 1.7050308149707998e+01 5.4694247864603804e+00 0 0 0
209 2 3.6915000000000004e+00 1.6339878643470165e+01 5.4694247864603804e+00 0 0 0
457 2 0.0000000000000000e+00 1.7050308149707998e+01 8.6986671791761161e+00 0 0 0
480 2 2.4610000000000003e+00 1.7050308149707998e+01 8.6986671791761161e+00 0 0 0
254 2 4.9220000000000006e+00 1.7050308149707998e+01 5.4694247864603804e+00 0 0 0
504 2 4.9220000000000006e+00 1.7050308149707998e+01 8.6986671791761161e+00 0 0 0
160 2 0.0000000000000000e+00 1.8471167162183658e+01 5.4694247864603804e+00 0 0 0
203 2 1.2305000000000001e+00 1.9181596668421495e+01 5.4694247864603804e+00 0 0 0
205 2 2.4610000000000003e+00 1.8471167162183658e+01 5.4694247864603804e+00 0 0 0
250 2 3.6914999999999996e+00 1.9181596668421495e+01 5.4694247864603804e+00 0 0 0
456 2 0.0000000000000000e+00 1.9892026174659328e+01 8.6986671791761161e+00 0 0 0
458 2 1.2305000000000001e+00 1.7760737655945832e+01 8.6986671791761161e+00 0 0 0
478 2 1.2305000000000001e+00 1.9181596668421495e+01 8.6986671791761161e+00 0 0 0
479 2 2.4610000000000003e+00 1.9892026174659328e+01 8.6986671791761161e+00 0 0 0
481 2 3.6914999999999996e+00 1.7760737655945832e+01 8.6986671791761161e+00 0 0 0
502 2 3.6914999999999996e+00 1.9181596668421495e+01 8.6986671791761161e+00 0 0 0
252 2 4.9220000000000006e+00 1.8471167162183658e+01 5.4694247864603804e+00 0 0 0
503 2 4.9220000000000006e+00 1.9892026174659328e+01 8.6986671791761161e+00 0 0 0
201 2 1.2305000000000001e+00 2.0602455680897162e+01 5.4694247864603804e+00 0 0 0
248 2 3.6915000000000004e+00 2.0602455680897162e+01 5.4694247864603804e+00 0 0 0
197 2 0.0000000000000000e+00 2.2733744199610655e+01 5.4694247864603804e+00 0 0 0
199 2 0.0000000000000000e+00 2.1312885187134999e+01 5.4694247864603804e+00 0 0 0
242 2 1.2304999999999993e+00 2.3444173705848499e+01 5.4694247864603804e+00 0 0 0
244 2 2.4610000000000003e+00 2.2733744199610655e+01 5.4694247864603804e+00 0 0 0
246 2 2.4610000000000003e+00 2.1312885187134995e+01 5.4694247864603804e+00 0 0 0
289 2 3.6915000000000004e+00 2.3444173705848499e+01 5.4694247864603804e+00 0 0 0
475 2 0.0000000000000000e+00 2.4154603212086325e+01 8.6986671791761161e+00 0 0 0
476 2 0.0000000000000000e+00 2.1312885187134999e+01 8.6986671791761161e+00 0 0 0
477 2 1.2304999999999993e+00 2.2023314693372832e+01 8.6986671791761161e+00 0 0 0
498 2 1.2304999999999993e+00 2.3444173705848499e+01 8.6986671791761161e+00 0 0 0
499 2 2.4610000000000003e+00 2.4154603212086325e+01 8.6986671791761161e+00 0 0 0
500 2 2.4610000000000003e+00 2.1312885187134995e+01 8.6986671791761161e+00 0 0 0
501 2 3.6914999999999996e+00 2.2023314693372832e+01 8.6986671791761161e+00 0 0 0
522 2 3.6915000000000004e+00 2.3444173705848499e+01 8.6986671791761161e+00 0 0 0
291 2 4.9220000000000006e+00 2.2733744199610655e+01 5.4694247864603804e+00 0 0 0
293 2 4.9220000000000006e+00 2.1312885187134995e+01 5.4694247864603804e+00 0 0 0
523 2 4.9220000000000006e+00 2.4154603212086325e+01 8.6986671791761161e+00 0 0 0
524 2 4.9220000000000006e+00 2.1312885187134995e+01 8.6986671791761161e+00 0 0 0
525 2 6.1524999999999990e+00 2.2023314693372832e+01 8.6986671791761161e+00 0 0 0
2975 1 1.4133155334414926e+00 1.3472422147673710e+01 1.1112724943220345e+01 1 -4 0
667 1 5.9144375819670572e+00 1.7458060727370135e+01 1.1357516173575787e+01 1 1 1
4479 1 4.6082370537565591e+00 2.3674304388143952e+01 1.4246280262312132e+01 -4 2 0
3098 1 1.0930970942177332e+00 1.6633942017281804e+01 1.1401327303523107e+01 0 0 0
4432 1 2.8224759629781482e-01 2.2629011196885646e+01 1.1426149604126083e+01 0 -2 -1
3763 1 3.4515215322604060e+00 1.8390769251711600e+01 1.1272101096724693e+01 -2 0 -1
2300 1 2.6849996597614614e+00 2.1222579650056662e+01 1.1554651329017553e+01 2 -4 -1
2340 1 4.6489518068346340e+00 2.3510300573849477e+01 1.1211549834497903e+01 4 1 1
3611 1 1.5763609062714596e+00 1.3459408408333424e+01 1.4246776255936316e+01 -1 -3 0
1558 1 5.7732553442612282e+00 1.7369278262887352e+01 1.4356221972192223e+01 0 1 0
2920 1 2.9022640067711851e+00 2.1335191349785728e+01 1.4556489567358323e+01 0 3 0
2246 1 3.3116031504994128e+00 1.8396652257695365e+01 1.3967114512742135e+01 7 0 0
2145 1 4.4090645848334162e+00 1.2315366301062991e+01 1.4506160258161676e+01 5 -3 -1
2120 1 1.0938081794497034e+00 1.6659766356359270e+01 1.4039935762894133e+01 1 0 0
3880 1 3.9843727748790023e+00 1.2389661473763987e+01 1.1571630164067011e+01 -1 3 0
3694 1 3.4948268230269686e-01 2.2762959888472519e+01 1.4374833215583449e+01 1 0 0
1541 1 6.0785957301010969e+00 1.4525355657662535e+01 1.1508961099683916e+01 0 -1 0
3825 1 3.7532369036619162e+00 1.4832413566112134e+01 1.7938606881933403e+01 -1 -1 1
14 1 3.7710599930609474e+00 1.4297217677667225e+01 2.0817962580842636e+01 1 2 0
871 1 6.1496137414189356e+00 1.5910650953715029e+01 1.6916791888549007e+01 1 2 1
3837 1 1.7713808433366069e+00 1.7739295582562178e+01 1.8121409119310936e+01 -3 -4 -1
589 1 5.8250949404626784e+00 1.8631227069720879e+01 1.7942961364055883e+01 0 0 -1
865 1 5.5352823130064799e+00 1.8783621483943264e+01 2.0750083332760269e+01 -2 -3 1
3106 1 1.8358798424338858e+00 1.2628582089545246e+01 2.4588888209321663e+01 1 -3 0
2291 1 3.3787822865641259e+00 1.6888113919071209e+01 2.4329990348412274e+01 3 0 0
3655 1 2.3903173193532727e+00 2.2165297902695478e+01 2.0985015526576021e+01 3 2 0
1528 1 2.9396907048800176e+00 2.2217066113266849e+01 1.8446901405016551e+01 1 -2 0
1589 1 4.3984205453880093e-01 2.2554185796085072e+01 1.7270763238156210e+01 1 -1 0
3778 1 1.7714966747906697e+00 1.2424075364610941e+01 2.1792840187083709e+01 3 -1 -1
2170 1 3.7651043832766479e-01 2.0675159539543746e+01 2.4456276065726989e+01 -2 2 0
1576 1 5.3811277762317411e-01 2.0064375211373861e+01 2.1725354230939292e+01 2 0 0
3887 1 1.4161590807377189e+00 1.7654655591243316e+01 2.0770261009024114e+01 3 -1 0
3646 1 3.3818414491214459e+00 1.9857775300665836e+01 1.7299844701334241e+01 -1 2 1
1477 1 3.6461889538158103e+00 1.6948744326003546e+01 2.1660354212218547e+01 3 -1 -1
3811 1 4.8025367460670321e+00 2.1653740450008605e+01 2.4416235429780407e+01 -2 0 -1
2214 1 5.1553743898570437e+00 2.1379436101459405e+01 2.1388480500718568e+01 0 -3 0
1490 1 4.5492740383445858e+00 2.4105303899415397e+01 1.7171644219517500e+01 5 1 0
3122 1 5.4475249169278825e+00 1.8716251713994343e+01 2.4745479366289615e+01 -1 -1 0
2263 1 1.3702233947359324e+00 1.5017507061678755e+01 1.6883119137304174e+01 -1 -2 0
2893 1 4.0213738696544317e+00 1.4552852864561766e+01 2.7816096296150199e+01 -2 1 0
4521 1 3.8667031546615447e+00 1.4422822395456834e+01 2.5157719974572611e+01 0 0 0
1551 1 5.3810689085058501e+00 1.9001814758388004e+01 2.7458906383646060e+01 -4 -4 -1
2911 1 1.0362191105980343e+00 1.7495018814062153e+01 2.8000987265251212e+01 -2 0 -1
1492 1 7.1221668950688710e-01 1.7916633299116270e+01 2.5066668504880731e+01 -1 2 1
1530 1 7.7560162699340474e-01 1.5265825120717167e+01 3.2164286363213122e+01 3 -3 -1
1612 1 2.2747450256870057e+00 2.2214184479058250e+01 2.8303925991145981e+01 1 0 0
3066 1 2.5516482173545270e+00 2.1980403101249497e+01 3.1947181958331218e+01 0 1 0
775 1 1.5451341591011138e+00 1.5151157931746027e+01 2.9228751015666621e+01 3 -3 -1
3744 1 3.3278145838514477e+00 1.4631905798405260e+01 3.1904064080083074e+01 1 1 1
1361 1 5.3153016179451349e+00 1.6538376023219413e+01 3.1472129255286163e+01 -2 2 0
715 1 2.3348567417364992e+00 2.2319775154358915e+01 2.5669989164378347e+01 2 2 -1
3731 1 4.3054774931665465e+00 2.4272881990554666e+01 2.8902572080209694e+01 -1 3 -1
4542 1 3.7265532198231344e+00 1.9074398492440906e+01 3.1470027650098935e+01 0 -4 -1
2875 1 2.9156591381362249e+00 1.9337302626181629e+01 2.8616312901845930e+01 3 -2 -1
3812 1 5.8777660557198939e+00 1.6449287545823623e+01 2.8575838458578787e+01 2 -1 -1
1427 1 4.1481025315211228e+00 2.4350011378145165e+01 3.1522968244260465e+01 0 4 -1
891 2 0.0000000000000000e+00 2.5575462224561992e+01 2.2401823937492256e+00 0 0 0
893 2 1.2305000000000001e+00 2.6285891730799833e+01 2.2401823937492256e+00 0 0 0
901 2 1.2305000000000010e+00 2.7706750743275496e+01 2.2401823937492256e+00 0 0 0
905 2 2.4610000000000003e+00 2.5575462224561992e+01 2.2401823937492256e+00 0 0 0
907 2 3.6914999999999991e+00 2.6285891730799833e+01 2.2401823937492256e+00 0 0 0
923 2 3.6914999999999996e+00 2.7706750743275496e+01 2.2401823937492256e+00 0 0 0
927 2 4.9220000000000006e+00 2.5575462224561992e+01 2.2401823937492256e+00 0 0 0
953 2 6.1524999999999990e+00 2.7706750743275496e+01 2.2401823937492256e+00 0 0 0
889 2 0.0000000000000000e+00 2.8417180249513333e+01 2.2401823937492256e+00 0 0 0
903 2 2.4610000000000003e+00 2.8417180249513326e+01 2.2401823937492256e+00 0 0 0
925 2 4.9220000000000006e+00 2.8417180249513336e+01 2.2401823937492256e+00 0 0 0
897 2 0.0000000000000000e+00 2.9838039261988989e+01 2.2401823937492256e+00 0 0 0
899 2 1.2304999999999993e+00 3.0548468768226829e+01 2.2401823937492256e+00 0 0 0
919 2 2.4610000000000003e+00 2.9838039261988989e+01 2.2401823937492256e+00 0 0 0
921 2 3.6915000000000004e+00 3.0548468768226829e+01 2.2401823937492256e+00 0 0 0
949 2 4.9220000000000006e+00 2.9838039261988989e+01 2.2401823937492256e+00 0 0 0
895 2 0.0000000000000000e+00 3.2679757286940330e+01 2.2401823937492256e+00 0 0 0
915 2 1.2304999999999993e+00 3.1969327780702493e+01 2.2401823937492256e+00 0 0 0
945 2 3.6914999999999996e+00 3.1969327780702493e+01 2.2401823937492256e+00 0 0 0
911 2 0.0000000000000000e+00 3.4100616299415996e+01 2.2401823937492256e+00 0 0 0
913 2 1.2305000000000010e+00 3.4811045805653833e+01 2.2401823937492256e+00 0 0 0
917 2 2.4610000000000003e+00 3.2679757286940337e+01 2.2401823937492256e+00 0 0 0
941 2 2.4609999999999985e+00 3.4100616299415996e+01 2.2401823937492256e+00 0 0 0
943 2 3.6915000000000018e+00 3.4811045805653833e+01 2.2401823937492256e+00 0 0 0
947 2 4.9220000000000015e+00 3.2679757286940337e+01 2.2401823937492256e+00 0 0 0
979 2 4.9220000000000006e+00 3.4100616299415996e+01 2.2401823937492256e+00 0 0 0
937 2 1.2304999999999993e+00 3.6231904818129486e+01 2.2401823937492256e+00 0 0 0
975 2 3.6914999999999996e+00 3.6231904818129486e+01 2.2401823937492256e+00 0 0 0
890 2 0.0000000000000000e+00 2.6996321237037659e+01 5.4694247864603804e+00 0 0 0
892 2 0.0000000000000000e+00 2.5575462224561992e+01 5.4694247864603804e+00 0 0 0
894 2 1.2305000000000001e+00 2.4865032718324155e+01 5.4694247864603804e+00 0 0 0
902 2 1.2305000000000010e+00 2.7706750743275496e+01 5.4694247864603804e+00 0 0 0
904 2 2.4610000000000003e+00 2.6996321237037659e+01 5.4694247864603804e+00 0 0 0
906 2 2.4610000000000003e+00 2.5575462224561992e+01 5.4694247864603804e+00 0 0 0
908 2 3.6914999999999996e+00 2.4865032718324166e+01 5.4694247864603804e+00 0 0 0
924 2 3.6914999999999996e+00 2.7706750743275496e+01 5.4694247864603804e+00 0 0 0
1205 2 0.0000000000000000e+00 2.5575462224561992e+01 8.6986671791761161e+00 0 0 0
1206 2 1.2305000000000001e+00 2.6285891730799833e+01 8.6986671791761161e+00 0 0 0
1210 2 1.2305000000000010e+00 2.7706750743275496e+01 8.6986671791761161e+00 0 0 0
1212 2 2.4610000000000003e+00 2.5575462224561992e+01 8.6986671791761161e+00 0 0 0
1213 2 3.6914999999999991e+00 2.6285891730799833e+01 8.6986671791761161e+00 0 0 0
1221 2 3.6914999999999996e+00 2.7706750743275496e+01 8.6986671791761161e+00 0 0 0
926 2 4.9220000000000006e+00 2.6996321237037659e+01 5.4694247864603804e+00 0 0 0
928 2 4.9220000000000006e+00 2.5575462224561992e+01 5.4694247864603804e+00 0 0 0
930 2 6.1524999999999990e+00 2.4865032718324155e+01 5.4694247864603804e+00 0 0 0
954 2 6.1524999999999990e+00 2.7706750743275496e+01 5.4694247864603804e+00 0 0 0
1223 2 4.9220000000000006e+00 2.5575462224561992e+01 8.6986671791761161e+00 0 0 0
1236 2 6.1524999999999990e+00 2.7706750743275496e+01 8.6986671791761161e+00 0 0 0
1204 2 0.0000000000000000e+00 2.8417180249513333e+01 8.6986671791761161e+00 0 0 0
1211 2 2.4610000000000003e+00 2.8417180249513326e+01 8.6986671791761161e+00 0 0 0
1222 2 4.9220000000000006e+00 2.8417180249513336e+01 8.6986671791761161e+00 0 0 0
896 2 0.0000000000000000e+00 3.1258898274464656e+01 5.4694247864603804e+00 0 0 0
898 2 0.0000000000000000e+00 2.9838039261988989e+01 5.4694247864603804e+00 0 0 0
900 2 1.2304999999999993e+00 2.9127609755751163e+01 5.4694247864603804e+00 0 0 0
918 2 2.4609999999999985e+00 3.1258898274464656e+01 5.4694247864603804e+00 0 0 0
920 2 2.4610000000000003e+00 2.9838039261988989e+01 5.4694247864603804e+00 0 0 0
922 2 3.6914999999999991e+00 2.9127609755751152e+01 5.4694247864603804e+00 0 0 0
1208 2 0.0000000000000000e+00 2.9838039261988989e+01 8.6986671791761161e+00 0 0 0
1209 2 1.2304999999999993e+00 3.0548468768226829e+01 8.6986671791761161e+00 0 0 0
1219 2 2.4610000000000003e+00 2.9838039261988989e+01 8.6986671791761161e+00 0 0 0
1220 2 3.6915000000000004e+00 3.0548468768226829e+01 8.6986671791761161e+00 0 0 0
948 2 4.9219999999999979e+00 3.1258898274464656e+01 5.4694247864603804e+00 0 0 0
950 2 4.9220000000000006e+00 2.9838039261988989e+01 5.4694247864603804e+00 0 0 0
952 2 6.1524999999999981e+00 2.9127609755751152e+01 5.4694247864603804e+00 0 0 0
1234 2 4.9220000000000006e+00 2.9838039261988989e+01 8.6986671791761161e+00 0 0 0
916 2 1.2304999999999993e+00 3.1969327780702493e+01 5.4694247864603804e+00 0 0 0
946 2 3.6914999999999996e+00 3.1969327780702493e+01 5.4694247864603804e+00 0 0 0
1207 2 0.0000000000000000e+00 3.2679757286940330e+01 8.6986671791761161e+00 0 0 0
1217 2 1.2304999999999993e+00 3.1969327780702493e+01 8.6986671791761161e+00 0 0 0
1232 2 3.6914999999999996e+00 3.1969327780702493e+01 8.6986671791761161e+00 0 0 0
912 2 0.0000000000000000e+00 3.4100616299415996e+01 5.4694247864603804e+00 0 0 0
914 2 1.2304999999999993e+00 3.3390186793178160e+01 5.4694247864603804e+00 0 0 0
942 2 2.4609999999999985e+00 3.4100616299415996e+01 5.4694247864603804e+00 0 0 0
944 2 3.6914999999999978e+00 3.3390186793178160e+01 5.4694247864603804e+00 0 0 0
1215 2 0.0000000000000000e+00 3.4100616299415996e+01 8.6986671791761161e+00 0 0 0