LAMMPS data file via write_data, version 16 Mar 2018, timestep = 100000

6768 atoms
2 atom types

0.0000000000000000e+00 4.9219999999999999e+01 xlo xhi
0.0000000000000000e+00 4.9019635930410494e+01 ylo yhi
-1.9078070362908761e-01 6.0252780703630116e+01 zlo zhi

Masses

1 18.015
2 12.01

Atoms # atomic

5405 1 8.1689911050640802e+00 6.6295571544304521e-01 1.0753808129657513e+01 0 0 0
1403 1 5.4092680220901581e+00 1.7801049498571324e+01 8.9216006747557985e-01 2 -1 1
223 1 4.5908728419458509e+00 6.6126624661672240e-01 2.8781213188012891e+00 1 1 0
4784 1 5.8348979000848429e+00 1.9770641975141764e+01 1.0415695783736668e+01 1 1 1
4894 1 6.7984084195072247e+00 2.0902679809328841e+00 3.3795847176750375e+00 1 2 1
1493 1 1.0313308361249602e+01 4.0469730428245656e+00 3.5914832858747738e+00 0 -1 1
1418 1 9.2864057574080245e+00 8.3722386131262416e-01 3.2933793090186896e+00 1 0 1
1878 1 1.6301717108227493e+01 2.0092526257910905e+01 6.8171443956180235e+00 1 0 0
2222 1 1.2731440723426604e+00 2.3082400552243687e+01 1.0216438603667745e+01 1 1 0
1900 1 1.4809780303812877e+01 4.3143152020429882e+00 9.1142004094843365e-01 -1 1 0
4896 1 1.3447251572741881e+00 7.8787279803897752e+00 3.1118428878175690e+00 1 0 1
5103 1 1.1164206475691327e+00 6.1822854492004815e+00 1.2124452188351282e+00 1 -1 0
1330 1 3.2927694011617525e+00 4.1550268731917743e+00 9.7733658860175354e-01 0 1 1
3176 1 5.3446250456519691e+00 7.3238137134211234e+00 1.6761659709916441e+00 0 -1 1
6606 1 6.1456028653055990e+00 4.5087491578129173e+00 1.7884432062538889e+00 -1 1 1
454 1 8.0618317672806157e+00 5.8958642536113146e+00 3.3320885604718633e+00 0 1 0
3004 1 9.2895051952401051e+00 7.6816933212143086e+00 1.7665724238710836e+00 1 -1 1
3762 1 1.2067188080885623e+01 5.2290057328347137e+00 1.8508976151395085e+00 0 -2 0
4837 1 1.3713003279665907e+01 6.8987934315949433e+00 3.1638898469908443e+00 0 1 1
6419 1 1.4787264172359567e+01 9.4349291937146145e+00 1.4802831457101129e+00 0 1 0
3231 1 3.9363105855331360e+00 8.5100301008972288e+00 3.7851355043839674e+00 0 0 1
1872 1 3.9888202320728170e+00 1.1226455462334922e+01 3.7139496938512471e+00 1 0 0
5508 1 7.0773978913265871e+00 9.3103897266103175e+00 1.0229773329546912e+00 0 0 0
1789 1 5.1497881918102966e+00 1.1214532005514544e+01 1.4336106738430732e+00 1 0 0
6702 1 8.3323413965625885e+00 1.1395356698852986e+01 2.0402675903880891e+00 0 0 1
5524 1 1.1207330739907475e+01 8.6500395607243359e+00 3.3772904889792903e+00 2 1 0
5112 1 1.2049110019847168e+01 1.0589227958091451e+01 1.8741318793573098e+00 0 1 0
5553 1 1.3570193737606246e+01 1.2789660510794029e+01 2.3850833863554728e+00 0 1 0
3287 1 1.1329973429020166e+01 5.9842124366114169e-01 1.0555613310600917e+01 0 1 0
3590 1 1.2835615944126062e+00 1.3837886145527042e+01 2.0882362281832432e+00 1 0 0
5187 1 1.5655289830202813e+01 2.4205093145488437e+01 6.2051205365793738e+00 0 0 0
6755 1 6.6791559891557135e+00 1.5730797527972026e+01 2.1638267841106589e+00 2 0 1
1810 1 8.9149542678698666e+00 1.5599073806140447e+01 3.0482819380204906e-01 1 -1 0
440 1 1.3612968995766249e+01 1.5994008643566513e+01 1.2596918041402518e+00 0 0 0
3677 1 1.5626924942075409e+01 1.5904565587190795e+01 2.9319485584309963e+00 1 0 0
3648 1 7.4193046644478977e-01 1.6643311212538258e+01 3.0803257448880594e+00 2 0 0
5163 1 1.0605944933061551e-01 1.5271403817565814e+00 1.0953264612535845e+01 0 1 1
4767 1 4.3206576295921586e+00 2.3197185537075129e+01 8.7995606826297852e+00 0 0 1
5575 1 7.2456075431565896e+00 2.1936869876015383e+01 8.3401365123193338e-01 0 0 1
351 1 1.1055597072681303e+01 1.7183815732157228e+01 1.3223744116483358e+00 -1 0 0
436 1 1.1232676305599535e+01 2.0314129777932852e+01 1.6707016994446175e+00 0 -1 0
3059 1 1.9567831944863143e+00 2.4351261906290688e+01 3.1932990386781452e+00 0 -1 1
260 1 1.3880192028881245e+01 2.0599883558810362e+01 1.0371667395125022e+00 0 0 0
3250 1 1.6311574580438382e+01 2.0577231414934388e+01 2.4033100190880936e+00 0 1 1
3737 1 2.0938164990785819e+00 2.0576370943333057e+01 2.9102245401760243e+00 0 1 0
3372 1 1.6219808765714561e+01 1.5198420031128295e+01 7.0774586370833630e+00 -2 -1 1
3531 1 2.9576279000809307e+00 1.6606637586360971e+01 6.9631255724495933e-01 2 1 0
1319 1 9.0715613645770565e-01 2.3706098234094931e+01 6.7677983717019377e+00 1 2 1
512 1 5.9166543656381521e-02 1.9386077716745138e+01 6.5764582966115368e+00 -1 -1 1
4719 1 1.0352608134887699e+01 1.2850001108461825e+01 8.1720692011962393e-01 0 1 1
3158 1 4.8102187514409411e-01 1.0109502397574865e-01 4.5248314748225427e-01 0 0 1
28 1 1.5608907270836465e+01 5.6238295940216219e+00 1.1138712106387697e+01 2 -1 0
5665 1 2.8388133498500228e+00 2.5747370839724444e+00 2.8248038402695848e+00 1 0 1
186 1 8.9108871349057395e-01 6.2583230854327532e+00 5.1857865032505126e+00 0 0 0
6681 1 4.5047508058699162e+00 4.2817579172546019e+00 6.4321899371032627e+00 0 -1 1
166 1 6.4220889564920256e+00 2.5726023615638414e+00 5.9719880907577627e+00 1 0 0
2027 1 1.2709699507084638e+01 4.3875515928857167e+00 6.3795976868625415e+00 0 0 0
6610 1 8.7950535814275916e+00 3.0503468491913739e+00 7.2759980456098585e+00 0 0 1
3959 1 1.4338535454285038e+01 6.0467059007262269e-01 3.6045577032571745e+00 0 0 1
3200 1 1.2605230151205287e+01 1.2279130866992114e+00 5.8479737861675352e+00 1 0 0
3709 1 1.6192721240244829e+01 1.1115613167669423e+01 3.3482808216760609e+00 1 0 0
313 1 2.1801670581642680e+00 7.4699136038406495e+00 7.4759184883229546e+00 0 0 0
1436 1 4.3556436385025776e+00 7.1151675830680992e+00 6.0564254602051202e+00 1 0 1
265 1 7.6817601504566015e+00 7.0264773372884273e+00 5.8107326263019745e+00 0 1 0
6617 1 2.0188055144216048e+00 3.8297401786013396e+00 5.3576671751946412e+00 2 1 1
2123 1 9.9704646901691873e+00 7.0812122730545353e+00 8.4974418771507985e+00 0 1 0
3613 1 1.4691027760425175e+01 5.8634249375079843e+00 5.4785229733087109e+00 2 0 0
1336 1 1.4221895790851331e+01 8.1335734476504342e+00 7.0409363446786273e+00 1 1 1
3387 1 1.5589297741132849e+01 1.5726634318424956e+01 9.5413486737196767e+00 0 -1 1
3353 1 1.6506744072772563e+00 1.2126919459160641e+01 4.3619715028787027e+00 0 0 1
4721 1 5.9245519558404425e+00 1.1924394562900471e+01 5.7464331786871945e+00 1 0 1
140 1 8.3875181329706621e+00 1.1481864741111384e+01 4.8957611516261563e+00 -1 0 0
212 1 9.5099115009129580e+00 9.1830182957641515e+00 5.5359872364723079e+00 0 -1 0
3455 1 1.1596299220609994e+01 9.3512585590746848e+00 7.7999012964611492e+00 -1 2 0
554 1 1.1488006102626887e+01 3.6201874016910414e+00 1.0273268366078375e+01 0 0 1
245 1 1.3103109659022694e+01 1.2607255764577033e+01 5.0906933554103011e+00 0 0 0
114 1 1.5074038711773377e+00 1.3545783585671828e+01 6.8258507016455123e+00 0 -1 0
3964 1 3.3390236292681297e+00 1.5450717019426421e+01 7.7237668630220684e+00 1 1 1
6691 1 5.5536662731863862e+00 1.3950777553228606e+01 7.7621396127768802e+00 1 0 1
5048 1 9.3573047501002105e+00 1.4827746985360927e+01 5.3803537181155576e+00 0 1 1
6623 1 6.4022370354978069e+00 1.6702156662404697e+01 4.5890090721440497e+00 0 0 1
263 1 1.0667682360666433e+01 1.2555605638409350e+01 6.4197384260563863e+00 -1 1 0
6483 1 9.9803218823526745e+00 1.7421947553369503e+01 4.0216416240664952e+00 0 1 1
88 1 9.0738119453978481e+00 1.4490062949462423e+01 9.2875284378007308e+00 -1 -1 1
6401 1 1.0372428392907137e+01 2.2952500505999556e+01 1.1723249597281580e+01 0 -1 1
2019 1 1.5382260096479861e+01 1.1412409440466357e+01 8.7333416374506943e+00 -1 3 0
1959 1 1.4387102255363835e+01 1.4869079053772932e+01 5.2282025279904287e+00 0 1 0
161 1 1.0693835055558845e+01 6.1935332604588620e+00 1.1130612309608145e+01 0 1 1
6560 1 1.7333463183891600e+00 1.8735042506521623e+01 4.6833316142024115e+00 1 1 1
2079 1 4.0663470472315018e+00 1.7139727700800659e+01 5.5190394146814192e+00 3 -1 0
3102 1 8.0531021636043487e+00 1.7962544429357678e+01 8.7936377690256169e+00 0 1 1
5568 1 7.9378840297059172e+00 1.9444597462337594e+01 4.3507131204714851e+00 1 0 0
1843 1 1.0334661522146353e+01 2.0728737916378126e+01 4.1849674524047842e+00 0 0 0
5254 1 1.2455125106545852e+01 1.6853513710733541e+01 5.5807423466486883e+00 0 -1 0
5354 1 1.2455300730838829e+01 2.0003376733873733e+01 5.4828204693046354e+00 0 0 0
589 1 3.9178146206301387e+00 2.2027815621958087e+01 3.5865969965760942e+00 1 0 1
4751 1 3.6660677849036170e-02 9.1038359239988562e+00 7.8763931568634717e+00 2 1 1
110 1 7.2638351955470535e+00 1.9648867123506893e+01 7.0572766098673609e+00 1 0 0
2334 1 7.0468703425220038e+00 2.2494983998831533e+01 8.0640177518373335e+00 -1 -1 1
3571 1 9.2880275170111855e+00 2.3412373762385663e+01 4.8054613228842440e+00 1 1 0
5564 1 1.3824207161603915e+01 2.0876134240493226e+01 9.6449716373904071e+00 0 -1 0
5663 1 1.6142972586143948e+01 2.2378922322583289e+01 8.0766950069562071e+00 -1 0 1
1907 1 1.5003955148289949e+01 2.0468321100670977e+01 4.5957449178333736e+00 0 0 0
1941 1 1.3907798182184505e+01 2.3078378125514607e+01 4.6479991478527598e+00 1 0 0
2998 1 3.6384868259021003e-01 1.8452858677565378e+00 5.5604099854010656e+00 -1 0 1
5330 1 8.7531096236606327e+00 3.2922061832609617e+00 1.0235598775525212e+01 0 0 0
562 1 5.6985274347860360e+00 1.3552562957083079e+01 2.2126571780288640e-01 1 0 0
1862 1 8.0627702363910387e+00 2.3813019994461914e+01 2.4982973318816106e+00 0 -1 0
3734 1 3.4176195170169738e-01 1.1639121879640747e+01 1.1435298991002119e+01 0 1 0
230 1 1.4024763788278989e+01 1.0438743000929283e+00 8.6158061676939681e+00 0 0 0
1824 1 1.3466002408546920e+01 3.6765301578079383e+00 8.4559967537873764e+00 1 1 0
3016 1 4.4434398726134798e+00 2.9947735417102721e+00 9.2921604798157524e+00 0 2 1
5475 1 2.2229794439273669e+00 5.7577179749305500e+00 9.7169353659016942e+00 2 -1 0
4859 1 5.7828551789759475e+00 7.3374693098471360e+00 1.0421530409320816e+01 0 1 1
3201 1 6.1016178200736881e+00 4.6440925726254623e+00 1.0503139923100314e+01 -1 0 1
4813 1 1.0184496756253560e+01 5.0332721126798168e+00 6.1975732496737459e+00 1 0 1
534 1 1.5709514418090631e+01 5.4465971766528734e+00 8.5016006420246413e+00 -1 0 1
183 1 1.0149785336404680e+01 1.2145633521230710e+00 5.8888772194532901e+00 1 0 0
1687 1 1.0305975653561130e+00 1.1745732965444148e+01 8.8002102156808046e+00 0 1 1
2233 1 3.4023643251402453e+00 1.0225047324774549e+01 8.6770110055923642e+00 1 1 0
6613 1 3.3899290831248683e+00 8.3922037676443146e+00 1.0847978378447500e+01 -2 0 1
1738 1 5.5433181215745249e+00 9.7112982707926232e+00 7.0114160236123002e+00 0 1 1
3048 1 7.3908208011533612e+00 8.4842122462689815e+00 9.0474557737571253e+00 0 0 1
5645 1 7.7908969374102499e+00 1.0756927133354960e+01 1.0237568092575541e+01 0 0 1
3990 1 1.0420783144052885e+01 1.1971096504751156e+01 9.3130655357101055e+00 -2 0 0
5309 1 1.1166725849517086e+01 8.9912192504587658e+00 1.1194832349582949e+01 -2 1 0
6515 1 2.2970513365081051e+00 2.8349875740810817e+00 1.1277042472723538e+01 0 0 0
2142 1 1.3124435390535421e+01 1.2765291683843719e+01 1.0452267204292006e+01 0 1 0
468 1 9.5914284638505354e+00 2.2187867395588476e+01 8.9563296421014265e+00 1 0 0
5585 1 7.8770880663405796e-01 1.8640188931543410e+01 5.6371556130641676e-01 2 -2 1
6677 1 5.3331446915941614e+00 1.2321921636574478e+01 9.8067558577549345e+00 0 0 1
3704 1 7.6255921822896751e+00 1.5527654435812984e+01 7.2851211132431875e+00 0 0 0
3877 1 1.1267454520408316e+01 1.5992125348096787e+01 8.2437168879998080e+00 2 1 0
6692 1 1.3044060615561385e+01 1.5162733377188294e+01 1.0190573881133135e+01 2 -1 0
3894 1 6.0687379376348272e+00 2.0266196570597632e+01 2.6113475951213849e+00 0 0 1
1899 1 2.5080060708497496e+00 1.6551211836440491e+01 9.8356308817790286e+00 0 1 0
2031 1 1.6088294825162922e+01 2.4874858045220360e+00 2.7276870359736769e+00 0 0 0
2244 1 4.5325849055681093e+00 1.8981829664140776e+01 7.2485449189929660e+00 0 2 1
2223 1 3.3645745929504831e+00 1.9184205308244081e+01 9.6892300476688824e+00 0 1 1
1697 1 1.0692737010418494e+01 1.8364241842763029e+01 8.8448040564647261e+00 0 -1 1
3273 1 1.1718310362613781e+01 2.0349222218941993e+01 8.0844144650289564e+00 -1 -1 1
1459 1 1.5427243733675887e+01 1.8491502290842281e+01 9.9063653383590573e+00 1 1 1
1967 1 5.0013432577790091e+00 2.2353018226337728e+01 1.1335629716400963e+01 0 0 0
5146 1 1.4874033816299196e+01 1.1054171011130588e+01 6.0141392764364507e+00 0 1 1
6657 1 3.4493035649572454e+00 2.1597850995192630e+01 6.6860403537138930e+00 1 0 1
422 1 1.3514667250345203e+00 2.0806341504991060e+01 8.8247836835180280e+00 1 0 0
1370 1 5.3920914607484622e+00 5.5890770130495948e-01 7.6373320049267930e+00 0 1 1
411 1 1.0867485083189239e+01 1.7604812612954198e+01 1.1617809537776575e+01 0 0 0
3306 1 1.6107834086956899e+01 8.7598916090179255e+00 8.8424747873857257e+00 0 2 1
4959 1 1.6112999099195349e+01 7.1570998397924201e+00 4.2674309525672505e-01 -1 0 1
6730 1 3.6970438443054608e-02 1.6338105857978515e+01 1.0075716545137286e+01 0 1 0
209 1 1.1590331121853527e+01 2.4361582635645547e+01 5.5382955449235061e+00 0 -1 0
2127 1 1.5158668497457031e+01 2.4429712172001359e+01 9.9493036758296505e+00 0 -1 0
4877 1 1.1228456812142841e+01 2.4286698465383900e+01 8.3716853310251800e+00 1 0 1
6556 1 1.0816668416217361e+01 6.5462117780124167e+00 1.3222376759388665e-01 0 1 1
1757 1 6.2748931505292305e+00 1.7166450582989786e+01 1.1720617682677343e+01 0 0 0
4983 1 2.5086146778521914e+00 1.3032282257539714e+01 7.5791095506261286e-03 0 0 1
2318 1 1.4024182204017478e+01 1.8074749399880559e+00 -7.0707596519099525e-02 0 0 1
6738 1 1.2414890177455296e+01 2.3666511716480052e+01 1.5615009694027938e+01 0 1 0
1410 1 4.3438503696281492e+00 1.3376693191303787e+01 1.2129871395183271e+01 -1 -1 1
3995 1 6.6146710578959240e+00 1.5345648038830453e+00 1.3508714188454132e+01 1 1 1
5335 1 9.0112366827088177e+00 5.5947773237356691e+00 1.3263555888152471e+01 0 1 0
504 1 1.2216614158803198e+01 4.8689055303649056e+00 1.4240398265924288e+01 1 0 0
2129 1 1.4223311272483089e+01 1.6883121349504657e+00 1.5290389911461908e+01 0 0 1
3622 1 2.6774090449063985e+00 8.7037041970867979e-01 1.4783570069659577e+01 2 1 1
4861 1 1.3188552579856774e+01 2.1953809612076551e+01 2.2709016752431559e+01 1 -1 1
4753 1 4.2684299980747014e+00 5.4957620826641733e+00 1.4366423868691825e+01 0 0 1
78 1 4.8698860914771043e+00 8.0255975301485698e+00 1.4192057424315070e+01 1 0 1
5169 1 6.6428142811661433e+00 4.1607498722905287e+00 1.3295207173657964e+01 1 1 0
3635 1 1.3464538721732785e+01 6.5877722254786280e+00 1.2761760670408982e+01 3 1 0
513 1 1.9135975085031949e+00 4.9468746477555552e+00 1.3291697917371309e+01 0 -1 1
5299 1 8.6745077907960741e+00 6.3146806925054255e+00 1.5866676119231695e+01 1 2 0
3857 1 1.2173982208968576e+01 8.5164378339670073e+00 1.5747620130739122e+01 -1 0 0
3594 1 4.5534622091554420e+00 9.9208216516751797e+00 2.3657759729136682e+01 1 -1 0
2192 1 1.3231740076980214e+01 9.7039421740313880e+00 1.2948400923136695e+01 1 1 0
5526 1 7.3969149960421028e+00 2.3393920199236522e+01 2.1237552007538071e+01 0 1 0
3887 1 1.5650951162517432e+00 1.1825521557138147e+01 1.6066476395367197e+01 0 2 0
503 1 2.2246631827331451e+00 9.1611642201567829e+00 1.3449636635224257e+01 0 0 0
3211 1 4.0453484134096653e+00 7.7955211091993737e-01 1.2248379022355602e+01 1 1 1
1547 1 6.3423097958549350e+00 1.1503789276640481e+01 1.7277864445101667e+01 1 0 1
3780 1 9.6958329835495096e+00 9.9352131446456138e+00 1.5576244357340821e+01 1 0 0
2133 1 2.6021860805666543e+00 2.1882992920274773e+01 1.2732414825294862e+01 -1 -1 0
1589 1 1.2297682114127388e+01 2.1315789857276261e+01 1.5875081213045405e+01 1 -2 0
3137 1 1.4746245805167316e+01 1.2728290108029679e+01 1.4742056557214216e+01 1 0 1
3118 1 6.6760378111905738e-01 1.5539849555372136e+01 1.3411895354773163e+01 0 2 1
4712 1 1.3707074798586092e+01 1.8386757743409927e+01 1.2216815089918549e+01 0 1 1
5207 1 7.0863662566478887e+00 1.2560891581483800e+01 1.3434990132805101e+01 1 0 0
3761 1 6.5806912358598240e+00 1.3922093708215462e+01 1.5749204180546341e+01 1 -1 0
5210 1 9.1284197449257967e+00 1.0225544750424284e+01 1.2833637669687922e+01 0 1 1
3875 1 2.2341685883061984e+00 1.1746835934801810e+01 1.3348148049723195e+01 0 1 0
1608 1 1.5384024278584436e+01 1.5253576620575672e+01 1.3812762834317262e+01 1 1 1
6479 1 1.2332789438151318e+01 1.2291353878705676e+01 1.3127703526226830e+01 0 2 1
1833 1 5.1687270623578507e-01 1.8995793700346244e+01 1.7534883030723517e+01 0 0 0
1948 1 1.5834231430930043e+01 4.8883517427852672e+00 1.8661535353101357e+01 0 0 0
5481 1 4.4167866183362170e+00 1.5560829856173743e+01 1.5295655639752605e+01 0 -1 0
3336 1 9.3196982556490529e+00 2.4380098864530755e+01 1.8919329025187238e+01 0 2 0
6759 1 7.0671109659195217e+00 2.1343662137172704e+01 1.3256959486039342e+01 0 -1 1
4743 1 1.0031144602450111e+01 1.4046027139771786e+01 1.3739059709431539e+01 0 -1 1
5498 1 9.6635038843359204e+00 1.8144787989709332e+01 1.4151938532233606e+01 3 0 0
4975 1 1.0738372447390843e+01 8.5938284325293413e-01 1.9418537155792780e+01 1 0 1
3480 1 9.1497529833179794e+00 2.3454357080606098e+01 2.3482631886818179e+01 1 1 0
424 1 1.2669998220542935e+01 2.4164432100442209e+01 1.3174903408977721e+01 0 -1 0
5110 1 2.5590551698843806e+00 2.0046536815041446e+01 1.5965781546740416e+01 1 0 1
3754 1 1.3558140042285940e+00 2.2540275316931073e+01 1.4856476985090010e+01 2 1 0
5199 1 2.9776611070605674e+00 9.6501993851369150e-02 2.0685701141829668e+01 0 0 0
3051 1 9.7804594850716917e+00 2.1447467516739000e+01 1.3745369096899067e+01 0 0 1
3412 1 7.4972769405221067e+00 2.3384581910261463e+01 1.5379899043521414e+01 0 1 0
6411 1 1.2721366655651803e+01 1.5785804928345266e+01 1.3082259393323898e+01 0 0 1
1735 1 5.1093893561095545e+00 1.5714010208977163e+00 1.6078238750337338e+01 1 0 0
6721 1 1.9480100396210871e+00 3.7703550781560500e+00 1.7861788151234524e+01 1 0 0
5578 1 8.9346070296216007e-01 1.3389292280523661e+00 1.9469760519734312e+01 0 2 1
5138 1 4.3542594214107506e+00 4.2758219906943369e+00 1.6662679207832454e+01 1 1 0
6539 1 1.3600216540283975e+01 2.2087558969280760e+01 1.9963399540027609e+01 0 1 1
1963 1 7.1610498242931522e+00 4.2024519492806025e+00 1.6663375907909771e+01 -1 0 0
2014 1 1.1923506897152302e+01 3.3686809883378261e+00 1.8087646923980131e+01 0 0 0
4853 1 1.4226954707923353e+01 4.2555739292978414e+00 1.6452025104268955e+01 0 0 1
1506 1 1.1653848927853975e+01 7.0304217066100261e-01 1.6347936514415949e+01 0 1 1
433 1 1.3684392246363188e+01 3.0550918706971815e+00 2.0247889992607053e+01 0 0 0
3960 1 1.3980000821629941e+00 6.5292559758941113e+00 1.7936205173993340e+01 0 0 1
5317 1 1.1897113072673311e+00 7.7243671203962441e+00 2.0534285711642401e+01 0 0 0
3584 1 7.2538928363426676e+00 8.7729669487320567e+00 1.6030779154608659e+01 0 0 0
5340 1 4.8537107722715787e+00 6.6969558794925605e+00 1.7929960454592806e+01 0 1 0
2128 1 1.1273876976811561e+01 6.0626901942601634e+00 1.6791177075992472e+01 1 0 0
5215 1 1.2849747932030077e+01 9.5468929012457160e+00 2.0197142040026996e+01 0 1 1
546 1 5.5575181064667794e+00 1.5111220984069269e+00 2.0269478980928511e+01 1 1 1
5350 1 1.4385029983666081e-01 2.3242911988447364e+01 2.2815736835630471e+01 1 0 0
299 1 5.2527252549779027e+00 2.1974041042792885e+00 2.3254048387726666e+01 -1 1 0
5473 1 3.6434791779603350e+00 9.2310272310959434e+00 1.6699731294088156e+01 0 1 0
6504 1 2.9359427625614929e+00 9.9669207188813971e+00 1.9424380517565417e+01 0 1 1
1406 1 6.6616810419888832e+00 1.2018154677957993e+01 2.0173071056768396e+01 0 0 1
6631 1 7.1912819053910884e+00 8.5880484635557934e+00 1.8967874147933941e+01 2 1 1
1898 1 5.1582959901758354e+00 9.6302615297876901e+00 2.1017512688966221e+01 -1 -1 0
1384 1 9.7572808734336327e+00 1.1736253440182612e+01 1.7710696024056087e+01 0 0 1
3210 1 1.3232572763585280e+01 1.0056960441334352e+01 1.7702492078084742e+01 1 1 0
1831 1 1.4490226904570275e+01 2.2401030507394001e+01 1.1924334319038069e+01 0 0 0
1936 1 5.6983468022161654e-01 1.6418901473263325e+01 1.7830035601583013e+01 1 0 0
5398 1 3.8339898767639271e+00 1.2992552222852638e+01 1.7587255620613327e+01 1 0 0
2270 1 4.6036446643062785e+00 1.4211599417548415e+01 2.0204681459955946e+01 0 0 1
3422 1 6.9134517097394275e+00 1.7194056226511655e+01 1.4728349678109636e+01 1 2 0
3214 1 8.7868682679377681e+00 1.4506649242401711e+01 1.7441346170806153e+01 2 0 1
5085 1 1.4160211074003691e+01 1.4063123893967447e+01 1.9117122121130656e+01 1 0 1
3769 1 1.3024814033484086e+01 1.2965187837886660e+01 1.6901469513788644e+01 1 0 0
1458 1 1.1182452902509082e+01 1.4762630179888493e+01 1.6086624143327821e+01 0 0 1
3375 1 9.1099417690861557e+00 1.8291635768264999e+01 1.9967465955758602e+01 0 1 1
51 1 3.6302644770962975e+00 1.7693266877838660e+01 1.6912492595647194e+01 1 2 0
5391 1 9.4775369721815617e-01 1.9810730046496484e+01 2.0128864628586761e+01 0 0 0
172 1 4.5706657715557224e+00 1.6821888751350141e+01 1.9549799511489852e+01 0 0 0
22 1 6.3750592108952127e+00 1.8504315003472744e+01 1.9637414177302681e+01 1 1 1
567 1 2.7128581449845139e+00 1.7706961685856360e+01 2.1193274128760521e+01 0 1 1
1708 1 1.2087988046850983e+01 1.7416742720914687e+01 1.5734707047746863e+01 1 -1 1
5482 1 5.7533153314437220e+00 1.9607331665420631e+01 1.7249200811347404e+01 1 1 0
5349 1 1.1554701336502999e+01 1.8207176733622177e+01 1.8606120529146928e+01 1 0 0
5044 1 1.5897570228476942e+01 1.6955285234256394e+01 1.6014851475115826e+01 0 3 0
279 1 1.1527139173946871e+01 2.4476653962501064e+01 2.3087423190614651e+01 0 -1 0
5047 1 1.1177924740057179e+01 6.7100622002766217e+00 2.3765875457493731e+01 0 0 1
3564 1 2.4197135214881656e-02 2.2316832332532549e+01 2.0126791319443882e+01 0 -1 1
5092 1 8.8977532970316204e+00 4.0392964941450504e-01 1.4917999867698903e+01 1 1 0
4740 1 5.1540071323451100e+00 1.9557228660560330e+01 1.4058605065176243e+01 0 0 1
6463 1 3.8780785615088043e+00 2.1691843750157599e+01 1.8166109139786180e+01 1 0 1
4818 1 6.8302704293932228e+00 2.2478220073039708e+01 1.7843730633770868e+01 1 -1 1
5548 1 8.0792615930073932e+00 1.1096306958949576e+00 2.0932913071495399e+01 2 1 0
4764 1 1.1900518101251558e+01 2.0684170070912767e+01 1.8602587953878235e+01 0 -1 1
216 1 9.2967086079744696e+00 2.1619693170650187e+01 1.9138433870338467e+01 0 0 0
5041 1 1.4252980478115084e+01 1.9413364095731058e+01 1.4687898456306925e+01 1 1 1
257 1 2.8165285788991810e+00 8.1939801665470080e-01 2.3100215538631410e+01 0 0 0
3838 1 1.0414332594419371e+01 3.6578115688219404e+00 2.1440312701124274e+01 1 0 0
5370 1 1.3039209664696262e+01 1.7599496596922776e+01 2.3265779073447622e+01 0 0 0
6511 1 1.3397942399276928e+01 2.8652485958799447e+00 1.2640553918674154e+01 -1 2 1
196 1 9.9089173464472466e+00 2.3784109202680238e+01 1.6451106840308796e+01 0 2 0
3532 1 5.9216761479865809e+00 4.4614018288732753e+00 1.9951984285434069e+01 1 1 1
252 1 4.4208373483627339e+00 2.4422094176783617e+01 2.1376748804443032e+01 0 0 0
3245 1 8.6292954160756419e-01 3.4320920304227238e+00 1.5444194158491667e+01 0 1 1
3061 1 8.6245304027144609e+00 4.0200981045775741e+00 1.9229456736034205e+01 0 0 1
1331 1 1.2426779443438765e+01 6.7631567491130995e-01 2.1465531539576780e+01 0 1 1
6625 1 3.8678250180371467e+00 2.2016296103685320e+01 2.0569222224395642e+01 0 0 1
3409 1 4.8880980305453742e-01 1.8190054991635826e+01 1.3506736904714053e+01 0 0 0
5552 1 4.1142504544506026e-01 2.5993985449506911e+00 2.3495856141036533e+01 0 1 0
1814 1 5.5091563291262045e+00 5.0049377203097700e+00 2.2642555900008862e+01 1 2 0
5445 1 3.7526300744339482e+00 6.7913635691058607e+00 2.0934206731851940e+01 0 1 1
1950 1 8.6988835363409862e+00 6.6525255945308208e+00 2.0187053729483736e+01 -1 1 0
5156 1 1.1057288170314814e+01 1.1289802091319672e+01 2.1155308944977079e+01 1 1 0
1587 1 1.5829153604100014e+01 1.8012769804275528e+01 2.3243465598520686e+01 0 0 1
2277 1 1.1784692833750452e+01 9.4935653882469406e+00 2.3712219926863650e+01 1 1 1
2040 1 1.5343089380722306e+01 1.0333538847566974e+01 2.1354861113955419e+01 1 1 0
3483 1 7.2705394819642368e+00 7.8419110428700822e+00 1.2793530838816480e+01 -1 2 0
174 1 1.1347996577436296e+01 7.1695436756358379e+00 1.9371615001476421e+01 0 -1 0
6534 1 6.5527816873699507e+00 2.0088842036714780e+01 2.3558878529051448e+01 0 1 1
5463 1 7.9637934677010724e+00 6.4185348664644835e+00 2.3176325819501674e+01 1 0 0
5617 1 1.8449888396620799e+00 2.4170403563776240e+01 1.9550713450508763e+01 0 1 0
285 1 1.0101164523510895e+00 1.1157330217320110e+01 2.1565955180113150e+01 1 1 0
3469 1 8.8086016113533709e+00 1.0658582570258011e+01 1.9780642553747498e+01 1 1 0
3323 1 7.0610469845566293e+00 1.2381372399535856e+01 2.3073988209169325e+01 1 1 1
1977 1 1.4979526983352157e+01 1.3952758264198851e+01 2.3788400787432455e+01 0 0 0
2078 1 6.4886736269570355e-01 1.5907616867258897e+01 2.1183242140381182e+01 1 0 0
5603 1 1.2503689780211781e+01 5.4949893976881867e+00 2.1220897681513783e+01 2 2 1
3434 1 1.5966773551873947e+01 9.8871315089697145e+00 1.3767646371416472e+01 1 0 1
3012 1 1.4918063213547384e+01 7.1779344164434615e+00 1.4944666181736421e+01 -1 1 1
3618 1 1.5762686130541287e+01 1.2876986769035831e+01 2.1001354541182554e+01 0 -1 0
4886 1 1.6121451577261009e+01 1.7807123404474343e+01 2.0373465225826106e+01 0 -1 1
5274 1 2.3393580994259437e+00 1.3831379012243662e+01 2.1475375360477170e+01 0 1 0
5155 1 7.7904369421012722e+00 1.5942679744327699e+00 2.3913443679910497e+01 0 1 0
1320 1 7.0888673194316061e+00 1.5183237174403237e+01 2.1974175961442143e+01 0 0 1
383 1 1.4163750425552918e+01 5.6912153907704228e+00 2.3607276795467836e+01 0 1 0
325 1 2.0855573286734290e+00 2.1223634438007306e+01 2.2964198984529951e+01 1 0 0
2082 1 9.3500001706156812e+00 1.5445111128140582e+01 2.0072128715990807e+01 -1 1 0
597 1 1.1705237151422242e+01 1.4097605275934695e+01 2.1261582875487530e+01 0 1 1
3498 1 1.3386334984095143e+01 1.6865397270852544e+01 2.0465394099611391e+01 0 -1 0
3033 1 1.3984710030262873e+01 2.4472989773055474e+01 1.9449833161707623e+01 0 1 1
3623 1 2.7906124198420934e+00 1.9431500466959811e+01 1.2445692475605803e+01 1 1 0
6422 1 6.3479942551696649e+00 2.0784880817518296e+01 2.1035796337359763e+01 0 -1 1
5109 1 9.9708054628224492e+00 1.8261476104278817e+01 2.2300663138369803e+01 1 0 0
349 1 5.9776928905901059e+00 1.7486833627901262e+01 2.3785417309730882e+01 0 -1 0
1378 1 1.0124967385137171e-01 1.4273349148924884e+01 1.5951817945397202e+01 0 0 1
4761 1 1.5805685664418945e+01 2.0582029948865173e+01 1.9493469590529543e+01 0 0 1
307 1 3.4462110922952807e+00 1.5812119060742219e+01 1.2584457721867368e+01 2 -1 0
2037 1 1.6141868407421615e+01 2.9959823310636713e+00 1.2697461647973389e+01 0 1 0
3185 1 1.5891217694122634e+01 9.8788535748520463e+00 1.6813403105308801e+01 0 0 1
3373 1 9.2580876043319282e+00 2.0530748941462061e+01 2.3793189696171432e+01 0 0 1
4758 1 2.5935578318695889e+00 2.4202070612023771e+01 1.6876382962713429e+01 2 1 1
1454 1 2.4935694073085073e+00 6.4141390264065050e+00 2.3497440238353459e+01 0 1 1
5597 1 1.5341527427737223e+01 2.2652003387083255e+01 2.3795076754813710e+01 0 -1 1
244 1 1.6298363109513577e+01 2.2511981231181661e+01 1.7245533140215827e+01 1 1 0
6674 1 8.9165379193847709e+00 1.5801359855221751e+01 1.1961123939978025e+01 1 0 0
623 2 0.0000000000000000e+00 2.8417180249513345e+00 2.6802458592442250e+01 0 0 0
625 2 0.0000000000000000e+00 0.0000000000000000e+00 2.6802458592442250e+01 0 0 0
627 2 1.2305000000000001e+00 7.1042950623783474e-01 2.6802458592442250e+01 0 0 0
634 2 1.2305000000000001e+00 2.1312885187134998e+00 2.6802458592442250e+01 0 0 0
636 2 2.4610000000000003e+00 2.8417180249513345e+00 2.6802458592442250e+01 0 0 0
638 2 2.4610000000000003e+00 0.0000000000000000e+00 2.6802458592442250e+01 0 0 0
640 2 3.6915000000000004e+00 7.1042950623783474e-01 2.6802458592442250e+01 0 0 0
655 2 3.6914999999999996e+00 2.1312885187134998e+00 2.6802458592442250e+01 0 0 0
657 2 4.9220000000000006e+00 2.8417180249513332e+00 2.6802458592442250e+01 0 0 0
659 2 4.9220000000000006e+00 0.0000000000000000e+00 2.6802458592442250e+01 0 0 0
661 2 6.1524999999999999e+00 7.1042950623783407e-01 2.6802458592442250e+01 0 0 0
684 2 6.1524999999999999e+00 2.1312885187134989e+00 2.6802458592442250e+01 0 0 0
686 2 7.3829999999999991e+00 2.8417180249513345e+00 2.6802458592442250e+01 0 0 0
688 2 7.3829999999999991e+00 0.0000000000000000e+00 2.6802458592442250e+01 0 0 0
5186 1 5.4546204077318905e-01 2.2666691092982624e+01 3.5503017385540446e+01 0 1 -1
690 2 8.6134999999999984e+00 7.1042950623783407e-01 2.6802458592442250e+01 0 0 0
721 2 8.6134999999999984e+00 2.1312885187135002e+00 2.6802458592442250e+01 0 0 0
723 2 9.8440000000000012e+00 2.8417180249513332e+00 2.6802458592442250e+01 0 0 0
725 2 9.8440000000000012e+00 0.0000000000000000e+00 2.6802458592442250e+01 0 0 0
727 2 1.1074500000000002e+01 7.1042950623783330e-01 2.6802458592442250e+01 0 0 0
766 2 1.1074500000000002e+01 2.1312885187135002e+00 2.6802458592442250e+01 0 0 0
1107 2 1.2305000000000000e+01 2.1312885187134999e+01 3.3259541407559816e+01 0 0 0
768 2 1.2305000000000000e+01 2.8417180249513332e+00 2.6802458592442250e+01 0 0 0
770 2 1.2305000000000000e+01 0.0000000000000000e+00 2.6802458592442250e+01 0 0 0
772 2 1.3535500000000001e+01 7.1042950623783518e-01 2.6802458592442250e+01 0 0 0
813 2 1.3535500000000001e+01 2.1312885187134984e+00 2.6802458592442250e+01 0 0 0
815 2 1.4765999999999998e+01 2.8417180249513350e+00 2.6802458592442250e+01 0 0 0
817 2 1.4765999999999998e+01 0.0000000000000000e+00 2.6802458592442250e+01 0 0 0
819 2 1.5996500000000003e+01 7.1042950623783518e-01 2.6802458592442250e+01 0 0 0
860 2 1.5996500000000003e+01 2.1312885187135002e+00 2.6802458592442250e+01 0 0 0
371 1 1.5917446908411090e+01 1.1085400820882400e+01 2.4178036071602410e+01 0 1 0
628 2 0.0000000000000000e+00 7.1042950623783341e+00 2.6802458592442250e+01 0 0 0
630 2 0.0000000000000000e+00 4.2625770374269996e+00 2.6802458592442250e+01 0 0 0
632 2 1.2305000000000001e+00 4.9730065436648339e+00 2.6802458592442250e+01 0 0 0
647 2 1.2305000000000001e+00 6.3938655561404980e+00 2.6802458592442250e+01 0 0 0
649 2 2.4610000000000003e+00 7.1042950623783341e+00 2.6802458592442250e+01 0 0 0
651 2 2.4610000000000003e+00 4.2625770374269996e+00 2.6802458592442250e+01 0 0 0
653 2 3.6914999999999996e+00 4.9730065436648339e+00 2.6802458592442250e+01 0 0 0
676 2 3.6914999999999996e+00 6.3938655561404980e+00 2.6802458592442250e+01 0 0 0