LAMMPS data file via write_data, version 16 Mar 2018, timestep = 100000

6768 atoms
2 atom types

2.9773579058466026e-01 4.8922264209414863e+01 xlo xhi
2.9652377200181590e-01 4.8723112158409194e+01 ylo yhi
-6.6270295963866488e-01 6.0724702959638797e+01 zlo zhi

Masses

1 18.015
2 12.01

Atoms # atomic

258 1 2.2318274875460142e+00 2.1529851673148945e+00 5.6970223696201971e-01 0 2 0
3472 1 4.6000527562523494e+00 1.7412969258579336e+00 1.6072857294909242e+00 -1 1 1
5658 1 5.5537279117713352e+00 4.2862189569821307e+00 2.4866197045432448e+00 0 1 1
3223 1 8.4991844701900678e+00 3.4827747844882713e+00 9.9376796463095385e+00 1 2 1
5597 1 8.7301984794233412e-01 8.5384796693400897e+00 7.7558324778090597e+00 0 -1 1
1509 1 6.6805988976293786e+00 1.8414687902676747e+00 8.5206875448258454e+00 0 0 1
3814 1 1.1813799499290402e+01 3.8557257360204678e+00 1.0729802611795686e+01 0 0 0
385 1 8.7519292172744816e+00 2.4626159780845320e+00 8.5740076255285924e-01 0 0 0
3782 1 1.1314822290418189e+00 8.6396606667772620e+00 3.3557307463192938e+00 2 -1 1
1563 1 1.8771062391580615e+00 5.2544518838840180e+00 1.2990297453668003e+00 1 0 0
248 1 7.0582651633569160e-01 2.4082690559759243e+01 2.6873638247488838e+00 1 -1 0
2089 1 3.4709305729839040e+00 6.6076936202573000e+00 2.8176641870411299e+00 -1 1 0
5518 1 9.7864521025115874e+00 5.2228106262020013e+00 3.6436950583835266e+00 0 0 0
4736 1 1.0431407323251427e+01 6.8902526092326974e+00 1.5960283941484801e+00 0 0 1
6574 1 6.7595222442356329e-01 9.4456759615737091e+00 4.2363625599212429e-01 1 0 1
3442 1 7.5688778385162072e+00 1.0709429474353641e+01 9.5142711076800008e+00 1 0 0
3672 1 3.0073845916093633e+00 1.0727711078000514e+01 6.7391613905756143e-01 1 0 1
4721 1 7.2668467629698688e+00 1.4372775239815498e+01 6.1171391740740533e-01 1 0 1
4767 1 4.8380354387527502e+00 8.9143257516938714e+00 1.8232861952975732e+00 0 1 1
4973 1 9.0836779417635594e+00 1.1337619700519264e+01 2.8759475034571342e+00 0 1 1
301 1 5.1014847328717217e+00 1.4910053860410843e+01 2.1475323395959141e+00 0 1 0
5569 1 1.2452065857315324e+01 6.4503097311891775e+00 3.3368381578519624e-02 1 0 0
3752 1 1.3060125725638958e+00 1.6609747474194183e+01 2.8845503686936635e-01 0 1 1
415 1 8.9383239103793848e+00 1.4034270804607889e+01 2.4158287075894411e+00 2 1 1
2122 1 7.7654365509465277e+00 1.5270177797021667e+01 4.6108973080905331e+00 1 -1 1
1535 1 1.1184254138785510e+01 1.6289712124807117e+01 3.7378627816593388e+00 2 -1 1
4720 1 2.1434320548163379e+00 1.7949722320432166e+01 2.3801672798566358e+00 2 0 1
104 1 1.2367167845514551e+01 2.1023226702224907e+01 8.3007202978147454e+00 -1 1 0
4811 1 1.1128529392448807e+00 1.6411753944421889e+01 4.1258091604401006e+00 1 0 1
57 1 8.5856549845258137e+00 1.7960549872964865e+01 3.3929399499429689e+00 2 -1 0
3451 1 4.6459879664439132e+00 1.9855484752821742e+01 1.8055472841900353e+00 0 0 0
1492 1 8.6277992709599829e+00 1.8962759630043131e+01 8.6999793975362860e-01 0 -1 0
529 1 1.1746051507937800e+01 1.8680257979018013e+01 5.8749990425184251e-03 0 0 0
3264 1 4.4726412720361086e+00 2.4350582426289442e+01 8.9277772393995947e-01 1 1 1
4758 1 1.0886199536454958e+01 1.4918213587914389e+01 2.9800882252018701e-01 2 1 1
287 1 1.1255136866180017e+01 9.4718150032202981e+00 1.9865077416430155e+00 0 -1 0
5231 1 7.1470097876647092e+00 2.1408798289552486e+01 1.3960308045695822e+00 0 0 0
6657 1 1.0995088427729874e+01 2.0879583693520910e+01 1.9509404238427384e+00 1 0 1
3960 1 1.2106566810942144e+01 1.4435072797068442e+00 7.1498944876842438e+00 0 0 1
5555 1 3.4466490111962891e+00 5.7056481359536297e+00 5.5659038925940632e+00 0 0 0
6680 1 3.7462197517061475e+00 2.6239853818425636e+00 5.7167309302224938e+00 0 0 0
2040 1 8.0420941294932504e+00 3.3906593157372535e+00 3.2598815207024079e+00 1 1 0
3071 1 5.1202895864012401e+00 7.4688429318595508e+00 7.3972565762593856e+00 2 0 1
4853 1 6.6651916515728775e+00 5.1263784667007064e+00 7.2556599452822006e+00 0 0 1
5544 1 1.2884125777560742e+00 1.5118539421060413e+00 5.9430644003073949e+00 2 0 0
274 1 1.3044963521329527e+00 5.9191860681581003e+00 7.2480646543623912e+00 1 1 0
5246 1 3.1442009638204746e+00 1.1993075828274412e+01 3.0238586243569121e+00 0 0 1
2315 1 6.3035101893161638e+00 1.0685477732108172e+01 4.1223372618541267e+00 1 1 1
3590 1 9.3319639196361628e+00 5.8871837245942942e+00 6.3537924284718512e+00 1 0 0
5435 1 1.0679820406154828e+01 3.8594096945519594e+00 7.8602437066630415e+00 -1 0 0
6712 1 1.0729402670669387e+01 2.3413548361187317e+01 7.8230300873373384e+00 0 -1 0
5346 1 4.3021906618830397e-01 2.0161469001446129e+01 1.9153237120029916e+00 2 0 0
6719 1 2.2438911454283912e+00 1.4174848926695690e+01 1.1335336743746340e+00 1 0 1
1591 1 1.9597607174098786e+00 1.0783206935800544e+01 5.2270084279827458e+00 0 -1 1
231 1 7.7143593864795141e+00 9.2419638674419708e+00 9.2027290275641538e-01 0 2 0
3135 1 8.8674069290897091e+00 1.1560136551856409e+01 7.1509675442791671e+00 0 1 1
1784 1 1.0573345408273161e+01 1.0456686788247929e+01 5.4125653120082466e+00 0 1 0
159 1 1.0951686864884062e+01 8.2220191823583288e+00 7.0150064571210597e+00 0 -1 0
5048 1 2.7808176109726070e+00 1.6192853296748410e+01 6.3738101360714907e+00 0 1 1
4859 1 1.1968909587363626e+01 9.9121257964179215e+00 1.1184455993573396e+01 0 1 1
3335 1 5.7787859262512233e+00 5.7074860020545923e+00 1.5882924611732019e-04 2 2 1
4953 1 4.3146987151124767e+00 1.4110111985809496e+01 6.7375258712407513e+00 0 1 1
5195 1 5.2986857500190663e+00 1.3431600859386892e+01 4.1789355124234184e+00 0 1 0
1870 1 8.5671166134926455e+00 1.4396942563153965e+01 7.1210792304031889e+00 -1 0 0
4945 1 1.1014167178897125e+01 1.5094692666333442e+01 7.8324113465547978e+00 1 2 1
5198 1 9.1858442897667345e+00 2.4405453518687260e+01 1.0113778887652714e+01 1 0 0
5132 1 1.8108823808442500e+00 2.4031419471014988e+01 4.0269455674612931e-01 0 1 0
5057 1 5.1411516201008594e+00 1.8989561118551627e+01 5.6427848103987355e+00 2 1 1
62 1 5.6522300102542271e+00 1.7519049734859102e+01 3.2827962618194313e+00 0 -1 0
224 1 7.1889470394403299e+00 2.0042515838757570e+01 7.1359597483140327e+00 3 0 0
6373 1 8.9720620687093131e+00 2.0030401881845446e+01 4.8714807256072712e+00 2 2 0
6595 1 1.0927707432664059e+01 1.9118308162049392e+01 6.7627022117060154e+00 0 0 1
3822 1 3.9916844497007138e+00 2.1158306784897647e+01 4.4165655137353204e+00 0 0 0
5141 1 2.3623731397719703e+00 1.6399087378617583e+01 1.0833553908932446e+01 0 0 0
5327 1 3.4408324904638050e+00 2.2949727122775215e+01 6.6659696966475552e+00 1 1 0
1588 1 1.0587643885139267e+01 2.0257544161864558e+01 1.0949104935812475e+01 -1 0 1
2342 1 6.0129089609247117e+00 2.2307929416140215e+01 7.0607509906700319e+00 0 -1 1
6730 1 8.3217292254106017e+00 2.3273143815940642e+01 6.0512669160233452e+00 0 1 0
3498 1 9.0997153084960996e+00 2.2579479672763242e+01 3.3103233478361038e+00 0 -1 0
243 1 3.5508921812955769e+00 2.5002650019229864e+00 9.0739670848387206e+00 0 1 0
3273 1 6.1698176569237155e+00 2.6394609919673115e+00 6.2147964739615924e+00 -1 0 1
3052 1 4.9388136546205530e+00 7.5040344794599649e+00 1.0231136185699778e+01 1 2 1
347 1 5.4807625677023646e+00 2.2636495488147371e+01 9.7619578309352306e+00 0 -1 0
3279 1 6.0074409713617172e-01 1.6225100615721885e+01 8.0801095217858894e+00 1 0 1
3465 1 1.1239156398706012e+01 1.0977992132510210e+00 -2.4365755678713624e-01 2 1 0
3758 1 8.3879025451433460e+00 9.9155737989717407e-01 4.8756817144849718e+00 2 0 0
3864 1 2.1380817375851562e+00 4.9406395550052364e+00 9.6420118423106640e+00 -1 1 0
1939 1 4.7429459957713882e-01 1.2694796931737869e+01 9.5253895184178834e+00 0 0 0
4779 1 2.5829516885484920e+00 1.1092241578583339e+01 9.5259542608277368e+00 0 1 1
548 1 1.2150953127724298e+01 1.7482978236138273e+01 8.9121824729401720e+00 0 0 1
1896 1 5.8301707598285493e+00 1.0119476723377590e+01 6.8058930547646286e+00 1 0 0
6359 1 1.3610302280467885e+00 2.1388856408608248e+01 -2.9799311594176869e-01 1 -1 1
1919 1 2.1418587068142259e+00 8.5412961545013086e+00 1.0561015153812789e+01 1 -1 0
3941 1 7.4316479186974069e+00 6.1681129487728876e+00 9.7682691980957053e+00 0 1 0
6667 1 2.7895594866288675e+00 2.2233708658901293e+01 1.0515267636810837e+01 1 1 0
295 1 3.7460640472150399e+00 1.1390017036938325e+01 7.4333416331366315e+00 0 -1 0
3603 1 5.1715795692042121e+00 2.3575995468054256e+01 3.3739601784420152e+00 0 0 0
2028 1 6.3395185621441241e+00 1.7107741048565339e+00 -3.3875339130068688e-01 1 1 0
472 1 1.2189256269818132e+00 7.0905222335698124e+00 -3.7533807666623370e-01 0 0 1
3344 1 1.3370594405530496e+00 2.1681556093312853e+01 3.9771177314237454e+00 0 0 0
191 1 6.2358881485040643e+00 1.5034739759287017e+01 8.3248308159517403e+00 1 0 1
3709 1 7.2721652778844588e+00 1.8667064146382899e+01 9.5666234391081257e+00 1 0 0
6607 1 1.1871481337032078e+01 1.3324282740055351e+01 9.9835170628122345e+00 2 0 1
6631 1 6.3964440732923036e+00 1.3090116289396001e+01 1.0462585523821422e+01 2 1 1
3750 1 2.0081300849152020e+00 2.0479731636188973e+01 7.9030651489705654e+00 1 -1 0
3731 1 4.9700489330997737e+00 1.7405941983878446e+01 9.7787329856712013e+00 0 1 0
373 1 3.6792634610405806e+00 1.8555407052224577e+01 7.7358438220466041e+00 1 0 0
6672 1 1.7509031920335802e+00 3.1630452401926362e-01 8.2953362343882162e+00 -1 0 0
3738 1 6.7668167617141917e+00 2.0749515904938320e+01 1.0908289019954537e+01 1 -1 0
6590 1 9.7260523415257989e+00 1.7527730888959468e+01 1.0617764995813454e+01 1 -1 0
3086 1 1.2419644884728404e+01 4.4252747519265130e+00 4.3546594311552784e+00 0 1 1
4969 1 8.7317331205744164e+00 6.6803935664075045e+00 -2.7078045549235419e-01 0 1 1
5568 1 1.1967007387126367e+01 1.9144992709215298e+01 4.0576209162480872e+00 1 0 0
5537 1 9.9189213783070080e+00 1.1815761018326841e+01 1.0871165945483721e+01 1 1 1
6366 1 1.2125931336002484e+01 1.4800710935199968e+01 5.6528238537813076e+00 0 1 1
3506 1 6.6156259708606182e+00 4.0421604071027293e+00 1.6025886769707370e+01 1 0 0
6630 1 1.7749351818665953e+00 5.3051208149357247e+00 1.3739552291363911e+01 1 1 1
6455 1 1.0295741272038070e+01 2.0939500319470481e+00 1.2289808645262886e+01 -1 1 1
5474 1 6.0521418790907235e+00 3.0350227996607804e+00 1.1779901569660240e+01 1 0 0
3798 1 1.2251996191094999e+01 4.8716071043405487e+00 1.4744736535510038e+01 0 1 1
3220 1 8.5137067927592671e+00 1.9818507956577760e+00 2.3574047977954056e+01 1 0 0
2257 1 1.0058772900782161e+01 9.2740384926079216e+00 2.2839773693480119e+01 1 1 0
299 1 2.9981434206408846e+00 4.8047237340484186e+00 1.6063183817408017e+01 -1 1 0
3892 1 8.9948672123926621e-01 4.1419850601826376e+00 2.0892602945522675e+01 1 1 0
5014 1 5.9542574422044456e+00 7.0553401149500674e+00 1.3733470479701079e+01 2 1 1
3927 1 1.0668652987357282e+01 7.6903708806209119e+00 1.2211414737435668e+01 1 2 0
5053 1 1.2174282124323270e+01 1.4084222193376236e+01 2.0021273674886729e+01 1 0 1
5226 1 2.9669383344804503e+00 7.9655740253148313e+00 1.3758111184197904e+01 2 1 1
5424 1 2.3475892694598026e+00 1.9511601858294036e+01 2.0710998267672860e+01 1 1 0
6736 1 4.9261332786040510e+00 1.0661163405749528e+01 1.4115605200343156e+01 1 1 1
1843 1 6.4026578582551208e+00 1.2949724308610715e+01 1.4728947408375547e+01 0 0 0
2088 1 7.2329713047099515e+00 9.2754407087150152e+00 1.5079412870229058e+01 1 1 0
6622 1 9.8574722685696567e+00 1.2152294526312016e+01 1.3780568057490328e+01 -1 2 1
3844 1 1.0069919547658408e+01 9.3040156960877471e+00 1.4354532945479072e+01 1 0 0
4869 1 3.7703283526873812e+00 1.4587347647927023e+01 1.2981131881714337e+01 0 1 1
3887 1 7.7539948499611473e+00 2.4446756729523617e+01 2.0601611310058836e+01 0 2 0
4917 1 3.1620938822773774e+00 1.7292663354298401e+00 2.1300642603722181e+01 1 0 1
253 1 7.5574305264633979e-01 8.7282894881369142e+00 2.0654429392914608e+01 1 1 0
2106 1 8.9742620903782129e+00 1.7512580265409351e+01 1.3668353916946614e+01 0 1 0
3409 1 5.9090847043503452e+00 1.6309969538635475e+01 1.2905432382394286e+01 0 0 0
2222 1 4.0630143271546579e+00 2.2781024454120942e+01 2.0644499992583874e+01 1 1 0
5482 1 7.7161027237385200e+00 1.4162309629729284e+01 1.2497817750534798e+01 1 1 0
3247 1 3.5711035414495336e+00 2.1027562356888524e+01 1.3271243218453368e+01 0 1 1
186 1 1.8593164626258747e+00 1.8873893850347862e+01 1.2244310255372419e+01 0 0 0
5397 1 3.3383375817171625e+00 2.1056419070934513e+01 1.6346601448160186e+01 1 1 0
3041 1 5.7468720456019993e+00 2.3639722112133779e+01 1.4676626263431530e+01 0 1 1
371 1 8.9780773781483276e+00 2.2255765615400747e+01 1.1833913856577484e+01 0 1 0
3647 1 7.5181830032961576e+00 2.1805381870492109e+01 1.5079159508059533e+01 1 0 0
5290 1 1.0379425332649259e+01 1.9861686915331180e+01 1.4600701750835949e+01 1 0 0
1683 1 3.5703911524050320e+00 2.4349396593801352e+01 1.3115315765652133e+01 -1 0 1
3838 1 1.5185928400493518e+00 1.2108163849340379e+01 1.8234303195775876e+01 1 0 0
6744 1 1.0708491425118694e+01 2.3239151770482952e+01 1.7577997197712055e+01 1 0 1
105 1 7.1498764104080452e+00 5.9413309840083564e+00 2.3331838788063585e+01 1 1 1
5266 1 1.0267199654988008e+01 2.2813072189297408e+01 1.4935281055287650e+01 1 0 0
6739 1 1.0445344621883754e+01 6.0106330507417027e+00 2.0196144436552270e+01 1 1 0
1783 1 3.0514280459816234e-01 2.1176778380744288e+01 1.7446311189156820e+01 0 0 0
4929 1 1.2255045314974504e+00 2.4677967288347369e+00 1.2876819156664441e+01 1 -1 0
5000 1 5.7811663512397242e+00 3.6869487789295481e+00 1.9954802437490336e+01 0 0 1
3257 1 1.1253576609929000e+01 1.9910621510287925e+00 1.9655835283785571e+01 0 0 0
5502 1 8.1652127027219574e+00 1.9960535990391377e+00 1.7032724569853539e+01 -1 1 0
5085 1 1.9692391132503821e+00 8.7744433377683428e+00 1.6097282018670388e+01 1 0 1
2216 1 7.7933609424158279e-01 1.8519213228403441e+01 1.6873727954626773e+01 0 1 0
5649 1 4.1715326180466210e+00 7.3491108169773449e+00 1.7180792520909186e+01 1 2 1
3065 1 7.0264980070250962e+00 6.7194147156530342e+00 1.6830617292834486e+01 0 1 1
5552 1 8.1659686787910442e+00 3.5002506177925388e+00 1.3639331900146928e+01 0 1 0
3945 1 6.8495223621319683e+00 7.7503679934503529e+00 1.9508371165856342e+01 0 0 1
542 1 6.3342555770307207e+00 8.1736164235589150e+00 2.3726428463443291e+01 1 0 0
3040 1 1.1448221595733489e+01 8.0422191271397807e+00 1.6040844386431584e+01 0 2 1
5448 1 9.8119102301450631e+00 5.4595574238797591e+00 1.5725871037642925e+01 1 0 0
2027 1 3.5648445610384849e+00 1.1121009803693402e+01 1.6543712996698478e+01 0 0 0
5109 1 6.0238651589457044e+00 1.0086284629306764e+01 1.7563176131342576e+01 1 1 0
2128 1 7.5576115640349864e+00 1.2430339606456613e+01 1.7284467268420915e+01 1 0 0
4784 1 1.1741680520132332e+01 9.2011005306969018e+00 1.8640675604642002e+01 1 1 1
3101 1 6.1053177393654199e+00 3.1399586404878042e+00 2.3076272442968172e+01 0 1 1
3697 1 2.7728081165297813e+00 1.5461417644959567e+01 1.5524654080263016e+01 1 0 0
6458 1 7.6728752988992097e+00 1.5683099625456022e+01 1.7101209039398686e+01 1 0 1
6539 1 1.0300653451588790e+01 1.2832492553919854e+01 1.6664044455073785e+01 0 1 1
6641 1 1.0061716973768522e+01 1.5411358266527685e+01 1.5833130791928006e+01 1 1 0
6737 1 8.0205456903865162e+00 1.6029232448736643e+01 1.9582043058038369e+01 -1 2 0
5408 1 3.4917896175009595e+00 1.8302600321416133e+01 1.6774632421782506e+01 2 1 0
3761 1 1.3570087604681695e+00 2.1791315122987019e+01 1.9685671151939438e+01 1 -1 0
3771 1 6.1917084724481040e+00 1.7586877410855980e+01 1.5149660353297065e+01 0 -1 0
249 1 6.1255591982417190e+00 2.0497197132031634e+01 2.0540573065919087e+01 2 0 0
1975 1 7.7631876989541926e-01 1.1246600768321635e+00 1.6126500120845787e+01 0 1 0
5238 1 9.7482756273507913e+00 1.9575598913462795e+01 1.7359484987594016e+01 1 -1 0
5705 1 2.5955269233491562e+00 1.4333330986407635e+01 2.1544759062677411e+01 1 0 0
133 1 1.0431089282409514e+00 8.6911163020170505e+00 2.3465111778921351e+01 0 1 0
3853 1 5.3846587077472687e+00 2.2132636432953067e+01 1.7890763410152246e+01 1 1 0
4874 1 1.0349554182484395e+01 1.5036774793463234e+01 1.2753315359315197e+01 0 0 1
1912 1 6.9109385962788190e+00 1.9867323931828984e+01 1.7331827347818368e+01 0 0 0
5204 1 8.6251608954293921e+00 2.1966923150818914e+01 2.0519051361942328e+01 1 1 0
1334 1 5.1590906620332113e+00 1.9969188231780786e+00 1.4517496345621412e+01 -2 0 1
1814 1 1.1223071274210902e+01 2.0930733318490102e+01 1.9270081905475678e+01 1 2 0
4865 1 3.8879206458688413e+00 2.7119854747362586e+00 1.7720231701912578e+01 1 0 1
1887 1 3.6899102744286010e+00 5.1447061206166387e+00 2.0823288079222579e+01 1 1 0
6669 1 1.0169070123269339e+00 4.9012262149557602e+00 1.7985927485154441e+01 1 1 1
3578 1 8.3030547441588123e+00 6.1652515320862529e+00 1.2400977576085904e+01 0 1 0
48 1 6.9350896248004226e+00 9.8141136913574256e-01 1.9473294339903227e+01 0 0 1
1781 1 9.1467710913264266e+00 9.3115331144699454e-01 2.0962753053858879e+01 -2 1 0
2321 1 9.8125614913327563e+00 3.9532216623963850e+00 1.8160959050799356e+01 0 0 0
1914 1 1.0489540754767384e+01 4.1016868671707654e+00 2.2825394310202629e+01 0 2 0
6413 1 1.3512940171813577e+00 2.2838434908715563e+01 1.5414738556534719e+01 1 0 0
1894 1 7.1342037716773565e-01 1.4374686378178019e+01 1.1802556916099745e+01 1 0 0
3145 1 4.2283137783479336e+00 1.8713962074065407e+01 1.9122333941539640e+01 -1 1 0
4735 1 2.2739530629413860e+00 1.9825622504840371e+01 2.3629278569383558e+01 -1 1 0
1418 1 5.0653304197264619e+00 8.9202623984903067e+00 2.1557909630304902e+01 1 0 1
5524 1 7.7860876102707319e+00 5.4339072286777377e+00 2.0668353393098165e+01 2 1 0
1949 1 1.2210231668190513e+01 1.2256685041978198e+01 1.8173472717092935e+01 0 1 0
5077 1 9.6580462216223815e+00 9.0741403637591187e+00 2.0283071148667617e+01 0 1 0
3951 1 1.1416446916770575e+01 1.7255182479671394e+01 1.6914600413674759e+01 0 1 1
2244 1 9.8647886197320247e+00 6.8146475172397203e+00 2.3655458264323059e+01 0 2 1
1759 1 3.1149148424412374e+00 7.6537326292352903e+00 1.9889933325676729e+01 1 1 0
5021 1 3.8457104435121443e+00 1.3026259670871928e+01 1.9480300667185777e+01 0 0 1
1739 1 2.9913156744092989e-01 1.5578567462608122e+00 2.1365859933892594e+01 1 1 0
42 1 5.3372972981752742e+00 1.1517703014637474e+01 2.1036671554949898e+01 -1 -1 0
6439 1 5.0627508506288388e+00 1.4475481400969796e+01 1.7077611419381604e+01 1 0 1
6515 1 7.3185149127952736e+00 1.7636851286757143e+01 2.3754860494641740e+01 0 0 0
3751 1 1.1959270018108835e+01 1.6703971931810457e+01 1.9463299031990836e+01 1 0 0
1323 1 7.7999879510415884e+00 1.1539140751581698e+01 2.0399133079590992e+01 1 0 1
103 1 7.8911604479548547e+00 1.8330256007663966e+01 2.1241076901363236e+01 1 -1 0
5564 1 1.1771389351139446e+01 2.0673742967078674e+01 2.3330770583026478e+01 0 -1 0
2239 1 3.8507332091172108e-01 1.4214816060565424e+01 1.6876057823003350e+01 0 0 0
1333 1 5.3589994714586959e+00 1.5944697594356002e+01 2.0134889967941238e+01 -1 -1 1
5432 1 2.2746245120374091e+00 2.4490321261005334e+01 1.8422633461780908e+01 2 2 1
448 1 5.9358125002057323e+00 1.9921857201655847e+01 1.3410501765066874e+01 1 0 0
2192 1 9.4653201160143734e+00 1.4037995015517593e+01 2.1084916826289092e+01 1 1 0
3372 1 1.0892737537405100e+01 1.8802620542129368e+01 2.1192866603565054e+01 -2 -1 1
2270 1 5.7230427833899347e+00 1.5411030730451079e+01 2.2989553415863991e+01 0 0 1
3557 1 9.9150332141551338e+00 3.8194433386165727e-01 1.4625967514077255e+01 0 0 0
5428 1 4.4501587768502340e+00 2.1720361374252015e+01 2.2999490606021578e+01 0 1 0
1547 1 4.8960722889103172e+00 1.2674365312530732e+01 2.3483192298299844e+01 1 0 1
2190 1 9.4382953958326326e+00 2.1937856608530783e+01 2.3090875496901447e+01 0 -1 1
2043 1 3.9081492346881328e+00 5.2118897468430250e+00 2.3646989183425866e+01 -1 2 0
3419 1 6.8828565880033761e+00 2.0525982038063159e+01 2.3848040097930934e+01 1 2 0
174 1 1.2003423242421645e+01 1.7885582241764208e+01 2.3631009116326656e+01 0 -1 0
5476 1 4.8873712327587624e+00 6.9080760878368008e-01 2.3617962454341871e+01 2 0 0
3879 1 1.2297234457756410e+01 1.2941175850094114e+01 2.3519420673663539e+01 1 1 1
3312 1 2.8544107925995310e+00 1.7022224614790424e+01 2.3527045669480454e+01 1 1 1
3890 1 9.7423814460251978e-01 4.5142475486003866e+00 2.3620845799378877e+01 0 2 0
2195 1 4.9631446552464036e+00 2.4478518315052231e+01 2.3880376411301459e+01 0 -1 0
1752 1 4.2703100875911080e+00 5.2809014807361097e+00 1.1640928539891251e+01 1 0 0
2264 1 3.5640261504408390e+00 1.5431779939213710e+00 1.1622624603782905e+01 0 1 1
313 1 4.0199482053334901e+00 1.2175117689273257e+01 1.1657078086525427e+01 0 0 0
433 1 6.3077836587102540e+00 9.4019666268755131e+00 1.1695765747205570e+01 0 0 0
623 2 2.9773579058466026e-01 3.1038622291849625e+00 2.6752043940849422e+01 0 0 0
625 2 2.9773579058466026e-01 2.9652377200181590e-01 2.6752043940849422e+01 0 0 0
627 2 1.5133490010554205e+00 9.9835838629756180e-01 2.6752043940849422e+01 0 0 0
634 2 1.5133490010554205e+00 2.4020276148891258e+00 2.6752043940849422e+01 0 0 0
636 2 2.7289622115261807e+00 3.1038622291849625e+00 2.6752043940849422e+01 0 0 0
638 2 2.7289622115261807e+00 2.9652377200181590e-01 2.6752043940849422e+01 0 0 0
640 2 3.9445754219968712e+00 9.9835838629756180e-01 2.6752043940849422e+01 0 0 0
655 2 3.9445754219968712e+00 2.4020276148891258e+00 2.6752043940849422e+01 0 0 0
657 2 5.1601886324677011e+00 3.1038622291849625e+00 2.6752043940849422e+01 0 0 0
659 2 5.1601886324677011e+00 2.9652377200181590e-01 2.6752043940849422e+01 0 0 0
661 2 6.3758018429384338e+00 9.9835838629756180e-01 2.6752043940849422e+01 0 0 0
684 2 6.3758018429384338e+00 2.4020276148891258e+00 2.6752043940849422e+01 0 0 0
686 2 7.5914150534090821e+00 3.1038622291849625e+00 2.6752043940849422e+01 0 0 0
688 2 7.5914150534090821e+00 2.9652377200181590e-01 2.6752043940849422e+01 0 0 0
690 2 8.8070282638797543e+00 9.9835838629756180e-01 2.6752043940849422e+01 0 0 0
721 2 8.8070282638797543e+00 2.4020276148891258e+00 2.6752043940849422e+01 0 0 0
723 2 1.0022641474350742e+01 3.1038622291849625e+00 2.6752043940849422e+01 0 0 0
725 2 1.0022641474350742e+01 2.9652377200181590e-01 2.6752043940849422e+01 0 0 0
727 2 1.1238254684821477e+01 9.9835838629756180e-01 2.6752043940849422e+01 0 0 0
766 2 1.1238254684821477e+01 2.4020276148891258e+00 2.6752043940849422e+01 0 0 0
768 2 1.2453867895292207e+01 3.1038622291849625e+00 2.6752043940849422e+01 0 0 0
770 2 1.2453867895292207e+01 2.9652377200181590e-01 2.6752043940849422e+01 0 0 0
628 2 2.9773579058466026e-01 7.3148699149590479e+00 2.6752043940849422e+01 0 0 0
630 2 2.9773579058466026e-01 4.5075314577764356e+00 2.6752043940849422e+01 0 0 0
632 2 1.5133490010554205e+00 5.2093660720720623e+00 2.6752043940849422e+01 0 0 0
647 2 1.5133490010554205e+00 6.6130353006634266e+00 2.6752043940849422e+01 0 0 0
649 2 2.7289622115261807e+00 7.3148699149590479e+00 2.6752043940849422e+01 0 0 0
651 2 2.7289622115261807e+00 4.5075314577764356e+00 2.6752043940849422e+01 0 0 0
653 2 3.9445754219968712e+00 5.2093660720720623e+00 2.6752043940849422e+01 0 0 0
676 2 3.9445754219968712e+00 6.6130353006634266e+00 2.6752043940849422e+01 0 0 0
678 2 5.1601886324677011e+00 7.3148699149590479e+00 2.6752043940849422e+01 0 0 0
680 2 5.1601886324677011e+00 4.5075314577764356e+00 2.6752043940849422e+01 0 0 0
682 2 6.3758018429384338e+00 5.2093660720720623e+00 2.6752043940849422e+01 0 0 0
713 2 6.3758018429384338e+00 6.6130353006634266e+00 2.6752043940849422e+01 0 0 0
715 2 7.5914150534090821e+00 7.3148699149590479e+00 2.6752043940849422e+01 0 0 0
717 2 7.5914150534090821e+00 4.5075314577764356e+00 2.6752043940849422e+01 0 0 0
3477 1 9.1881953864064823e+00 2.4432977294531852e+01 2.4020778790866746e+01 1 1 0
719 2 8.8070282638797543e+00 5.2093660720720623e+00 2.6752043940849422e+01 0 0 0
758 2 8.8070282638797543e+00 6.6130353006634266e+00 2.6752043940849422e+01 0 0 0
760 2 1.0022641474350742e+01 7.3148699149590479e+00 2.6752043940849422e+01 0 0 0
762 2 1.0022641474350742e+01 4.5075314577764356e+00 2.6752043940849422e+01 0 0 0
764 2 1.1238254684821477e+01 5.2093660720720623e+00 2.6752043940849422e+01 0 0 0
805 2 1.1238254684821477e+01 6.6130353006634266e+00 2.6752043940849422e+01 0 0 0
807 2 1.2453867895292207e+01 7.3148699149590479e+00 2.6752043940849422e+01 0 0 0
809 2 1.2453867895292207e+01 4.5075314577764356e+00 2.6752043940849422e+01 0 0 0
6487 1 6.0365438957771591e+00 2.4152680099700724e+01 3.5430966591700695e+01 0 -1 0
641 2 2.9773579058466026e-01 1.1525877600734402e+01 2.6752043940849422e+01 0 0 0
643 2 2.9773579058466026e-01 8.7185391435510553e+00 2.6752043940849422e+01 0 0 0
645 2 1.5133490010554205e+00 9.4203737578467148e+00 2.6752043940849422e+01 0 0 0
668 2 1.5133490010554205e+00 1.0824042986438101e+01 2.6752043940849422e+01 0 0 0
670 2 2.7289622115261807e+00 1.1525877600734402e+01 2.6752043940849422e+01 0 0 0
672 2 2.7289622115261807e+00 8.7185391435510553e+00 2.6752043940849422e+01 0 0 0
674 2 3.9445754219968712e+00 9.4203737578467148e+00 2.6752043940849422e+01 0 0 0
705 2 3.9445754219968712e+00 1.0824042986438101e+01 2.6752043940849422e+01 0 0 0
1849 1 9.7454266260717581e+00 1.6465971745131480e+01 2.4449015836240861e+01 0 2 0
707 2 5.1601886324677011e+00 1.1525877600734402e+01 2.6752043940849422e+01 0 0 0
709 2 5.1601886324677011e+00 8.7185391435510553e+00 2.6752043940849422e+01 0 0 0
711 2 6.3758018429384338e+00 9.4203737578467148e+00 2.6752043940849422e+01 0 0 0
750 2 6.3758018429384338e+00 1.0824042986438101e+01 2.6752043940849422e+01 0 0 0
752 2 7.5914150534090821e+00 1.1525877600734402e+01 2.6752043940849422e+01 0 0 0
754 2 7.5914150534090821e+00 8.7185391435510553e+00 2.6752043940849422e+01 0 0 0
1409 1 4.7648429344768373e-01 1.5929301305124593e+01 2.4498555964211949e+01 -1 0 1
756 2 8.8070282638797543e+00 9.4203737578467148e+00 2.6752043940849422e+01 0 0 0
797 2 8.8070282638797543e+00 1.0824042986438101e+01 2.6752043940849422e+01 0 0 0
799 2 1.0022641474350742e+01 1.1525877600734402e+01 2.6752043940849422e+01 0 0 0
801 2 1.0022641474350742e+01 8.7185391435510553e+00 2.6752043940849422e+01 0 0 0
803 2 1.1238254684821477e+01 9.4203737578467148e+00 2.6752043940849422e+01 0 0 0
844 2 1.1238254684821477e+01 1.0824042986438101e+01 2.6752043940849422e+01 0 0 0
846 2 1.2453867895292207e+01 1.1525877600734402e+01 2.6752043940849422e+01 0 0 0
848 2 1.2453867895292207e+01 8.7185391435510553e+00 2.6752043940849422e+01 0 0 0
494 1 9.9566725301608621e+00 2.0865230025040633e+00 3.5860235086250341e+01 0 -1 -1
662 2 2.9773579058466026e-01 1.5736885286508638e+01 2.6752043940849422e+01 0 0 0
664 2 2.9773579058466026e-01 1.2929546829325037e+01 2.6752043940849422e+01 0 0 0
666 2 1.5133490010554205e+00 1.3631381443621262e+01 2.6752043940849422e+01 0 0 0
697 2 1.5133490010554205e+00 1.5035050672212980e+01 2.6752043940849422e+01 0 0 0
699 2 2.7289622115261807e+00 1.5736885286508638e+01 2.6752043940849422e+01 0 0 0
701 2 2.7289622115261807e+00 1.2929546829325037e+01 2.6752043940849422e+01 0 0 0
703 2 3.9445754219968712e+00 1.3631381443621262e+01 2.6752043940849422e+01 0 0 0
742 2 3.9445754219968712e+00 1.5035050672212980e+01 2.6752043940849422e+01 0 0 0
744 2 5.1601886324677011e+00 1.5736885286508638e+01 2.6752043940849422e+01 0 0 0
746 2 5.1601886324677011e+00 1.2929546829325037e+01 2.6752043940849422e+01 0 0 0
748 2 6.3758018429384338e+00 1.3631381443621262e+01 2.6752043940849422e+01 0 0 0
789 2 6.3758018429384338e+00 1.5035050672212980e+01 2.6752043940849422e+01 0 0 0
791 2 7.5914150534090821e+00 1.5736885286508638e+01 2.6752043940849422e+01 0 0 0
793 2 7.5914150534090821e+00 1.2929546829325037e+01 2.6752043940849422e+01 0 0 0
795 2 8.8070282638797543e+00 1.3631381443621262e+01 2.6752043940849422e+01 0 0 0
836 2 8.8070282638797543e+00 1.5035050672212980e+01 2.6752043940849422e+01 0 0 0
838 2 1.0022641474350742e+01 1.5736885286508638e+01 2.6752043940849422e+01 0 0 0
840 2 1.0022641474350742e+01 1.2929546829325037e+01 2.6752043940849422e+01 0 0 0
842 2 1.1238254684821477e+01 1.3631381443621262e+01 2.6752043940849422e+01 0 0 0
878 2 1.1238254684821477e+01 1.5035050672212980e+01 2.6752043940849422e+01 0 0 0
880 2 1.2453867895292207e+01 1.5736885286508638e+01 2.6752043940849422e+01 0 0 0
882 2 1.2453867895292207e+01 1.2929546829325037e+01 2.6752043940849422e+01 0 0 0
5340 1 7.6916007742496966e+00 1.2496253672306063e+01 2.3895520618537706e+01 0 1 0
691 2 2.9773579058466026e-01 1.9947892972282801e+01 2.6752043940849422e+01 0 0 0
693 2 2.9773579058466026e-01 1.7140554515100295e+01 2.6752043940849422e+01 0 0 0
695 2 1.5133490010554205e+00 1.7842389129396178e+01 2.6752043940849422e+01 0 0 0
734 2 1.5133490010554205e+00 1.9246058357987771e+01 2.6752043940849422e+01 0 0 0
736 2 2.7289622115261807e+00 1.9947892972282801e+01 2.6752043940849422e+01 0 0 0
738 2 2.7289622115261807e+00 1.7140554515100295e+01 2.6752043940849422e+01 0 0 0
740 2 3.9445754219968712e+00 1.7842389129396178e+01 2.6752043940849422e+01 0 0 0
781 2 3.9445754219968712e+00 1.9246058357987771e+01 2.6752043940849422e+01 0 0 0
783 2 5.1601886324677011e+00 1.9947892972282801e+01 2.6752043940849422e+01 0 0 0
785 2 5.1601886324677011e+00 1.7140554515100295e+01 2.6752043940849422e+01 0 0 0
787 2 6.3758018429384338e+00 1.7842389129396178e+01 2.6752043940849422e+01 0 0 0
828 2 6.3758018429384338e+00 1.9246058357987771e+01 2.6752043940849422e+01 0 0 0
830 2 7.5914150534090821e+00 1.9947892972282801e+01 2.6752043940849422e+01 0 0 0
832 2 7.5914150534090821e+00 1.7140554515100295e+01 2.6752043940849422e+01 0 0 0
834 2 8.8070282638797543e+00 1.7842389129396178e+01 2.6752043940849422e+01 0 0 0
870 2 8.8070282638797543e+00 1.9246058357987771e+01 2.6752043940849422e+01 0 0 0
872 2 1.0022641474350742e+01 1.9947892972282801e+01 2.6752043940849422e+01 0 0 0
874 2 1.0022641474350742e+01 1.7140554515100295e+01 2.6752043940849422e+01 0 0 0
876 2 1.1238254684821477e+01 1.7842389129396178e+01 2.6752043940849422e+01 0 0 0
904 2 1.1238254684821477e+01 1.9246058357987771e+01 2.6752043940849422e+01 0 0 0
908 2 1.2453867895292207e+01 1.7140554515100295e+01 2.6752043940849422e+01 0 0 0
5379 1 1.0569041615390663e+01 6.1980372298812174e+00 3.5916336917238212e+01 0 0 -1
1078 2 8.8070282638797543e+00 2.2053396815170366e+01 3.3309956059150657e+01 0 0 0
728 2 2.9773579058466026e-01 2.4158900658057110e+01 2.6752043940849422e+01 0 0 0
730 2 2.9773579058466026e-01 2.1351562200874387e+01 2.6752043940849422e+01 0 0 0