LAMMPS data file via write_data, version 16 Mar 2018, timestep = 6000000

6768 atoms
2 atom types

0.0000000000000000e+00 4.9219999999999999e+01 xlo xhi
0.0000000000000000e+00 4.9019635930410494e+01 ylo yhi
-1.1728170036800130e+00 6.1234817003689045e+01 zlo zhi

Masses

1 18.015
2 12.01

Atoms # atomic

1912 1 1.1807567089204605e+01 2.3736472059122470e+01 9.8930562706492999e+00 0 -1 0
5051 1 7.0343109711776097e-01 1.5263099088386070e+00 2.5645596327911173e+00 4 -1 0
3731 1 1.1124467093889024e+01 2.1229338020727756e+01 9.1457823972697749e+00 -1 2 0
3758 1 5.9103043671190472e+00 3.4158642452070369e+00 1.8234237255096781e+00 -2 1 0
3599 1 1.6903424640423770e+00 2.0765405475892813e+01 -8.1584767441634298e-01 2 0 0
5354 1 5.0738771231892041e+00 7.5007619257246649e-01 2.6923457133232223e+00 0 2 0
5160 1 1.0334598921783224e+01 2.1436562982372775e+00 2.0721501959255422e+00 3 1 0
3298 1 1.3941471764083023e+01 5.7041067311929385e+00 -8.5976791263626096e-01 -2 -3 1
1569 1 1.4792056219532002e+01 1.2028534398712167e+00 -6.6633106130252917e-01 0 2 1
5621 1 1.4648896415266760e+01 9.5972797451130121e-01 2.0513506968324209e+00 0 0 1
5193 1 1.2851393853078447e+01 3.0410151321597767e+00 2.8615536944177533e+00 -1 1 0
2173 1 1.6388150577490523e+00 4.1822531446948066e+00 2.2425150106001568e+00 -1 0 0
156 1 2.5750195298902083e+00 1.6833317921881477e+01 -6.5166522796863713e-01 1 1 0
356 1 4.2303324628405354e+00 5.1382331896301565e+00 3.2032648307508094e+00 -2 5 0
3307 1 5.1011875257700368e+00 7.6134339492843477e+00 2.0110927336445559e+00 0 0 1
4873 1 2.8110068975613445e-01 1.5547768708638765e+01 9.3508850720938348e+00 -1 1 1
3047 1 8.3517658942536261e+00 4.2963283500347922e+00 2.8332352625808452e+00 -1 0 1
5554 1 9.2073699906933317e+00 6.8921963287263637e+00 2.1248951350412790e+00 2 2 0
6496 1 1.1778108544913932e+01 7.4261130233857964e+00 2.8769356461100459e+00 2 0 1
6530 1 6.9763642747585655e+00 1.5741556509906395e+01 -7.9543803811123848e-01 3 2 1
4988 1 1.3560761756992594e+01 5.6782421302629835e+00 1.8532602445584407e+00 1 2 1
1941 1 2.7886926736917830e+00 9.4683056629549789e+00 -8.7912674453575013e-01 0 0 0
1730 1 6.0627303369090990e+00 3.2797807847810994e+00 -9.6885180330088372e-01 1 0 1
5699 1 5.1209161362562039e+00 2.4425983542203998e+01 -6.6781426335664285e-01 -1 -1 1
6638 1 6.2243091719404235e+00 2.0116765756952915e+01 -6.7379040222422582e-01 2 0 1
3085 1 3.9217081811721171e+00 1.2012823086044833e+01 2.0360967280340061e+00 2 0 1
2062 1 6.7455449695437786e-01 8.8015255612328183e+00 2.0246555106931026e+00 -1 1 0
6512 1 8.4643616938921671e+00 1.0867945569188938e+01 2.0109887667888446e+00 0 1 1
1746 1 1.6501465521773895e-01 6.2407310750602152e+00 9.5941269574458357e+00 -2 1 0
6724 1 1.6090225669641512e+01 6.3379221027571324e+00 2.6704256680080363e+00 0 0 1
510 1 1.2563568494771250e+01 1.0071476383795567e+01 2.2396540304377441e+00 -1 1 0
5239 1 1.5204363606062250e+01 1.0959175248832473e+01 2.6295108445066502e+00 -2 3 1
386 1 1.6074920692311984e+01 6.3485984418554260e+00 5.3650518116328083e+00 0 0 0
1577 1 2.1565390539593023e+00 1.4032017580233639e+01 3.0802605721290597e+00 0 1 1
3771 1 1.0427586081055022e+01 1.8999138110660457e+01 -8.2883377812014913e-01 -1 0 0
6712 1 7.1721872182030113e+00 1.5632957959523452e+01 1.7791500352539455e+00 0 0 0
1609 1 6.7011355720764927e+00 1.2871915323387643e+01 2.5064761811582015e+00 -1 0 1
5384 1 1.1474780014003388e+01 1.4284360227508104e+01 2.1023972719406081e+00 0 2 1
1337 1 9.5963442047208805e+00 1.6441027634144916e+01 2.8902876758256175e+00 0 -1 1
3788 1 4.9918622479244616e+00 2.4340002276193061e+01 2.0212469398448434e+00 -1 -2 0
1578 1 1.6019426481993516e+01 1.3429228030136443e+01 1.6344806877291127e+00 -2 0 1
1937 1 9.0306539685136382e+00 6.8845701695863228e+00 -9.9319284473770630e-01 0 0 0
4742 1 2.5267245302044632e+00 1.6655772172476759e+01 2.2347372769737803e+00 0 -3 1
4010 1 5.9488964496169334e+00 1.9963761297448077e+01 1.9619296336656640e+00 1 0 0
6406 1 5.1799177639654781e+00 1.7552321468503294e+01 2.9137449321740121e+00 3 0 1
1666 1 1.0289390863105641e+01 2.4784449976571574e+00 -6.3541555688210716e-01 -1 2 0
5300 1 1.6331460689069711e+01 6.2992512511330352e+00 9.9125685254242235e+00 1 1 0
5060 1 1.0358529751806033e+01 1.8915006036760342e+01 2.0043962711582424e+00 -4 -1 1
3279 1 6.6308036253122999e+00 2.2228295420514144e+01 9.0974886945475735e+00 1 -3 1
2312 1 1.4990571333155666e+01 1.7539420528396274e+01 1.7314949759407350e+00 1 -1 1
352 1 8.2751341278651012e+00 1.1252112832246842e+01 -6.2462585638730328e-01 3 0 0
3359 1 1.7214937741479266e+00 2.1083522562808255e+01 1.9923653692009915e+00 -3 2 0
3510 1 4.2493289030585135e+00 2.1864755489261583e+01 3.0150367294741400e+00 4 1 0
2285 1 3.1921073846249420e-01 8.6624924898262421e+00 -6.0802792518984938e-01 -2 0 1
4871 1 3.8839009227028329e+00 1.1973110383531829e+01 -5.4264734593409658e-01 1 2 1
3371 1 1.2428147104149392e+01 9.8621492942185913e+00 -4.1384243363865469e-01 0 3 1
1978 1 8.3634864680160366e+00 2.0589057535111124e+01 2.8386519443609002e+00 2 0 0
1472 1 9.5968020048145348e+00 2.3099409355982150e+01 2.1747088135027086e+00 3 1 1
5499 1 9.4170475210712326e+00 2.3132627270183978e+01 -4.1335514043537025e-01 -2 2 0
3557 1 1.3505893895743206e+01 2.1932050762294246e+01 -8.3788015139905303e-01 1 1 0
4712 1 1.3756774446896872e+01 2.2023242274209764e+01 2.0876967628583079e+00 -2 1 1
5034 1 1.1364008061218899e+01 1.4467252582214504e+01 -6.9098981232058732e-01 0 0 0
3193 1 3.6579212062679187e+00 2.4564646808142543e+00 6.2869944353787490e+00 1 -2 1
3552 1 9.1410888216857367e-01 1.9400563553777233e+00 5.3209654431758073e+00 4 2 0
3542 1 5.4349166311717410e+00 7.1941161743824567e-01 5.4395859393874453e+00 0 -1 0
289 1 7.9493582093242319e+00 1.6168448135056133e+00 6.5819502732691983e+00 2 1 0
66 1 1.2151416951169891e+01 4.5509108806614240e-01 6.4495979060614248e+00 -1 0 0
446 1 1.3032926160575130e+01 2.9417620867215422e+00 5.5197487163122005e+00 1 0 0
2037 1 1.5878297435612154e+01 3.7893296120987583e+00 6.0911167036429967e+00 0 3 0
203 1 2.5058179221963686e+00 6.9825499007188681e+00 6.4936055514082636e+00 2 1 0
2115 1 4.3876680010548110e+00 5.2069845587440575e+00 5.7726164357666363e+00 0 0 0
484 1 6.7816530256970484e+00 6.0718214473877188e+00 6.5495885039876871e+00 -1 -1 1
5656 1 8.6885988315545202e+00 4.0724223294241702e+00 5.5105991040052720e+00 1 2 0
3761 1 1.1065910653095075e+01 5.0204963005553420e+00 6.3384170472997932e+00 1 2 0
1969 1 1.1878372479375985e+01 7.5499069356103057e+00 5.5669345189145751e+00 -2 -1 0
399 1 5.5408508650862265e-01 1.5561153267224553e+01 6.4864097512067520e+00 0 1 0
1762 1 3.3768065202670035e+00 9.2867588264350225e+00 2.8899532040764910e+00 2 -1 0
1341 1 3.2023505409962723e+00 9.5778255290569874e+00 5.5631101143696062e+00 -1 -2 1
3074 1 1.3306986041997886e+00 1.1495821550387660e+01 6.7512796757377753e+00 0 0 1
3881 1 7.3475913615947173e+00 8.5219533725925700e+00 2.9093901978931882e+00 -2 2 1
6661 1 7.4979037657334695e+00 8.3970374234392935e+00 5.4605464648164466e+00 -1 0 1
3662 1 5.7224025394840492e+00 1.0388129088345099e+01 5.9951015701670229e+00 -1 5 0
24 1 1.0742395206641548e+01 1.2056175175826793e+01 2.9129519284931478e+00 2 -1 1
3543 1 1.0029024491986641e+01 9.3875170783163835e+00 6.4829237981906624e+00 -2 1 1
3930 1 1.0742502000132388e+01 1.1963230324877069e+01 5.4994258596636048e+00 -2 1 1
1373 1 1.4574202981229762e+01 8.3720109346020593e+00 6.3646843089651988e+00 0 2 1
2246 1 1.5235067607900328e+01 1.0674999000657694e+01 5.3782210811910556e+00 2 2 0
334 1 1.5083204492336408e+01 1.7637397908707520e+01 -1.0379449825004619e+00 -1 0 0
5527 1 2.0971873703898516e+00 1.3670534053986509e+01 5.6425954945328085e+00 3 1 0
545 1 4.5126671604895607e+00 1.4489164080331603e+01 6.4774937285507086e+00 -2 -3 1
1551 1 6.6739766636042077e+00 1.2753396871124121e+01 5.1364296021474622e+00 -1 -3 0
4950 1 8.9338507871110870e+00 1.3727231902593632e+01 6.2550438293387494e+00 2 2 1
2262 1 9.9857576489259134e+00 1.6428027285053002e+01 5.5760110521914337e+00 2 0 0
185 1 1.4230781873794063e+01 1.5020072379527248e+01 2.5210737387548843e+00 0 -1 0
3946 1 1.3322145551141407e+01 1.2556603079710028e+01 6.3281196786636036e+00 2 -1 1
3511 1 1.4224252820813275e+01 1.5144384636200142e+01 5.4890584484613099e+00 -1 -2 0
100 1 1.5594152419395622e+01 2.0422089110474026e+01 8.6822630113002166e+00 0 -1 0
3350 1 6.9939395831886275e-01 1.8485832073050062e+01 3.0894958724177988e+00 0 0 0
3530 1 3.9224629739425856e+00 1.9230280239039335e+01 6.4496495397161029e+00 -1 2 0
3284 1 1.1431261548584120e+00 1.8250731700236873e+01 5.8430931307858680e+00 0 0 1
1763 1 5.6258251092364482e+00 1.7095092877608934e+01 5.6798520249119751e+00 1 3 0
5512 1 8.2663965463213849e+00 1.8104740809247730e+01 6.4930645491867338e+00 2 0 0
2307 1 1.2590810065766231e+01 1.6879917907229832e+01 6.6808590471060629e+00 2 -1 1
1962 1 1.3122073177087600e+01 1.9395152983698182e+01 2.8508270321125879e+00 0 -2 1
3748 1 1.2953072102194785e+01 1.9385447402392352e+01 5.3873561413452205e+00 -2 1 0
6471 1 2.2454124306953567e+00 2.3785592974689497e+01 6.5585367008192721e+00 2 2 1
1588 1 4.0722550591416171e+00 2.1792013318051762e+01 5.6893291053556476e+00 -1 0 1
1959 1 6.7912888469463617e+00 2.2046710059432584e+01 6.3370869271883477e+00 1 0 0
5236 1 8.8058624604029703e+00 2.0449539461721834e+01 5.4789650568303196e+00 -3 -1 0
1931 1 1.1981507267947020e+01 2.3952039578717280e+01 2.6110867086709595e+00 -2 1 0
5346 1 1.1267721052089898e+01 2.1197599201954453e+01 6.2673144737054773e+00 1 2 0
5356 1 1.1617361501506949e+01 2.3970100974204581e+01 5.7844679067207974e+00 0 -2 0
5389 1 1.5605364805572275e+01 1.9964524503021646e+01 6.1020145056448385e+00 1 0 0
3587 1 1.5628549513414782e+00 4.3969119781342680e+00 -6.6163417017071680e-01 3 2 0
5587 1 1.0019229926603468e+00 1.7807814834933489e+00 9.6979858293276529e+00 0 1 1
434 1 3.5801108636306482e+00 2.8217025724445071e+00 9.3324911174310969e+00 -1 0 0
4991 1 5.2051918323570696e+00 8.0732341554872522e-01 9.7251175681457553e+00 2 -1 1
5244 1 7.8119353512814547e+00 1.3657617830431743e+00 9.5390529450841370e+00 1 0 0
450 1 1.2064842804642167e+01 7.9035894563739773e-01 9.0848995132934256e+00 1 1 1
6483 1 1.3243739747123302e+01 3.1312850019416221e+00 9.9301305528772783e+00 -2 3 1
3381 1 1.5635909080284968e+01 3.6025738415991464e+00 8.8036210974946982e+00 2 0 0
1753 1 2.7927791179388031e+00 7.2465011539103461e+00 9.3490661004661035e+00 0 -2 0
3110 1 4.5863463971030516e+00 5.2839991048006434e+00 9.6051485394872067e+00 -1 2 1
3402 1 8.8129286703430019e+00 4.0926641895791294e+00 1.0145869226543116e+01 0 -1 0
3265 1 7.0803161927598754e+00 5.8875400944484113e+00 9.2225057531358452e+00 1 1 1
465 1 1.1097733654298965e+01 4.8729227953753211e+00 8.9043379877871320e+00 0 -4 0
4758 1 1.1834105837617894e+01 7.3451095911894972e+00 1.0161025128548808e+01 1 3 1
3751 1 4.9501675480271263e+00 7.8353031786440264e+00 -7.1492614861575532e-01 1 0 0
2008 1 1.3307180866646195e+00 1.1487779484630360e+01 9.3606309123257692e+00 4 1 0
1370 1 3.2500115890111090e+00 9.8086824505435324e+00 9.8646722874443356e+00 0 2 1
4833 1 7.6590776037920154e+00 8.7086799857080610e+00 9.6306185035880389e+00 2 -1 1
4791 1 5.6119983712918566e+00 1.0533706337082721e+01 8.8953037554084151e+00 4 -3 1
3456 1 1.0260222471528403e+01 9.1422670522082026e+00 9.2565761539374947e+00 1 0 0
143 1 1.0589205857749466e+01 1.1963930728833930e+01 9.7907429343786738e+00 0 1 0
1857 1 1.4382249338924654e+01 8.3606008978703183e+00 9.1714736335347471e+00 -1 1 0
535 1 1.5303079704685549e+01 1.0873158523073435e+01 9.7316510519289370e+00 1 -2 1
3125 1 2.0559387381621659e+00 1.3960397039859384e+01 1.0332554770472370e+01 1 0 1
4714 1 4.4773551353835170e+00 1.4391482450559973e+01 9.3261306216402389e+00 4 3 1
3643 1 6.2415579220694388e+00 1.2707685782670994e+01 1.0093481106085381e+01 0 1 1
4704 1 8.9436544787159171e+00 1.3683896456906426e+01 8.9604023461385935e+00 2 1 1
1816 1 9.6973941325760293e+00 1.5967328379654614e+01 9.7590436905688254e+00 0 2 0
3996 1 1.3260821171104013e+01 1.2600281615954072e+01 8.9913417872858830e+00 0 1 1
4885 1 1.4188329392872289e+01 1.4987290833772047e+01 1.0242390240628220e+01 1 0 1
3275 1 7.5982352031914202e-01 1.8246532314729091e+01 1.0044308016180718e+01 0 0 1
5091 1 3.3967496086411790e+00 1.8947123091611090e+01 9.1440128487120624e+00 2 2 1
6560 1 8.1496589776921748e+00 1.7943564761755230e+01 9.3503188149708105e+00 3 0 1
3556 1 5.3983336758126237e+00 1.7076408414281680e+01 9.5186883702669807e+00 4 -2 0
271 1 8.5830711621138178e+00 2.0608085572079329e+01 1.0020557636882280e+01 0 1 0
1752 1 1.3042870526406151e+01 1.9288371342817076e+01 9.9962358167751475e+00 0 0 0
3695 1 1.2585252816760606e+01 1.6730065664514765e+01 9.2904529582799888e+00 -2 -1 0
5113 1 2.2420000630080348e+00 2.3217679408450099e+01 9.3478886058201436e+00 0 3 0
2047 1 4.0241399822955142e+00 2.1467791222847939e+01 1.0117990378763931e+01 1 1 0
3849 1 1.6241882884575517e+01 2.2598391501302725e+01 5.1413736733343685e+00 -1 -2 0
1402 1 1.6295105841166922e+01 2.2912485955294287e+01 9.8019351170132758e+00 2 -1 1
5514 1 1.8673434634202124e-02 6.1131388503498272e+00 5.5707730687846126e+00 0 0 0
3035 1 1.5733029326637370e+01 1.3486978634608633e+01 -1.0431446519350231e+00 0 -1 1
4892 1 1.0774205532727732e+00 1.7520615578112162e+00 1.2385646294556560e+01 3 0 1
1357 1 6.0268301032328893e+00 3.1572919687896586e+00 1.3310910532423916e+01 -1 -1 1
346 1 5.2285875262318058e+00 5.7519354543929968e-01 1.2444913369008152e+01 2 0 0
5289 1 1.0448405160105025e+01 2.3860530400059035e+00 1.3493284602097775e+01 0 2 1
332 1 1.3023390957845434e+01 3.0853524651489592e+00 1.2620574005074031e+01 0 0 0
5533 1 1.4901807331212575e+01 1.0247946153072061e+00 1.3557705351753290e+01 -2 -1 0
3540 1 1.6554980447827052e+00 4.3825744860399638e+00 1.3405420359397491e+01 -1 -2 0
3512 1 4.1538977032698421e+00 5.0843350384097601e+00 1.2524422357141644e+01 2 2 1
3418 1 4.5859822335816229e+00 7.6129907260966032e+00 1.3520103471318523e+01 2 -2 0
1900 1 8.6701980148784301e+00 3.9927856446548624e+00 1.2508885694962922e+01 -2 3 0
4757 1 9.3553389250511323e+00 6.5801791702519070e+00 1.3245265443134780e+01 -2 -3 1
1970 1 1.1694142943299257e+01 7.3759989695649670e+00 1.2538024941259533e+01 0 1 0
422 1 1.3559746048422319e+01 5.5906845650711459e+00 1.3355215906600236e+01 1 -1 0
6609 1 1.2823348009901160e+01 2.6062712737980247e+00 2.2979114405260898e+01 0 1 1
459 1 3.1244806837498169e+00 9.9756202115019992e+00 1.2533223513573295e+01 0 0 0
3876 1 3.8572936410678751e+00 1.2394048743530712e+01 1.3348305344182698e+01 1 -2 0
5285 1 3.6977464153525976e+00 2.7004071615417522e+00 2.3303642166593814e+01 0 2 0
210 1 7.3919843906815625e+00 8.3528605547796655e+00 1.2398523689388512e+01 -1 0 0
6685 1 8.3080692011762736e+00 1.1113942230540180e+01 1.3412760801786954e+01 0 1 1
1792 1 1.0510377933585863e+01 1.1632581398677162e+01 1.2362566913833547e+01 -1 2 0
3385 1 1.2657341486704265e+01 9.9485703305352029e+00 1.3541872955637217e+01 -1 -1 0
1880 1 1.5062225051259293e+01 1.0585916592647738e+01 1.2926944579042758e+01 -1 0 0
3927 1 1.8202368017601720e+00 1.4116722333179982e+01 1.3106806264104874e+01 3 2 0
3236 1 6.4161810077191319e+00 1.2831343441723858e+01 1.2618809779901097e+01 -2 1 1
3349 1 7.2254791353360819e+00 1.5230665575799730e+01 1.3212785592628480e+01 1 1 0
2182 1 1.1321560297383607e+01 1.3987210390901595e+01 1.3220118366289137e+01 0 -3 0
408 1 1.0272605693536461e+01 1.6137704102368957e+01 1.2338570681572923e+01 -1 -1 1
207 1 1.3761536703095224e+01 1.4901557891827018e+01 1.2773775618983564e+01 -1 2 0
3056 1 1.5707950300186281e+01 1.3237652013087031e+01 1.3777395464852621e+01 -3 -1 1
5303 1 2.8606712714131728e+00 1.6734405509247701e+01 1.3646276616483135e+01 -1 1 0
1879 1 1.0670391924366771e+00 1.8339199854577782e+01 1.2782021434957894e+01 1 1 0
4893 1 5.6084134045697009e+00 1.7192763673388900e+01 1.2611004116062789e+01 -2 1 1
5606 1 6.3500884972251983e+00 2.0058582620751562e+01 1.3357210945298050e+01 3 0 1
2268 1 1.0689427828576022e+01 1.8653128824380154e+01 1.3661416739502409e+01 2 1 0
1664 1 1.2875970337336263e+01 1.9759581924710151e+01 1.2663391258798075e+01 -3 1 0
3063 1 1.4610311408785789e+01 1.7547474507388010e+01 1.3641745829584522e+01 2 -2 1
5132 1 1.5229339210931481e+00 2.1030959315688662e+01 1.3636199320180697e+01 0 -2 0
1988 1 4.2590725401722311e+00 2.1608143337254102e+01 1.2833678989973412e+01 1 -1 0
5615 1 1.2242354774013014e+01 4.4456112347279753e-01 1.9460246801431214e+01 0 -1 0
5483 1 8.8592647233038520e+00 2.0610992323943723e+01 1.2754274381785171e+01 0 0 0
276 1 1.2217927506020946e+01 2.3994835293480659e+01 1.2621591015975138e+01 0 -1 0
5310 1 9.3882149176758816e+00 2.3379613624815065e+01 1.3353092008546174e+01 1 1 0
5055 1 1.3877618410448338e+01 2.2081913775915350e+01 1.3600814497439465e+01 -1 0 0
5646 1 6.0566291993429011e-01 8.6990076694861500e+00 1.3231685722243091e+01 -1 0 0
21 1 3.4044165931462662e+00 2.5104780871221282e+00 1.6927133965182971e+01 -1 -1 0
4847 1 5.8910030259924291e+00 3.3357283059957710e+00 1.6075430598041375e+01 2 1 1
3160 1 7.9641350820123593e+00 1.5939404477911119e+00 1.7023856041399970e+01 -1 1 1
6750 1 8.0317510971508153e+00 1.6001993964407117e+00 2.0085414181206701e+01 -2 -1 1
1482 1 1.2327631919339323e+01 5.2751339488695115e-01 1.6836195447450713e+01 1 2 1
222 1 1.0428367761674542e+01 2.3056702898641195e+00 1.6121090075147762e+01 1 1 0
6440 1 1.4735025243862658e+01 1.1295423508402651e+00 1.6258834075020250e+01 2 2 1
6618 1 1.5593717735570477e+01 3.8458528532714071e+00 1.7076236036540735e+01 0 1 1
1888 1 1.8961274404846489e+00 4.5575946333397654e+00 1.6011972197610046e+01 -1 1 0
2004 1 2.6785210356545464e+00 7.0343289896110583e+00 1.6824479305852989e+01 3 2 0
4721 1 7.0221901160081224e+00 5.6965027643074171e+00 1.6873933853884584e+01 2 0 1
3907 1 5.1113517491995593e+00 7.5383445483128471e+00 1.6178450204275549e+01 1 0 0
3760 1 1.1358463377743465e+01 4.7529886117604372e+00 1.6946094457201720e+01 -3 2 0
3583 1 9.5863164958137403e+00 6.6561550704292305e+00 1.5961680030324843e+01 -1 -1 0
1586 1 1.3875061290012194e+01 5.6903857850813999e+00 1.6300763017997518e+01 1 -2 1
6632 1 1.4642447746305844e+01 8.0934293451751529e+00 1.7356002321009846e+01 -1 0 1
5691 1 1.0279921120291764e+00 1.1234932551939604e+01 1.6766827131175251e+01 1 0 1
554 1 3.6237854753629053e+00 1.2103186796178868e+01 1.6137034419582768e+01 1 -1 1
555 1 2.7902867410575967e+00 1.0251608113310552e-01 1.6188241259482943e+01 0 1 1
2064 1 5.7366387040292768e+00 1.0183382074044818e+01 1.6874179728865908e+01 0 2 0
2169 1 8.5090562481817678e+00 1.1045550530265480e+01 1.6354210696512350e+01 0 0 0
4983 1 1.0421778330143724e+01 9.1061179250049911e+00 1.7073833665092053e+01 0 1 1
1645 1 1.2783072169138638e+01 9.9437301121672430e+00 1.6360703782817406e+01 0 2 0
6721 1 1.6367239501923027e+01 2.2561159141794707e+01 1.2522030619417745e+01 -1 0 0
1781 1 2.8159308784218124e+00 1.6543308535060561e+01 1.6481482222629786e+01 -3 0 0
1427 1 4.6004830663342648e+00 1.4571735203862326e+01 1.7112705291463644e+01 -1 -3 1
1987 1 7.4364335462564535e+00 1.5219488891668846e+01 1.6022537114907887e+01 2 0 0
3267 1 9.5290579714014587e+00 1.3610725495066450e+01 1.6939475969582322e+01 1 0 1
5426 1 1.1902994155337192e+01 1.4204203039427414e+01 1.6091215291168936e+01 3 2 0
3175 1 1.3714049603597577e+01 1.2616049732101173e+01 1.7137690455223080e+01 0 2 0
6378 1 1.5991076179566480e+01 1.3353143448470753e+01 1.6368965875506778e+01 0 -3 1
5133 1 9.0478264826512831e+00 4.1855539422789088e+00 2.3455519476501959e+01 -1 1 0
1707 1 3.7299466545334834e+00 1.8995936428219878e+01 1.6859724813874795e+01 0 1 1
475 1 6.1718038659924961e+00 1.9967416118379088e+01 1.5989888392518981e+01 1 3 0
5510 1 8.0197490188536555e+00 1.8024473863430774e+01 1.7013880219501480e+01 1 1 1
5335 1 1.0497705474612346e+01 1.8604633179888044e+01 1.6315381350007740e+01 -1 2 0
415 1 1.2316853197171504e+01 1.6615570060963790e+01 1.7032993881512152e+01 3 2 1
3092 1 1.5184246810467757e+01 1.7670883512186094e+01 1.6409002527440425e+01 -1 0 1
1513 1 1.8000917545545698e+00 2.0886323848671189e+01 1.6365361430917165e+01 0 0 1
6762 1 2.5561517192833261e+00 2.3427994972972336e+01 1.7075918317332324e+01 1 -1 1
3288 1 1.6263345604921266e+01 2.2468797855450216e+01 2.3327741482836561e+01 -1 3 0
1497 1 6.7756577703013203e+00 2.2373179855125372e+01 1.7079539768741153e+01 -1 0 1
6647 1 1.1164656419654513e+01 2.1210018564400631e+01 1.6831604778892999e+01 2 1 1
322 1 9.3829901939969869e+00 2.2833839562805334e+01 1.6203157528722588e+01 4 -1 0
1401 1 1.5622466561269333e+01 2.0250911648825543e+01 1.7191125807394485e+01 -2 2 1
6415 1 1.3780372802985784e+01 2.1900129441196775e+01 1.6266815194740811e+01 -3 -1 1
4916 1 3.4107008228218558e+00 2.8030052743264804e+00 1.9806011767505399e+01 3 2 1
4918 1 8.9814162628790017e-01 2.0856804266662690e+00 2.0394459761488847e+01 2 1 1
3051 1 1.6264213433867372e+01 6.3754835664317984e+00 2.0899140194153041e+01 2 0 1
2303 1 5.4661209169769744e+00 9.4826149614963029e-01 2.0551416513110293e+01 -2 1 1
2302 1 1.6294302705049358e+01 6.4007085797910390e+00 2.3599679700811489e+01 1 0 1
3789 1 1.3491437792887600e+01 1.3018711882003705e+01 2.3383618924462198e+01 -2 -2 0
297 1 8.4026965989581424e+00 2.0183249986923759e+01 2.3103575900456114e+01 1 2 0
4894 1 2.0438931870594703e+00 1.4074429726889520e+01 2.3189592776432850e+01 2 2 1
3101 1 1.5739238515199931e+01 3.7624359456073422e+00 1.9866233581760426e+01 -2 -2 1
5567 1 1.3123265920144240e+01 2.9045271102113186e+00 2.0163580853630904e+01 0 2 0
3142 1 1.5036110582847124e+01 1.0790389972244482e+01 2.3231851617832284e+01 1 0 1
3776 1 4.4561839325027668e+00 5.3771239773037927e+00 2.2822169474543109e+01 0 2 0
1614 1 2.1916291558561696e+00 7.3095518010708691e+00 1.9554485481557997e+01 1 0 0
2215 1 7.0452216977902848e+00 5.9528726533092096e+00 1.9750601852885620e+01 0 0 1
5111 1 4.3456003690916329e+00 5.5280637030819788e+00 2.0222941045540090e+01 -2 3 0
5690 1 8.9652036745308941e+00 4.3083938175755758e+00 2.0704076360444329e+01 -1 2 1
236 1 3.3722609669375736e-02 2.2680639226698872e+01 2.3423028295375602e+01 1 1 0
3544 1 5.2613894268541932e+00 1.7086580554350554e+01 2.3613297527959748e+01 -1 -1 0
6532 1 1.1419244189178759e+01 4.8092798841559992e+00 1.9727395385684204e+01 -1 -2 1
154 1 1.2154247011574254e+01 7.4567742110817958e+00 2.0879809220305336e+01 0 2 0
1392 1 3.2315216596632488e+00 9.9250997272058470e+00 2.3258435417029620e+01 3 0 1
3296 1 1.1913641843106795e+01 2.3424732873598337e+01 2.3098072803255111e+01 1 0 0
5229 1 1.4660052152644139e+01 8.2974027682855915e+00 2.0031922755283606e+01 2 0 0
2998 1 4.9706152542010749e+00 2.4016576763651802e+01 1.6155377736544104e+01 2 -2 1
3502 1 2.2245308039639047e-01 8.5619382364131056e+00 1.5983934873063824e+01 1 1 0
293 1 1.4841143247658188e+00 1.1633920753571834e+01 1.9578018851341071e+01 0 -1 0
1371 1 3.4364266467140481e+00 9.8614690214682987e+00 2.0560138096758966e+01 -1 3 1
1564 1 5.1354799104030739e+00 2.4138536520636197e+01 1.3381817413411142e+01 2 0 1
317 1 7.7798001801511258e+00 8.6259803770584593e+00 2.0576595200088097e+01 1 0 0
81 1 5.7817381920832878e+00 1.0456164213511224e+01 1.9692933651426408e+01 -2 3 0
6692 1 8.4943632122401891e-01 2.1563234121197850e+00 2.3285544753965144e+01 2 -2 0
264 1 1.0149958167257250e+01 9.2052581221921930e+00 1.9623705691483025e+01 -1 1 0
1929 1 1.0910169669151953e+01 1.1786282453963132e+01 2.0425265736755627e+01 1 -1 0
1374 1 2.5381508366370109e-01 1.6208077010130371e+01 1.7225783933106364e+01 0 0 1
131 1 1.5493682060709896e+01 1.0928811904892424e+01 2.0572931970229707e+01 0 1 1
1973 1 2.1836454915285972e+00 1.3990249549580161e+01 2.0504918801587184e+01 1 2 0
2071 1 4.9199714574052757e+00 1.4914537942358560e+01 1.9753429032587832e+01 1 1 0
5633 1 1.2023965878098601e+01 2.3311403024803614e+01 2.0480035250494257e+01 -1 1 1
2254 1 6.5722960343910879e+00 1.2932625112137456e+01 2.0723258495727208e+01 2 0 1
6477 1 5.5419889360280274e+00 8.2416371638264330e-01 2.3338726473380923e+01 0 1 0
160 1 9.1304113718771163e+00 1.3774778107727121e+01 1.9642054189417710e+01 2 -2 0
3450 1 9.8406101983665319e+00 1.6137036759049028e+01 2.0316854047368992e+01 -2 0 0
6525 1 6.6659146886078258e+00 1.3051701150483833e+01 2.3317492569433526e+01 -2 -2 0
3164 1 1.3624880803679973e+01 1.2816104251809319e+01 2.0201094070659575e+01 0 -1 1
3161 1 1.4364477609256971e+01 1.5282296892586816e+01 2.0625049916375300e+01 1 2 1
2109 1 8.3707890856145462e-01 1.8092177859371237e+01 2.3306547411913876e+01 3 2 1
3245 1 9.6443621031331705e-01 1.8491000713796481e+01 2.0765234594740537e+01 1 1 1
5093 1 3.6137118950381284e+00 1.9086747975112491e+01 1.9839770797756788e+01 2 3 0
219 1 7.9715373324366441e+00 1.7953837658052745e+01 1.9829327516236404e+01 0 0 0
5272 1 5.4597653331086660e+00 1.7314887096552468e+01 2.0720761120366173e+01 0 2 0
6443 1 9.9136929792278838e+00 1.6142860697383679e+01 2.3058516739441188e+01 3 0 1
394 1 1.2349287702052573e+01 1.6803284572096601e+01 1.9772736881868866e+01 -1 0 0
5269 1 1.1882834717662108e+01 7.2370324933578800e+00 2.3441380157071201e+01 2 -3 1
53 1 1.5898758307149038e+01 2.0072739943519615e+01 1.9677274154586669e+01 0 1 0
3909 1 1.3212364661071078e+01 1.9447549442268866e+01 2.2856921926722478e+01 2 -1 0
6658 1 1.3236327237889379e+01 1.9201488899111382e+01 2.0242154609504531e+01 -3 2 0
64 1 3.8983855267326977e+00 2.1528363755488467e+01 2.3126688617326042e+01 1 1 0
4823 1 2.3875149964568596e+00 2.3348019034261434e+01 1.9568245577852935e+01 1 -3 1
6623 1 4.1171359833001047e+00 2.1462987883649969e+01 2.0624956276453212e+01 1 0 1
45 1 6.7637087308753703e+00 2.2467715322745931e+01 1.9772382537263201e+01 0 2 0
6742 1 1.1129077318375881e+01 2.1094586532477454e+01 1.9503868641145544e+01 -1 1 0
1764 1 8.7482666907573741e+00 2.0244551713081631e+01 2.0599686855615779e+01 -1 -1 1
3123 1 1.1088295909460744e+01 1.1807121968544173e+01 2.3298838922737875e+01 -2 0 1
5647 1 1.4665082384396165e+01 2.4462465750291194e+01 1.7185095796759398e+01 1 -1 1
3729 1 1.4167905031994776e+01 1.5556329151425089e+01 2.3241506624263511e+01 -1 4 0
2010 1 7.4807145641988253e+00 8.5903176184216203e+00 2.3463235896646403e+01 -1 1 0
3466 1 2.7883804471419755e+00 1.0493070810120970e-02 1.3463649010653151e+01 4 1 0
3124 1 1.1178833843337111e+01 2.0958767197517897e+01 2.3688620967287889e+01 2 1 1
2248 1 1.3947442513750474e-01 1.5993502378594824e+01 2.0164527671439529e+01 -2 1 1
5157 1 1.6077747689107849e+01 6.4581467453361610e+00 1.2677965016220432e+01 -2 1 1
3480 1 1.4589833301842631e+01 2.4226866329694623e+01 2.0006123050030588e+01 1 1 0
5087 1 7.0869903747670548e-02 2.3122828799878160e+01 1.2784408703692066e+01 0 -2 1
6353 1 6.8462175827705005e+00 5.9613187642144601e+00 2.3249513071273014e+01 -1 2 1
1936 1 8.2675259056070249e+00 1.6485233501922258e+00 2.3426959451528759e+01 2 0 0
5531 1 3.3812675302625959e+00 1.8952104777797064e+01 2.3789479824717141e+01 -3 0 0
3395 1 2.3801671221525287e+00 2.3657437786357438e+01 2.3724679959247311e+01 2 -1 1
623 2 0.0000000000000000e+00 2.8417180249513345e+00 2.6697549325549428e+01 0 0 0
625 2 0.0000000000000000e+00 0.0000000000000000e+00 2.6697549325549428e+01 0 0 0
627 2 1.2305000000000001e+00 7.1042950623783474e-01 2.6697549325549428e+01 0 0 0
634 2 1.2305000000000001e+00 2.1312885187134998e+00 2.6697549325549428e+01 0 0 0
636 2 2.4610000000000003e+00 2.8417180249513345e+00 2.6697549325549428e+01 0 0 0
638 2 2.4610000000000003e+00 0.0000000000000000e+00 2.6697549325549428e+01 0 0 0
640 2 3.6915000000000004e+00 7.1042950623783474e-01 2.6697549325549428e+01 0 0 0
655 2 3.6914999999999996e+00 2.1312885187134998e+00 2.6697549325549428e+01 0 0 0
5054 1 6.4337899723111569e+00 2.2221965948110945e+01 2.3877524035477389e+01 1 1 1
657 2 4.9220000000000006e+00 2.8417180249513332e+00 2.6697549325549428e+01 0 0 0
659 2 4.9220000000000006e+00 0.0000000000000000e+00 2.6697549325549428e+01 0 0 0
661 2 6.1524999999999999e+00 7.1042950623783407e-01 2.6697549325549428e+01 0 0 0
684 2 6.1524999999999999e+00 2.1312885187134989e+00 2.6697549325549428e+01 0 0 0
686 2 7.3829999999999991e+00 2.8417180249513345e+00 2.6697549325549428e+01 0 0 0
688 2 7.3829999999999991e+00 0.0000000000000000e+00 2.6697549325549428e+01 0 0 0
690 2 8.6134999999999984e+00 7.1042950623783407e-01 2.6697549325549428e+01 0 0 0
721 2 8.6134999999999984e+00 2.1312885187135002e+00 2.6697549325549428e+01 0 0 0
723 2 9.8440000000000012e+00 2.8417180249513332e+00 2.6697549325549428e+01 0 0 0
725 2 9.8440000000000012e+00 0.0000000000000000e+00 2.6697549325549428e+01 0 0 0
727 2 1.1074500000000002e+01 7.1042950623783330e-01 2.6697549325549428e+01 0 0 0
766 2 1.1074500000000002e+01 2.1312885187135002e+00 2.6697549325549428e+01 0 0 0
768 2 1.2305000000000000e+01 2.8417180249513332e+00 2.6697549325549428e+01 0 0 0
770 2 1.2305000000000000e+01 0.0000000000000000e+00 2.6697549325549428e+01 0 0 0
772 2 1.3535500000000001e+01 7.1042950623783518e-01 2.6697549325549428e+01 0 0 0
813 2 1.3535500000000001e+01 2.1312885187134984e+00 2.6697549325549428e+01 0 0 0
815 2 1.4765999999999998e+01 2.8417180249513350e+00 2.6697549325549428e+01 0 0 0
817 2 1.4765999999999998e+01 0.0000000000000000e+00 2.6697549325549428e+01 0 0 0
819 2 1.5996500000000003e+01 7.1042950623783518e-01 2.6697549325549428e+01 0 0 0
860 2 1.5996500000000003e+01 2.1312885187135002e+00 2.6697549325549428e+01 0 0 0
3503 1 5.8384177520865759e+00 1.0652540422248087e+01 2.3985612924155980e+01 0 0 1
628 2 0.0000000000000000e+00 7.1042950623783341e+00 2.6697549325549428e+01 0 0 0
630 2 0.0000000000000000e+00 4.2625770374269996e+00 2.6697549325549428e+01 0 0 0
632 2 1.2305000000000001e+00 4.9730065436648339e+00 2.6697549325549428e+01 0 0 0
647 2 1.2305000000000001e+00 6.3938655561404980e+00 2.6697549325549428e+01 0 0 0
649 2 2.4610000000000003e+00 7.1042950623783341e+00 2.6697549325549428e+01 0 0 0
651 2 2.4610000000000003e+00 4.2625770374269996e+00 2.6697549325549428e+01 0 0 0
653 2 3.6914999999999996e+00 4.9730065436648339e+00 2.6697549325549428e+01 0 0 0
676 2 3.6914999999999996e+00 6.3938655561404980e+00 2.6697549325549428e+01 0 0 0