LAMMPS data file via write_data, version 16 Mar 2018, timestep = 6000000

6736 atoms
2 atom types

0.0000000000000000e+00 4.9219999999999999e+01 xlo xhi
0.0000000000000000e+00 4.9019635930410494e+01 ylo yhi
4.6382814812346140e-01 5.9598171851885226e+01 zlo zhi

Masses

1 18.015
2 12.01

Atoms # atomic

6238 1 2.3825021017969088e+00 9.5767019758427907e-01 2.7309209184001908e+00 -1 2 0
4221 1 7.4241939123918925e+00 1.3545385474405672e+01 1.2220430777097437e+01 2 -1 1
3568 1 4.6780925623750758e+00 1.9937168409216424e+00 1.8108111391196673e+00 0 -4 0
6178 1 6.9886042901231828e+00 8.4815390481785746e-01 2.7214200882984638e+00 0 -1 1
4441 1 8.9444991761496127e+00 2.3405818733666024e+00 2.0528105029649599e+00 -3 1 1
5117 1 1.1173397842391642e+01 9.4717411278907238e-01 2.7648154099737479e+00 -2 2 0
3670 1 2.3137931349879421e+00 5.9673507695812242e+00 1.8178641106035425e+00 -1 2 0
6288 1 1.2178854998574691e+01 2.3860708947525726e+01 5.5906583989323595e+00 -2 -1 0
6039 1 4.6427547950262085e+00 4.7539422317879216e+00 2.6688482074581863e+00 1 0 1
2494 1 7.1380393214437108e+00 5.9949483933000369e+00 1.7824571424858660e+00 2 3 1
3600 1 9.4682361577543652e+00 4.9221286297710023e+00 2.5038738609196525e+00 -1 0 0
20 1 1.1821379955031386e+01 6.1380086791034429e+00 1.7619017914474304e+00 1 -3 0
917 1 2.7472915550172026e+00 8.7370388433903283e+00 2.8189067901068672e+00 -2 2 1
6277 1 1.1741199548829263e+01 1.6219023230840907e+01 5.4390489024867330e+00 2 -1 1
2091 1 7.3062218456241190e+00 8.8638655709291942e+00 2.5343770955339320e+00 5 4 0
4554 1 5.0461862831208668e+00 1.0176880302040216e+01 1.6480803718401478e+00 0 0 0
3607 1 9.4093263499036581e+00 9.8128335357307321e+00 1.4837144323980851e+00 1 -4 1
5343 1 1.1794481288701224e+01 8.6472916312293968e+00 2.7074871264627620e+00 -4 1 0
450 1 7.4135118020995994e-01 1.2253018394465103e+01 2.5415560839520728e+00 1 -1 0
401 1 3.2988452420657017e+00 1.3601788697498948e+01 1.3893504738276188e+00 -2 -4 0
4439 1 5.6443415418618965e+00 1.2549565274309719e+01 2.5225430497287102e+00 1 1 0
990 1 8.0769175069980577e+00 1.3511820159002111e+01 1.7940805615863111e+00 1 2 0
1044 1 1.0205640180648686e+01 1.2010222722750123e+01 2.5866927387693188e+00 -1 1 1
6064 1 3.3030897483319754e+00 2.1262828432883179e+01 9.7695305940406438e+00 1 0 1
5516 1 3.3670118860483984e+00 1.6063512633575442e+01 2.3748152833567788e+00 -1 3 1
1951 1 1.2828477915945680e+00 1.7495713929782145e+01 1.8791478120733869e+00 2 3 0
2064 1 7.8973762781688217e+00 1.6239128334191609e+01 2.5115253714902517e+00 2 2 0
5415 1 5.6597937877439675e+00 1.7275203909585649e+01 1.5955994973109460e+00 -4 2 0
5332 1 5.8090604354545556e+00 1.9893590194466622e+01 2.2988081489046541e+00 -1 1 1
5999 1 1.0055715200583695e+01 1.7390803601498654e+01 1.7287157820409103e+00 -4 0 1
5952 1 1.0032156983810301e+01 2.0000850309577803e+01 2.4677128685537846e+00 0 0 1
1841 1 5.8649651230824928e-01 2.3980316063627356e+00 9.7080037150898164e+00 -3 3 0
1899 1 1.3236258655307496e+00 2.0091262132198729e+01 2.6770645625355396e+00 0 1 1
3823 1 3.6344483140643216e+00 2.1382754960463149e+01 1.6103508289362105e+00 0 5 0
2639 1 3.4486938286964302e+00 2.3759020169325105e+01 2.7950125116004263e+00 -1 -2 1
1107 1 8.0035659250770852e+00 2.3923639771885711e+01 2.7047933913123803e+00 5 1 1
5843 1 8.0139573001498974e+00 2.1327175957993546e+01 1.6753237931789922e+00 4 0 0
818 1 1.1879662816523350e+01 2.1090825132415226e+01 1.5459445672222940e+00 -1 0 0
6190 1 2.0735690845824970e+00 8.7045166177264155e-01 5.4916435229222893e+00 0 1 1
5459 1 2.5432467903740981e+00 3.3773640910639355e+00 6.2718257438957048e+00 1 1 0
3659 1 6.5619922207069825e+00 8.7122498123847525e-01 5.2139281329234368e+00 -1 1 0
462 1 6.9146355539951072e+00 3.3281051089000115e+00 6.3213714186453585e+00 2 -2 0
1913 1 1.1212499974881721e+01 1.1462087542336152e+00 5.5294714117670125e+00 3 3 0
5529 1 1.1526858407175897e+01 3.6614617254650481e+00 6.6210245146140512e+00 4 -3 0
4256 1 4.6030182061319980e-01 7.1531936020504041e+00 6.0658593067508786e+00 -3 2 1
1112 1 4.1869486354368241e-01 7.7758537461263906e+00 8.5454873032459719e+00 4 2 1
340 1 4.8006267269539231e+00 4.7477062033071249e+00 5.4978521262458289e+00 -3 2 0
262 1 5.2154165621544060e+00 7.2965272444410818e+00 6.3800138578130738e+00 1 2 1
485 1 9.3957687183826906e+00 4.6794661184348243e+00 5.3443445893401416e+00 -2 3 0
1127 1 9.4693269347665741e+00 7.1785690631107162e+00 5.9576541078768646e+00 -5 -1 1
2426 1 2.9207808979360266e+00 8.4890875577907412e+00 5.3114684551053779e+00 -1 0 0
2432 1 2.8627540041594517e+00 1.1272505083202471e+01 5.8345082133087942e+00 0 4 1
736 1 7.3058989188392021e+00 8.7804529404780709e+00 5.1241358749403183e+00 2 -2 1
5456 1 7.1641600967486045e+00 1.1276499958562685e+01 6.0172493480086660e+00 3 1 0
4459 1 1.1801800218154947e+01 8.3445468998313981e+00 5.2342407862011679e+00 -2 4 1
871 1 1.1869375381485819e+01 1.0809108796329056e+01 6.1829089939670787e+00 4 0 1
3528 1 7.7610015246270492e-01 1.2481079026022510e+01 4.8839502233159262e+00 -3 0 0
1884 1 1.0194898645764117e+00 1.4809199605853250e+01 6.0839041768330082e+00 0 -2 0
131 1 5.2586532888066992e+00 1.2659528733070761e+01 4.8775203171578978e+00 0 0 0
93 1 5.1396339536805646e+00 1.5234827059397363e+01 6.1296758630635626e+00 2 0 0
5573 1 9.6924683504187019e+00 1.2149365631975185e+01 5.1569939215452729e+00 3 4 0
3749 1 9.4043963490991906e+00 1.5001099805726355e+01 6.1542284033578474e+00 1 3 1
5447 1 2.9971559216304171e+00 1.6139209088120289e+01 5.1065615292358251e+00 2 2 0
2083 1 2.9899695846686316e+00 1.8625939966334727e+01 6.3622061913509640e+00 3 -7 0
2141 1 7.4674958094973496e+00 1.6258294268004587e+01 5.1777668387443718e+00 0 -2 0
6042 1 7.6688894567635142e+00 1.8730674810523329e+01 6.2060132016839473e+00 7 1 1
1819 1 5.4975887244203303e+00 1.9946481304506463e+01 5.0419965081945088e+00 3 -1 0
2564 1 1.1636978312964230e+01 1.0860729401787330e+01 8.9039384632245948e+00 -1 0 0
6109 1 9.9140862815219695e+00 2.0071553736866168e+01 5.4856782039124896e+00 -1 1 1
2090 1 1.0147504700092584e+01 1.7539373127926048e+01 9.9008726389702399e+00 1 4 0
4577 1 1.2245137203018244e+00 1.9792669521324417e+01 5.3007649012475824e+00 2 1 0
6082 1 3.5618679718288440e+00 2.3821572014780209e+01 5.3881747297863187e+00 0 -1 1
5394 1 1.3161905618048459e+00 2.2559244705177875e+01 6.0875400908780364e+00 2 1 0
795 1 5.7792685233861922e+00 2.2599341566214111e+01 6.1968223334640786e+00 0 -5 0
815 1 7.7656463530959670e+00 2.3947064192115377e+01 5.5690971472325463e+00 0 0 1
1840 1 1.0039001639100716e+01 2.2485422362549247e+01 6.6727392009877011e+00 1 2 0
3366 1 5.4881020852518949e+00 2.2290547023277092e+01 8.8503993032569532e+00 2 4 0
3675 1 2.7655471879382980e+00 3.8099892131375235e+00 8.7805415464530139e+00 -1 1 0
6009 1 7.7341163080172262e+00 2.1023801304210313e+01 9.8314892652123014e+00 0 -1 1
2858 1 1.2625978618197744e+00 2.2489354515608163e+01 8.6898744274933755e+00 0 -1 1
4405 1 4.8400654031532424e+00 2.1189344904923808e+00 9.3114029987377922e+00 4 1 0
2057 1 7.1731992131463000e+00 3.5522294541382466e+00 9.0409813829636985e+00 -2 3 0
4211 1 9.0750319924260836e+00 2.4182618927507407e+00 9.8576204127425893e+00 -3 0 1
5462 1 1.1581228903783591e+01 3.3480776542714601e+00 9.2935496747442858e+00 -5 3 0
5959 1 2.7904384421146049e+00 6.3999109094404742e+00 9.6040920924006628e+00 1 -2 1
3495 1 1.0225391141474416e-01 2.1445279347465354e+00 1.7928416219623535e+00 0 1 0
2734 1 7.3415572000122591e+00 6.2647553954954676e+00 9.7379387147321204e+00 3 1 1
1824 1 4.9802135781144443e+00 7.4717779703822913e+00 8.8084875560004239e+00 0 1 0
2638 1 9.4836331658457844e+00 7.2198942790436194e+00 8.6604612606673328e+00 0 -1 1
1245 1 1.1530373459582298e+01 6.0665602062554029e+00 9.6320315938432515e+00 -1 1 0
451 1 7.7602641045479215e-01 1.0313450513239532e+01 9.6088151746033290e+00 1 0 0
6173 1 3.0520857364812159e+00 1.1320524322465355e+01 8.4550425390156043e+00 1 -5 1
4584 1 5.0831147420243443e+00 9.8557171258503864e+00 9.7233459435553815e+00 2 1 0
984 1 7.2144766603750980e+00 1.1196679185894999e+01 8.8516570561855143e+00 -5 0 1
3471 1 1.1804682949360831e+01 1.3581019725701120e+01 9.8763642086974759e+00 -1 0 0
3579 1 9.2676471563768814e+00 9.7078517958040909e+00 9.7836016693048702e+00 2 -2 0
357 1 9.3014239347267924e-01 1.4839766095306736e+01 8.9346576190815075e+00 -1 1 0
288 1 3.0446638224985056e+00 1.3734216624445480e+01 9.8721380636798912e+00 -3 2 0
4305 1 5.0206450864213528e+00 1.5089230153510284e+01 8.8598334317657290e+00 1 1 1
5490 1 7.4470162470398895e+00 1.3817372477784003e+01 9.5914085056331491e+00 0 0 0
1067 1 9.8977591297472713e+00 1.5128439854350747e+01 8.8121113477137190e+00 -1 0 1
2806 1 6.0690605032661571e-01 9.7049940510868247e+00 1.6261916604824023e+00 -5 2 0
3544 1 2.9605806464098747e+00 1.8765151565527454e+01 9.1091092789145147e+00 0 -1 0
5464 1 8.5868075554957346e-01 1.7438972952823104e+01 9.9666686178028598e+00 2 -3 0
2697 1 5.2814771657934800e+00 1.7674925363467025e+01 9.7604245083781187e+00 1 5 1
297 1 7.8226820474473584e+00 1.8675972090924294e+01 9.1215303385616053e+00 0 2 0
5299 1 9.9766227923306161e+00 2.2576007964485761e+01 9.3030436583664553e+00 2 -3 0
1087 1 1.2072956931258014e+01 1.3866186933007304e+01 1.8205810818276233e+00 2 1 1
3722 1 1.1983346064713924e+01 1.8647054456640149e+01 6.3821057738814533e+00 -1 1 0
6040 1 4.4751440324629382e-01 4.7158217381767571e+00 5.2821923137037539e+00 3 2 1
5263 1 1.1976082412311035e+01 2.3541804109567760e+01 2.9966575657684262e+00 -2 2 0
5298 1 2.6609877860730400e+00 6.3401452636803644e+00 1.2182407747458170e+01 6 1 0
956 1 2.5514658177173506e+00 1.0938714302599213e+00 1.3481110192528462e+01 -1 -2 1
6120 1 2.4487128303697823e+00 1.3606899618001715e+00 1.6169154286272885e+01 -1 0 1
206 1 5.7913400581383572e+00 2.0001668445537064e+01 2.0860577337095801e+01 1 -2 0
2676 1 6.8052004991434778e+00 1.1149269516205356e+00 1.3277670722264677e+01 1 1 1
988 1 7.2326403978614096e+00 1.0461799616498892e+00 1.6143685250043323e+01 3 3 1
3811 1 9.9849524085750847e+00 1.6843897732767122e+01 1.2542222270356119e+01 -2 -1 0
331 1 1.1714917233304353e+01 1.5687662534022089e+00 1.3077709123189500e+01 2 -5 0
3838 1 7.0281461789356814e-01 1.7389075959331475e+01 1.2549349547317131e+01 1 -2 0
6061 1 1.1719892694937426e+01 1.3127874437697240e+00 1.5984314892717967e+01 0 -1 1
5098 1 5.2409300097694227e-02 5.0900847092091039e+00 1.3486224181062456e+01 3 2 0
4138 1 5.5279075742985873e+00 1.2490561876136372e+01 2.3472943208115037e+01 1 -1 1
3692 1 9.7558850359246918e+00 9.7132853997898359e+00 1.2492957175534521e+01 0 0 0
4255 1 4.8293564386677277e+00 4.7857182843086017e+00 1.3383064821728578e+01 -2 3 1
5368 1 9.5054842816298013e+00 4.7518652859552191e+00 1.3578308767397203e+01 1 1 0
1785 1 1.2293853065687012e+01 1.3596516381756299e+01 1.2679181299580911e+01 0 -1 0
5319 1 2.7142961008458930e+00 8.8693906951257730e+00 1.3276214438499839e+01 0 1 0
6213 1 1.1738832700880604e+01 1.3467141625517078e+01 1.9779777326641952e+01 -1 -2 1
270 1 7.2405168886759625e+00 8.6698142571464576e+00 1.3439019819935766e+01 2 2 0
2015 1 3.7031377939099175e-01 2.7594060044670772e+00 1.7001441727754905e+01 1 3 0
6054 1 1.2120615235978788e+01 8.6501388129070360e+00 1.3062038804155254e+01 1 1 1
478 1 1.1871919346237977e+01 1.6900292099468107e+01 2.3513763466322235e+01 0 2 0
2625 1 4.6468706035056601e-01 5.1575421426956565e+00 2.0791574118175703e+01 0 2 1
3835 1 1.1623333091787065e+00 1.2627184608889541e+01 1.3649842616003484e+01 2 2 0
414 1 2.8786697905027858e+00 1.6015285417017957e+01 1.3585982318775075e+01 -3 -1 0
740 1 5.4936152461971499e+00 1.2169758558881339e+01 1.3320538345202493e+01 -3 -1 1
196 1 5.5656580467565400e+00 1.2287666938500736e+01 1.6097078299488146e+01 -2 1 0
3746 1 7.5834474515162960e+00 1.5985602937581898e+01 1.5905197965197472e+01 0 1 0
23 1 3.1791258983617339e+00 2.1259923666304449e+01 1.2562644689619313e+01 0 -1 1
2197 1 9.7265294078899025e+00 1.2199831989590759e+01 1.3370777011890798e+01 1 1 0
5115 1 7.9289321631742693e+00 1.6222977442328386e+01 2.0589246025394790e+01 2 3 0
3673 1 3.2626199985802806e+00 1.6239696310868958e+01 1.6079497718256018e+01 -2 2 0
1753 1 1.0637741675021122e+00 1.9882951649599168e+01 1.3317603659097173e+01 0 2 0
3558 1 1.0945439311778116e+00 1.9973161057229724e+01 1.6015881734283980e+01 0 1 0
3535 1 1.1797202418258037e+01 1.6171528498038914e+01 2.0793101485432206e+01 2 0 0
744 1 7.6317505755862669e+00 1.5978053467391200e+01 1.3277550316250180e+01 0 3 0
2856 1 5.2869224708310165e+00 2.0006753776761013e+01 1.3392069090696166e+01 -4 1 1
4121 1 5.6338273251411808e+00 1.9778239716849793e+01 1.6082584797420566e+01 -3 0 1
1037 1 7.0659954124241553e+00 6.2371384652332731e+00 1.2743479345357308e+01 -1 3 1
2205 1 9.6004729108189260e+00 2.5028406202919062e+00 2.3897703323140647e+01 0 5 0
4490 1 1.0189913965750454e+01 1.9572532750644861e+01 1.3334817036223740e+01 -1 -1 1
982 1 1.0015928629257647e+01 1.9624482530373758e+01 1.6063506759531940e+01 -2 1 0
2190 1 2.9947892343886573e-01 5.5113129649628227e+00 1.6194994276575514e+01 -1 3 0
4375 1 3.3373218449645838e+00 2.3805661715927698e+01 1.3787261547762318e+01 0 1 1
2733 1 1.1727438104638903e+01 6.6155964945894494e+00 1.6980191592798018e+01 0 0 1
2550 1 3.0658468507828815e+00 1.3620376540623846e+01 2.3992402644271667e+01 -4 1 0
1868 1 7.9672685765543125e+00 2.3486422286597382e+01 1.3592783264296106e+01 1 -1 0
2164 1 8.1256596752995964e+00 2.3792186802455465e+01 1.6174948936243567e+01 2 -5 1
5226 1 1.1631154825272672e+01 5.9557496474332350e+00 1.2534933185807406e+01 -4 2 0
1799 1 3.2176976864559319e+00 1.3628719296601863e+01 1.2553662100947966e+01 -2 0 1
175 1 5.0996045284797233e+00 2.4522585598727336e+00 1.7083458718147767e+01 -3 -3 0
3484 1 4.7749294915516254e+00 2.6917589752941109e+00 1.9510977035861814e+01 0 1 0
1830 1 9.3546725759037344e+00 2.4375830926822895e+00 1.6848694814498725e+01 1 -3 1
3542 1 9.5288644068668944e+00 2.8931842330670756e+00 1.9448383858189235e+01 1 2 0
983 1 3.1852575227692187e-01 2.6299515325395864e+00 1.9927204334502072e+01 -1 2 1
1002 1 2.8636298429547096e+00 6.3469111471959367e+00 1.7114491719827559e+01 1 -2 1
4370 1 2.8483777009701816e+00 5.8159858469318753e+00 1.9659236266072199e+01 -1 1 1
2129 1 4.9930520689087778e+00 4.9081136954742908e+00 1.6111128331387945e+01 0 5 0
428 1 7.3181981073921163e+00 6.1182032070183396e+00 1.7098522244026157e+01 -1 3 0
5251 1 7.3795349720808856e+00 6.3888137229254003e+00 1.9614697095291632e+01 0 3 0
2503 1 9.5530073354586094e+00 5.0038832318051778e+00 1.6171715792496315e+01 2 0 1
1137 1 8.3552446677638468e+00 2.3397829545725642e+01 2.3507784350689636e+01 -2 -2 1
5840 1 1.1573900797656705e+01 6.2904696598087604e+00 1.9779224251996297e+01 0 0 0
3470 1 2.9433737617315403e+00 8.8921045042477349e+00 1.6179601095185941e+01 2 1 1
1097 1 7.2381806791702674e-01 9.8334062307037886e+00 1.9978878308661088e+01 0 -4 1
5506 1 6.3968539130049284e-01 9.7456100189480050e+00 1.7216710644831231e+01 1 4 0
5266 1 7.4304274544473223e+00 8.5568039646243861e+00 1.5996353433877230e+01 -2 2 0
367 1 5.2401154385734880e+00 9.8230302792575230e+00 1.7052117595425479e+01 3 -2 0
5568 1 5.2629386831325942e+00 9.6829492478848547e+00 1.9661571017840565e+01 2 1 0
2452 1 9.6857746028163714e+00 9.6467668457445477e+00 1.7185796488092354e+01 -2 0 0
4540 1 9.7113499141096131e+00 9.9816205778917126e+00 1.9887090057748640e+01 1 3 1
2643 1 1.1754742080655696e+01 9.1381427985548047e+00 1.5810852409846357e+01 3 1 1
5877 1 1.0519282307835436e+00 1.2465501150601243e+01 1.6312811888537247e+01 2 2 1
836 1 3.4041584098169704e+00 1.3696144838638141e+01 1.7073302862464534e+01 1 -2 1
5078 1 3.5297362550405382e+00 1.3552187550748018e+01 1.9795342493109192e+01 -1 3 0
1089 1 7.7192266897110011e+00 1.3490424094802771e+01 1.6781830681228289e+01 1 0 1
3747 1 7.6690238669844062e+00 1.3679610516455908e+01 1.9779632615823626e+01 3 1 0
980 1 1.2249032140631821e+01 1.6265084000001167e+01 1.6092952799949494e+01 -1 -2 1
6095 1 9.9964097870301192e+00 1.2232812183657121e+01 1.6025952554765560e+01 -1 -4 0
249 1 7.0631255590102100e+00 8.6461601852881138e+00 2.3423393977993477e+01 2 -2 0
6088 1 1.3368102322998228e+00 1.7392386253076019e+01 1.7163543398665880e+01 3 2 1
2172 1 1.5879773482090800e+00 1.7823687378389156e+01 1.9692636452294071e+01 0 0 0
3641 1 5.6141148634608840e+00 1.7286988825601185e+01 1.6904661584046202e+01 -1 2 0
2013 1 5.8955621212895091e+00 1.7703608797476001e+01 1.9657504617410311e+01 4 -1 0
464 1 1.2046970187753921e+01 1.3591848145801945e+01 1.6976688375485519e+01 0 1 0
3776 1 9.9901392694544242e+00 1.7210774983894996e+01 1.6850913072000765e+01 -4 3 0
1805 1 1.0143118235446321e+01 1.7569720258974801e+01 1.9567120671402911e+01 0 1 1
4170 1 3.5974010270876158e+00 2.3674898284958918e+01 1.6295804926692810e+01 3 -1 1
5508 1 3.3464278444101629e+00 2.1132843518143854e+01 1.6975484053118397e+01 -2 1 0
2896 1 3.6066418271863574e+00 2.1532824531314830e+01 1.9614680524283546e+01 1 2 1
5195 1 8.0158024111950361e+00 2.1328779223273489e+01 1.9682938785253853e+01 1 0 0
1719 1 7.9013547669649240e+00 2.1007892192911807e+01 1.7040247477501488e+01 -2 1 0
5424 1 3.2254868714376816e-01 2.3898549317100599e+00 1.2438626474517026e+01 3 5 0
2544 1 7.6828725697749816e+00 1.6702738240033810e+01 2.3200796008946874e+01 -2 1 1
1046 1 2.7696613122902645e+00 1.4504951760465907e+00 2.0643685333785704e+01 6 2 1
2825 1 2.6715631216089095e+00 1.4104357059850527e+00 2.3273882636394802e+01 -1 -2 0
90 1 6.9396725421505794e+00 1.3735613279526739e+00 2.3286811910010112e+01 1 3 1
5209 1 7.1904235701116672e+00 1.5984183078198038e+00 2.0433510777124472e+01 4 -1 1
312 1 7.9773470283468475e+00 2.1009178953573485e+01 1.2677997016122328e+01 -1 -1 0
3490 1 1.1790329017333129e+01 1.1336640158062530e+00 2.3022935602730197e+01 1 -2 0
975 1 1.1581763620894389e+01 1.0914243118762235e+00 2.0404194970733069e+01 -1 1 0
5562 1 3.8526288991421671e+00 2.3464606333683747e+01 2.3114626473973434e+01 1 -6 0
5374 1 1.2205998290046137e+01 2.1355329620762134e+01 1.6964855149620384e+01 -2 1 0
2740 1 5.8521090064980168e+00 2.0223353556840713e+01 2.3588093368969687e+01 0 0 1
5797 1 5.2105122744746115e+00 1.7472762423403001e+01 1.2575815424893747e+01 1 3 0
3866 1 4.7737398735339056e+00 5.1138458405328810e+00 2.3283499605345099e+01 -3 -1 0
6272 1 5.3662833175546014e+00 4.9433784401454988e+00 2.0662746840207642e+01 1 6 1
426 1 9.7100251750572379e+00 5.1245783560636156e+00 2.3475173837191306e+01 2 -3 0
2846 1 9.5836731118090661e+00 5.1454068883548967e+00 2.0738821426388949e+01 1 -3 1
4387 1 7.8778027647820785e+00 2.3645356442152885e+01 2.0835314111583454e+01 1 2 1
1171 1 2.9199614979173991e+00 8.8486312287699000e+00 2.3586001552646401e+01 3 2 1
4153 1 3.1768167552364130e+00 8.4111881033730214e+00 2.0922753950179239e+01 -3 -1 1
2053 1 5.0432532259515730e+00 9.6933958400990150e+00 1.2404512328273508e+01 -2 3 0
1987 1 7.2534826176965685e+00 8.6132542495124351e+00 2.0653256895042844e+01 -1 -1 0
1200 1 3.4802324696789357e+00 2.3805643239120133e+01 2.0689948428691388e+01 1 -1 1
2712 1 1.2152010268979343e+01 9.0405392664203301e+00 2.1062010764394731e+01 3 1 1
5514 1 1.1979571951743162e+01 9.1378077687816646e+00 2.3718031826540120e+01 1 2 0
258 1 1.0469646812228810e+00 1.2408588866802518e+01 2.0279641691497641e+01 0 0 0
2922 1 3.6753636049165426e+00 1.6327338020204817e+01 2.3251764335949815e+01 1 1 1
2026 1 1.0354762224096950e+01 2.0081264710658708e+01 2.0456616419395846e+01 4 3 0
2905 1 8.9688497846341981e+00 2.3605942548764771e+00 1.2410617704478064e+01 -1 2 1
2032 1 5.5514955764762064e+00 1.2235949059269210e+01 2.0421219334655799e+01 1 0 0
3853 1 1.1830239075063108e+01 1.4127643967453329e+01 2.4017640379153843e+01 2 -1 0
6103 1 9.7793929421344572e+00 1.2576828209572065e+01 2.3261234752455003e+01 0 1 0
2629 1 9.7379410746038602e+00 1.2403527965542509e+01 2.0657430248523816e+01 -1 0 1
1970 1 3.7286674852138524e+00 1.6380888269608811e+01 2.0173881180584900e+01 4 0 0
892 1 1.2587427660150490e+00 2.0097181057823466e+01 2.3213565100870635e+01 -1 -3 1
3763 1 1.5758104496294252e+00 2.0327750158503417e+01 2.0612975503511375e+01 1 1 0
5465 1 5.0798740743847826e-01 5.3679109153913318e+00 2.3404626200193054e+01 5 -3 0
3527 1 1.0464771098254995e+00 1.2294248292010046e+01 2.3170598499357183e+01 1 3 0
2664 1 9.5648981024536752e+00 1.8908056312436592e+01 2.3126484841586365e+01 2 0 1
3623 1 1.3912402644019881e+00 1.7375054704055671e+01 2.3959515260223750e+01 6 3 0
6297 1 4.9505739182515285e+00 2.6503872959928736e+00 2.4098039204753604e+01 -2 -1 0
2762 1 9.2677380449086613e+00 9.9896783069826114e+00 2.4105593153911212e+01 -2 0 1
5364 1 4.5668484035507060e+00 2.3182211187990687e+00 1.2404133634987279e+01 -2 -3 0
1804 1 4.5710277957787160e-01 1.0070680582583133e+01 1.2328874097832568e+01 0 2 0
511 2 0.0000000000000000e+00 2.8417180249513345e+00 2.6772034885110561e+01 0 0 0
512 2 0.0000000000000000e+00 0.0000000000000000e+00 2.6772034885110561e+01 0 0 0
513 2 1.2305000000000001e+00 7.1042950623783474e-01 2.6772034885110561e+01 0 0 0
517 2 1.2305000000000001e+00 2.1312885187134998e+00 2.6772034885110561e+01 0 0 0
518 2 2.4610000000000003e+00 2.8417180249513345e+00 2.6772034885110561e+01 0 0 0
519 2 2.4610000000000003e+00 0.0000000000000000e+00 2.6772034885110561e+01 0 0 0
520 2 3.6915000000000004e+00 7.1042950623783474e-01 2.6772034885110561e+01 0 0 0
528 2 3.6914999999999996e+00 2.1312885187134998e+00 2.6772034885110561e+01 0 0 0
5328 1 8.6411813380258717e-01 1.0226193547820149e+01 3.5746680332819373e+01 3 2 -1
529 2 4.9220000000000006e+00 2.8417180249513332e+00 2.6772034885110561e+01 0 0 0
530 2 4.9220000000000006e+00 0.0000000000000000e+00 2.6772034885110561e+01 0 0 0
531 2 6.1524999999999999e+00 7.1042950623783407e-01 2.6772034885110561e+01 0 0 0
543 2 6.1524999999999999e+00 2.1312885187134989e+00 2.6772034885110561e+01 0 0 0
544 2 7.3829999999999991e+00 2.8417180249513345e+00 2.6772034885110561e+01 0 0 0
545 2 7.3829999999999991e+00 0.0000000000000000e+00 2.6772034885110561e+01 0 0 0
546 2 8.6134999999999984e+00 7.1042950623783407e-01 2.6772034885110561e+01 0 0 0
562 2 8.6134999999999984e+00 2.1312885187135002e+00 2.6772034885110561e+01 0 0 0
563 2 9.8440000000000012e+00 2.8417180249513332e+00 2.6772034885110561e+01 0 0 0
564 2 9.8440000000000012e+00 0.0000000000000000e+00 2.6772034885110561e+01 0 0 0
565 2 1.1074500000000002e+01 7.1042950623783330e-01 2.6772034885110561e+01 0 0 0
585 2 1.1074500000000002e+01 2.1312885187135002e+00 2.6772034885110561e+01 0 0 0
514 2 0.0000000000000000e+00 7.1042950623783341e+00 2.6772034885110561e+01 0 0 0
515 2 0.0000000000000000e+00 4.2625770374269996e+00 2.6772034885110561e+01 0 0 0
516 2 1.2305000000000001e+00 4.9730065436648339e+00 2.6772034885110561e+01 0 0 0
524 2 1.2305000000000001e+00 6.3938655561404980e+00 2.6772034885110561e+01 0 0 0
525 2 2.4610000000000003e+00 7.1042950623783341e+00 2.6772034885110561e+01 0 0 0
526 2 2.4610000000000003e+00 4.2625770374269996e+00 2.6772034885110561e+01 0 0 0
527 2 3.6914999999999996e+00 4.9730065436648339e+00 2.6772034885110561e+01 0 0 0
539 2 3.6914999999999996e+00 6.3938655561404980e+00 2.6772034885110561e+01 0 0 0
540 2 4.9220000000000006e+00 7.1042950623783341e+00 2.6772034885110561e+01 0 0 0
541 2 4.9220000000000006e+00 4.2625770374269978e+00 2.6772034885110561e+01 0 0 0
542 2 6.1524999999999999e+00 4.9730065436648339e+00 2.6772034885110561e+01 0 0 0
558 2 6.1524999999999999e+00 6.3938655561404980e+00 2.6772034885110561e+01 0 0 0
559 2 7.3830000000000009e+00 7.1042950623783341e+00 2.6772034885110561e+01 0 0 0
560 2 7.3829999999999991e+00 4.2625770374269996e+00 2.6772034885110561e+01 0 0 0
6306 1 1.2011419828233443e+01 6.4571226201114014e+00 2.4217552198537650e+01 0 -1 1
561 2 8.6135000000000002e+00 4.9730065436648339e+00 2.6772034885110561e+01 0 0 0
581 2 8.6135000000000002e+00 6.3938655561404980e+00 2.6772034885110561e+01 0 0 0
582 2 9.8440000000000012e+00 7.1042950623783341e+00 2.6772034885110561e+01 0 0 0
583 2 9.8440000000000012e+00 4.2625770374270004e+00 2.6772034885110561e+01 0 0 0
584 2 1.1074500000000002e+01 4.9730065436648339e+00 2.6772034885110561e+01 0 0 0
605 2 1.1074500000000002e+01 6.3938655561404980e+00 2.6772034885110561e+01 0 0 0
5913 1 5.5435097250340348e+00 1.7639652472253793e+01 2.4331660926033923e+01 -1 2 0
521 2 0.0000000000000000e+00 1.1366872099805333e+01 2.6772034885110561e+01 0 0 0
522 2 0.0000000000000000e+00 8.5251540748539991e+00 2.6772034885110561e+01 0 0 0
523 2 1.2305000000000001e+00 9.2355835810918343e+00 2.6772034885110561e+01 0 0 0
535 2 1.2305000000000001e+00 1.0656442593567498e+01 2.6772034885110561e+01 0 0 0
536 2 2.4610000000000003e+00 1.1366872099805333e+01 2.6772034885110561e+01 0 0 0
537 2 2.4610000000000003e+00 8.5251540748539991e+00 2.6772034885110561e+01 0 0 0
538 2 3.6915000000000004e+00 9.2355835810918343e+00 2.6772034885110561e+01 0 0 0
554 2 3.6914999999999996e+00 1.0656442593567499e+01 2.6772034885110561e+01 0 0 0
555 2 4.9220000000000006e+00 1.1366872099805333e+01 2.6772034885110561e+01 0 0 0
556 2 4.9220000000000006e+00 8.5251540748539991e+00 2.6772034885110561e+01 0 0 0
557 2 6.1524999999999999e+00 9.2355835810918343e+00 2.6772034885110561e+01 0 0 0
577 2 6.1524999999999999e+00 1.0656442593567499e+01 2.6772034885110561e+01 0 0 0
578 2 7.3829999999999991e+00 1.1366872099805333e+01 2.6772034885110561e+01 0 0 0
579 2 7.3830000000000009e+00 8.5251540748539991e+00 2.6772034885110561e+01 0 0 0
580 2 8.6134999999999984e+00 9.2355835810918343e+00 2.6772034885110561e+01 0 0 0
601 2 8.6134999999999984e+00 1.0656442593567498e+01 2.6772034885110561e+01 0 0 0
602 2 9.8440000000000012e+00 1.1366872099805333e+01 2.6772034885110561e+01 0 0 0
603 2 9.8440000000000012e+00 8.5251540748539956e+00 2.6772034885110561e+01 0 0 0
604 2 1.1074500000000002e+01 9.2355835810918343e+00 2.6772034885110561e+01 0 0 0
625 2 1.1074500000000002e+01 1.0656442593567498e+01 2.6772034885110561e+01 0 0 0
626 2 1.2304999999999998e+01 1.1366872099805333e+01 2.6772034885110561e+01 0 0 0
1537 2 8.6135000000000002e+00 2.2023314693372832e+01 3.3289965114900930e+01 0 0 0
532 2 0.0000000000000000e+00 1.5629449137232333e+01 2.6772034885110561e+01 0 0 0
533 2 0.0000000000000000e+00 1.2787731112280996e+01 2.6772034885110561e+01 0 0 0
534 2 1.2305000000000001e+00 1.3498160618518829e+01 2.6772034885110561e+01 0 0 0
550 2 1.2305000000000001e+00 1.4919019630994494e+01 2.6772034885110561e+01 0 0 0
551 2 2.4610000000000003e+00 1.5629449137232328e+01 2.6772034885110561e+01 0 0 0
552 2 2.4610000000000003e+00 1.2787731112280996e+01 2.6772034885110561e+01 0 0 0
553 2 3.6915000000000004e+00 1.3498160618518829e+01 2.6772034885110561e+01 0 0 0
573 2 3.6915000000000004e+00 1.4919019630994494e+01 2.6772034885110561e+01 0 0 0
574 2 4.9220000000000006e+00 1.5629449137232333e+01 2.6772034885110561e+01 0 0 0
575 2 4.9220000000000006e+00 1.2787731112280996e+01 2.6772034885110561e+01 0 0 0
576 2 6.1524999999999990e+00 1.3498160618518829e+01 2.6772034885110561e+01 0 0 0
597 2 6.1524999999999990e+00 1.4919019630994494e+01 2.6772034885110561e+01 0 0 0
598 2 7.3829999999999991e+00 1.5629449137232333e+01 2.6772034885110561e+01 0 0 0
599 2 7.3829999999999991e+00 1.2787731112280996e+01 2.6772034885110561e+01 0 0 0
600 2 8.6135000000000002e+00 1.3498160618518835e+01 2.6772034885110561e+01 0 0 0
621 2 8.6135000000000002e+00 1.4919019630994494e+01 2.6772034885110561e+01 0 0 0
622 2 9.8440000000000012e+00 1.5629449137232328e+01 2.6772034885110561e+01 0 0 0
623 2 9.8440000000000012e+00 1.2787731112280996e+01 2.6772034885110561e+01 0 0 0
624 2 1.1074500000000002e+01 1.3498160618518829e+01 2.6772034885110561e+01 0 0 0
642 2 1.1074500000000002e+01 1.4919019630994494e+01 2.6772034885110561e+01 0 0 0
1554 2 1.1074500000000002e+01 2.2023314693372832e+01 3.3289965114900930e+01 0 0 0
4355 1 6.2794651872822038e-01 9.7711574075133960e+00 2.4232357685564420e+01 -1 0 1
547 2 0.0000000000000000e+00 1.9892026174659328e+01 2.6772034885110561e+01 0 0 0
548 2 0.0000000000000000e+00 1.7050308149707998e+01 2.6772034885110561e+01 0 0 0
549 2 1.2305000000000001e+00 1.7760737655945832e+01 2.6772034885110561e+01 0 0 0
569 2 1.2305000000000001e+00 1.9181596668421495e+01 2.6772034885110561e+01 0 0 0
570 2 2.4610000000000003e+00 1.9892026174659328e+01 2.6772034885110561e+01 0 0 0
571 2 2.4610000000000003e+00 1.7050308149707998e+01 2.6772034885110561e+01 0 0 0
572 2 3.6914999999999996e+00 1.7760737655945832e+01 2.6772034885110561e+01 0 0 0
593 2 3.6914999999999996e+00 1.9181596668421495e+01 2.6772034885110561e+01 0 0 0
594 2 4.9220000000000006e+00 1.9892026174659328e+01 2.6772034885110561e+01 0 0 0
595 2 4.9220000000000006e+00 1.7050308149707998e+01 2.6772034885110561e+01 0 0 0
596 2 6.1524999999999999e+00 1.7760737655945832e+01 2.6772034885110561e+01 0 0 0
617 2 6.1524999999999999e+00 1.9181596668421495e+01 2.6772034885110561e+01 0 0 0
618 2 7.3829999999999991e+00 1.9892026174659328e+01 2.6772034885110561e+01 0 0 0
619 2 7.3830000000000009e+00 1.7050308149707998e+01 2.6772034885110561e+01 0 0 0
620 2 8.6134999999999984e+00 1.7760737655945832e+01 2.6772034885110561e+01 0 0 0
638 2 8.6135000000000002e+00 1.9181596668421495e+01 2.6772034885110561e+01 0 0 0
639 2 9.8440000000000012e+00 1.9892026174659335e+01 2.6772034885110561e+01 0 0 0
640 2 9.8440000000000012e+00 1.7050308149707998e+01 2.6772034885110561e+01 0 0 0
641 2 1.1074500000000002e+01 1.7760737655945835e+01 2.6772034885110561e+01 0 0 0
655 2 1.1074500000000002e+01 1.9181596668421495e+01 2.6772034885110561e+01 0 0 0
657 2 1.2304999999999998e+01 1.7050308149707998e+01 2.6772034885110561e+01 0 0 0
3765 1 7.2280226066950792e+00 5.9226962576660904e+00 2.4185992543501303e+01 2 1 0
1553 2 9.8440000000000012e+00 2.1312885187134999e+01 3.3289965114900930e+01 0 0 0
613 2 3.6915000000000004e+00 2.3444173705848499e+01 2.6772034885110561e+01 0 0 0
566 2 0.0000000000000000e+00 2.4154603212086325e+01 2.6772034885110561e+01 0 0 0
567 2 0.0000000000000000e+00 2.1312885187134999e+01 2.6772034885110561e+01 0 0 0
568 2 1.2304999999999993e+00 2.2023314693372832e+01 2.6772034885110561e+01 0 0 0
589 2 1.2304999999999993e+00 2.3444173705848499e+01 2.6772034885110561e+01 0 0 0