LAMMPS data file via write_data, version 16 Mar 2018, timestep = 6000000

6736 atoms
2 atom types

1.5633240134523518e-01 4.9063667598658256e+01 xlo xhi
1.5569600564912633e-01 4.8863939924755627e+01 ylo yhi
1.5115523754743165e-01 5.9910844762446388e+01 zlo zhi

Masses

1 18.015
2 12.01

Atoms # atomic

2559 1 3.8180384962047857e+00 2.5438578810539694e+00 1.4251122401237131e+00 -2 0 1
431 1 2.5819635945168664e+00 5.2916391397154694e-01 5.0538200159720912e+00 0 0 0
1986 1 6.2005849131108528e+00 2.4642139098175497e+00 2.5608534928210069e+00 3 -4 0
831 1 4.1285374104205008e-01 5.0533637721353459e+00 6.2594782691878041e+00 -3 -1 0
5326 1 1.1297790633808397e+01 2.2041950697175601e+00 1.5784899882524972e+00 1 -1 0
6018 1 2.6479945244198801e+00 4.7747685605115997e+00 2.4680908986860963e+00 4 -1 1
2684 1 4.1373813120929999e+00 6.9631544027385104e+00 1.5300139237253654e+00 0 1 1
310 1 1.1339253132291120e+01 1.9930643472192376e+01 8.8788662138040788e+00 2 3 1
126 1 7.6759742749509670e+00 4.8339923126808140e+00 1.7120197268504249e+00 0 -2 0
103 1 6.5339296952898724e+00 6.9556588644313226e+00 2.5719317584970280e+00 -1 -2 1
5962 1 1.0174066787086229e+01 4.3950184955850444e+00 2.4490216111873133e+00 1 3 1
5886 1 1.1468179490411636e+01 6.7271068507925698e+00 1.5133381806303090e+00 -1 1 1
220 1 2.9208137064174275e+00 9.1158166515792818e+00 2.6253361445010084e+00 -1 -1 0
2024 1 4.3402640498555511e+00 1.1602229534135633e+01 1.2933137940920245e+00 4 -1 1
2580 1 6.6382539563686533e+00 1.1648060464755398e+01 2.5611141754333913e+00 1 -2 1
473 1 7.6017954170682085e+00 9.2840008348527512e+00 1.5475909125002461e+00 -4 3 0
6166 1 1.0334160553144926e+01 8.9679110315926494e+00 2.4988977630267208e+00 2 -3 1
5976 1 1.1395509200505341e+01 1.1393591362417103e+01 1.6328712545316997e+00 2 0 1
3731 1 2.9064067500967021e+00 1.3631963894206981e+01 2.3778685069344281e+00 2 -3 1
5526 1 3.9057462229593569e+00 1.5985885923542911e+01 1.5514818681039393e+00 3 4 0
5158 1 3.1469603458963852e-01 2.2894089311366653e+01 1.5040920059814962e+00 0 0 1
1198 1 7.5744172219707613e+00 1.3570020387510796e+01 1.0870093656860869e+00 2 -1 1
2138 1 6.2734194449086615e+00 1.5725231077728301e+01 2.2653936697665413e+00 6 2 0
1151 1 9.9936922126204752e+00 1.3539169910679711e+01 2.5662670711659716e+00 -3 -4 1
3796 1 1.1529116628345522e+01 1.5543433967031151e+01 1.4967043490840448e+00 3 0 0
5873 1 2.7290257741729977e+00 1.8103603293766845e+01 2.5552107702448339e+00 1 1 1
1729 1 7.4296893690224000e+00 1.8001349467784799e+01 1.4025676533938340e+00 4 -2 0
1778 1 6.3428789397915049e+00 2.0164081472812619e+01 2.8701061239529060e+00 3 4 0
865 1 9.9034056074989838e+00 1.7805505828078850e+01 2.4390686131104964e+00 3 2 1
5202 1 1.1396685932910774e+01 2.0200936945880510e+01 1.8837556499750812e+00 -2 0 0
3399 1 3.9977051920948510e+00 2.0216113194839817e+01 1.7651481168945733e+00 -1 1 0
4457 1 2.6956189653720366e+00 2.2586128996001062e+01 2.6169485818832547e+00 3 4 1
1824 1 5.1917256010103925e+00 2.2654095634289231e+01 1.0029258330838482e+01 2 3 0
2 1 7.4908182401848835e+00 2.2468464706618526e+01 1.8109258489901980e+00 4 1 1
2743 1 1.0017780042710935e+01 2.2414796295681690e+01 2.5525220713240881e+00 3 1 1
5946 1 3.9184034404380701e+00 2.4342746435266309e+00 6.2288119437381368e+00 0 2 1
4473 1 2.7019688965743538e-01 4.9326964695335080e+00 8.9789757684817655e+00 -2 0 0
5422 1 6.6071916562325326e+00 2.1769625335473597e+00 5.4575120285629763e+00 2 1 0
6240 1 5.2167783441416047e+00 5.6163603092097092e-01 9.6136866250423800e+00 -1 1 1
193 1 1.1336547464423894e+01 2.3969136146204950e+00 5.9603461066677470e+00 1 2 0
889 1 2.8942778621230199e+00 4.8334309351842091e+00 5.3531458593524777e+00 1 -2 1
2636 1 3.7590120230147761e+00 7.0877576257655912e+00 6.3584541234828498e+00 1 2 1
82 1 7.4897519011474376e+00 4.7885889487173285e+00 6.1899261071137150e+00 1 4 0
4361 1 6.4437143425997432e+00 6.9672890228068916e+00 5.2288276516741741e+00 3 -2 1
2643 1 1.0136493827553092e+01 4.4343318256977415e+00 5.0556692520066546e+00 2 0 1
1939 1 1.1392159374551531e+01 6.5986378798222578e+00 6.1904742911497870e+00 2 -1 0
3813 1 3.9678489833394326e+00 2.0354940466291271e+01 8.9282143082448329e+00 1 -1 0
5218 1 2.6675331141252316e+00 9.2196277042161583e+00 5.4781577661832292e+00 -1 -2 0
3818 1 4.0998190934892413e+00 1.1887325315645445e+01 6.5724925910410681e+00 -1 2 0
3579 1 7.7735591459213067e+00 9.1425394761381185e+00 6.2003415163799849e+00 3 -1 0
102 1 6.4312653049004496e+00 1.1337385198273671e+01 5.4500017241258361e+00 -1 -3 0
2627 1 1.0407149568933612e+01 8.7912930532127245e+00 5.3201420070432244e+00 3 2 1
6069 1 1.1281108642684845e+01 1.1278587631548538e+01 6.1432807348955514e+00 -2 2 1
19 1 2.6329858503268300e+00 1.3563149836793787e+01 5.4085881432491538e+00 1 -3 0
1808 1 4.0026969626811875e+00 1.5833786667863315e+01 5.9710731623161024e+00 4 0 0
5156 1 7.6414935559574859e+00 1.7980560160070318e+01 9.0227488739268917e+00 -1 -3 0
2808 1 6.5425715953596448e+00 1.5445293841640090e+01 4.9477513136719908e+00 2 5 0
2741 1 7.9214985847274786e+00 1.3596907533469395e+01 6.4257388998971265e+00 2 2 1
2751 1 1.0361581801935110e+01 1.3382506631954502e+01 5.2808846652311194e+00 0 -1 1
5296 1 1.1561774211728972e+01 1.5703825420914530e+01 6.1222810674146784e+00 4 -1 0
5959 1 2.6996884885628307e+00 1.8192744244951498e+01 5.3021868459992412e+00 1 -1 1
5356 1 3.7894927230999969e+00 2.0523591352307150e+01 6.2377060716527559e+00 1 -1 0
79 1 7.9822347031691541e+00 1.7818544947411201e+01 6.2525132993166448e+00 -5 -3 1
4238 1 6.4121249640280258e+00 2.0069469614985728e+01 5.4571949043868768e+00 1 1 0
2888 1 1.0238031337577157e+01 1.7738252301521232e+01 5.2566117320757799e+00 4 1 1
5938 1 1.1412330551801796e+01 2.0080694322928828e+01 6.1593097987132861e+00 0 -1 1
2892 1 2.5802600841807122e+00 2.2917511579710432e+01 5.5371610487288105e+00 3 -1 0
5192 1 5.0650889138360100e-01 9.5439839709640779e+00 1.4080265810040757e+00 0 -1 0
985 1 7.4713495910669874e+00 2.2450930999679766e+01 6.0893025945447237e+00 0 0 1
4507 1 1.0240601664363000e+01 2.2302794687417713e+01 5.2450981276323034e+00 -1 6 0
280 1 8.8382272514145033e+00 2.0439452476112777e+01 9.8979111127455432e+00 3 0 0
3774 1 1.2682923245061806e+00 2.3852861812913320e+00 9.6797126321944216e+00 0 0 0
1739 1 3.7949136728660537e+00 2.5087743594644620e+00 8.8140913428338674e+00 0 1 0
4453 1 1.1848227390189974e+01 1.5681644313588556e+01 8.7263783535224899e+00 3 0 1
3498 1 1.5117496398717780e+00 2.0638134001721863e+01 1.0005071218500643e+01 2 -2 0
2640 1 1.1374669790531030e+01 2.5831331451176811e+00 8.5822980524020718e+00 3 4 1
2170 1 8.8437318466823029e+00 2.5741509480021239e+00 9.6349453265993183e+00 2 -1 0
2553 1 1.3257557579795178e+00 7.1788821527681366e+00 9.9504695091694657e+00 2 -1 1
3605 1 3.8508512966363235e+00 6.9720703262287049e+00 8.9667871305815829e+00 4 0 0
114 1 7.3217262791784554e+00 4.6999637103225425e+00 8.8702253915465867e+00 3 -1 0
3456 1 4.5716361574694151e+00 4.7884312134461826e+00 1.0061338081366141e+01 1 -1 0
4330 1 8.7574521618436911e+00 6.9299211939305216e+00 9.9071435715167713e+00 2 2 1
1247 1 1.1364816003062691e+01 6.8190403136803557e+00 8.9867965356897006e+00 3 0 1
4475 1 1.4958130592527683e+00 1.1724003922566393e+01 9.6272515304753998e+00 3 1 1
5228 1 4.1270170357353795e+00 1.1514792905274133e+01 9.2607810831837316e+00 0 1 0
6123 1 5.0568942825806387e+00 1.7797341440531451e+01 1.0223449796588598e+01 3 2 1
4175 1 4.9874269301813925e+00 9.0653906600591085e+00 9.8948578500364501e+00 1 1 0
2118 1 7.4675992559218169e+00 9.1905965622509296e+00 8.7987349871813958e+00 -1 2 0
354 1 8.8108754348028260e+00 1.1139447390913260e+01 9.9602391268882506e+00 4 0 0
2490 1 1.1397455663908277e+01 1.1014374560474375e+01 8.9279339736627534e+00 3 0 1
4129 1 4.2060848437391556e+00 1.5684032857030997e+01 8.7343001221250649e+00 1 0 1
4144 1 1.8123965097094685e+00 1.6259207213598756e+01 9.9573415919938491e+00 1 1 1
3570 1 7.5203447871770237e+00 2.2573113296134554e+01 8.8996164789590591e+00 3 -1 1
1870 1 5.1632884679269662e+00 1.3602506082514097e+01 1.0037205332481065e+01 5 1 0
101 1 7.8871681328228878e+00 1.3557067388028685e+01 9.1008043504309182e+00 -2 0 1
6152 1 9.1973244950837394e+00 1.5757943729779354e+01 9.5352185474268989e+00 2 2 1
1241 1 1.8671866819432875e-01 1.8439838645566972e+01 1.6793706239102129e+00 2 2 1
4267 1 2.6165954496133259e+00 2.7768603659966890e-01 2.3593342620979501e+00 -2 1 1
319 1 7.4471239392886979e+00 2.7733448716040782e-01 2.2149273283957038e+00 -4 -2 0
1726 1 3.0117781369208546e-01 6.2131948412510196e-01 1.4882917454009748e+00 1 5 0
2891 1 3.2245520092315788e-01 5.9896341080805859e-01 6.0801640331179314e+00 -1 -1 1
5998 1 3.5692544995230246e-01 1.3849933249780200e+01 1.8349586920461300e+00 2 0 1
6292 1 6.6721669117912230e-01 1.4002185666675743e+01 8.9037566191668471e+00 -3 2 1
1985 1 2.6623227158837115e-01 1.8256965508467058e+01 8.9813115611346515e+00 -1 1 0
3638 1 2.0034067182861293e-01 2.2800346814044222e+01 8.7895540098523579e+00 1 6 1
1157 1 3.9946626589871310e+00 2.5844929080756116e+00 1.3723680185112652e+01 0 1 0
3649 1 2.7851903417916957e-01 2.2615144047485472e+01 1.3159302111230454e+01 1 0 0
5105 1 1.0323018265628537e+01 3.5450813744358289e-01 2.0445603620064073e+01 -3 -1 0
3705 1 1.0739649755331438e+01 8.9708307530671370e+00 2.3127240548560302e+01 1 1 0
374 1 1.0187682867666186e+00 7.0969384730877429e+00 1.2787673737145823e+01 1 -1 0
1006 1 1.1342047576789350e+01 2.6012565511604584e+00 1.3222842688815621e+01 2 0 1
4104 1 8.7190458233282584e+00 2.5613692239213437e+00 1.2315833376302722e+01 -3 4 1
4253 1 1.2235527787721731e+01 1.9078047307475846e-01 1.2500770422502992e+01 -1 -2 1
1793 1 3.5053032955979671e+00 7.1794288581438757e+00 1.3426268899524965e+01 4 1 0
2491 1 7.4412743308705798e+00 4.8705895681605922e+00 1.3118679034912203e+01 4 -1 1
5267 1 4.8185876877963816e+00 4.8832624754221996e+00 1.2592975948897504e+01 1 0 0
3601 1 1.1257795721210528e+01 6.7241560938910574e+00 1.3063031498177768e+01 -1 -1 1
1200 1 1.1587186111692214e+01 6.8612475655830947e+00 1.6058627203673211e+01 -2 -1 1
351 1 8.9778405005118671e+00 7.2446974292105635e+00 1.2360551534010982e+01 2 3 0
4138 1 3.7804972130774712e+00 1.1554978837103247e+01 1.3466523547802401e+01 1 3 1
132 1 4.0858157979965490e+00 1.1245476871506671e+01 1.6166569349619106e+01 2 -3 0
4547 1 1.2888561988532379e+00 1.1440721509407210e+01 1.2401708741885979e+01 -1 3 1
122 1 1.3107448279027458e+00 2.5348539535013250e+00 1.2576477510883345e+01 2 -2 1
1899 1 7.8185707934154705e+00 8.6806953095650545e+00 2.3476717451656587e+01 -1 3 1
6209 1 7.4744980472719851e+00 9.2023617818684116e+00 1.3285662713338159e+01 4 4 1
5840 1 7.6876308956220214e+00 9.1222284035890500e+00 1.6057857231500510e+01 -1 1 0
5913 1 1.1304663889094785e+01 1.1166077166019537e+01 1.3848813365914234e+01 -1 -3 0
5408 1 3.4121500892230772e-01 2.2690789068910988e+01 1.6024646957218952e+01 -1 -1 0
344 1 3.9200214031392968e+00 1.5893997825893763e+01 1.3837212739342284e+01 3 -5 0
3473 1 3.9732076095818138e+00 1.5716240458043940e+01 1.6424778207724088e+01 1 -2 1
3868 1 8.7646910593857630e+00 1.1463705322146113e+01 1.2775333944303455e+01 -3 0 0
2735 1 3.6578879824263986e+00 1.1111013609091657e+01 2.3602405521696088e+01 0 1 1
5147 1 7.7024702328200121e+00 1.4023721712157982e+01 1.3391877262501753e+01 0 2 0
6272 1 1.2076660491830102e+01 6.7501530902514686e+00 2.3735711228099973e+01 2 1 1
2909 1 9.0706614329010300e+00 1.5803326085030653e+01 1.2228153029295417e+01 -3 -1 1
2863 1 1.1423659079677680e+01 1.5375137377094621e+01 1.3002328919182210e+01 -3 -1 0
4269 1 7.8111928523894330e+00 2.6206260316401775e-01 1.5763290785679287e+01 2 3 1
4542 1 3.9401020915167972e+00 1.9956597079621595e+01 1.3553141458284324e+01 5 1 1
3630 1 1.0186694917793016e+01 2.2690140473429548e+01 2.0858371271230443e+01 1 -2 0
1914 1 5.1057734919056044e+00 1.3779609529918611e+01 1.2616619447961588e+01 -1 -3 0
3636 1 7.8035493090499353e+00 1.8150730067795187e+01 1.3321855963035686e+01 -2 -1 0
143 1 1.1315861787809675e+01 1.9820244637600069e+01 1.3362597077308095e+01 1 1 0
4177 1 8.0308030470130660e+00 1.7163637247557073e-01 2.4016900308746393e+01 1 -3 1
3564 1 1.0369315309204694e+01 2.2227504620353933e+01 2.3524251590971957e+01 -1 -1 0
6234 1 4.0730529544424723e+00 2.0267511865666767e+00 2.3831383726053943e+01 -3 0 1
3615 1 7.4380753232000396e+00 2.2495150762450105e+01 1.3775141329177046e+01 2 1 0
4532 1 5.0079622619828665e+00 9.3125061721616387e+00 1.2645996626649492e+01 2 -5 1
5152 1 5.2965772111815879e+00 2.2364209663148078e+01 1.9860367014810851e+01 3 4 0
932 1 4.0184323079326223e+00 2.4586485168835566e+00 1.6528193918038873e+01 0 -1 1
4593 1 1.5751245486744383e+00 2.5071776601576032e+00 1.7246597564788207e+01 -2 2 1
4323 1 1.2850473139936838e+00 2.3610069854449161e+00 2.0026832943129612e+01 -3 -2 1
4317 1 5.2663542734710829e+00 1.7892401442022589e+01 1.2805837457303642e+01 0 2 1
851 1 1.3737767751085577e+00 1.5919760043666477e+01 1.2610543486431462e+01 1 0 1
839 1 2.1977884424551055e+00 2.2329082555418189e+01 2.3276134205037518e+01 1 -1 0
5216 1 1.1270174894864082e+01 2.6978302486339611e+00 1.6063841498816835e+01 0 1 0
1795 1 9.0285904782530881e+00 2.3797649689197828e+00 1.7108114720181607e+01 -4 -1 0
2693 1 8.6379015969887813e+00 2.4473159620602494e+00 1.9970625796940709e+01 1 4 1
5892 1 3.7988508321951207e+00 7.1025123016053691e+00 1.6012609649337946e+01 2 -1 1
5200 1 1.2768328437031520e+00 7.2106622086188255e+00 1.6815655613908742e+01 -2 1 0
5543 1 9.3520247144178748e-01 6.8179424904789503e+00 1.9780528233042762e+01 -1 3 0
1960 1 7.5660812186472635e+00 4.5677921934252179e+00 1.5910236499493909e+01 -1 0 0
293 1 4.9980700100698270e+00 4.4886711866179834e+00 1.9469235105601474e+01 1 1 0
6037 1 5.0343349506651212e+00 4.9594173355360107e+00 1.6666598251664976e+01 0 2 1
5185 1 8.9216036430764571e+00 6.7421590029279814e+00 1.6992849986943348e+01 1 2 0
2538 1 9.0585470557867094e+00 6.8125025686136302e+00 1.9660331693488068e+01 1 1 1
4505 1 1.3834471960486787e+00 1.1483911550509847e+01 1.6671850310890559e+01 2 0 0
2805 1 1.2281478957619332e+00 1.1053370273731783e+01 1.9367365386763140e+01 1 4 1
40 1 6.6048245107375738e+00 1.9876927442178765e+01 2.3990101904204199e+01 1 -2 1
4247 1 5.3490220966249868e+00 9.1138055048950317e+00 1.7019404263528191e+01 3 3 1
5176 1 4.9750664857956979e+00 8.7714923119067958e+00 1.9640289581708938e+01 0 -2 1
2113 1 1.1417947788090432e+01 1.0983066585953683e+01 1.6472857126520228e+01 -1 0 0
4261 1 8.9291278183921943e+00 1.1553441822623705e+01 1.6903637983044579e+01 3 0 1
1120 1 9.1159034671059178e+00 1.1365093837664061e+01 1.9731145293547034e+01 1 -3 0
6157 1 1.3773315904585497e+00 1.5683670958681370e+01 1.7021959083856743e+01 1 1 1
4288 1 1.3426742026014882e+00 1.5779944260315316e+01 1.9836143341744133e+01 -2 1 1
2667 1 1.0647946153868823e+01 1.7308205680408872e-01 2.3062298290832292e+01 -1 -2 1
1073 1 7.7576904381944622e+00 1.3875615643706062e+01 1.6118222729674688e+01 2 0 1
457 1 5.1321582753705703e+00 1.3546469901491982e+01 1.7129030458709909e+01 1 -2 0
2726 1 5.2033721640766597e+00 1.3438291279350318e+01 1.9808877363958018e+01 0 1 1
2786 1 1.1354773269419864e+01 1.5586575215159595e+01 1.5740918029034543e+01 0 2 1
4268 1 8.8298101973958154e+00 1.5956111137718748e+01 1.7153430816152191e+01 -3 3 1
950 1 9.1433895548618231e+00 1.5805114767917445e+01 1.9899079534558251e+01 -3 1 0
790 1 3.7529485869426704e+00 2.0143071593046407e+01 1.6155325892597922e+01 2 -3 0
2014 1 6.5286124626621955e+00 2.0289848982506534e+01 2.1041178698432809e+01 -1 -5 0
5093 1 7.5978136029387873e+00 1.7859042062352884e+01 1.6019361898987569e+01 2 -3 0
741 1 4.7913207273669745e+00 1.7974247548064994e+01 1.7151744102823706e+01 0 0 1
2784 1 5.0798222225067375e+00 1.8118449277438057e+01 1.9825586379466749e+01 -2 -2 1
803 1 1.1441346607238948e+01 2.0289454277440782e+01 1.6037956059775276e+01 1 0 1
3572 1 8.9057963613567850e+00 1.9929143664780824e+01 1.7040471824881763e+01 -5 3 0
4478 1 9.1043187519939366e+00 2.0454418881926497e+01 1.9862097757378688e+01 2 3 0
432 1 1.2400974751012774e+00 2.0470313022039054e+01 1.7146140211001974e+01 3 0 0
1758 1 2.6851765470050388e+00 2.2404018686340944e+01 2.0469896055275886e+01 -2 0 1
3790 1 7.7663905967075770e+00 2.2182284005087993e+01 1.6531101844029912e+01 3 -2 0
2884 1 5.1307694280885645e+00 2.2298385348035410e+01 1.7229109235190599e+01 1 1 1
2435 1 2.3291558035164708e+00 1.8212533001002104e+01 2.0662704216791347e+01 2 -1 0
5205 1 8.6719682809575236e+00 2.0440051946589683e+01 1.2549848756502737e+01 0 0 0
3512 1 6.8547731015209941e+00 2.2844026153516008e+00 2.3102385491989661e+01 1 3 1
4150 1 5.7615282026663506e+00 2.4904498512305433e+00 2.0669974172783263e+01 2 1 0
1074 1 5.0043301271924330e+00 2.2238178924898779e+01 1.2627988256224418e+01 -3 -2 1
2519 1 1.0745066191353960e+01 1.7863176713934251e+01 2.3848392401092433e+01 -3 1 1
4564 1 2.6484309066511766e+00 4.1356232787650073e+00 2.3224469434228904e+01 1 -2 1
1098 1 2.5643072162513798e+00 4.7052929639624770e+00 2.0570416510410912e+01 3 -1 1
3691 1 6.5082960083597436e+00 6.2162184787557555e+00 2.3514367368663720e+01 6 -3 0
2703 1 6.2942148116207877e+00 6.7153246456099742e+00 2.0632198176955402e+01 0 2 1
2033 1 1.0600056943236712e+01 4.5361862175280576e+00 2.3299382476769040e+01 1 -4 0
2914 1 9.9721817603827461e+00 4.7074277875175046e+00 2.0638202282847026e+01 -3 1 0
2628 1 2.2579634208589954e+00 8.5489938685045370e+00 2.3613073858221902e+01 0 0 1
3729 1 1.0425579080262761e+01 1.8209099486294456e+01 2.1017854444303392e+01 -2 -1 0
2920 1 2.2331187096258658e+00 8.9135780592758653e+00 2.0548783421914507e+01 0 -1 1
28 1 6.3577701685024071e+00 1.0871024493939224e+01 2.3287709073968660e+01 2 0 0
2012 1 6.3744337829551876e+00 1.1004603895800868e+01 2.0667507662905873e+01 1 1 0
3721 1 1.9680091037428199e-01 4.8178519708958689e-01 1.3376136021481946e+01 0 5 0
4517 1 1.0018335427666035e+01 9.0758910310092364e+00 2.0557450457356229e+01 1 0 1
5240 1 2.5346375442110407e+00 1.7714746089139766e+01 2.3371389326041712e+01 0 0 1
841 1 2.4747006096572206e+00 1.3448844524512626e+01 2.0367881378220456e+01 -1 1 1
5497 1 2.4203321783971492e+00 1.3349561063171464e+01 2.3007972128623845e+01 2 -2 0
5950 1 6.7116614701052510e+00 1.5355762665026472e+01 2.3461705345763953e+01 -3 0 1
4415 1 6.5520758772108438e+00 1.5764840859506263e+01 2.0633406264389116e+01 -1 3 1
5979 1 1.0311459478621330e+01 1.3108627412419963e+01 2.3342610341879290e+01 3 -3 1
3576 1 1.0256932202662068e+01 1.3504939493749648e+01 2.0567128183367412e+01 -1 2 1
2900 1 1.2502127978467650e+00 2.0323361704405745e+01 1.9729416597581753e+01 1 1 1
2527 1 1.5595594314094778e+00 2.0289670759553275e+01 1.2774426996167596e+01 -2 0 1
1989 1 7.5992504184497891e+00 3.7079041349066599e-01 1.3208082624017459e+01 0 -1 1
2131 1 1.2134271423690997e+01 2.2432906254690426e+01 1.7268779898128528e+01 0 1 0
3465 1 3.5114882364383243e-01 1.8164018446215472e+01 1.5975630454979155e+01 4 -2 0
5857 1 5.2591680789868658e+00 7.2321548863912677e-01 1.2290217926768735e+01 -3 1 1
5479 1 1.1426004913432129e+01 2.4499450836064739e+01 1.3371608162077873e+01 1 0 0
1203 1 1.2124592190796665e+01 2.4675245833283550e+00 2.3873500604002050e+01 0 -2 0
1179 1 3.7000476886148781e-01 4.7931714854076759e+00 1.6186690018414673e+01 2 0 1
511 2 1.5633240134523518e-01 2.9793623198000003e+00 2.6737571321498752e+01 0 0 0
512 2 1.5633240134523518e-01 1.5569600564912633e-01 2.6737571321498752e+01 0 0 0
513 2 1.3790157812782737e+00 8.6161258418713049e-01 2.6737571321498752e+01 0 0 0
517 2 1.3790157812782737e+00 2.2734457412627997e+00 2.6737571321498752e+01 0 0 0
518 2 2.6016991612113123e+00 2.9793623198000003e+00 2.6737571321498752e+01 0 0 0
519 2 2.6016991612113123e+00 1.5569600564912633e-01 2.6737571321498752e+01 0 0 0
520 2 3.8243825411438315e+00 8.6161258418713049e-01 2.6737571321498752e+01 0 0 0
528 2 3.8243825411438315e+00 2.2734457412627997e+00 2.6737571321498752e+01 0 0 0
529 2 5.0470659210773894e+00 2.9793623198000003e+00 2.6737571321498752e+01 0 0 0
530 2 5.0470659210773894e+00 1.5569600564912633e-01 2.6737571321498752e+01 0 0 0
531 2 6.2697493010093606e+00 8.6161258418713049e-01 2.6737571321498752e+01 0 0 0
543 2 6.2697493010093606e+00 2.2734457412627997e+00 2.6737571321498752e+01 0 0 0
544 2 7.4924326809424278e+00 2.9793623198000003e+00 2.6737571321498752e+01 0 0 0
545 2 7.4924326809424278e+00 1.5569600564912633e-01 2.6737571321498752e+01 0 0 0
546 2 8.7151160608794278e+00 8.6161258418713049e-01 2.6737571321498752e+01 0 0 0
562 2 8.7151160608794278e+00 2.2734457412627997e+00 2.6737571321498752e+01 0 0 0
563 2 9.9377994408095436e+00 2.9793623198000003e+00 2.6737571321498752e+01 0 0 0
564 2 9.9377994408095436e+00 1.5569600564912633e-01 2.6737571321498752e+01 0 0 0
565 2 1.1160482820737256e+01 8.6161258418713049e-01 2.6737571321498752e+01 0 0 0
585 2 1.1160482820737256e+01 2.2734457412627997e+00 2.6737571321498752e+01 0 0 0
586 2 1.2383166200673486e+01 2.9793623198000003e+00 2.6737571321498752e+01 0 0 0
587 2 1.2383166200673486e+01 1.5569600564912633e-01 2.6737571321498752e+01 0 0 0
4259 1 1.1752543840617392e+01 1.5214094412828670e+01 2.4395229599445699e+01 3 0 1
514 2 1.5633240134523518e-01 7.2148617910252417e+00 2.6737571321498752e+01 0 0 0
515 2 1.5633240134523518e-01 4.3911954768764732e+00 2.6737571321498752e+01 0 0 0
516 2 1.3790157812782737e+00 5.0971120554132581e+00 2.6737571321498752e+01 0 0 0
524 2 1.3790157812782737e+00 6.5089452124898113e+00 2.6737571321498752e+01 0 0 0
525 2 2.6016991612113123e+00 7.2148617910252417e+00 2.6737571321498752e+01 0 0 0
526 2 2.6016991612113123e+00 4.3911954768764732e+00 2.6737571321498752e+01 0 0 0
527 2 3.8243825411438315e+00 5.0971120554132581e+00 2.6737571321498752e+01 0 0 0
539 2 3.8243825411438315e+00 6.5089452124898113e+00 2.6737571321498752e+01 0 0 0
2144 1 1.1286857073802784e+01 2.4493698044984328e+01 2.4382946350052887e+01 1 -2 0
540 2 5.0470659210773894e+00 7.2148617910252417e+00 2.6737571321498752e+01 0 0 0
541 2 5.0470659210773894e+00 4.3911954768764732e+00 2.6737571321498752e+01 0 0 0
542 2 6.2697493010093606e+00 5.0971120554132581e+00 2.6737571321498752e+01 0 0 0
558 2 6.2697493010093606e+00 6.5089452124898113e+00 2.6737571321498752e+01 0 0 0
559 2 7.4924326809424278e+00 7.2148617910252417e+00 2.6737571321498752e+01 0 0 0
560 2 7.4924326809424278e+00 4.3911954768764732e+00 2.6737571321498752e+01 0 0 0
2199 1 3.9731865857614892e+00 1.5490960104560985e+01 2.4140192845498923e+01 1 -5 0
561 2 8.7151160608794278e+00 5.0971120554132581e+00 2.6737571321498752e+01 0 0 0
581 2 8.7151160608794278e+00 6.5089452124898113e+00 2.6737571321498752e+01 0 0 0
582 2 9.9377994408095436e+00 7.2148617910252417e+00 2.6737571321498752e+01 0 0 0
583 2 9.9377994408095436e+00 4.3911954768764732e+00 2.6737571321498752e+01 0 0 0
584 2 1.1160482820737256e+01 5.0971120554132581e+00 2.6737571321498752e+01 0 0 0
605 2 1.1160482820737256e+01 6.5089452124898113e+00 2.6737571321498752e+01 0 0 0
606 2 1.2383166200673486e+01 7.2148617910252417e+00 2.6737571321498752e+01 0 0 0
607 2 1.2383166200673486e+01 4.3911954768764732e+00 2.6737571321498752e+01 0 0 0
1554 2 1.1160482820737256e+01 2.2039109940325282e+01 3.3324428678509960e+01 0 0 0
521 2 1.5633240134523518e-01 1.1450361262252622e+01 2.6737571321498752e+01 0 0 0
522 2 1.5633240134523518e-01 8.6266949481038200e+00 2.6737571321498752e+01 0 0 0
523 2 1.3790157812782737e+00 9.3326115266421379e+00 2.6737571321498752e+01 0 0 0
535 2 1.3790157812782737e+00 1.0744444683718749e+01 2.6737571321498752e+01 0 0 0
536 2 2.6016991612113123e+00 1.1450361262252622e+01 2.6737571321498752e+01 0 0 0
537 2 2.6016991612113123e+00 8.6266949481038200e+00 2.6737571321498752e+01 0 0 0
538 2 3.8243825411438315e+00 9.3326115266421379e+00 2.6737571321498752e+01 0 0 0
554 2 3.8243825411438315e+00 1.0744444683718749e+01 2.6737571321498752e+01 0 0 0
455 1 1.1901559763154317e+01 2.0153580570852100e+01 2.4479622361887561e+01 2 3 0
555 2 5.0470659210773894e+00 1.1450361262252622e+01 2.6737571321498752e+01 0 0 0
556 2 5.0470659210773894e+00 8.6266949481038200e+00 2.6737571321498752e+01 0 0 0
557 2 6.2697493010093606e+00 9.3326115266421379e+00 2.6737571321498752e+01 0 0 0
577 2 6.2697493010093606e+00 1.0744444683718749e+01 2.6737571321498752e+01 0 0 0
578 2 7.4924326809424278e+00 1.1450361262252622e+01 2.6737571321498752e+01 0 0 0
579 2 7.4924326809424278e+00 8.6266949481038200e+00 2.6737571321498752e+01 0 0 0
580 2 8.7151160608794278e+00 9.3326115266421379e+00 2.6737571321498752e+01 0 0 0
601 2 8.7151160608794278e+00 1.0744444683718749e+01 2.6737571321498752e+01 0 0 0
602 2 9.9377994408095436e+00 1.1450361262252622e+01 2.6737571321498752e+01 0 0 0
603 2 9.9377994408095436e+00 8.6266949481038200e+00 2.6737571321498752e+01 0 0 0
604 2 1.1160482820737256e+01 9.3326115266421379e+00 2.6737571321498752e+01 0 0 0
625 2 1.1160482820737256e+01 1.0744444683718749e+01 2.6737571321498752e+01 0 0 0
626 2 1.2383166200673486e+01 1.1450361262252622e+01 2.6737571321498752e+01 0 0 0
627 2 1.2383166200673486e+01 8.6266949481038200e+00 2.6737571321498752e+01 0 0 0
1137 1 1.7584358127171493e+00 1.5656830015073758e+01 3.5855695612071088e+01 -1 -4 0
532 2 1.5633240134523518e-01 1.5685860733482560e+01 2.6737571321498752e+01 0 0 0
533 2 1.5633240134523518e-01 1.2862194419330496e+01 2.6737571321498752e+01 0 0 0
534 2 1.3790157812782737e+00 1.3568110997865672e+01 2.6737571321498752e+01 0 0 0
550 2 1.3790157812782737e+00 1.4979944154941261e+01 2.6737571321498752e+01 0 0 0
551 2 2.6016991612113123e+00 1.5685860733482560e+01 2.6737571321498752e+01 0 0 0
552 2 2.6016991612113123e+00 1.2862194419330496e+01 2.6737571321498752e+01 0 0 0
553 2 3.8243825411438315e+00 1.3568110997865672e+01 2.6737571321498752e+01 0 0 0
573 2 3.8243825411438315e+00 1.4979944154941261e+01 2.6737571321498752e+01 0 0 0
1552 2 9.9377994408095436e+00 2.4156859675939682e+01 3.3324428678509960e+01 0 0 0
574 2 5.0470659210773894e+00 1.5685860733482560e+01 2.6737571321498752e+01 0 0 0
575 2 5.0470659210773894e+00 1.2862194419330496e+01 2.6737571321498752e+01 0 0 0
576 2 6.2697493010093606e+00 1.3568110997865672e+01 2.6737571321498752e+01 0 0 0
597 2 6.2697493010093606e+00 1.4979944154941261e+01 2.6737571321498752e+01 0 0 0
598 2 7.4924326809424278e+00 1.5685860733482560e+01 2.6737571321498752e+01 0 0 0
599 2 7.4924326809424278e+00 1.2862194419330496e+01 2.6737571321498752e+01 0 0 0
600 2 8.7151160608794278e+00 1.3568110997865672e+01 2.6737571321498752e+01 0 0 0
621 2 8.7151160608794278e+00 1.4979944154941261e+01 2.6737571321498752e+01 0 0 0
622 2 9.9377994408095436e+00 1.5685860733482560e+01 2.6737571321498752e+01 0 0 0
623 2 9.9377994408095436e+00 1.2862194419330496e+01 2.6737571321498752e+01 0 0 0
624 2 1.1160482820737256e+01 1.3568110997865672e+01 2.6737571321498752e+01 0 0 0
642 2 1.1160482820737256e+01 1.4979944154941261e+01 2.6737571321498752e+01 0 0 0
643 2 1.2383166200673486e+01 1.5685860733482560e+01 2.6737571321498752e+01 0 0 0
644 2 1.2383166200673486e+01 1.2862194419330496e+01 2.6737571321498752e+01 0 0 0
1565 2 1.2383166200673486e+01 2.4156859675939682e+01 3.3324428678509960e+01 0 0 0
547 2 1.5633240134523518e-01 1.9921360204705653e+01 2.6737571321498752e+01 0 0 0
548 2 1.5633240134523518e-01 1.7097693890558514e+01 2.6737571321498752e+01 0 0 0
549 2 1.3790157812782737e+00 1.7803610469095599e+01 2.6737571321498752e+01 0 0 0
569 2 1.3790157812782737e+00 1.9215443626177855e+01 2.6737571321498752e+01 0 0 0
570 2 2.6016991612113123e+00 1.9921360204705653e+01 2.6737571321498752e+01 0 0 0
571 2 2.6016991612113123e+00 1.7097693890558514e+01 2.6737571321498752e+01 0 0 0
572 2 3.8243825411438315e+00 1.7803610469095599e+01 2.6737571321498752e+01 0 0 0
593 2 3.8243825411438315e+00 1.9215443626177855e+01 2.6737571321498752e+01 0 0 0
1564 2 1.1160482820737256e+01 2.3450943097393637e+01 3.3324428678509960e+01 0 0 0
594 2 5.0470659210773894e+00 1.9921360204705653e+01 2.6737571321498752e+01 0 0 0
595 2 5.0470659210773894e+00 1.7097693890558514e+01 2.6737571321498752e+01 0 0 0
596 2 6.2697493010093606e+00 1.7803610469095599e+01 2.6737571321498752e+01 0 0 0
617 2 6.2697493010093606e+00 1.9215443626177855e+01 2.6737571321498752e+01 0 0 0
618 2 7.4924326809424278e+00 1.9921360204705653e+01 2.6737571321498752e+01 0 0 0
619 2 7.4924326809424278e+00 1.7097693890558514e+01 2.6737571321498752e+01 0 0 0
620 2 8.7151160608794278e+00 1.7803610469095599e+01 2.6737571321498752e+01 0 0 0
638 2 8.7151160608794278e+00 1.9215443626177855e+01 2.6737571321498752e+01 0 0 0
639 2 9.9377994408095436e+00 1.9921360204705653e+01 2.6737571321498752e+01 0 0 0
640 2 9.9377994408095436e+00 1.7097693890558514e+01 2.6737571321498752e+01 0 0 0
641 2 1.1160482820737256e+01 1.7803610469095599e+01 2.6737571321498752e+01 0 0 0
655 2 1.1160482820737256e+01 1.9215443626177855e+01 2.6737571321498752e+01 0 0 0
657 2 1.2383166200673486e+01 1.7097693890558514e+01 2.6737571321498752e+01 0 0 0
613 2 3.8243825411438315e+00 2.3450943097393637e+01 2.6737571321498752e+01 0 0 0
566 2 1.5633240134523518e-01 2.4156859675939682e+01 2.6737571321498752e+01 0 0 0
567 2 1.5633240134523518e-01 2.1333193361788371e+01 2.6737571321498752e+01 0 0 0
568 2 1.3790157812782737e+00 2.2039109940325282e+01 2.6737571321498752e+01 0 0 0
589 2 1.3790157812782737e+00 2.3450943097393637e+01 2.6737571321498752e+01 0 0 0
590 2 2.6016991612113123e+00 2.4156859675939682e+01 2.6737571321498752e+01 0 0 0
591 2 2.6016991612113123e+00 2.1333193361788371e+01 2.6737571321498752e+01 0 0 0
592 2 3.8243825411438315e+00 2.2039109940325282e+01 2.6737571321498752e+01 0 0 0
1551 2 8.7151160608794278e+00 2.3450943097393637e+01 3.3324428678509960e+01 0 0 0
615 2 5.0470659210773894e+00 2.1333193361788371e+01 2.6737571321498752e+01 0 0 0
634 2 6.2697493010093606e+00 2.3450943097393637e+01 2.6737571321498752e+01 0 0 0
636 2 7.4924326809424278e+00 2.1333193361788371e+01 2.6737571321498752e+01 0 0 0
616 2 6.2697493010093606e+00 2.2039109940325282e+01 2.6737571321498752e+01 0 0 0
635 2 7.4924326809424278e+00 2.4156859675939682e+01 2.6737571321498752e+01 0 0 0
614 2 5.0470659210773894e+00 2.4156859675939682e+01 2.6737571321498752e+01 0 0 0