LAMMPS data file via write_data, version 16 Mar 2018, timestep = 100000

6736 atoms
2 atom types

3.0679712002624981e-01 4.8913202879975287e+01 xlo xhi
3.0554821471280036e-01 4.8714087715697019e+01 ylo yhi
3.3500751321993505e-01 5.9726992486781114e+01 zlo zhi

Masses

1 18.015
2 12.01

Atoms # atomic

2015 1 1.5809911581321612e+00 2.9498502409227823e+00 2.1541188538657714e+00 0 1 0
3678 1 8.2630884962837516e+00 4.3101093808886254e-01 1.0678977100613269e+01 1 -1 0
3401 1 6.0935274505804191e+00 3.2997109647107408e+00 1.7284508773659866e+00 1 0 0
258 1 8.0008816151917070e+00 1.5867112918871880e+00 1.3404823807737203e+00 1 0 0
4530 1 1.0793209171234633e+01 4.3449259893460077e+00 4.0186505107358581e+00 0 -1 0
59 1 1.0935435388781659e+01 2.4263563717781480e+01 9.0631657186884187e+00 0 0 0
2451 1 1.0376314370767739e+01 1.7732639377475792e+01 7.5753105988340792e+00 0 0 1
3498 1 1.6341149001701720e+00 5.4762904486581192e+00 2.2389801550483739e+00 2 1 0
6176 1 4.2213824231244086e+00 6.5257341308358496e+00 2.2194871522704740e+00 0 1 1
767 1 6.7914155339210662e+00 5.6174724346204110e+00 2.9751000639379805e+00 2 0 0
3371 1 1.2061442178292104e+01 1.6347272084456566e+01 1.1625208795040724e+01 1 0 0
281 1 7.9511362402680543e+00 1.4143721641347447e+01 1.2199512630497111e+01 2 0 0
5469 1 8.5183077219234189e+00 7.2557193511032354e+00 1.8403037335638142e+00 0 0 1
4439 1 1.1149707083065207e+01 6.3513490699449262e+00 2.2941255894956765e+00 0 0 0
1892 1 4.4130745697661589e-01 9.0682032759100206e+00 3.2720175087125467e+00 1 0 0
5964 1 6.0070812485268354e-01 1.1455061199936411e+01 1.2296774226156710e+00 0 0 1
4533 1 6.2623910045342619e+00 1.1122932720650947e+01 1.9640364391852854e+00 2 -1 1
2520 1 5.0138645808911511e+00 1.2339857589763461e+01 3.7273584956120467e+00 1 0 0
6191 1 3.3223723372048855e+00 1.5491231318390279e+01 9.4944535432371069e-01 1 0 1
5899 1 9.9953296478280862e+00 1.2835973419813230e+01 1.1325547450110625e+00 -1 2 1
322 1 1.0915361588411988e+01 1.1121071222142952e+01 3.0080170558270765e+00 0 0 0
1780 1 8.4208611149331229e+00 9.6505661313562570e+00 2.7989644750178475e+00 0 -1 0
5363 1 2.5399866940523075e+00 1.3277654351674094e+01 2.6156192289086500e+00 1 0 0
76 1 4.3608643318045903e-01 1.0663137053294571e+01 5.5231532338326588e+00 0 1 0
3652 1 1.1783464912596992e+01 4.8924388267420440e+00 1.0789892698096917e+01 -1 -1 0
3405 1 1.7733916570499717e+00 2.2481863467770570e+01 4.3928996507448392e+00 -1 0 1
2814 1 8.9176599479892165e+00 1.4878308983090820e+01 2.9288040381990377e+00 -1 1 1
311 1 1.1579873750185888e+01 1.5281494426813042e+01 4.0192518696976531e+00 0 0 1
761 1 2.3361021845987753e+00 1.5875654075191159e+01 4.3585824133552080e+00 -1 -1 1
2033 1 6.6122290211315216e+00 1.0259985364276758e+01 1.1439574672106462e+01 1 0 0
5362 1 7.2009967445935930e+00 1.7214345069555499e+01 2.5546847212142629e+00 2 0 0
77 1 4.1195798445286230e-01 1.8078145809182541e+01 4.1691903463044557e+00 0 1 0
3604 1 4.9214329362127252e-01 2.2174679954976163e+01 2.0122988233147794e+00 0 1 1
4158 1 9.1022118318871321e+00 2.1346006175799371e+01 1.3963533270374124e+00 1 -1 1
381 1 1.0705784377388630e+01 2.1445262881271397e+01 1.0566868740096048e+01 0 0 0
448 1 9.9972415261120560e+00 1.4554678268939838e+01 1.0376608413406260e+01 2 -1 0
4560 1 7.6566723629854527e+00 2.1953407466031447e+01 4.1421179104692678e+00 0 0 1
4150 1 4.8260836467237782e+00 2.2391583167724903e+01 1.0137113585138819e+00 0 1 0
2838 1 6.1539005254015358e+00 1.3557077846369288e+00 1.1883740119526566e+01 0 2 1
4275 1 4.5756309450143586e+00 2.3534439170777198e+01 8.5146095474236851e+00 1 -1 1
218 1 1.0291747782861762e+01 9.9706249494451960e-01 5.6543138335470289e+00 1 1 0
3734 1 2.0719469483216755e+00 2.0278756415794184e+01 1.0614925535759497e+01 1 0 0
312 1 1.2023714337222115e+01 1.0408081138493921e+01 7.7770436208800042e+00 -1 -1 0
2422 1 6.8345215104017640e+00 6.0761384860990164e+00 9.9935976380407592e+00 0 0 0
5154 1 4.0083939851884560e+00 1.9562015563833717e+00 2.9908498535611141e+00 1 1 1
2830 1 3.7838385095843972e+00 2.3416337785148786e+00 5.6455444757460347e+00 1 0 1
4138 1 8.6791810806518299e+00 5.0193858188077192e+00 5.5136295091231746e+00 1 0 1
2906 1 1.0374297774167909e+01 1.7665132617728487e+00 2.9424656193858350e+00 0 1 1
6040 1 8.3837426116477225e+00 2.3993820434255593e+00 6.7834583470463867e+00 0 -1 1
465 1 9.3991331117147237e+00 8.9439667123043378e+00 1.1788381908638808e+01 0 0 0
6075 1 5.8943837948940880e-01 9.1583217270162098e+00 8.3834595741958111e+00 1 0 1
2099 1 1.4927538939368084e+00 7.2258216209792945e+00 6.5972541577726505e+00 -1 -1 0
397 1 4.8115346158739154e+00 7.4368811508318151e+00 8.3667692304789618e+00 -1 -1 0
2592 1 8.9216707243291840e+00 2.2204608163674486e+01 7.8646358313143745e+00 0 0 1
3457 1 5.4247723845824698e+00 7.1846020069813434e+00 5.7785086125433711e+00 0 -1 0
3543 1 1.3304442843748143e+00 3.6646021013484500e+00 6.2135349393056787e+00 0 1 1
2762 1 8.8935629047858811e+00 7.6416414469979639e+00 6.2566304655063787e+00 0 1 1
892 1 1.0971807192643379e+01 9.2028003051884042e+00 5.7277595072864269e+00 0 -1 1
388 1 3.2397736793657628e+00 8.1970814467377764e+00 4.4818403446582860e+00 1 -1 0
2640 1 4.0597282110231951e+00 1.0704001229662916e+01 5.4925654206258354e+00 2 1 1
4478 1 8.7976853262290788e+00 1.3542606405136864e+01 6.2811513821036593e+00 0 1 0
2688 1 7.1010942710423963e+00 9.6163492875705767e+00 5.3254703108045334e+00 0 -1 1
4198 1 1.1268295782615873e+01 1.2732221092549715e+01 5.0741330931088866e+00 0 1 1
35 1 2.1987521105539902e+00 4.5703774155736934e+00 1.0350423495673436e+01 0 -1 0
3580 1 1.2037865410703413e+01 2.1862174597111604e+01 1.2100084487489227e+00 0 0 0
2430 1 3.4640800229446951e+00 1.2237134475707592e+01 7.4800412968801266e+00 0 1 1
6081 1 4.2282900539321311e+00 1.5090263166822005e+01 7.7294858243685232e+00 1 1 1
292 1 4.6235687745805309e+00 2.0414924399668948e+00 9.8803637189012576e+00 1 0 0
811 1 4.7321527200833700e+00 1.6084105710593974e+01 5.4440475533747765e+00 1 -1 0
5910 1 6.7602650072986288e+00 1.4284951538401561e+01 4.5079044316975656e+00 0 0 0
4534 1 2.2223162807531818e+00 1.9848940772444902e+01 5.0495291386551964e+00 1 0 0
2798 1 6.0249319969202046e+00 1.8449771377680833e+01 6.2853889870244428e+00 0 0 0
899 1 9.0787978097706183e+00 1.9447340647519535e+01 6.1530565742285619e+00 1 -1 1
3758 1 1.1267501862145984e+01 1.7313390444502559e+01 2.1133872807597069e+00 0 0 0
1930 1 9.1448121418403030e+00 1.9019344704016031e+01 3.4059701613409064e+00 1 -1 0
20 1 4.8203749187026457e+00 1.7732261686691846e+01 2.0919688095896216e+00 -1 0 0
4556 1 4.5457638487741940e+00 1.9599366167680955e+01 4.2034185465768266e+00 2 -1 0
1913 1 2.3257409673415341e+00 1.3673692287689097e+01 1.0693224927950368e+01 2 1 0
3815 1 9.5495454227286747e-01 1.3476725179817041e+01 7.9618164029263321e+00 2 0 0
2872 1 4.7721767649064164e+00 2.2536132665286445e+01 3.8764499458455033e+00 1 0 1
6204 1 1.1787634006113789e+01 2.2904610654464353e+01 6.2802166006705500e+00 1 0 0
3520 1 6.7179493695641357e-01 1.3296388046089733e+01 4.7192448368222948e+00 -2 0 0
5801 1 3.3162801023183697e+00 5.0669891654511279e+00 7.8630643741244599e+00 0 1 1
6283 1 8.7383777941296632e+00 2.3998465892703212e+01 6.8003646125029105e-01 1 0 1
6137 1 5.6980529149317301e+00 4.0015990003627095e+00 8.6207074138342854e+00 0 0 1
822 1 5.8259813704968835e+00 4.1386855788684525e+00 5.9170499417294931e+00 -1 1 1
5913 1 9.3087741757916991e+00 2.2621229418302322e+00 9.3390402586205372e+00 0 -1 0
5450 1 1.1263762762264067e+01 1.8639183535352917e+01 1.0019911679516978e+01 1 2 0
740 1 9.3455703937165264e+00 7.4539046196812970e+00 8.8644465864223534e+00 0 0 1
4309 1 5.6373277037598823e+00 1.9041085446623988e+01 9.5295450949311302e+00 2 -1 1
4583 1 2.3987089032695672e+00 1.6844702137358308e+01 9.2319758520248243e+00 0 0 1
6177 1 9.0989278221167833e+00 4.4103334366533220e+00 1.1102831172133250e+01 0 -1 1
3846 1 3.2247747983424069e+00 9.8119301338465945e+00 9.0117756041341170e+00 0 1 1
1175 1 1.1674164260078774e+01 6.2740586459442893e+00 8.3475122320492563e+00 0 -1 1
5306 1 7.8330745689469818e+00 1.1306167398885281e+01 7.0333723596116071e+00 -1 0 0
1929 1 6.0846724185038612e+00 1.1228823256335508e+01 9.0019600175089849e+00 0 0 0
3503 1 6.9298022454203378e+00 2.3535466577761998e+01 6.6178789521432879e+00 0 0 0
3840 1 2.3470887195222394e+00 2.3131317998189807e+01 6.0337703908501261e-01 1 -2 0
5312 1 6.4963835858641845e+00 2.1548642121080363e+01 9.7467565470382649e+00 -1 0 1
3608 1 1.1174701212993916e+01 6.2426387077598777e-01 1.2032796472570373e+01 -1 -1 0
4263 1 8.3351307471825624e+00 2.1952275146508132e+01 1.1630624895463516e+01 1 0 1
6005 1 8.7897142685366578e+00 1.5623116361507744e+01 8.0225696339864569e+00 0 0 1
1121 1 5.5965383889119673e+00 1.3673766893733433e+01 1.0638712055004252e+01 1 0 1
16 1 6.4561790471232579e+00 1.6225478001231210e+01 9.1152276347795151e+00 0 -2 0
5998 1 4.0413396049212977e+00 1.8985107593899553e+01 1.1771703706678682e+01 1 -1 1
1917 1 9.2980265590586075e+00 1.0421351875001841e+01 9.4189394497210852e+00 1 1 1
2728 1 1.1952104714413542e+01 1.2956231609690676e+01 9.5663919082286828e+00 1 0 1
4246 1 3.1395611518726838e+00 1.9250319694756499e+01 7.8878569038856847e+00 1 0 1
6143 1 1.2339317736273577e+01 1.6246406431228372e+01 6.6914417875329653e+00 -1 1 1
4121 1 2.2741145267945990e+00 2.2586365386413259e+01 9.2791746123193981e+00 0 -1 1
3563 1 1.2300947179099767e+01 9.0309983272235002e+00 1.1905574967140023e+01 0 0 0
6211 1 1.6008557729062722e+00 8.4789283982314012e-01 1.0298503010132547e+01 1 1 1
6155 1 4.5230436271397965e+00 2.2838955845937118e+01 1.1953982695046506e+01 0 0 1
2036 1 1.1943998897990324e+01 1.9942722346351907e+01 5.2685503467598069e+00 1 -1 1
1008 1 1.1999747075758354e+01 2.2988765487024070e+00 9.7231311458458229e+00 0 0 1
434 1 7.6051433595956963e-01 2.1710661206422294e+01 7.2483864302264767e+00 -1 0 0
4131 1 2.5284068604664611e+00 1.6220458350357184e+01 1.2001243451460626e+01 0 1 1
4326 1 6.7467868907133735e+00 1.6985724006780327e+01 1.2168145120976174e+01 2 0 1
504 1 3.7988586933058777e+00 9.4685415478638273e+00 1.1852775257423829e+01 0 1 0
1905 1 9.4597318257664824e+00 2.4432358054107471e+01 1.1997869909118439e+01 1 1 0
2771 1 1.2083003337340404e+01 2.4167113235929731e+00 5.6737643552695038e-01 0 2 1
2635 1 8.2904804586940006e+00 2.4485551234826502e+01 3.4058074170399792e+00 0 -1 1
846 1 5.5421435742472260e+00 1.9825233888892438e+01 3.4620382688725471e-01 1 0 1
37 1 3.8559670364611272e+00 1.0998408635475034e+01 3.5817240198301903e-01 1 2 0
429 1 3.7543268594014600e+00 8.3233079977740605e+00 4.7089576131826760e-01 0 0 0
893 1 2.8455478499779963e+00 2.8068597194551108e+00 1.4535890357215990e+01 0 1 1
3618 1 4.4386099542389186e+00 5.3187197820833347e+00 1.3938380092553025e+01 0 0 0
4523 1 7.9424027216347781e+00 4.7156688214876468e+00 1.3742015825554367e+01 1 0 1
6006 1 6.2732673044838911e+00 2.7683591790568598e+00 1.4449618725856645e+01 -1 0 1
5552 1 9.9661633034213022e+00 4.5507400524317845e+00 1.6217764613534499e+01 1 1 0
1799 1 6.9316238273578454e+00 1.5329912748007587e+01 2.3623374015034774e+01 0 0 1
3793 1 5.2342853491859831e+00 1.2323871853480084e+01 1.3425774704916094e+01 1 1 0
6019 1 8.2154840546546097e+00 7.7419828838572284e+00 1.4352594373030588e+01 -1 -1 1
425 1 1.1019897761604589e+01 8.1038198110466961e+00 1.5001300883065754e+01 1 0 0
955 1 9.2391078037362928e-01 2.3758907034391523e+00 1.2675226195611703e+01 1 2 1
5265 1 5.0600303748445956e+00 2.3960440120636800e+01 2.3567714501055978e+01 1 0 1
4485 1 3.5857211201455081e+00 2.3245750693722091e+01 1.5166171627599882e+01 1 0 1
1875 1 1.1582896992069070e+01 1.6856014885930254e+01 1.7852847889185949e+01 -1 1 0
1149 1 3.5593986437513032e+00 8.9200308766280312e+00 1.4505115025226788e+01 0 2 1
5327 1 1.0355496283437251e+00 2.3017768972626644e+01 1.3866733185081811e+01 1 0 0
3462 1 9.8468345366944146e+00 1.0635545127327527e+01 1.5677737184081838e+01 0 0 0
5437 1 1.1976375747790039e+01 4.6737274783313394e+00 2.0843517157579626e+01 0 1 0
2725 1 8.7489185493431627e+00 1.1606039185740812e+01 1.3210518738195852e+01 2 1 1
2856 1 6.3214149882042872e+00 2.3809093199967450e+01 1.7466741078957220e+01 0 1 1
3534 1 3.5043517938263311e+00 1.4986768515204272e+01 1.4425695401104123e+01 0 0 1
462 1 1.1843894065994043e+00 2.0285146633298407e+01 2.0201119104517186e+01 -1 -1 0
289 1 8.9277140966059214e+00 1.4905596363535471e+01 1.4570963576953083e+01 0 -2 0
3516 1 1.1633847096181805e+01 6.7066404061415801e+00 1.7262343438190005e+01 2 0 0
3619 1 6.1819910714243083e+00 9.9209565863485487e+00 1.4960378647972840e+01 0 -1 0
3826 1 4.6994526614976948e+00 2.4143461721195461e+01 2.0961978045836990e+01 1 0 0
1155 1 1.0062299659712821e+01 2.0498551635860895e+01 1.5041160795476969e+01 0 1 1
2855 1 4.3763700661463050e+00 2.0400939440272115e+01 1.4354149884668914e+01 0 0 1
2459 1 2.7671567219805113e+00 1.9100386830763181e+01 1.6069883479311748e+01 1 0 0
2050 1 5.7884694822277121e+00 2.0625867161319743e+01 2.3067784228900759e+01 1 -1 0
2727 1 6.7649586064009588e+00 2.2724787098093582e+01 1.3724178330711922e+01 1 0 1
4441 1 1.0188186095320146e+01 1.7223389867840432e+01 1.3886554832790548e+01 0 0 1
3602 1 1.1628895668197899e+01 1.0356046629966730e+01 2.3595409979780563e+01 1 1 0
5847 1 8.1479790032944468e+00 2.2586815175287164e+01 1.5936892912628505e+01 1 0 1
5205 1 2.0964353257086370e+00 1.4417439273145421e+01 1.6517962896374073e+01 1 0 0
2734 1 1.1582210295540703e+01 2.0984294073092457e+01 1.7278850090710137e+01 0 0 1
1945 1 7.7937772905972214e-01 2.2499727689318330e+01 1.9130375983324274e+01 1 1 1
2056 1 2.2109688800469827e+00 2.7009408259510748e+00 1.9167608193049439e+01 -1 0 1
476 1 4.4800505694463606e+00 4.4741672970546109e-01 1.9573345186647625e+01 1 -1 0
4329 1 1.3394580586353533e+00 3.0529308651027685e+00 1.6755184209935493e+01 0 0 1
4242 1 6.2926738483904128e+00 3.0664930216350101e+00 1.9350431813267253e+01 0 -1 1
6069 1 8.2367470818417488e+00 1.6812054270294534e+00 1.6291843709359714e+01 0 1 1
2820 1 9.1370242850782653e+00 3.4464151191891603e+00 1.8621199841276820e+01 0 1 1
3511 1 8.7185761583663766e+00 1.9263214759197318e+01 1.2814991332427009e+01 1 0 0
4577 1 5.9869017030932681e-01 7.7231587193804261e+00 1.8189560428603730e+01 1 1 0
5954 1 1.2624831696574401e+00 5.7472810099058034e+00 1.6520555490042621e+01 0 0 1
1835 1 5.6737156996523348e+00 5.9016278808878706e+00 1.7603808715613425e+01 0 -1 0
4414 1 3.6143394791850620e+00 6.6618635832075803e+00 1.6101462167508323e+01 0 1 1
6091 1 7.9828791906397480e+00 6.3621556428938808e+00 1.6955632587508202e+01 -1 1 1
1187 1 1.0676166007616581e+01 6.8075969704617512e+00 1.9777649457248014e+01 1 0 1
2527 1 2.1427408741728815e+00 9.9144821346486154e+00 1.6806934938053992e+01 -1 1 1
169 1 5.1555331317323159e+00 1.0395108040086850e+01 1.7992965009015997e+01 0 1 1
1856 1 8.0517832516487644e+00 9.3335212021271659e+00 1.7714714293510571e+01 0 1 1
5459 1 2.2534359764265801e+00 1.1818798885050814e+01 1.2745194962447746e+01 0 1 0
4327 1 1.6959690369111293e+00 1.0105202454725617e+00 2.1491582080656617e+01 0 -1 1
433 1 1.3910968888383946e+00 1.0954783934151223e+01 1.9578918759704191e+01 1 1 1
203 1 2.4910037156993496e+00 1.3170143581311267e+01 2.0675304994796740e+01 -1 1 0
4582 1 6.0081211246829609e+00 1.2842092022384563e+01 1.7945168835726047e+01 1 1 1
1925 1 1.0949991977185663e+01 1.3379096785617122e+01 1.4897424215028458e+01 0 2 0
5193 1 1.1945001281259524e+01 1.4038261694295606e+01 1.7569555093436168e+01 0 1 0
5146 1 1.2355081407072001e+01 1.7673139401167290e+01 2.0080127353939151e+01 1 0 0
4412 1 9.5327163411742895e+00 1.3693027567625888e+01 1.8998666895752603e+01 1 0 1
56 1 5.7323646408507773e+00 1.6476716761850327e+01 1.4993882998796529e+01 -1 0 0
5891 1 1.3381578668702472e+00 1.8198862057292367e+01 1.8701098306060835e+01 0 0 0
5939 1 7.0846928636897006e+00 1.6537362767099612e+01 1.9180000894437676e+01 1 1 1
1037 1 9.1938625542317620e+00 1.8148559231925869e+01 1.6649608216611909e+01 1 0 1
5231 1 1.1694534829343443e+01 1.1127209350929899e+01 1.8169328846087211e+01 0 1 0
3716 1 9.5104824113149657e+00 1.9945400166705600e+01 1.9143564343855395e+01 -1 0 0
2006 1 4.4625809330322967e+00 1.7030636760873126e+01 2.2914401454066191e+01 0 0 0
2738 1 9.5395170956167163e+00 5.4946929120097616e+00 2.3103552777725042e+01 1 0 0
5209 1 2.5986329106327890e+00 2.1620850197023692e+01 1.7161760584418648e+01 1 0 1
5990 1 6.9604363465998063e+00 2.0353677445791725e+01 1.7447808899029511e+01 1 0 0
3677 1 4.6655391098531673e+00 1.7760684795927162e+01 1.7496320027789775e+01 1 1 0
4607 1 8.9695581629094718e+00 1.8687054077018171e+01 2.4066968833948827e+01 0 0 1
2478 1 9.4344592347306548e+00 2.2383161475253733e+01 2.1003669354209979e+01 0 0 1
2063 1 9.8504209158187326e+00 2.4267191147686294e+01 1.6451490952423697e+01 -1 -1 0
200 1 1.2169664561954896e+00 6.6036410495751010e+00 2.3906849675487091e+01 0 0 0
5399 1 1.2024815894393521e+00 1.2116872346516173e+01 1.5249017392855730e+01 0 -1 0
5359 1 5.3078930163241376e+00 8.0813672214812424e+00 2.3612669846966938e+01 1 1 0
147 1 6.8030057771267147e+00 1.4179934628035413e+00 2.2064772878214441e+01 0 1 1
6173 1 1.0969805862981648e+01 3.2985013052517345e+00 1.3394610149998968e+01 0 0 1
5435 1 1.2191298562184654e+01 4.6030953716465541e+00 2.3238969151651755e+01 0 0 0
2913 1 5.8943577880977216e-01 6.7163525716627275e+00 1.4160211860108644e+01 0 0 1
3433 1 3.7984054191462508e+00 1.8082592630215640e+01 2.0378016065236359e+01 -2 1 0
2022 1 3.4630942483776308e+00 4.6131715048714508e+00 2.3283667729972358e+01 1 -1 0
2027 1 3.4609061753466306e+00 5.1185866288527695e+00 2.0685843983234800e+01 1 1 0
6104 1 1.2511247622890522e+00 6.5337211602285556e+00 2.0500880459127099e+01 1 0 1
5389 1 8.0738329108782878e+00 5.0586126460516283e+00 2.0923671634156655e+01 1 1 0
4102 1 5.5442679832276021e+00 6.4222594180598103e+00 2.0148536218190600e+01 0 0 0
803 1 1.2111684203521206e+01 2.3057881232884892e+01 2.0684270226054011e+01 1 -1 1
206 1 2.9638140574535954e+00 2.0638120113443286e+01 2.2643606373928936e+01 1 0 0
21 1 9.1587292146342012e+00 8.5801755657834473e+00 2.1062532250866397e+01 1 -1 0
2781 1 7.3777439215328267e-01 1.5850412045318853e+01 1.9870509920995016e+01 0 -1 1
3702 1 2.7301520308650313e+00 8.9710705996480620e+00 2.0952600587790204e+01 0 1 0
2025 1 1.1137967079576889e+01 1.7832960223733709e+00 1.9933058434883254e+01 0 2 0
2808 1 8.8000630397301904e+00 1.1426983791084190e+01 2.2956845971124586e+01 0 3 0
4369 1 5.9385531357724197e+00 9.0857736549929839e+00 2.0931068271956562e+01 0 3 1
135 1 7.4047861771690637e-01 1.6864141505698914e+01 2.2870826637292595e+01 -1 0 1
932 1 2.0314155522521595e+00 2.4462779227089765e+01 2.0757619454048960e+01 0 0 1
3842 1 8.1846318071773787e+00 1.1438149809125834e+01 1.9933249778308031e+01 1 0 0
6264 1 4.8416822258191541e+00 9.1468333030607318e-01 2.3841774812721290e+01 0 2 1
5875 1 5.3570189571569724e+00 1.2098682896257294e+01 2.1165715145791122e+01 1 2 1
5321 1 6.2613800970706599e+00 5.3561069236450143e+00 2.3572102145762276e+01 0 -1 1
5158 1 2.1713172597366102e+00 1.3272273144796822e+01 2.3356739296695789e+01 0 0 1
5576 1 6.1015078499199937e+00 1.2245317513178914e+01 2.3975646223121579e+01 0 -1 0
3389 1 1.0063067105544928e+01 1.6083542734636325e+01 2.3607102216062692e+01 3 0 0
5810 1 1.0025746664317792e+01 1.6053521879453516e+01 2.0798311384007434e+01 1 0 1
5264 1 5.9449625508911588e+00 1.9787529523616413e+01 2.0442568229232528e+01 0 0 0
5390 1 8.1126270430497023e+00 2.2037092310529303e+01 2.3349071599504459e+01 0 0 0
5255 1 4.7412545924902929e+00 2.1950233734211160e+01 1.8802099260462963e+01 1 2 0
5887 1 3.8824574660561626e+00 1.4923900523609561e+01 1.8408658883783279e+01 0 -1 1
943 1 2.7822900588027073e+00 8.8497283683377805e+00 2.3565898861154963e+01 1 0 0
5373 1 6.2159145146618204e+00 1.4769874571019802e+01 2.1092033668692878e+01 0 -1 0
3710 1 7.3713081659516684e+00 1.5069388560544775e+01 1.6693394890106976e+01 0 2 0
5504 1 8.2862798504362214e+00 1.8529210987339592e+01 2.0980697115849676e+01 0 -1 0
5385 1 6.7408274777118207e+00 1.9247727305460721e+01 1.4850978931957529e+01 1 0 0
6051 1 8.1493473991177972e+00 2.9598799322774272e+00 2.3741120123114545e+01 0 0 1
405 1 2.5813636847252170e+00 2.2517471681916650e+00 2.3533540120744139e+01 1 1 0
4126 1 1.2414374077167693e+01 1.3164425476404027e+01 2.3675918573249533e+01 -1 -1 1
5374 1 1.2043865239029538e+01 2.1020557935097195e+01 1.2741803621528385e+01 0 0 0
3499 1 9.0325485867601674e-01 1.9459104283536586e+01 2.3858600566443748e+01 1 -1 0
3806 1 5.9459340572400858e+00 7.3153313321157993e+00 1.2288488253496061e+01 0 0 0
800 1 1.2302773469781988e+01 1.0341960444875870e+01 2.1001186451663646e+01 0 0 1
5992 1 1.0805016673793128e+01 2.0966212821661163e+01 2.4066535409524736e+01 1 -1 1
3382 1 2.3711159337634360e+00 6.3036813888135415e+00 1.2277112949121413e+01 2 0 0
511 2 3.0679712002624981e-01 3.1118403596974766e+00 2.6757835963499652e+01 0 0 0
512 2 3.0679712002624981e-01 3.0554821471280036e-01 2.6757835963499652e+01 0 0 0
513 2 1.5219572640249690e+00 1.0071212509589893e+00 2.6757835963499652e+01 0 0 0
517 2 1.5219572640249690e+00 2.4102673234512704e+00 2.6757835963499652e+01 0 0 0
518 2 2.7371174080236882e+00 3.1118403596974766e+00 2.6757835963499652e+01 0 0 0
519 2 2.7371174080236882e+00 3.0554821471280036e-01 2.6757835963499652e+01 0 0 0
520 2 3.9522775520224021e+00 1.0071212509589893e+00 2.6757835963499652e+01 0 0 0
528 2 3.9522775520224021e+00 2.4102673234512704e+00 2.6757835963499652e+01 0 0 0
1566 2 1.2458398560013507e+01 2.1352739302097817e+01 3.3304164036502307e+01 0 0 0
529 2 5.1674376960211266e+00 3.1118403596974766e+00 2.6757835963499652e+01 0 0 0
530 2 5.1674376960211266e+00 3.0554821471280036e-01 2.6757835963499652e+01 0 0 0
531 2 6.3825978400198782e+00 1.0071212509589893e+00 2.6757835963499652e+01 0 0 0
543 2 6.3825978400198782e+00 2.4102673234512704e+00 2.6757835963499652e+01 0 0 0
544 2 7.5977579840185543e+00 3.1118403596974766e+00 2.6757835963499652e+01 0 0 0
545 2 7.5977579840185543e+00 3.0554821471280036e-01 2.6757835963499652e+01 0 0 0
546 2 8.8129181280177704e+00 1.0071212509589893e+00 2.6757835963499652e+01 0 0 0
562 2 8.8129181280177704e+00 2.4102673234512704e+00 2.6757835963499652e+01 0 0 0
563 2 1.0028078272016003e+01 3.1118403596974766e+00 2.6757835963499652e+01 0 0 0
564 2 1.0028078272016003e+01 3.0554821471280036e-01 2.6757835963499652e+01 0 0 0
565 2 1.1243238416014959e+01 1.0071212509589893e+00 2.6757835963499652e+01 0 0 0
585 2 1.1243238416014959e+01 2.4102673234512704e+00 2.6757835963499652e+01 0 0 0
586 2 1.2458398560013507e+01 3.1118403596974766e+00 2.6757835963499652e+01 0 0 0
587 2 1.2458398560013507e+01 3.0554821471280036e-01 2.6757835963499652e+01 0 0 0
514 2 3.0679712002624981e-01 7.3212785771742759e+00 2.6757835963499652e+01 0 0 0
515 2 3.0679712002624981e-01 4.5149864321897404e+00 2.6757835963499652e+01 0 0 0
516 2 1.5219572640249690e+00 5.2165594684357091e+00 2.6757835963499652e+01 0 0 0
524 2 1.5219572640249690e+00 6.6197055409283720e+00 2.6757835963499652e+01 0 0 0
525 2 2.7371174080236882e+00 7.3212785771742759e+00 2.6757835963499652e+01 0 0 0
526 2 2.7371174080236882e+00 4.5149864321897404e+00 2.6757835963499652e+01 0 0 0
527 2 3.9522775520224021e+00 5.2165594684357091e+00 2.6757835963499652e+01 0 0 0
539 2 3.9522775520224021e+00 6.6197055409283720e+00 2.6757835963499652e+01 0 0 0
2692 1 3.6507483766339672e+00 1.1163196314731923e+01 2.4519963705751344e+01 1 1 1
540 2 5.1674376960211266e+00 7.3212785771742759e+00 2.6757835963499652e+01 0 0 0
541 2 5.1674376960211266e+00 4.5149864321897404e+00 2.6757835963499652e+01 0 0 0
542 2 6.3825978400198782e+00 5.2165594684357091e+00 2.6757835963499652e+01 0 0 0
558 2 6.3825978400198782e+00 6.6197055409283720e+00 2.6757835963499652e+01 0 0 0
559 2 7.5977579840185543e+00 7.3212785771742759e+00 2.6757835963499652e+01 0 0 0
560 2 7.5977579840185543e+00 4.5149864321897404e+00 2.6757835963499652e+01 0 0 0
561 2 8.8129181280177704e+00 5.2165594684357091e+00 2.6757835963499652e+01 0 0 0
581 2 8.8129181280177704e+00 6.6197055409283720e+00 2.6757835963499652e+01 0 0 0
582 2 1.0028078272016003e+01 7.3212785771742759e+00 2.6757835963499652e+01 0 0 0
583 2 1.0028078272016003e+01 4.5149864321897404e+00 2.6757835963499652e+01 0 0 0
584 2 1.1243238416014959e+01 5.2165594684357091e+00 2.6757835963499652e+01 0 0 0
605 2 1.1243238416014959e+01 6.6197055409283720e+00 2.6757835963499652e+01 0 0 0
606 2 1.2458398560013507e+01 7.3212785771742759e+00 2.6757835963499652e+01 0 0 0
607 2 1.2458398560013507e+01 4.5149864321897404e+00 2.6757835963499652e+01 0 0 0
521 2 3.0679712002624981e-01 1.1530716794651505e+01 2.6757835963499652e+01 0 0 0
522 2 3.0679712002624981e-01 8.7244246496666804e+00 2.6757835963499652e+01 0 0 0
523 2 1.5219572640249690e+00 9.4259976859129857e+00 2.6757835963499652e+01 0 0 0
535 2 1.5219572640249690e+00 1.0829143758405309e+01 2.6757835963499652e+01 0 0 0
536 2 2.7371174080236882e+00 1.1530716794651505e+01 2.6757835963499652e+01 0 0 0
537 2 2.7371174080236882e+00 8.7244246496666804e+00 2.6757835963499652e+01 0 0 0
538 2 3.9522775520224021e+00 9.4259976859129857e+00 2.6757835963499652e+01 0 0 0
554 2 3.9522775520224021e+00 1.0829143758405309e+01 2.6757835963499652e+01 0 0 0
555 2 5.1674376960211266e+00 1.1530716794651505e+01 2.6757835963499652e+01 0 0 0
556 2 5.1674376960211266e+00 8.7244246496666804e+00 2.6757835963499652e+01 0 0 0
557 2 6.3825978400198782e+00 9.4259976859129857e+00 2.6757835963499652e+01 0 0 0
577 2 6.3825978400198782e+00 1.0829143758405309e+01 2.6757835963499652e+01 0 0 0
578 2 7.5977579840185543e+00 1.1530716794651505e+01 2.6757835963499652e+01 0 0 0
579 2 7.5977579840185543e+00 8.7244246496666804e+00 2.6757835963499652e+01 0 0 0
580 2 8.8129181280177704e+00 9.4259976859129857e+00 2.6757835963499652e+01 0 0 0
601 2 8.8129181280177704e+00 1.0829143758405309e+01 2.6757835963499652e+01 0 0 0
602 2 1.0028078272016003e+01 1.1530716794651505e+01 2.6757835963499652e+01 0 0 0
603 2 1.0028078272016003e+01 8.7244246496666804e+00 2.6757835963499652e+01 0 0 0
604 2 1.1243238416014959e+01 9.4259976859129857e+00 2.6757835963499652e+01 0 0 0
625 2 1.1243238416014959e+01 1.0829143758405309e+01 2.6757835963499652e+01 0 0 0
626 2 1.2458398560013507e+01 1.1530716794651505e+01 2.6757835963499652e+01 0 0 0
627 2 1.2458398560013507e+01 8.7244246496666804e+00 2.6757835963499652e+01 0 0 0
805 1 3.6130554596119788e+00 8.6601369831210668e+00 3.5863850600012071e+01 -1 1 0
532 2 3.0679712002624981e-01 1.5740155012128051e+01 2.6757835963499652e+01 0 0 0
533 2 3.0679712002624981e-01 1.2933862867143944e+01 2.6757835963499652e+01 0 0 0
534 2 1.5219572640249690e+00 1.3635435903389725e+01 2.6757835963499652e+01 0 0 0
550 2 1.5219572640249690e+00 1.5038581975881868e+01 2.6757835963499652e+01 0 0 0
551 2 2.7371174080236882e+00 1.5740155012128051e+01 2.6757835963499652e+01 0 0 0
552 2 2.7371174080236882e+00 1.2933862867143944e+01 2.6757835963499652e+01 0 0 0
553 2 3.9522775520224021e+00 1.3635435903389725e+01 2.6757835963499652e+01 0 0 0
573 2 3.9522775520224021e+00 1.5038581975881868e+01 2.6757835963499652e+01 0 0 0
574 2 5.1674376960211266e+00 1.5740155012128051e+01 2.6757835963499652e+01 0 0 0
575 2 5.1674376960211266e+00 1.2933862867143944e+01 2.6757835963499652e+01 0 0 0
576 2 6.3825978400198782e+00 1.3635435903389725e+01 2.6757835963499652e+01 0 0 0
597 2 6.3825978400198782e+00 1.5038581975881868e+01 2.6757835963499652e+01 0 0 0
598 2 7.5977579840185543e+00 1.5740155012128051e+01 2.6757835963499652e+01 0 0 0
599 2 7.5977579840185543e+00 1.2933862867143944e+01 2.6757835963499652e+01 0 0 0
600 2 8.8129181280177704e+00 1.3635435903389725e+01 2.6757835963499652e+01 0 0 0
621 2 8.8129181280177704e+00 1.5038581975881868e+01 2.6757835963499652e+01 0 0 0
622 2 1.0028078272016003e+01 1.5740155012128051e+01 2.6757835963499652e+01 0 0 0
623 2 1.0028078272016003e+01 1.2933862867143944e+01 2.6757835963499652e+01 0 0 0
624 2 1.1243238416014959e+01 1.3635435903389725e+01 2.6757835963499652e+01 0 0 0
642 2 1.1243238416014959e+01 1.5038581975881868e+01 2.6757835963499652e+01 0 0 0
643 2 1.2458398560013507e+01 1.5740155012128051e+01 2.6757835963499652e+01 0 0 0
644 2 1.2458398560013507e+01 1.2933862867143944e+01 2.6757835963499652e+01 0 0 0
547 2 3.0679712002624981e-01 1.9949593229604435e+01 2.6757835963499652e+01 0 0 0
548 2 3.0679712002624981e-01 1.7143301084620560e+01 2.6757835963499652e+01 0 0 0
549 2 1.5219572640249690e+00 1.7844874120866685e+01 2.6757835963499652e+01 0 0 0
569 2 1.5219572640249690e+00 1.9248020193359054e+01 2.6757835963499652e+01 0 0 0
570 2 2.7371174080236882e+00 1.9949593229604435e+01 2.6757835963499652e+01 0 0 0
571 2 2.7371174080236882e+00 1.7143301084620560e+01 2.6757835963499652e+01 0 0 0
572 2 3.9522775520224021e+00 1.7844874120866685e+01 2.6757835963499652e+01 0 0 0
593 2 3.9522775520224021e+00 1.9248020193359054e+01 2.6757835963499652e+01 0 0 0
594 2 5.1674376960211266e+00 1.9949593229604435e+01 2.6757835963499652e+01 0 0 0
595 2 5.1674376960211266e+00 1.7143301084620560e+01 2.6757835963499652e+01 0 0 0
596 2 6.3825978400198782e+00 1.7844874120866685e+01 2.6757835963499652e+01 0 0 0
617 2 6.3825978400198782e+00 1.9248020193359054e+01 2.6757835963499652e+01 0 0 0
618 2 7.5977579840185543e+00 1.9949593229604435e+01 2.6757835963499652e+01 0 0 0
619 2 7.5977579840185543e+00 1.7143301084620560e+01 2.6757835963499652e+01 0 0 0
1791 1 2.7825600076002552e+00 1.5712791146850977e+01 2.4347909897784199e+01 -1 0 0
620 2 8.8129181280177704e+00 1.7844874120866685e+01 2.6757835963499652e+01 0 0 0
638 2 8.8129181280177704e+00 1.9248020193359054e+01 2.6757835963499652e+01 0 0 0
639 2 1.0028078272016003e+01 1.9949593229604435e+01 2.6757835963499652e+01 0 0 0
640 2 1.0028078272016003e+01 1.7143301084620560e+01 2.6757835963499652e+01 0 0 0
641 2 1.1243238416014959e+01 1.7844874120866685e+01 2.6757835963499652e+01 0 0 0
655 2 1.1243238416014959e+01 1.9248020193359054e+01 2.6757835963499652e+01 0 0 0
657 2 1.2458398560013507e+01 1.7143301084620560e+01 2.6757835963499652e+01 0 0 0
1552 2 1.0028078272016003e+01 2.4159031447082192e+01 3.3304164036502307e+01 0 0 0