LAMMPS data file via write_data, version 16 Mar 2018, timestep = 100000

6736 atoms
2 atom types

0.0000000000000000e+00 4.9219999999999999e+01 xlo xhi
0.0000000000000000e+00 4.9019635930410494e+01 ylo yhi
8.4691817334422836e-01 5.9215081826655833e+01 zlo zhi

Masses

1 18.015
2 12.01

Atoms # atomic

1818 1 3.6002204784896126e+00 4.5030442400046597e+00 1.7358933866177524e+00 1 0 0
198 1 5.9480008934341466e+00 1.3327829117848490e+01 1.2123121705813919e+01 0 -1 1
52 1 7.0301965881655653e+00 3.7373865432454969e+00 2.1686887826912207e+00 -2 0 1
158 1 2.2349462234590551e+00 1.4344003996427483e+01 9.8647733362712309e+00 0 0 0
3433 1 1.1891662269830437e+01 1.1810594183268233e+01 6.2474656640046273e+00 -2 1 0
5266 1 2.6916070320217478e+00 6.9438221896409633e+00 2.7400801524373932e+00 -1 -1 0
3547 1 1.1777886908957164e+01 7.6761853901472437e+00 8.0586593649548739e+00 -1 -1 1
4192 1 6.2476559786665531e+00 7.6245637839023885e+00 2.0844638098231938e+00 2 1 1
1720 1 7.9383299665271130e+00 6.0444683000231754e+00 3.3795451012493190e+00 1 1 0
5135 1 1.0780890611868790e+01 5.1130723196046768e+00 1.3316535748276335e+00 1 0 0
1232 1 7.1089621216788119e+00 9.7845612249651737e+00 3.2874634980338771e+00 -1 2 1
2542 1 4.2283469517261887e+00 2.3952350199565430e+01 6.8956683479393233e+00 1 1 1
6247 1 9.7630617196916099e+00 9.5026902826559834e+00 3.9712619947186036e+00 -1 1 1
4174 1 1.1722525076416035e+01 1.2736505379790550e+01 8.7598870474326276e+00 1 1 1
5943 1 3.5713245773699445e+00 1.3982626154043780e+01 3.3851989514687806e+00 0 0 1
2437 1 1.2100491896161729e+00 1.4631008293583875e+01 7.0866472012095310e+00 1 1 1
2477 1 1.2090415316543845e+01 3.3763887303105458e+00 2.8611221974621470e+00 1 0 1
2712 1 6.5545829365969999e+00 1.2753930066859391e+01 2.9366715965601280e+00 1 0 1
119 1 1.1568970223820015e+01 2.0845386112807738e+01 1.0127038756589258e+01 0 -1 1
2565 1 1.1212467880590754e+01 1.5131644836365417e+01 5.8608553983640572e+00 1 -1 1
4366 1 7.5427781374441538e-01 5.9527310498972676e+00 4.2939670230489586e+00 0 0 1
1917 1 1.2012148913714102e+01 1.8462953931035923e+01 7.0318978060292059e+00 0 1 1
1063 1 2.2064253773988085e+00 1.8038133844411256e+01 2.5384832721893598e+00 -1 0 0
5875 1 1.2167162138152642e+01 1.9658959520113523e+01 2.3091746954071040e+00 1 2 1
2792 1 5.3985306069156813e+00 1.8920412502926002e+01 1.4930625712232986e+00 -1 0 1
2731 1 8.3930440116678486e+00 1.8223023006544015e+01 4.4316706091761109e+00 1 2 0
6299 1 1.4049707027435525e+00 2.2376580890493944e+01 3.3370484119386448e+00 -1 0 0
3409 1 1.1004691220788859e+01 8.7734598363479255e-01 2.9555229050824892e+00 1 1 0
949 1 1.0882956356643337e+01 1.6877700177064388e+00 9.4314201271429603e+00 0 0 1
2159 1 1.0852526282249766e+01 2.4063553139108304e+01 1.0552759847346783e+01 0 0 0
2051 1 6.9281345124270217e+00 2.2958668267676103e+01 3.9640889493239180e+00 2 1 0
3852 1 7.6266179121444164e+00 2.0376520963461022e+01 2.7475760495529085e+00 0 0 1
4439 1 3.6494496038264943e+00 2.2635745901476053e+01 4.6552759751731090e+00 0 0 0
5143 1 8.9957757236183493e+00 1.2862154713731474e+01 1.0747001327829473e+00 1 1 0
1122 1 1.0190372749466757e+01 2.1112927338361509e+01 3.7806564412402253e+00 0 0 1
5383 1 1.0874476512478660e+01 2.3240460163709596e+01 2.8341429243563350e+00 1 0 1
2503 1 1.8011993237050015e+00 1.4043401488914837e+00 5.3149400982105917e+00 0 0 1
376 1 8.1691996875424895e+00 1.2928865967565977e+00 2.1572271736429345e+00 1 -1 0
2922 1 5.2198332657980124e+00 1.9583848319273693e+00 6.5969455350770918e+00 1 0 1
5294 1 4.6931858141573652e+00 3.8088657448882661e+00 4.5883017871407485e+00 -2 1 0
2172 1 7.7017745912046101e+00 1.7902943765719357e+00 8.0307568893160202e+00 1 1 0
36 1 1.0454440636721236e+01 1.7900251830093656e+00 6.7674778762215526e+00 1 1 0
2184 1 5.2685884106030816e+00 1.7112122340391249e+01 1.0430124545811292e+01 -1 0 0
976 1 7.5127938587489740e-01 4.6471207252582536e+00 8.1752250764093475e+00 1 1 1
166 1 2.9970716522938239e+00 5.2032984266533253e+00 6.2770628118702474e+00 -1 0 0
3592 1 3.7970338108555595e+00 8.1448451518253293e+00 6.4249974645466930e+00 2 0 0
1999 1 6.4508919467714323e+00 7.9057753128133781e+00 6.8832949085124513e+00 1 0 0
455 1 7.0228780983466752e+00 5.2014604697016340e+00 5.8636556082192364e+00 1 1 0
4242 1 1.1168730901999792e+01 5.8814266575292713e+00 6.2270138459991973e+00 0 -1 1
1117 1 8.9278906735319996e+00 4.7911199971267235e+00 7.7307065188194830e+00 -1 0 1
6298 1 1.9375721830988342e+00 1.2188117847212951e+01 6.6569605656150603e+00 -1 1 0
6032 1 2.7940430105031426e+00 1.1515695821016996e+01 4.0792533114732823e+00 1 1 1
3470 1 2.3813656622668491e+00 9.6467390463868821e+00 8.1551768951039492e+00 2 0 1
4382 1 4.0879095506651932e+00 9.0082715133425886e+00 3.9981362117833079e+00 0 2 1
4289 1 6.7703149115982617e+00 1.2334752518915675e+01 5.8542403736103221e+00 1 -1 1
4574 1 1.0636102592827012e+01 6.9264899832611340e+00 3.5536803795915350e+00 0 0 0
4245 1 1.0331262350636147e+01 9.7317891871310440e+00 6.4026753201586279e+00 0 0 1
298 1 1.8180873848486214e+00 1.6909883904864419e+01 5.9311246184639099e+00 1 0 0
108 1 5.0586430940858014e+00 1.5910098485674727e+01 4.3241039317860341e+00 0 1 0
5838 1 4.7139081409725527e+00 1.2936592783804279e+01 7.0944699589081450e+00 1 0 1
5339 1 7.7037771567761508e+00 1.5680722813051469e+01 4.3394810016170826e+00 1 0 0
3440 1 8.8418155836019903e+00 1.3124228434546273e+01 9.3098259392520202e+00 -1 -1 0
3411 1 9.2983158574859981e-01 1.8225428006930379e+01 8.5335763086102645e+00 1 0 0
1718 1 3.9889770406551261e+00 2.0163174005007026e+01 5.8617748971804504e+00 0 0 0
3505 1 4.4167105328295388e+00 1.8103558117815638e+01 3.9456031092669419e+00 1 0 0
4337 1 8.6125805051672462e+00 1.4292392519025347e+01 6.6487671592987754e+00 1 0 0
3581 1 8.5903462722044033e+00 1.5358734444683254e+01 1.5494481122116255e+00 0 0 0
2925 1 8.1007095151718094e+00 1.8477142240378321e+01 7.0067706852554599e+00 0 -1 1
4370 1 1.1054782722396267e+01 1.7734500634604881e+01 4.4743506641600481e+00 0 1 1
843 1 1.5749307218167043e+00 2.0469987286296497e+01 1.4749754514123623e+00 1 0 0
2861 1 5.0056676654945320e-01 8.2658204081297555e+00 1.4006809771691737e+00 -1 2 1
937 1 8.1667199119791789e+00 2.2606101011407500e+01 7.7019474228819886e+00 1 0 1
4582 1 5.9237559014385930e+00 2.0634075518914489e+01 7.7116957052086006e+00 1 1 1
125 1 1.0254475745071344e+01 2.2097924568362856e+01 6.1485132718449833e+00 0 0 1
766 1 1.0246783030246146e+01 1.9803913631670010e+01 8.0941405186559265e+00 0 0 0
463 1 1.3714445045061798e+00 2.2565931913865139e+01 8.8691449025269158e+00 0 0 0
338 1 3.1197252676115492e+00 4.8275056423482354e+00 1.0843788337280268e+01 1 0 0
3766 1 9.9082592872760900e-01 3.0860688824065199e+00 1.0325889180217116e+01 -1 0 0
5251 1 4.6771337460431273e+00 2.2841679589383221e+00 1.1175931179963397e+01 0 1 0
6235 1 6.7439641254116847e+00 3.7991438510463564e+00 9.9231994635483556e+00 0 0 0
917 1 2.9495487221468858e-01 1.0677730035663675e+01 2.7618469356932143e+00 -1 1 1
5321 1 1.0973475378948075e+01 3.5035989465711359e+00 1.1505116120380096e+01 0 -1 1
1099 1 9.5371725088033514e+00 1.6439905239434584e+01 9.9772165780967033e+00 1 -1 1
3648 1 3.4018573527847176e+00 1.5824002208022800e+00 8.7315078766420378e+00 1 0 0
5388 1 4.8383298856358152e+00 5.4618577233256662e+00 8.8968867817924089e+00 1 0 0
330 1 5.4327579899179224e+00 8.1904147227700044e+00 9.6729182086865233e+00 -1 0 0
5108 1 1.0219546331150896e+01 1.0061798174631289e+01 1.0181849676531986e+01 0 1 1
4318 1 8.4796728452433161e+00 3.5432910456550082e+00 1.2017950673651487e+01 1 0 1
2707 1 6.3216967883803505e+00 1.9791443154142272e+01 1.0517593774612710e+01 -1 1 1
4362 1 1.8066896137778152e+00 2.0193122308236116e+01 7.2479454594250079e+00 -1 -1 1
5391 1 3.7758629429051651e+00 1.0097290892413207e+01 1.0396062363385777e+01 0 1 0
5882 1 7.7992516626350881e+00 1.0364240157489748e+01 6.9464123454661717e+00 0 -2 1
2905 1 7.5001981707867369e+00 1.0706696058847371e+01 9.6898591569629815e+00 0 1 1
2625 1 1.0510552974502367e+00 1.5193365571106961e+01 2.6844583840861320e+00 1 1 1
5308 1 6.7925920210789581e-01 2.2318118270384284e+00 2.1684677484139092e+00 0 1 0
2202 1 9.2276122656480695e+00 7.3502029636182806e+00 1.1797195554105190e+01 0 0 0
6286 1 9.1238658231530305e+00 1.9721421439453930e+01 1.1412239511573095e+01 0 -2 1
1068 1 8.9603601533797050e+00 1.4279130274663824e+01 1.2041866192727172e+01 0 1 1
236 1 4.4851522668928396e+00 1.2543560667140991e+01 1.0120012448609385e+01 -1 1 1
328 1 1.2015716278714175e+01 1.6361866952057543e+01 8.7250682893574272e+00 1 0 0
4587 1 1.0885178430437868e+01 1.2013041686097537e+01 3.1133692745414017e+00 0 -1 1
4438 1 4.4200561445980187e+00 2.2609099609679312e+01 9.5205575542437355e+00 0 0 0
5910 1 2.4927204889492920e+00 1.6886345342325768e+01 1.0415252193534547e+01 0 0 0
962 1 4.2687095222860956e+00 1.5629256614065886e+01 7.3155448707627571e+00 1 0 0
2598 1 7.2938796519883136e+00 1.6132233550439047e+01 8.2499056967407896e+00 1 0 1
302 1 1.1028708995717910e+01 6.3136725940331084e+00 1.0439946098070946e+01 2 0 1
4487 1 3.5366293637194244e+00 1.4035260007028660e+00 3.1703102658435673e+00 2 0 1
6172 1 5.0500351175904576e+00 2.3525970495323179e+01 1.9371857360955078e+00 0 1 1
1237 1 1.2069913159902576e+01 1.0524346453890196e+01 1.2078636307094690e+00 0 -1 1
5979 1 5.5276104611207204e+00 7.3399210881415478e+00 1.2269639260592669e+01 0 -1 1
874 1 1.2238741647267254e+01 3.5113653531267035e+00 5.5925966522533921e+00 -1 2 1
5434 1 4.5775784021822155e+00 2.1626101490742752e+01 1.2275600982822592e+01 0 -1 0
5491 1 7.1693733521703793e+00 9.9660332589204206e+00 1.2358122764787034e+01 1 0 0
2820 1 9.5780647683419284e-01 1.3724004754471597e+01 1.1902086522658688e+01 0 1 1
3 1 4.7409916378757719e+00 9.6167994024654035e-03 9.5329357640306434e-01 1 1 1
6169 1 2.1265907715212831e+00 2.0545834710087330e+01 1.2481485257388272e+01 0 1 1
5189 1 1.2053497674210298e+00 2.2722880648960340e+00 1.3179833542273544e+01 0 0 0
3830 1 5.0884446447683933e+00 4.3814921327867831e+00 1.5196863069670275e+01 0 2 0
1877 1 2.8344109980114198e+00 8.4358347624724850e+00 2.0184781063946996e+01 1 0 0
2170 1 6.3579091324788006e+00 2.4181640994650838e+01 1.6389073463208220e+01 1 0 0
3599 1 9.4166791686165352e-01 3.7541145118313728e+00 1.5910059517329861e+01 1 0 1
5558 1 8.7760066308416054e+00 2.4467360702859200e+01 1.3517931664274577e+01 0 0 0
397 1 2.8482933722772117e+00 9.5090795743513219e+00 1.2949339028367593e+01 -1 -1 0
6115 1 4.2652391464096908e+00 2.0661829642316194e+00 1.3806068838386718e+01 -1 0 1
1022 1 7.7107787084727972e+00 5.8659383377078340e+00 1.3392073177051902e+01 1 0 1
1014 1 9.1908183154895671e+00 6.9347718672727199e+00 1.5274539863054917e+01 1 0 1
5891 1 4.4800110315458490e-02 7.5590092237580144e+00 1.9338432668090487e+01 0 0 0
2107 1 5.5351791204797673e-01 1.9368815579206121e+01 1.6671556671122257e+01 0 0 0
5992 1 7.0677912115579007e+00 1.9910847905507785e+00 1.5890733886558914e+01 1 0 1
5323 1 8.5003018539469402e+00 1.7180773748906152e+01 1.2831078300835209e+01 1 0 0
6243 1 2.4653884127710630e+00 1.0698869127252939e+01 2.3245361825341220e+01 -1 2 1
3372 1 9.3266704838308847e+00 1.2990568082236917e+01 1.7692197182357141e+01 0 0 1
4109 1 1.1233054585433930e+00 3.7742167708333705e+00 2.3117340684645271e+01 1 0 0
4391 1 8.8188931103849217e+00 9.8064564343720857e+00 1.5643389852881134e+01 0 0 1
5223 1 1.2277593125645051e+01 1.0441935609918195e+01 2.0359910760128116e+01 1 0 1
366 1 1.0859913999900234e+01 2.2688820804890419e+01 1.2997699682225052e+01 -1 0 0
4608 1 2.2071025976053638e+00 2.1326878685311954e+01 1.9123296531203884e+01 1 1 0
770 1 7.7429767196164763e+00 1.6496589640957868e+01 1.6500392041351802e+01 1 0 1
6143 1 3.7672495903293073e+00 1.2747852929403752e+01 1.5862015103552299e+01 -1 1 1
2928 1 1.1378176802715910e+01 1.3802060935110088e+01 1.5883104772757500e+01 -1 2 1
1867 1 1.1135347627033743e+01 1.7716222669122747e+01 1.7376776469127023e+01 -1 0 0
848 1 3.0393682678048757e+00 1.4726294288145143e+01 1.3845710464575207e+01 1 -1 1
3588 1 2.2632144262547902e+00 2.0990507795733553e+01 1.5676189164159942e+01 0 0 0
4385 1 1.0079863874941120e+01 1.6286666140252553e+01 1.5224922594772066e+01 0 -1 1
1018 1 3.1478280845109148e+00 5.4879818078654274e+00 2.3809850821031784e+01 0 1 1
1108 1 3.3868282610413664e-01 1.4281481234932569e+01 2.3952862958640637e+01 2 -1 1
3502 1 8.1749102854279556e+00 7.1804246831968876e-01 1.3394923265096926e+01 2 -1 0
3765 1 1.0480199815944474e+01 6.5933344259297497e+00 2.3269959635836020e+01 -1 0 0
1918 1 4.5489271400695328e+00 2.4446383588645606e+01 2.0664193822598715e+01 0 1 0
5548 1 6.4639959157815605e+00 1.6285471066091617e+00 1.9278484237239685e+01 0 0 0
247 1 8.8606954823409119e+00 2.0620780458933574e+01 1.4241171895259178e+01 2 0 1
3510 1 5.0779788054340091e+00 2.0738937835397550e+01 1.6177284057599564e+01 0 0 0
3414 1 8.2024390669065106e+00 2.7297563689051216e+00 2.3390724290825830e+01 0 0 1
2459 1 2.1939384810449414e+00 1.6038470882711182e+00 2.0207836608992224e+01 1 1 0
4432 1 4.5434501815324388e+00 3.0832469253044303e+00 1.7630263438625359e+01 0 -1 1
3743 1 9.6859335479246056e+00 1.4173497200576874e+00 1.7101135290201597e+01 2 1 0
6297 1 9.7304946157191896e+00 3.8246026301330813e+00 1.8516226457445811e+01 0 1 0
2157 1 4.9604006058243355e+00 1.1318667977753373e+01 1.3760037479103262e+01 0 1 1
3803 1 2.9094575602644883e+00 5.9021178209118785e+00 1.5729487351493315e+01 1 0 0
72 1 6.8117065485857671e+00 2.0640249441637430e+01 1.9834113891932610e+01 -1 1 1
5371 1 1.9687114129768883e+00 1.7819235658166750e+01 1.2866644486294037e+01 2 0 0
1126 1 5.7024811875047297e+00 1.0071806483621893e+01 1.6027679344006813e+01 0 1 0
1875 1 3.7752806782157360e+00 5.1531929525335922e+00 1.9327431553757354e+01 0 1 0
5164 1 7.8639445581999858e+00 5.1524744744755901e+00 1.7017717285008700e+01 1 0 0
5286 1 4.4804343829448108e+00 8.2562935285402990e+00 1.7812336055521055e+01 1 1 0
4360 1 7.1219587210480189e+00 7.1044910667783583e+00 1.8960702110818726e+01 0 0 1
5469 1 6.2812802189105799e-01 1.0772731534324448e+01 1.2539818060742091e+01 0 0 1
6006 1 1.1535041450335209e+01 1.8040676609458075e+01 1.3049341687057922e+01 -1 0 1
1849 1 9.2648406549390128e+00 3.6040413452212150e-01 2.3023304239900341e+01 1 1 0
443 1 5.5097037798723285e+00 7.5584205010132077e+00 2.2459328608212456e+01 1 1 0
20 1 6.9303064541472610e+00 1.1990702150340454e+01 1.8174083358709662e+01 -1 0 0
5217 1 2.3365165168430044e+00 8.7776629404423527e+00 1.6238077118612253e+01 0 1 0
3565 1 6.1709275697163575e+00 1.1585755019966115e+01 2.0960560840128842e+01 -1 1 0
456 1 9.6830642741735797e+00 8.4467777494206331e+00 1.9160446180413803e+01 1 2 0
1221 1 8.0543639148074375e-01 1.2235966507670600e+01 1.6306208277447528e+01 0 0 1
404 1 1.0631813228587144e+00 1.0682581137245256e+01 1.8738849266209485e+01 1 -1 0
2065 1 1.0838675937391736e+01 2.1449888688615509e+01 1.8872664857234508e+01 1 0 0
2456 1 5.5181567124382696e+00 1.4845032507752109e+01 1.7506730763566022e+01 0 -1 0
5487 1 4.5026018390711338e+00 1.5875708829760249e+01 1.9540777157514384e+01 2 0 0
2823 1 9.0592489492682962e+00 1.4011974121054426e+01 2.0262870390934172e+01 0 0 1
6022 1 7.6759365287169832e+00 1.2995572531917995e+01 2.2629369034260524e+01 1 2 1
4393 1 5.2932867174301634e+00 1.5913630558984245e+01 1.2688682507781632e+01 0 -1 1
1799 1 7.4378857646232044e+00 1.8383234387210518e+01 2.1747098575418743e+01 0 0 1
2146 1 1.2158131449358662e+00 1.6357159586644798e+01 1.8822708898797245e+01 0 0 0
4263 1 1.3459177775474547e+00 1.6911477310987593e+01 1.5567757427770472e+01 1 0 1
1879 1 4.1708611300808665e+00 1.7048342157784095e+01 1.5742683651023373e+01 0 0 0
2540 1 3.3923543622197077e+00 1.8232744823286247e+01 1.8219075645463679e+01 1 2 1
3754 1 6.3090474380512358e+00 1.8395406465019434e+01 1.4649194261884615e+01 1 -1 0
882 1 9.4755653417746668e+00 2.0057618364755477e+01 1.7103176275399665e+01 0 1 1
3563 1 1.0862657884220347e+01 1.6497572981192000e+01 1.9637843988259210e+01 0 -1 0
5918 1 9.7602098624145173e-01 2.3341661045016451e+01 1.6798361575541886e+01 1 0 0
991 1 5.2172320305829318e+00 2.2820734314078749e+01 1.8557903621643302e+01 0 0 1
2015 1 6.7775392552828411e+00 2.2288604291156012e+01 1.4260838541182540e+01 0 1 0
180 1 6.6089792786858181e-01 2.4039635751019151e+01 1.4297866293385058e+01 1 0 0
5435 1 1.0881014240466049e+01 1.2988039682520892e+01 1.3253479058706953e+01 0 0 0
2485 1 6.8613014532633763e+00 1.9082644510766240e+01 1.7854009055772373e+01 1 -1 1
3629 1 4.1518412069400288e+00 2.0525951480016204e+01 2.0726085966013439e+01 0 -1 0
5839 1 9.9545150677016050e+00 1.0558712342804599e+01 1.2724248546545143e+01 1 1 0
5221 1 8.6664697465769578e+00 2.2555996113718294e+01 2.3161525701297318e+01 1 1 0
2849 1 4.8683262108330334e+00 9.3046925618469878e-01 2.1240582761603349e+01 0 0 1
1891 1 4.9826427333401044e+00 1.6727200681057013e+01 2.2155624131976950e+01 1 0 1
1930 1 7.9694530257363674e+00 3.1464243098287175e+00 2.0733466623354719e+01 1 -1 0
1086 1 1.0871910813502826e+01 5.1743488300734175e-01 1.4683339907239267e+01 0 0 1
5452 1 1.1544756978064976e+01 2.4069035901209947e+01 1.8263755894121850e+01 0 1 0
6108 1 1.8045692177974586e+00 4.0783038576863797e+00 2.0823769159803849e+01 0 0 1
2593 1 1.2190115229923904e+01 3.8346721487020513e-01 2.0303074510043434e+01 1 1 1
2423 1 1.1366895249589161e+01 6.2342320434243224e+00 1.8910391180195870e+01 0 1 1
297 1 1.0386690556553020e+01 1.0603465829684357e+01 1.7469908859714192e+01 0 1 0
2003 1 6.0846640540257155e+00 5.4948822282215355e+00 2.0555368239734118e+01 1 0 0
5933 1 7.4964916834516266e+00 9.3111031209259494e+00 2.1385233422440596e+01 -1 0 1
4597 1 2.1633182908755346e+00 1.9734239520294485e+00 1.7278933401589764e+01 0 1 1
5859 1 5.1733301246442833e+00 1.4353248870980042e+00 2.3860098887550890e+01 1 2 1
2430 1 1.1184107813083926e+01 2.9933193317959614e+00 2.1184677150467209e+01 0 2 1
3834 1 3.7715144310157882e+00 1.8905000685504685e+01 2.3126745485325188e+01 -1 0 0
6107 1 3.1217801022263743e+00 1.1076141157586235e+01 2.0813291943183177e+01 0 1 0
4240 1 8.6639807652008933e+00 2.2624812623041237e+01 2.0294307916339868e+01 0 0 1
4128 1 5.3888662454537084e-01 7.8994179385230276e-02 2.1729401480602302e+01 2 -1 0
3398 1 9.6523702695726019e+00 1.9897728686719489e+01 2.3162983792923363e+01 0 -1 1
2177 1 5.0601391879453104e+00 1.0994582891468148e+01 2.4073633221463570e+01 0 0 0
1025 1 4.8920667854665834e-01 2.2953627041484577e+01 2.0893471307502981e+01 1 0 1
6306 1 1.0483136030850892e+01 9.3457928321155226e+00 2.2265950919894770e+01 1 -1 1
312 1 1.1825251308360262e+01 4.6712986963327990e-01 2.4182311645631167e+01 -1 0 0
5400 1 2.1434731279016828e+00 7.9969295656829988e+00 2.2701900579406352e+01 1 1 0
5805 1 2.3954186610597934e+00 1.3839944669744408e+01 2.0376571673070170e+01 0 1 0
3499 1 8.0059766848291680e+00 1.6796230144272464e+01 1.9612903451723131e+01 1 -1 0
6 1 1.1009949386226662e+01 1.6158154234317252e+01 2.3868613935271910e+01 -1 2 1
4604 1 6.5779054242500807e+00 1.5302359076045633e+01 2.3590614348242148e+01 1 -1 0
390 1 6.9457885839602218e-01 1.8976024991023269e+01 2.2817623640355023e+01 0 0 0
774 1 8.7483014948904558e-01 1.9034657128084664e+01 2.0268335180233120e+01 -1 1 0
6219 1 1.1315001453497642e+01 3.6291405958428782e+00 2.3886343060542981e+01 1 1 1
1714 1 4.0587879631068198e+00 2.2641494887426692e+01 2.2438598500335473e+01 1 0 1
5324 1 2.8507115320590981e+00 1.4457723000722826e+01 2.3179048537517197e+01 0 1 1
1028 1 1.0916830929681446e+01 1.3789983357402965e+01 2.2346241266596049e+01 -1 0 1
6041 1 1.1622723906268559e+01 1.8351519151443568e+01 2.1597631148591823e+01 1 1 1
5479 1 1.1856684739362938e+01 6.4199694245707990e+00 1.6096012629521091e+01 1 -1 0
5080 1 1.8219271236637660e+00 2.3534591463466828e+01 2.3437287504581114e+01 0 1 0
6171 1 2.4201104970335074e+00 6.5480931202333155e+00 1.2931908164865225e+01 1 -1 1
2870 1 6.0054444447993847e+00 2.1738338314914383e+01 2.4030129066478931e+01 2 1 1
511 2 0.0000000000000000e+00 2.8417180249513345e+00 2.6814259993217249e+01 0 0 0
512 2 0.0000000000000000e+00 0.0000000000000000e+00 2.6814259993217249e+01 0 0 0
513 2 1.2305000000000001e+00 7.1042950623783474e-01 2.6814259993217249e+01 0 0 0
517 2 1.2305000000000001e+00 2.1312885187134998e+00 2.6814259993217249e+01 0 0 0
518 2 2.4610000000000003e+00 2.8417180249513345e+00 2.6814259993217249e+01 0 0 0
519 2 2.4610000000000003e+00 0.0000000000000000e+00 2.6814259993217249e+01 0 0 0
520 2 3.6915000000000004e+00 7.1042950623783474e-01 2.6814259993217249e+01 0 0 0
528 2 3.6914999999999996e+00 2.1312885187134998e+00 2.6814259993217249e+01 0 0 0
529 2 4.9220000000000006e+00 2.8417180249513332e+00 2.6814259993217249e+01 0 0 0
530 2 4.9220000000000006e+00 0.0000000000000000e+00 2.6814259993217249e+01 0 0 0
531 2 6.1524999999999999e+00 7.1042950623783407e-01 2.6814259993217249e+01 0 0 0
543 2 6.1524999999999999e+00 2.1312885187134989e+00 2.6814259993217249e+01 0 0 0
544 2 7.3829999999999991e+00 2.8417180249513345e+00 2.6814259993217249e+01 0 0 0
545 2 7.3829999999999991e+00 0.0000000000000000e+00 2.6814259993217249e+01 0 0 0
546 2 8.6134999999999984e+00 7.1042950623783407e-01 2.6814259993217249e+01 0 0 0
562 2 8.6134999999999984e+00 2.1312885187135002e+00 2.6814259993217249e+01 0 0 0
563 2 9.8440000000000012e+00 2.8417180249513332e+00 2.6814259993217249e+01 0 0 0
564 2 9.8440000000000012e+00 0.0000000000000000e+00 2.6814259993217249e+01 0 0 0
565 2 1.1074500000000002e+01 7.1042950623783330e-01 2.6814259993217249e+01 0 0 0
585 2 1.1074500000000002e+01 2.1312885187135002e+00 2.6814259993217249e+01 0 0 0
514 2 0.0000000000000000e+00 7.1042950623783341e+00 2.6814259993217249e+01 0 0 0
515 2 0.0000000000000000e+00 4.2625770374269996e+00 2.6814259993217249e+01 0 0 0
516 2 1.2305000000000001e+00 4.9730065436648339e+00 2.6814259993217249e+01 0 0 0
524 2 1.2305000000000001e+00 6.3938655561404980e+00 2.6814259993217249e+01 0 0 0
525 2 2.4610000000000003e+00 7.1042950623783341e+00 2.6814259993217249e+01 0 0 0
526 2 2.4610000000000003e+00 4.2625770374269996e+00 2.6814259993217249e+01 0 0 0
527 2 3.6914999999999996e+00 4.9730065436648339e+00 2.6814259993217249e+01 0 0 0
539 2 3.6914999999999996e+00 6.3938655561404980e+00 2.6814259993217249e+01 0 0 0
540 2 4.9220000000000006e+00 7.1042950623783341e+00 2.6814259993217249e+01 0 0 0
541 2 4.9220000000000006e+00 4.2625770374269978e+00 2.6814259993217249e+01 0 0 0
542 2 6.1524999999999999e+00 4.9730065436648339e+00 2.6814259993217249e+01 0 0 0
558 2 6.1524999999999999e+00 6.3938655561404980e+00 2.6814259993217249e+01 0 0 0
559 2 7.3830000000000009e+00 7.1042950623783341e+00 2.6814259993217249e+01 0 0 0
560 2 7.3829999999999991e+00 4.2625770374269996e+00 2.6814259993217249e+01 0 0 0
561 2 8.6135000000000002e+00 4.9730065436648339e+00 2.6814259993217249e+01 0 0 0
581 2 8.6135000000000002e+00 6.3938655561404980e+00 2.6814259993217249e+01 0 0 0
582 2 9.8440000000000012e+00 7.1042950623783341e+00 2.6814259993217249e+01 0 0 0
583 2 9.8440000000000012e+00 4.2625770374270004e+00 2.6814259993217249e+01 0 0 0
584 2 1.1074500000000002e+01 4.9730065436648339e+00 2.6814259993217249e+01 0 0 0
605 2 1.1074500000000002e+01 6.3938655561404980e+00 2.6814259993217249e+01 0 0 0
521 2 0.0000000000000000e+00 1.1366872099805333e+01 2.6814259993217249e+01 0 0 0
522 2 0.0000000000000000e+00 8.5251540748539991e+00 2.6814259993217249e+01 0 0 0
523 2 1.2305000000000001e+00 9.2355835810918343e+00 2.6814259993217249e+01 0 0 0
535 2 1.2305000000000001e+00 1.0656442593567498e+01 2.6814259993217249e+01 0 0 0
536 2 2.4610000000000003e+00 1.1366872099805333e+01 2.6814259993217249e+01 0 0 0
537 2 2.4610000000000003e+00 8.5251540748539991e+00 2.6814259993217249e+01 0 0 0
538 2 3.6915000000000004e+00 9.2355835810918343e+00 2.6814259993217249e+01 0 0 0
554 2 3.6914999999999996e+00 1.0656442593567499e+01 2.6814259993217249e+01 0 0 0
555 2 4.9220000000000006e+00 1.1366872099805333e+01 2.6814259993217249e+01 0 0 0
556 2 4.9220000000000006e+00 8.5251540748539991e+00 2.6814259993217249e+01 0 0 0
557 2 6.1524999999999999e+00 9.2355835810918343e+00 2.6814259993217249e+01 0 0 0
577 2 6.1524999999999999e+00 1.0656442593567499e+01 2.6814259993217249e+01 0 0 0
578 2 7.3829999999999991e+00 1.1366872099805333e+01 2.6814259993217249e+01 0 0 0
579 2 7.3830000000000009e+00 8.5251540748539991e+00 2.6814259993217249e+01 0 0 0
2025 1 8.1232277655489913e+00 6.2821364505400856e+00 2.4711390354650796e+01 0 2 0
580 2 8.6134999999999984e+00 9.2355835810918343e+00 2.6814259993217249e+01 0 0 0
601 2 8.6134999999999984e+00 1.0656442593567498e+01 2.6814259993217249e+01 0 0 0
602 2 9.8440000000000012e+00 1.1366872099805333e+01 2.6814259993217249e+01 0 0 0
603 2 9.8440000000000012e+00 8.5251540748539956e+00 2.6814259993217249e+01 0 0 0
604 2 1.1074500000000002e+01 9.2355835810918343e+00 2.6814259993217249e+01 0 0 0
625 2 1.1074500000000002e+01 1.0656442593567498e+01 2.6814259993217249e+01 0 0 0
626 2 1.2304999999999998e+01 1.1366872099805333e+01 2.6814259993217249e+01 0 0 0
532 2 0.0000000000000000e+00 1.5629449137232333e+01 2.6814259993217249e+01 0 0 0
533 2 0.0000000000000000e+00 1.2787731112280996e+01 2.6814259993217249e+01 0 0 0
534 2 1.2305000000000001e+00 1.3498160618518829e+01 2.6814259993217249e+01 0 0 0
550 2 1.2305000000000001e+00 1.4919019630994494e+01 2.6814259993217249e+01 0 0 0
551 2 2.4610000000000003e+00 1.5629449137232328e+01 2.6814259993217249e+01 0 0 0
552 2 2.4610000000000003e+00 1.2787731112280996e+01 2.6814259993217249e+01 0 0 0
553 2 3.6915000000000004e+00 1.3498160618518829e+01 2.6814259993217249e+01 0 0 0
573 2 3.6915000000000004e+00 1.4919019630994494e+01 2.6814259993217249e+01 0 0 0
574 2 4.9220000000000006e+00 1.5629449137232333e+01 2.6814259993217249e+01 0 0 0
575 2 4.9220000000000006e+00 1.2787731112280996e+01 2.6814259993217249e+01 0 0 0
576 2 6.1524999999999990e+00 1.3498160618518829e+01 2.6814259993217249e+01 0 0 0
597 2 6.1524999999999990e+00 1.4919019630994494e+01 2.6814259993217249e+01 0 0 0
598 2 7.3829999999999991e+00 1.5629449137232333e+01 2.6814259993217249e+01 0 0 0
599 2 7.3829999999999991e+00 1.2787731112280996e+01 2.6814259993217249e+01 0 0 0
1564 2 1.1074500000000002e+01 2.3444173705848499e+01 3.3247740006778898e+01 0 0 0
600 2 8.6135000000000002e+00 1.3498160618518835e+01 2.6814259993217249e+01 0 0 0
621 2 8.6135000000000002e+00 1.4919019630994494e+01 2.6814259993217249e+01 0 0 0
622 2 9.8440000000000012e+00 1.5629449137232328e+01 2.6814259993217249e+01 0 0 0
623 2 9.8440000000000012e+00 1.2787731112280996e+01 2.6814259993217249e+01 0 0 0
624 2 1.1074500000000002e+01 1.3498160618518829e+01 2.6814259993217249e+01 0 0 0
642 2 1.1074500000000002e+01 1.4919019630994494e+01 2.6814259993217249e+01 0 0 0
5150 1 7.7381239127167127e+00 9.5772809398411152e+00 2.4383094700248737e+01 0 1 0
547 2 0.0000000000000000e+00 1.9892026174659328e+01 2.6814259993217249e+01 0 0 0
548 2 0.0000000000000000e+00 1.7050308149707998e+01 2.6814259993217249e+01 0 0 0
549 2 1.2305000000000001e+00 1.7760737655945832e+01 2.6814259993217249e+01 0 0 0
569 2 1.2305000000000001e+00 1.9181596668421495e+01 2.6814259993217249e+01 0 0 0
570 2 2.4610000000000003e+00 1.9892026174659328e+01 2.6814259993217249e+01 0 0 0
571 2 2.4610000000000003e+00 1.7050308149707998e+01 2.6814259993217249e+01 0 0 0
572 2 3.6914999999999996e+00 1.7760737655945832e+01 2.6814259993217249e+01 0 0 0
593 2 3.6914999999999996e+00 1.9181596668421495e+01 2.6814259993217249e+01 0 0 0
594 2 4.9220000000000006e+00 1.9892026174659328e+01 2.6814259993217249e+01 0 0 0
595 2 4.9220000000000006e+00 1.7050308149707998e+01 2.6814259993217249e+01 0 0 0
596 2 6.1524999999999999e+00 1.7760737655945832e+01 2.6814259993217249e+01 0 0 0
617 2 6.1524999999999999e+00 1.9181596668421495e+01 2.6814259993217249e+01 0 0 0
618 2 7.3829999999999991e+00 1.9892026174659328e+01 2.6814259993217249e+01 0 0 0
619 2 7.3830000000000009e+00 1.7050308149707998e+01 2.6814259993217249e+01 0 0 0
620 2 8.6134999999999984e+00 1.7760737655945832e+01 2.6814259993217249e+01 0 0 0
638 2 8.6135000000000002e+00 1.9181596668421495e+01 2.6814259993217249e+01 0 0 0
639 2 9.8440000000000012e+00 1.9892026174659335e+01 2.6814259993217249e+01 0 0 0
640 2 9.8440000000000012e+00 1.7050308149707998e+01 2.6814259993217249e+01 0 0 0
641 2 1.1074500000000002e+01 1.7760737655945835e+01 2.6814259993217249e+01 0 0 0
655 2 1.1074500000000002e+01 1.9181596668421495e+01 2.6814259993217249e+01 0 0 0
657 2 1.2304999999999998e+01 1.7050308149707998e+01 2.6814259993217249e+01 0 0 0
5468 1 2.9102941590329612e-01 2.1382421998092330e+01 2.4269222765388228e+01 0 -1 0
613 2 3.6915000000000004e+00 2.3444173705848499e+01 2.6814259993217249e+01 0 0 0
566 2 0.0000000000000000e+00 2.4154603212086325e+01 2.6814259993217249e+01 0 0 0
567 2 0.0000000000000000e+00 2.1312885187134999e+01 2.6814259993217249e+01 0 0 0
568 2 1.2304999999999993e+00 2.2023314693372832e+01 2.6814259993217249e+01 0 0 0
589 2 1.2304999999999993e+00 2.3444173705848499e+01 2.6814259993217249e+01 0 0 0
590 2 2.4610000000000003e+00 2.4154603212086325e+01 2.6814259993217249e+01 0 0 0
591 2 2.4610000000000003e+00 2.1312885187134995e+01 2.6814259993217249e+01 0 0 0
592 2 3.6914999999999996e+00 2.2023314693372832e+01 2.6814259993217249e+01 0 0 0
615 2 4.9220000000000006e+00 2.1312885187134995e+01 2.6814259993217249e+01 0 0 0
634 2 6.1524999999999999e+00 2.3444173705848499e+01 2.6814259993217249e+01 0 0 0
636 2 7.3829999999999991e+00 2.1312885187134999e+01 2.6814259993217249e+01 0 0 0
616 2 6.1524999999999990e+00 2.2023314693372832e+01 2.6814259993217249e+01 0 0 0
635 2 7.3830000000000009e+00 2.4154603212086336e+01 2.6814259993217249e+01 0 0 0
614 2 4.9220000000000006e+00 2.4154603212086325e+01 2.6814259993217249e+01 0 0 0
2695 1 2.9462156521438860e+00 1.2045686154111415e+01 3.5583276789873779e+01 1 0 0
652 2 9.8440000000000012e+00 2.4154603212086336e+01 2.6814259993217249e+01 0 0 0
651 2 8.6134999999999984e+00 2.3444173705848499e+01 2.6814259993217249e+01 0 0 0
654 2 1.1074500000000002e+01 2.2023314693372832e+01 2.6814259993217249e+01 0 0 0
664 2 1.1074500000000002e+01 2.3444173705848499e+01 2.6814259993217249e+01 0 0 0