
# Create simulation box and atoms

read_data data.graphite_substrate
  orthogonal box = (0 0 -0.0398667) to (49.22 49.0196 60.1019)
  4 by 2 by 5 MPI processor grid
  reading atoms ...
  6736 atoms
  reading velocities ...
  6736 velocities
group water type 1
3976 atoms in group water
group graphite type 2
2760 atoms in group graphite

# Define potential

pair_style sw
pair_coeff * * mWC.sw mW C
Reading potential file mWC.sw with DATE: 2019-02-27


# Fix graphite atoms in place

fix 5 graphite setforce 0.0 0.0 0.0
velocity graphite set 0.0 0.0 0.0


# Equilibration of molecular water

# Add velocity/set timestep

velocity	    water create ${TEMP} ${SEED} rot yes dist gaussian
velocity	    water create 225 ${SEED} rot yes dist gaussian
velocity	    water create 225 13805 rot yes dist gaussian
timestep	    5.0

# Define output

compute			1 water msd
compute			3 water temp
thermo	    	50
thermo_style	custom step temp press vol etotal ke pe c_1[4] c_3

# Neighbor lists

neigh_modify    delay 0 every 1 check yes

# Set fixes

fix             1 water momentum 10 linear 1 1 1 rescale
fix             2 water nve
fix             3 water temp/csvr ${TEMP} ${TEMP} 500.0 ${SEED}
fix             3 water temp/csvr 225 ${TEMP} 500.0 ${SEED}
fix             3 water temp/csvr 225 225 500.0 ${SEED}
fix             3 water temp/csvr 225 225 500.0 13805
fix             4 water press/berendsen z ${PRES} ${PRES} 1000.0 modulus 20000
fix             4 water press/berendsen z 1 ${PRES} 1000.0 modulus 20000
fix             4 water press/berendsen z 1 1 1000.0 modulus 20000

# Run 0.5 ns equilibration

dump		    1 all atom 2000 ${DIR}/eq.${NAME}-${TEMP}.dump
dump		    1 all atom 2000 run_5/eq.${NAME}-${TEMP}.dump
dump		    1 all atom 2000 run_5/eq.het_freeze_5-${TEMP}.dump
dump		    1 all atom 2000 run_5/eq.het_freeze_5-225.dump

reset_timestep  0

run	            100000
Neighbor list info ...
  update every 1 steps, delay 0 steps, check yes
  max neighbors/atom: 2000, page size: 100000
  master list distance cutoff = 7.76
  ghost atom cutoff = 7.76
  binsize = 3.88, bins = 13 13 16
  1 neighbor lists, perpetual/occasional/extra = 1 0 0
  (1) pair sw, perpetual
      attributes: full, newton on
      pair build: full/bin/atomonly
      stencil: full/bin/3d
      bin: standard
Per MPI rank memory allocation (min/avg/max) = 4.107 | 4.218 | 4.541 Mbytes
Step Temp Press Volume TotEng KinEng PotEng c_1[4] c_3 
       0     132.7951   -1147.9579    145106.76   -36018.829     2665.962   -38684.791            0          225 
      50    171.37857    -1173.914    144531.08   -36394.067    3440.5543   -39834.621   0.84680834     290.3735 
     100    168.25158   -969.18494    144055.59   -36772.599    3377.7777   -40150.377    1.9276393    285.07532 
     150    161.43705   -1152.8781    143498.06   -37095.173    3240.9707   -40336.143    2.8019381    273.52918 
     200    157.43692   -1137.4902    142998.95   -37344.537    3160.6652   -40505.202    3.6150599    266.75161 
     250    156.03854   -1123.4036    142513.53   -37546.154    3132.5916   -40678.745    4.3899114    264.38228 
     300    151.89766   -871.54244    142137.74   -37777.567    3049.4603   -40827.028    5.0986932    257.36622 
     350    149.94261   -716.15798    141783.96   -37984.558    3010.2113    -40994.77    5.7784769    254.05371 
     400    147.52493   -554.02461    141594.35   -38163.738    2961.6745   -41125.412    6.2981725    249.95734 
     450    143.52137   -610.08423    141391.69    -38314.61    2881.2999    -41195.91    6.7696242    243.17394 
     500    143.83483   -506.36431    141229.81   -38373.427    2887.5929    -41261.02     7.231598    243.70505 
     550    140.92393   -426.99187    141101.78    -38502.64    2829.1545   -41331.795    7.6331994      238.773 
     600     137.3819   -518.29432    140867.27   -38661.844    2758.0455   -41419.889     8.067549     232.7716 
     650     140.9694   -570.63973    140800.27   -38675.912    2830.0671   -41505.979    8.4839349    238.85003 
     700    140.16523   -370.52185    140702.03   -38717.632    2813.9229   -41531.555    8.9790637     237.4875 
     750    138.81314   -176.91936    140706.84   -38805.394    2786.7787   -41592.173    9.3605202     235.1966 
     800    137.07382   -324.09507    140684.24   -38894.072    2751.8605   -41645.932    9.5835578     232.2496 
     850    136.64924   -334.51245    140661.12   -38892.043    2743.3368   -41635.379    9.8970848    231.53022 
     900    134.20073   -325.19978    140667.01   -38949.021     2694.181   -41643.202    10.244448    227.38161 
     950    135.22425   -265.72176    140654.47   -38985.679    2714.7291   -41700.408    10.670032    229.11581 
    1000    135.14689   -196.42896    140633.09   -38987.012     2713.176   -41700.188    11.092944    228.98473 
    1050    135.84067   -247.64555    140627.31   -39014.634    2727.1041   -41741.738    11.422749    230.16023 
    1100    135.67056   -184.83163     140668.1   -39007.048    2723.6891   -41730.737    11.780873    229.87201 
    1150    137.04161   -568.88633    140694.63   -39062.392    2751.2139   -41813.606    12.107416    232.19503 
    1200    133.01963   -432.69913    140572.57   -39110.145    2670.4697   -41780.615    12.447908    225.38044 
    1250    132.82438   -308.55348    140560.41   -39119.028    2666.5498   -41785.578    12.796018    225.04961 
    1300    135.21868   -124.99746    140606.81   -39155.214    2714.6173   -41869.831    13.092153    229.10638 
    1350     133.3958   -96.112537    140666.24   -39123.832    2678.0215   -41801.853    13.354286    226.01779 
    1400    134.16333   -280.24472    140728.16   -39131.645    2693.4303   -41825.075     13.64408    227.31825 
    1450    132.34604   -312.38946    140712.73   -39160.226    2656.9468   -41817.172    13.868256    224.23914 
    1500    134.97729   -100.73398    140710.29   -39124.538    2709.7711   -41834.309    14.064488    228.69737 
    1550    133.96175   -374.76549    140751.56   -39164.505    2689.3833   -41853.888    14.314821     226.9767 
    1600    136.22532    -286.6952    140735.45   -39140.085    2734.8263   -41874.912    14.534549    230.81196 
    1650     135.3197   -102.97544    140761.21   -39189.979    2716.6453   -41906.625    14.730432    229.27753 
    1700     132.8561   -129.64678    140744.72   -39260.096    2667.1867   -41927.283    14.839156    225.10336 
    1750    134.71509   -212.33054    140700.49   -39259.486    2704.5072   -41963.993    15.271929    228.25311 
    1800    133.48296   -377.08513    140654.33   -39283.255    2679.7712   -41963.027    15.618995    226.16546 
    1850    134.19299   -397.48593     140650.8   -39290.247    2694.0258   -41984.272    15.834233    227.36851 
    1900    132.63884   -445.30055    140609.27    -39291.76     2662.825   -41954.585    16.004337    224.73525 
    1950    135.07734   -82.472362    140578.46   -39276.069    2711.7797   -41987.849    16.368597    228.86689 
    2000    132.91891   -24.455683    140668.15   -39329.484    2668.4476   -41997.931    16.549084    225.20978 
    2050    132.94924    -219.4782    140645.72   -39357.062    2669.0565   -42026.118    16.670838    225.26117 
    2100    133.73029   -178.38637    140618.55   -39317.418    2684.7366   -42002.155    16.881891    226.58452 
    2150    132.21537    -190.8271    140581.13   -39318.667    2654.3235   -41972.991    17.259657    224.01775 
    2200    132.45932   -257.08795    140583.18   -39365.874     2659.221   -42025.095    17.563265    224.43108 
    2250     132.9327    -186.0985    140550.89    -39339.78    2668.7244   -42008.504    17.726856    225.23314 
    2300    134.64837   -474.59118     140563.9   -39326.812    2703.1678   -42029.979    17.947827    228.14007 
    2350    133.13678   -115.65848    140551.15   -39319.818    2672.8214    -41992.64    18.129384    225.57892 
    2400    133.53164   -250.27298    140528.78   -39333.719    2680.7485   -42014.468    18.462963    226.24794 
    2450     133.3578   -312.10302    140492.53   -39298.435    2677.2586   -41975.694    18.652342    225.95341 
    2500     133.3453   -106.89205    140511.16   -39347.799    2677.0076   -42024.807    18.878979    225.93222 
    2550    133.35994   -386.13612    140493.98   -39348.092    2677.3016   -42025.394    19.191907    225.95703 
    2600    134.29557    7.5650509    140543.78   -39324.118    2696.0851   -42020.203    19.603112    227.54231 
    2650    132.19884   -119.52643    140614.03   -39335.158    2653.9917   -41989.149    19.930123    223.98974 
    2700    131.83361   -188.46095     140600.3   -39371.113    2646.6593   -42017.772    20.127548     223.3709 
    2750    133.43797    -26.82792    140610.92   -39318.507     2678.868   -41997.375    20.304733    226.08924 
    2800     133.0515   -385.62232    140637.49   -39358.027    2671.1094   -42029.137    20.405185    225.43443 
    2850    132.97952    -278.1416    140576.82   -39366.817    2669.6644   -42036.481    20.651426    225.31248 
    2900    132.69755   -402.44063    140572.46   -39349.509    2664.0035   -42013.512    20.947452    224.83471 
    2950    132.57028   -329.49201    140473.94   -39365.998    2661.4485   -42027.446    21.185895    224.61907 
    3000    134.00887   -223.67523    140421.85   -39349.097    2690.3294   -42039.427    21.420728    227.05655 
    3050    131.90549   -215.58768    140434.49   -39355.556    2648.1025   -42003.658    21.633851     223.4927 
    3100    133.96317   -402.55364    140411.24   -39358.785    2689.4119   -42048.197    21.830187    226.97911 
    3150    132.35799   -37.081896    140355.25   -39371.065    2657.1867   -42028.251    22.069521    224.25939 
    3200    134.35022   -172.69638    140363.17    -39364.34    2697.1821   -42061.522    22.403075    227.63489 
    3250    131.22257   -136.62907    140440.86   -39381.598    2634.3922    -42015.99    22.687241     222.3356 
    3300      132.352   -154.19154    140393.43   -39365.982    2657.0664   -42023.048     22.95267    224.24924 
    3350    132.35316   -233.48447    140319.22   -39346.278    2657.0897   -42003.368    23.351103     224.2512 
    3400    130.48391   -31.456506    140267.23   -39377.258     2619.563   -41996.821    23.758849    221.08405 
    3450    131.44464   -231.85098    140182.81   -39420.675    2638.8504   -42059.525    23.966023    222.71186 
    3500    131.09022   -272.82143    140206.45    -39334.49    2631.7352   -41966.225    24.215212    222.11135 
    3550     129.3653   -12.957705    140186.39   -39363.679    2597.1061   -41960.785    24.417729    219.18875 
    3600    131.80082   -468.76053    140154.05   -39388.867     2646.001   -42034.868    24.682599    223.31535 
    3650     132.1705   -118.32508    140103.92   -39331.549    2653.4227   -41984.971      24.9528    223.94172 
    3700    133.60607   -291.36225    140140.61   -39350.216    2682.2429   -42032.459    25.073709    226.37407 
    3750    133.98411      -274.16    140049.85   -39316.426    2689.8322   -42006.258     25.53032    227.01458 
    3800    134.25612   -59.935043    140023.53   -39282.423    2695.2931   -41977.716    25.757829    227.47547 
    3850    133.02365   -124.23216    140053.08   -39267.205    2670.5502   -41937.755    25.817452    225.38724 
    3900    131.47896   -123.90334    139968.69   -39318.414    2639.5396   -41957.953    25.996577    222.77002 
    3950    131.77629   -233.17835    139934.18   -39334.999    2645.5086   -41980.508    26.262091    223.27379 
    4000    135.47405   -28.821945     139989.3    -39269.73     2719.744   -41989.474    26.330144    229.53905 
    4050    133.27766   -269.89655    140043.58   -39289.083    2675.6497   -41964.733    26.638377    225.81762 
    4100    132.86521   -161.10216    140101.47   -39319.322    2667.3694   -41986.691      26.8187    225.11879 
    4150    135.08501   -244.61956    140106.08    -39337.03    2711.9337   -42048.964    26.963885    228.87989 
    4200     133.3246   -163.57855    140025.83   -39285.247    2676.5921   -41961.839    27.197877    225.89716 
    4250    135.27131   -199.24603    140062.97   -39236.706    2715.6738    -41952.38    27.399736    229.19555 
    4300    135.20962   -175.77014    140179.35   -39297.636    2714.4352   -42012.071    27.560798    229.09101 
    4350    132.38274    -176.8483    140251.45    -39334.94    2657.6836   -41992.624    27.745208    224.30133 
    4400     134.6498   -59.125397    140283.91   -39285.459    2703.1966   -41988.656    27.897076     228.1425 
    4450    134.10768    -88.83514    140331.63   -39263.386    2692.3129   -41955.699    28.172851    227.22395 
    4500    131.55749   -383.36391    140356.97   -39309.524    2641.1161   -41950.641    28.436629    222.90307 
    4550    134.94048    -174.0325    140408.51   -39312.393    2709.0321   -42021.426    28.742501      228.635 
    4600     130.8809   -138.85099     140472.1   -39362.588     2627.533   -41990.121    29.007393     221.7567 
    4650    135.15577     -258.113     140500.6   -39321.595    2713.3541   -42034.949    29.308665    228.99977 
    4700    132.84289   -143.55384    140584.88   -39321.914    2666.9214   -41988.836    29.568863    225.08097 
    4750    132.42663   -480.23099    140522.44   -39329.934    2658.5647   -41988.498    29.951329    224.37569 
    4800    134.53758   -328.21597    140448.97   -39310.801    2700.9436   -42011.745      30.1783    227.95235 
    4850    135.37397   -283.53177    140451.51   -39320.066    2717.7347   -42037.801    30.540081    229.36948 
    4900    137.17009   -265.38749       140440   -39327.267    2753.7932   -42081.061    30.826986    232.41272 
    4950    136.52792    -183.4743    140346.43   -39347.931    2740.9012   -42088.832    31.197118    231.32466 
    5000    134.78112   -192.37115    140360.05   -39346.334    2705.8327   -42052.167    31.365761    228.36498 
    5050    135.82483   -175.81722     140377.9   -39340.945    2726.7861   -42067.731     31.51517    230.13339 
    5100    132.84222   -304.14393    140475.09   -39337.612    2666.9079    -42004.52    31.709529    225.07983 
    5150     134.2257   -185.42447    140473.89   -39355.265    2694.6824   -42049.947     31.97771    227.42392 
    5200    134.20913     -83.5625    140451.06   -39373.517    2694.3498   -42067.866    32.307293    227.39585 
    5250    133.11308   -160.87006    140477.04   -39368.787    2672.3457   -42041.133    32.699993    225.53877 
    5300    132.64655   -280.06637    140529.98   -39384.148    2662.9797   -42047.128    33.022932    224.74831 
    5350    130.99458   -281.18452    140555.71   -39380.741    2629.8153   -42010.556    33.217749    221.94931 
    5400     133.2687    -329.2207    140550.13   -39399.143    2675.4698   -42074.613    33.515281    225.80244 
    5450     130.9216   -249.44434    140490.08   -39362.215      2628.35   -41990.565     33.60003    221.82565 
    5500    132.57486   -255.08525    140478.88   -39295.709    2661.5404   -41957.249    33.767793    224.62683 
    5550    133.89631   -303.98002     140452.5     -39315.1    2688.0697    -42003.17    34.052713    226.86583 
    5600    132.25935   -172.47274    140401.73   -39275.376    2655.2064   -41930.583     34.43296    224.09226 
    5650    137.11206   -238.11413    140325.88   -39232.024    2752.6282   -41984.652    34.725897    232.31439 
    5700    136.38581   -106.59752    140394.55   -39231.126    2738.0483   -41969.174    34.881778    231.08389 
    5750    134.85067   -271.42146    140358.38   -39296.345     2707.229   -42003.574    34.875244    228.48283 
    5800    134.47502   -146.42997    140367.93   -39290.473    2699.6877   -41990.161    34.991471    227.84636 
    5850    135.25856   -148.29862    140375.95    -39245.91    2715.4179   -41961.328    35.054241    229.17394 
    5900     132.2355    -51.30439    140434.34   -39270.347    2654.7275   -41925.074    35.378981    224.05184 
    5950    134.41764   -274.34416       140493    -39249.91    2698.5357   -41948.445     35.60592    227.74913 
    6000    130.73297   -190.93333    140506.61   -39235.595    2624.5632   -41860.158    35.822473    221.50605 
    6050    134.52422   -392.59932    140421.17   -39228.187    2700.6754   -41928.862    35.761402    227.92972 
    6100    133.08968   -436.58044    140358.23   -39260.541    2671.8758   -41932.416     35.88584    225.49911 
    6150    131.83467   -180.24136    140389.35   -39263.838    2646.6806   -41910.519    36.154121     223.3727 
    6200    131.00565   -260.96904    140542.77   -39283.298    2630.0374   -41913.335    36.318147    221.96806 
    6250    132.01847   -186.99356    140525.23   -39289.308    2650.3705   -41939.679    36.620073    223.68412 
    6300    131.26186   -26.216039    140585.11   -39353.679    2635.1811    -41988.86    36.916601    222.40217 
    6350    132.62543   -201.75074    140681.93   -39356.413    2662.5558   -42018.969    37.180824    224.71253 
    6400    132.24364   -274.73796    140644.59   -39322.435    2654.8909   -41977.325    37.500793    224.06563 
    6450    134.03359   -110.78995    140612.74   -39296.837    2690.8257   -41987.662    37.772742    227.09843 
    6500    133.87695    3.7533439    140646.62   -39315.825    2687.6809   -42003.506    37.977427    226.83301 
    6550    132.01786   -166.91351    140674.98   -39324.683    2650.3583   -41975.042    38.142215    223.68309 
    6600    130.73154   -50.168433    140733.97   -39319.669    2624.5344   -41944.203    38.511682    221.50362 
    6650    131.67298   -288.65237    140675.43   -39331.833    2643.4346   -41975.267    38.913119    223.09875 
    6700    131.78485   -369.18923    140566.27   -39339.717    2645.6804   -41985.398    39.311781    223.28829 
    6750    131.10989   -300.48603    140519.95   -39371.257    2632.1301   -42003.387       39.423    222.14468 
    6800    134.17341   -212.13504    140518.78   -39353.128    2693.6325    -42046.76    39.441597    227.33532 
    6850    134.04843   -273.29301    140425.53    -39410.56    2691.1235   -42101.684    39.768143    227.12356 
    6900    129.87271   -119.25184     140344.9   -39427.725    2607.2927   -42035.017    39.839107    220.04847 
    6950    129.78131   -172.79635    140439.57   -39429.556    2605.4578   -42035.014    40.108968    219.89361 
    7000    131.57379   -262.95717    140469.03    -39412.68    2641.4432   -42054.124    40.481515    222.93068 
    7050    134.75193   -296.68238    140427.32   -39405.391    2705.2468   -42110.638    40.659996    228.31554 
    7100    133.81682   -376.03827    140328.97   -39418.788    2686.4739   -42105.262     40.78716    226.73115 
    7150    133.58926   -230.46737    140276.79   -39382.779    2681.9054   -42064.685    41.129452    226.34558 
    7200    132.14603    -70.36028    140326.91   -39382.219    2652.9313   -42035.151    41.495349    223.90025 
    7250    130.27523   -149.51721     140275.3   -39388.586    2615.3736    -42003.96    41.861555    220.73048 
    7300    131.44995   -225.23614     140262.5    -39387.87    2638.9571   -42026.827    42.183976    222.72086 
    7350    132.25783   -196.84298     140243.3    -39391.94    2655.1759   -42047.116    42.265777    224.08969 
    7400    131.85756   -257.32318    140236.61    -39400.85    2647.1402    -42047.99    42.406759    223.41149 
    7450    132.63038   -304.20803     140276.4   -39397.099    2662.6551   -42059.754    42.751339    224.72091 
    7500    129.65963   -192.52816    140349.07   -39429.231    2603.0151   -42032.246    43.104847    219.68746 
    7550    133.29956    -191.7562     140346.6   -39391.538    2676.0894   -42067.628    43.293179    225.85472 
    7600    132.35507   -176.55718    140352.97   -39422.106    2657.1281   -42079.234    43.624607    224.25444 
    7650    132.01389   -104.37953    140318.92   -39416.466    2650.2787   -42066.744      43.7489    223.67637 
    7700     134.9391   -155.97689    140360.34   -39373.394    2709.0044   -42082.398    43.829544    228.63266 
    7750     135.3708   -171.06638    140359.09   -39374.739    2717.6711    -42092.41    44.018117    229.36411 
    7800    133.61489   -336.03678    140372.31   -39396.546    2682.4199   -42078.966    44.286215      226.389 
    7850     134.9036   -192.10792    140394.75   -39402.563    2708.2918   -42110.855    44.355582    228.57252 
    7900    132.43062   -143.28748    140365.93   -39413.193    2658.6447   -42071.838    44.659722    224.38244 
    7950    132.70485   -181.87507    140353.93   -39482.937    2664.1502   -42147.087    44.850915    224.84709 
    8000    132.42552   -326.84608    140331.84   -39461.348    2658.5423    -42119.89    45.093354     224.3738 
    8050    131.56882    -240.8473    140263.39   -39506.994    2641.3434   -42148.337    45.376874    222.92226 
    8100    129.01376   -286.10603    140256.66    -39545.93    2590.0486   -42135.979    45.573386    218.59312 
    8150    131.60947   -340.80034    140247.25   -39522.189    2642.1596   -42164.349    45.939506    222.99114 
    8200    130.17903   -212.55127    140272.17   -39483.226    2613.4424   -42096.669    46.065235    220.56749 
    8250    133.49318   -334.84044    140239.72   -39481.386    2679.9764   -42161.363    46.313811    226.18278 
    8300    131.37786   -81.077533    140192.54   -39511.704    2637.5097   -42149.213    46.607844    222.59871 
    8350    133.00814   -20.085786    140231.21    -39434.87    2670.2388   -42105.109    46.828623    225.36095 
    8400    133.18425   -121.80235    140268.34   -39443.373    2673.7744   -42117.147    46.989747    225.65935 
    8450    133.32868    -207.4411    140201.13   -39419.778    2676.6739   -42096.452    47.281122    225.90406 
    8500    132.49843    -123.7544    140185.36   -39411.558     2660.006   -42071.564    47.503791    224.49733 
    8550     131.3606   -88.619099       140211    -39415.08    2637.1633   -42052.244    47.559845    222.56947 
    8600    131.69902   -44.997011    140305.73   -39422.543    2643.9574   -42066.501     47.69867    223.14287 
    8650    130.91652   -205.70078    140306.12   -39456.136     2628.248   -42084.384     47.92373    221.81704 
    8700    132.72191   -389.22248    140210.07       -39366    2664.4927   -42030.493     48.33132      224.876 
    8750    135.14108   -176.82541    140196.78   -39351.011    2713.0594   -42064.071     48.62614    228.97489 
    8800    133.75888   -217.82737     140163.4   -39337.715    2685.3106   -42023.026     48.91906    226.63297 
    8850    133.68524   -177.89214    140205.25   -39369.661    2683.8322   -42053.493    49.133347     226.5082 
    8900    133.12416    78.636618    140280.03   -39421.443    2672.5682   -42094.011    49.324169    225.55754 
    8950    134.28295   -170.27978    140377.16   -39416.158    2695.8317    -42111.99    49.519231    227.52093 
    9000     131.3085   -156.98543    140347.77   -39436.326    2636.1174   -42072.443    49.548861     222.4812 
    9050    132.24973   -29.937279    140372.14   -39440.248    2655.0132   -42095.261    49.798922    224.07595 
    9100     134.2355   -250.32638    140502.81   -39443.138     2694.879   -42138.017    50.104505    227.44052 
    9150    130.35074   -213.87903    140513.22   -39438.201    2616.8896   -42055.091    50.405026    220.85843 
    9200    130.78623   -54.305359    140509.25   -39437.496    2625.6324   -42063.128     50.79286    221.59629 
    9250    131.43755   -189.63358     140462.5    -39433.06    2638.7081   -42071.768    50.908033    222.69984 
    9300     132.3694   -17.312576    140515.49   -39431.733    2657.4157   -42089.149    51.242735    224.27872 
    9350    131.58792   -117.63862    140602.57   -39421.383    2641.7269    -42063.11    51.334848    222.95462 
    9400    135.12461    17.617949    140701.45    -39410.53    2712.7287   -42123.258    51.394324    228.94698 
    9450    133.09482   -231.38225    140773.03   -39386.455     2671.979   -42058.434    51.567787    225.50782 
    9500    130.06705   -213.19171    140795.35   -39395.194    2611.1943   -42006.388    51.769215    220.37776 
    9550    132.57774   -161.31719    140821.42   -39403.781    2661.5982    -42065.38    51.763766    224.63171 
    9600    132.81436   -222.03674    140826.89   -39373.638    2666.3486   -42039.987     51.88328    225.03263 
    9650    132.69315   -360.01525    140757.81   -39417.704    2663.9152   -42081.619    52.319544    224.82726 
    9700    134.03249   -40.356064    140678.65   -39440.143    2690.8036   -42130.947    52.484221    227.09657 
    9750    130.96111     -185.712    140737.41   -39476.896    2629.1433    -42106.04    52.573638     221.8926 
    9800    130.86482   -160.82766     140698.5   -39451.444    2627.2102   -42078.654    52.591327    221.72946 
    9850    134.43488   -284.48943    140664.75   -39446.151    2698.8817   -42145.032    52.703393    227.77834 
    9900    131.87092   -87.861443    140625.71   -39500.489    2647.4083   -42147.897    52.815261    223.43412 
    9950    131.10413   -223.96844    140599.58   -39491.492    2632.0144   -42123.506    52.961625    222.13491 
   10000    130.56714   -284.17342    140580.76   -39489.823     2621.234   -42111.057    53.344642    221.22508 
   10050    128.72912   -37.402418    140618.37   -39514.416    2584.3345    -42098.75    53.674769    218.11086 
   10100    130.85038   -213.46274    140692.99   -39468.264    2626.9203   -42095.184    53.989123    221.70499 
   10150    133.81416   -225.93803    140735.91   -39474.467    2686.4204   -42160.888    54.270062    226.72663 
   10200     131.1131   -181.99803     140783.9   -39480.526    2632.1946   -42112.721    54.503982    222.15012 
   10250    133.41831   -112.52422    140756.82   -39409.879    2678.4735   -42088.353    54.587863    226.05593 
   10300    132.25714   -74.242233    140693.67   -39403.611     2655.162   -42058.773    54.648887    224.08851 
   10350    133.65981    -134.3691    140694.49   -39384.058    2683.3216   -42067.379    54.928487     226.4651 
   10400    134.43433   -67.331065       140660   -39344.366    2698.8708   -42043.237    55.217598    227.77742 
   10450    133.98692   -106.64253    140630.52   -39334.267    2689.8888   -42024.156    55.512314    227.01936 
   10500    131.11771   -274.50738    140642.98    -39417.45    2632.2871   -42049.737    55.729389    222.15793 
   10550    132.93648   -190.26663    140610.57   -39401.421    2668.8003   -42070.221    55.886078    225.23954 
   10600    132.69925   -26.039718    140661.92   -39408.412    2664.0378    -42072.45    56.124887    224.83761 
   10650    131.12624   -43.067378     140742.5   -39434.729    2632.4583   -42067.188    56.303045    222.17238 
   10700    131.84406   -208.88869    140746.89   -39408.665    2646.8691   -42055.534    56.713625    223.38861 
   10750    131.29246   -118.94377       140697   -39382.707    2635.7954   -42018.502    57.139253    222.45402 
   10800    135.08756   -271.97058    140616.11   -39351.385    2711.9849    -42063.37    57.493818    228.88421 
   10850     134.1551   -297.72514    140539.28   -39376.533    2693.2651   -42069.798    57.676105    227.30431 
   10900    133.99699   -246.99556    140510.82   -39398.345    2690.0909   -42088.436    57.953744    227.03641 
   10950     132.3161   -261.39868    140541.68   -39422.428    2656.3457   -42078.774    58.329288    224.18841 
   11000    131.88512   -344.73078    140522.02   -39452.019    2647.6934   -42099.713    58.470298    223.45818 
   11050    132.63797   -177.91934    140521.14   -39459.802    2662.8074   -42122.609    58.474664    224.73376 
   11100    129.91549   -169.97826    140562.24   -39473.974    2608.1517   -42082.125    58.530131    220.12097 
   11150    129.22212   -298.80433     140574.4   -39429.516    2594.2318   -42023.748    58.947451    218.94616 
   11200    130.25701   -147.43563    140564.54   -39412.712     2615.008    -42027.72    59.393431    220.69962 
   11250     134.3543   -87.211339    140620.13   -39385.704    2697.2641   -42082.968    59.481549    227.64182 
   11300    130.92791   -184.37544     140577.5   -39399.855    2628.4767   -42028.331    59.603423    221.83634 
   11350    131.32269    -264.5817    140613.41   -39340.325    2636.4022   -41976.727    59.741923    222.50524 
   11400     131.8032   -143.21072    140575.93   -39327.088    2646.0489   -41973.137    59.869518    223.31939 
   11450    129.00094   -163.42802    140530.65   -39372.602    2589.7913   -41962.393    60.054337     218.5714 
   11500    132.92559   -268.54465    140451.22    -39358.03    2668.5817   -42026.611    60.426623    225.22109 
   11550    134.67621   -278.43356    140361.55   -39372.616    2703.7266   -42076.343    60.548924    228.18723 
   11600    128.78568   -207.86782    140325.68   -39401.291    2585.4699   -41986.761    60.840871    218.20668 
   11650    133.44389   -220.56485    140313.69   -39374.429     2678.987   -42053.416     61.32599    226.09927 
   11700    132.27113   -153.99393    140356.41   -39406.447    2655.4429    -42061.89    61.571906    224.11222 
   11750     130.0011   -131.81874    140371.37    -39399.92    2609.8703    -42009.79    61.849398    220.26601 
   11800    131.30677   -270.69539    140386.63   -39437.752    2636.0826   -42073.835    61.992329    222.47826 
   11850    131.11483   -51.104676    140358.98    -39413.28    2632.2292   -42045.509    62.239737    222.15305 
   11900     132.1245   -298.49815     140369.1   -39408.637    2652.4992   -42061.136    62.386547    223.86377 
   11950    130.82708   -100.39156    140331.59   -39393.384    2626.4525   -42019.836    62.528643     221.6655 
   12000    130.09487    53.521632    140364.71     -39392.2    2611.7529   -42003.953    62.796166     220.4249 
   12050    132.84505    105.09583    140427.21   -39371.042    2666.9648   -42038.007    62.708449    225.08463 
   12100    134.58742   -5.9451994     140496.2   -39408.579    2701.9442   -42110.523    62.776087     228.0368 
   12150    132.13874   -229.39321    140504.42   -39420.715    2652.7852     -42073.5    62.984349    223.88791 
   12200    133.94552   -359.91357    140475.03   -39428.161    2689.0574   -42117.219    63.316814    226.94919 
   12250    133.95462   -4.8912462    140525.91   -39423.156    2689.2403   -42112.397    63.482359    226.96462 
   12300    131.90431   -239.15513     140531.3   -39345.451    2648.0786    -41993.53    63.997679    223.49069 
   12350    135.54436   -67.340631    140516.28   -39328.209    2721.1554   -42049.365    64.426674    229.65818 
   12400    134.38509   -112.94187    140574.52   -39359.668    2697.8822   -42057.551    64.775073    227.69398 
   12450    133.76712   -72.451466    140614.96   -39387.517    2685.4761   -42072.993    65.055605    226.64694 
   12500     135.4181    27.235332    140652.81   -39358.695    2718.6207   -42077.316    65.143796    229.44425 
   12550    131.41281   -101.14143     140735.8   -39386.832    2638.2114   -42025.043     65.11902    222.65793 
   12600    136.18696    -161.6946    140699.57   -39402.833    2734.0561   -42136.889    65.306188    230.74696 
   12650    131.08545   -225.18268    140729.39   -39435.693    2631.6395   -42067.333    65.593547    222.10327 
   12700    133.33477   -210.13816    140727.21   -39415.364    2676.7962    -42092.16    66.106823    225.91438 
   12750    131.14954    -194.9284    140758.64   -39449.141    2632.9261   -42082.067    66.305766    222.21186 
   12800    133.36393   -370.46126     140774.5   -39443.833    2677.3817   -42121.214    66.351229     225.9638 
   12850    131.60721   -149.22094    140744.14   -39428.339    2642.1142   -42070.453    66.644801    222.98731 
   12900    132.25271   -292.83147    140646.48   -39430.133     2655.073   -42085.206    66.859341      224.081 
   12950    134.31779   -139.81148    140673.45   -39434.105    2696.5311   -42130.636    67.133558    227.57995 
   13000    130.89463   -244.92279    140692.76   -39471.216    2627.8086   -42099.024     67.43835    221.77995 
   13050    132.11134   -239.12872     140681.5   -39479.597    2652.2349   -42131.832    67.585347    223.84147 
   13100    131.15239   -146.95329    140666.74    -39509.48    2632.9833   -42142.463     67.82702    222.21669 
   13150    131.44378   -243.91181    140643.51   -39490.042    2638.8333   -42128.875    67.817584    222.71041 
   13200    130.70451   -67.876158     140659.1   -39461.916    2623.9918   -42085.908    68.092398    221.45783 
   13250    133.41081   -109.00433    140700.63   -39383.507    2678.3229    -42061.83    68.135354    226.04323 
   13300    135.39279   -435.59611    140613.85   -39394.925    2718.1126   -42113.037    68.186518    229.40138 
   13350    131.48429   -213.30737    140652.89   -39438.544    2639.6466   -42078.191    68.491457    222.77905 
   13400    134.24162   -14.423674     140710.9   -39409.073     2695.002   -42104.075     68.60005     227.4509 
   13450    132.07417   -86.981475    140695.56   -39438.023    2651.4888   -42089.512    68.683193     223.7785 
   13500    131.04568   -191.47867    140681.13   -39444.471    2630.8411   -42075.312    68.769783    222.03589 
   13550    133.24776   -321.46224    140663.47   -39431.904    2675.0494   -42106.954    69.021921    225.76696 
   13600     130.6373   -306.38927    140662.79   -39458.526    2622.6425   -42081.169    69.334194    221.34395 
   13650    133.91215   -229.08183    140636.88   -39475.933    2688.3876   -42164.321    69.518554    226.89266 
   13700    132.94459    -381.7085    140584.89   -39495.639     2668.963   -42164.602    69.850084    225.25328 
   13750    129.20161   -363.69238    140561.18     -39532.1    2593.8199    -42125.92    70.139843     218.9114 
   13800    127.69927    -252.0421     140505.3   -39551.035    2563.6594   -42114.694    70.167409    216.36594 
   13850     129.1784   -165.83098    140552.18   -39505.212    2593.3539   -42098.566    70.446351    218.87207 
   13900    133.05196   -219.82938     140503.2    -39455.07    2671.1186   -42126.189    70.611561    225.43521 
   13950    131.89681   -322.31123    140481.67   -39428.985     2647.928   -42076.913    70.815801    223.47798 
   14000    129.88675   -389.09507    140375.43   -39414.928    2607.5747   -42022.502    71.263646    220.07227 
   14050    132.56624   -169.59862    140426.28   -39418.845    2661.3675   -42080.213    71.402497    224.61224 
   14100    133.02646   -71.432454    140417.29   -39389.362    2670.6068   -42059.969    71.790688    225.39201 
   14150    133.02122   -155.44148    140544.69   -39394.341    2670.5015   -42064.843    72.017663    225.38312 
   14200    132.59197   -59.270896    140566.68   -39431.534    2661.8841   -42093.418    72.094066    224.65584 
   14250    135.55027    -215.4343    140601.79    -39435.93     2721.274   -42157.204    72.387828    229.66819 
   14300    130.90028   -209.09423    140632.09   -39476.586    2627.9221   -42104.508    72.381607    221.78954 
   14350    131.81969   -223.33971    140695.38   -39481.327    2646.3799   -42127.707    72.516966    223.34732 
   14400    131.32099   -402.08601    140714.08   -39444.586    2636.3681   -42080.954    72.774674    222.50236 
   14450    133.31717   -98.088288    140693.54   -39430.488     2676.443   -42106.931    72.683361    225.88457 
   14500    134.11046   -332.97976    140721.17   -39426.472    2692.3688   -42118.841    73.001904    227.22867 
   14550    132.84736   -335.02454    140697.85    -39379.88    2667.0112   -42046.891    73.482628    225.08855 
   14600    135.48447   -251.81163     140743.7   -39343.153    2719.9532   -42063.106    73.615802    229.55671 
   14650    136.88684   -104.48967    140747.45   -39344.337    2748.1068   -42092.444    73.757507     231.9328 
   14700    132.79774   -380.08888    140674.52   -39370.535    2666.0149    -42036.55    74.188586    225.00447 
   14750    135.33143   -196.53549     140568.2   -39322.897    2716.8808   -42039.778     74.29723    229.29741 
   14800    133.48246   -363.44589    140512.53   -39307.398    2679.7613   -41987.159    74.591491    226.16463 
   14850    135.04863   -251.43151    140410.18   -39310.409    2711.2033   -42021.612    74.602522    228.81824 
   14900    134.11273    -10.52289    140453.98   -39329.296    2692.4144    -42021.71     74.77195    227.23251 
   14950    133.61648   -67.007182    140463.75   -39393.154    2682.4519   -42075.606    74.847214     226.3917 
   15000    132.31397   -204.33407    140391.88   -39415.242    2656.3029   -42071.545    75.073589     224.1848 
   15050    134.58944   -10.276752    140467.06   -39393.687    2701.9847   -42095.672    75.208747    228.04022 
   15100    133.38035   -352.60885    140496.74    -39388.55    2677.7112   -42066.262    75.424549     225.9916 
   15150    134.54435   -100.76583    140440.69    -39376.94    2701.0794    -42078.02    75.663315    227.96382 
   15200     132.5042   -122.77351    140419.84    -39414.28    2660.1219   -42074.402    75.883415    224.50711 
   15250    130.32352   -214.78447    140408.49   -39425.457    2616.3432   -42041.801    75.965337    220.81231 
   15300     132.3222   -105.39668    140377.56    -39444.49    2656.4682   -42100.958    76.062607    224.19875 
   15350    130.99129   -111.01574    140416.57   -39480.963    2629.7491   -42110.712    76.086654    221.94373 
   15400    132.06419    7.7253882    140488.11   -39463.372    2651.2885    -42114.66    76.047882     223.7616 
   15450    130.07633    -229.4221    140514.21   -39464.485    2611.3807   -42075.866    76.168236    220.39349 
   15500    129.98753   -73.920771    140511.09   -39452.721    2609.5979   -42062.319    76.504219    220.24302 
   15550    129.57126   -165.89258     140486.8   -39443.325    2601.2409   -42044.566    76.623125    219.53772 
   15600    126.95818   -133.18738    140463.53   -39494.727    2548.7813   -42043.509    77.131807    215.11027 
   15650    131.40799   -248.11259    140438.47   -39477.691    2638.1147   -42115.806    77.702814    222.64976 
   15700    132.45432   -48.420594    140510.08   -39395.922    2659.1205   -42055.042    77.754279     224.4226 
   15750    132.19415   -39.574643    140541.18   -39429.745    2653.8975   -42083.642    77.901065    223.98179 
   15800    133.16482    17.689255    140518.16   -39383.083    2673.3844   -42056.468    78.171515    225.62643 
   15850    132.03379   -98.637488     140550.2   -39378.573    2650.6781   -42029.251    78.500198    223.71008 
   15900    132.20188   -161.88949    140658.59   -39417.892    2654.0526   -42071.945    78.566332    223.99488 
   15950    131.52009    9.3327413    140670.37   -39457.954    2640.3651   -42098.319    78.738296    222.83969 
   16000    132.62082   -230.95852    140712.88   -39409.502    2662.4631   -42071.965    79.207042    224.70471 
   16050    131.66733   -49.711817    140836.21    -39403.77    2643.3211   -42047.091    79.490304    223.08917 
   16100     134.1554    -124.0018    140868.25   -39379.497     2693.271   -42072.768    79.747161     227.3048 
   16150    131.78357    -144.4846    140879.96   -39467.434    2645.6548   -42113.089    80.019313    223.28613 
   16200    131.43505   -19.581263    140920.47   -39465.099    2638.6579   -42103.757    80.117892    222.69561 
   16250    133.55989   -430.20434    140867.47    -39478.71    2681.3158   -42160.026    80.162631    226.29582 
   16300    133.58801    -279.3009    140755.35   -39436.231    2681.8802   -42118.111     80.57158    226.34345 
   16350     132.9094   -249.61191    140685.48   -39424.508    2668.2566   -42092.764    80.914054    225.19366 
   16400    131.02565   -169.77565    140688.96   -39438.238    2630.4389   -42068.676    81.149828    222.00194 
   16450    133.63803    -208.2038    140636.78   -39411.181    2682.8844   -42094.066    81.622311    226.42821 
   16500    134.65782   -193.71802    140598.55   -39390.054    2703.3576   -42093.412    81.597759    228.15609 
   16550    133.37368    -95.10691     140602.1   -39394.671    2677.5774   -42072.249    81.709198    225.98031 
   16600    133.37839   -106.78203    140662.39   -39398.059    2677.6721   -42075.731    82.055936     225.9883 
   16650     133.1632   -168.69032    140627.02   -39404.226    2673.3518   -42077.577    82.407705    225.62368 
   16700    130.74974    61.096408    140670.12   -39440.474    2624.8997   -42065.374    82.750406    221.53446 
   16750    131.10222   -190.36473    140718.21   -39457.969    2631.9761   -42089.945    83.007109    222.13168 
   16800    132.16304   -255.04294     140685.1   -39430.149    2653.2729   -42083.422    83.320632    223.92908 
   16850    131.02823   -88.860982    140623.09   -39416.294    2630.4907   -42046.785    83.504258    222.00632 
   16900    133.59927   -225.35633    140608.96   -39412.744    2682.1064    -42094.85    83.588581    226.36254 
   16950    132.87151    -116.8193    140658.17   -39402.516     2667.496   -42070.012    83.866896    225.12947 
   17000    134.04995   -384.16339    140611.33   -39418.112    2691.1541   -42109.266    84.210066    227.12614 
   17050     134.5407   -113.83994    140552.52   -39405.068    2701.0063   -42106.074    84.459874    227.95764 
   17100    133.03901   -158.10262     140589.8   -39398.267    2670.8587   -42069.125    84.672188    225.41327 
   17150    133.67787   -140.36063     140536.5   -39398.528    2683.6843   -42082.212    84.931364    226.49571 
   17200    132.58178    -389.4024    140464.42   -39421.383    2661.6794   -42083.062    85.233834    224.63856 
   17250    131.71625   -135.98042    140418.07   -39429.827    2644.3033    -42074.13    85.559734    223.17206 
   17300    133.76567    -238.9546    140363.36    -39433.86    2685.4469   -42119.307      85.6968    226.64448 
   17350    132.98404   -118.98741    140366.47   -39426.877    2669.7551   -42096.632    86.000896    225.32013 
   17400    133.12739   -170.02978     140397.2   -39460.823    2672.6329   -42133.456    86.136306    225.56301 
   17450    132.95906   -127.61293    140424.25    -39428.13    2669.2536   -42097.383    86.414381     225.2778 
   17500    133.25677   -19.845381    140439.94   -39365.084    2675.2304   -42040.315    86.420637    225.78223 
   17550     135.8846   -160.58263    140508.23   -39350.615    2727.9861   -42078.601    86.614026    230.23467 
   17600    134.60187   -195.88384    140508.48     -39385.8    2702.2343   -42088.034    86.797071    228.06128 
   17650    135.31669   -74.452847    140517.47   -39368.197    2716.5847   -42084.782    86.834457    229.27242 
   17700    132.29166   -280.58538    140499.59   -39412.603    2655.8551   -42068.458    86.881434    224.14701 
   17750     134.4337   -28.231212    140564.19   -39378.387     2698.858   -42077.245    86.885812    227.77634 
   17800    130.67449   -122.78683    140601.68   -39415.774    2623.3892   -42039.163    86.924254    221.40697 
   17850    135.67127   -194.03924     140611.8   -39370.077    2723.7033    -42093.78    87.045937    229.87321 
   17900    133.56811   -271.64046     140601.6   -39372.186    2681.4807   -42053.666    87.062357    226.30973 
   17950    131.55247   -215.19996     140578.5   -39392.225    2641.0153    -42033.24    87.104057    222.89457 
   18000    132.42716   -162.38089    140548.39   -39437.716    2658.5754   -42096.291    87.288379    224.37659 
   18050    131.16697   -277.96025    140536.58   -39472.732    2633.2761   -42106.009    87.699606     222.2414 
   18100    136.47011   -127.17138    140546.75   -39414.715    2739.7406   -42154.455     87.94305    231.22671 
   18150    132.45191   -368.08074    140506.85   -39429.953    2659.0721   -42089.025    88.164744    224.41852 
   18200    132.40395   -347.17043    140411.95   -39441.377    2658.1094   -42099.486    88.361334    224.33726 
   18250    132.78536    -44.42152    140377.23   -39405.102    2665.7664   -42070.868    88.740451    224.98349 
   18300    133.19033   -112.00495    140441.18       -39341    2673.8965   -42014.896    89.130483    225.66965 
   18350    133.40999   -249.58527    140568.72   -39357.799    2678.3063   -42036.105    89.452483    226.04183 
   18400    133.30412   -433.36075    140546.78   -39423.504     2676.181   -42099.685    89.933319    225.86246 
   18450    135.49788   -248.84553    140569.19   -39388.227    2720.2224    -42108.45    90.378884    229.57943 
   18500    133.19781    -342.1443    140531.74   -39392.811    2674.0466   -42066.857    90.908597    225.68232 
   18550    132.65515   -229.00276    140588.27   -39364.804    2663.1524   -42027.957     90.91239    224.76288 
   18600    134.82373   -117.54046    140605.14   -39373.193    2706.6883   -42079.882    91.080799    228.43719 
   18650     133.9608   -107.54137    140665.94   -39354.424    2689.3642   -42043.788    91.264365    226.97508 
   18700    133.30294   -324.14777    140701.85   -39335.883    2676.1572    -42012.04    91.333371    225.86045 
   18750    134.19247   -248.12508    140705.18   -39360.358    2694.0152   -42054.373    91.521761    227.36761 
   18800    135.05745   -129.55936    140649.43   -39333.887    2711.3804   -42045.268    91.581529    228.83319 
   18850    134.81397   -142.16423     140648.8   -39325.708    2706.4923     -42032.2     91.62069    228.42065 
   18900    135.75093   -288.51525    140637.74   -39329.336    2725.3026   -42054.639    91.723512    230.00818 
   18950    135.57343    52.822571    140739.27   -39365.505     2721.739   -42087.244    91.931306    229.70743 
   19000    134.89686   -396.15087    140672.76   -39365.794    2708.1563   -42073.951    92.293343    228.56109 
   19050    132.87828   -142.36072    140671.24    -39396.24    2667.6319   -42063.872     92.49771    225.14093 
   19100    135.44971   -48.212014    140672.87   -39355.751    2719.2553   -42075.006    92.548289    229.49782 
   19150    135.44948   -354.98996    140558.46   -39413.451    2719.2507   -42132.702    92.787878    229.49742 
   19200    131.86602   -43.189772    140547.85   -39449.978    2647.3101   -42097.288    93.195327    223.42583 
   19250    132.34783   -131.98553    140542.09   -39482.867    2656.9827   -42139.849     93.18453    224.24217 
   19300      134.735   -111.09525    140573.62   -39439.803    2704.9069    -42144.71    93.459149    228.28685 
   19350    136.40709   -41.675166    140592.24    -39418.82    2738.4754   -42157.296    93.678479    231.11994 
   19400    134.24464   -191.63564     140624.9   -39471.439    2695.0625   -42166.502    93.715755    227.45601 
   19450    131.72638   -88.303911    140648.78   -39466.164    2644.5067   -42110.671    93.906353    223.18923 
   19500    130.69122   -260.84353    140638.09   -39471.924    2623.7249   -42095.649    93.889605    221.43531 
   19550    133.34986    -128.2233    140637.83   -39469.165    2677.0991   -42146.264    94.115505    225.93994 
   19600    131.53105   -155.61904    140622.27   -39507.584    2640.5852    -42148.17    94.402977    222.85827 
   19650    129.46558   -283.02464    140576.95   -39456.035    2599.1193   -42055.154    94.531203    219.35866 
   19700    131.97866   -282.69915    140575.04   -39456.655    2649.5713   -42106.226    94.758728    223.61667 
   19750    130.78957   -304.61268    140487.67   -39450.495    2625.6994   -42076.194    95.117609    221.60195 
   19800    129.72133    -324.5567    140466.82    -39482.62    2604.2538   -42086.874     95.37901      219.792 
   19850    132.26172    -327.4618    140394.39   -39455.157     2655.254   -42110.411    95.594137    224.09627 
   19900    132.72929   -406.37343    140402.38   -39400.603    2664.6407   -42065.244    95.785103    224.88849 
   19950    133.87861   -112.93112     140344.5   -39368.187    2687.7142   -42055.901    96.114101    226.83583 
   20000    134.19934   -208.68646    140285.06   -39348.378    2694.1532   -42042.531    96.383301    227.37926 
   20050    134.60976   -313.89977       140256   -39300.722    2702.3926   -42003.114    96.826081    228.07465 
   20100    133.76079   -99.279618    140207.73   -39334.765    2685.3489   -42020.114    96.824906     226.6362 
   20150     135.3283    -100.2223    140218.37   -39365.362    2716.8179    -42082.18    97.136532     229.2921 
   20200    132.83145   -92.924305    140210.83   -39354.235    2666.6917   -42020.927    97.206445    225.06159 
   20250    132.60199   -383.76381    140174.62   -39412.332    2662.0852   -42074.417    97.350786    224.67281 
   20300    132.23603   -249.70957    140159.74   -39423.631    2654.7382    -42078.37    97.592536    224.05274 
   20350    127.65303   -195.54351    140173.01   -39408.838     2562.731   -41971.569    97.610651    216.28758 
   20400    130.31172   -165.93287    140173.59   -39380.903    2616.1063    -41997.01    97.615093    220.79232 
   20450    133.41243    -22.66228    140205.61    -39343.84    2678.3554   -42022.195    97.818557    226.04597 
   20500    133.11645   -205.64508    140226.16    -39338.98    2672.4134   -42011.393       98.141    225.54448 
   20550    129.82235   -235.53589    140265.59   -39338.657    2606.2817   -41944.939    98.577916    219.96315 
   20600    131.87093   -269.97777    140319.86   -39361.549    2647.4086   -42008.957     98.96336    223.43415 
   20650    133.04605    54.797108    140358.73   -39311.976         2671   -41982.976    99.116996    225.42519 
   20700     129.5244   -298.30105    140391.16    -39352.83    2600.3003    -41953.13    99.493445    219.45833 
   20750    131.89378   -279.55395    140324.09   -39336.159    2647.8673   -41984.026    99.808983    223.47286 
   20800    131.41101   -118.91976    140317.51   -39326.767    2638.1753   -41964.942    100.22879    222.65488 
   20850    132.26707   -407.50323    140345.17   -39361.706    2655.3614   -42017.068    100.67499    224.10534 
   20900    132.85544   -212.51246    140287.28   -39295.684    2667.1734   -41962.858    101.15154    225.10224 
   20950    131.97475   -134.39181    140340.81   -39294.678    2649.4929   -41944.171    101.42864    223.61005 
   21000     132.3854   -43.401793    140332.06    -39351.37    2657.7369   -42009.107    101.72209    224.30582 
   21050    133.75231   -250.32258     140389.1   -39329.028    2685.1787   -42014.207    102.17263    226.62184 
   21100    134.81569    86.226744    140494.82   -39305.998    2706.5269   -42012.525    102.36254    228.42357 
   21150    132.01254   -39.843842    140596.84   -39311.578    2650.2514    -41961.83    102.47888    223.67407 
   21200    135.03476   -85.053553    140627.72   -39308.773    2710.9248   -42019.698    102.83233    228.79474 
   21250    134.24276   -272.81063    140635.81   -39336.757    2695.0248   -42031.782    102.97055    227.45282 
   21300    135.30337    -240.6023    140643.52   -39358.527    2716.3175   -42074.844    103.30928    229.24987 
   21350    134.00349   -42.107647    140743.63   -39348.977    2690.2214   -42039.199    103.45143    227.04743 
   21400     132.4934   -139.93719     140779.4   -39340.096    2659.9052   -42000.001    103.84875    224.48882 
   21450    132.15579   -364.54464    140673.83   -39368.697    2653.1275   -42021.824    104.04545     223.9168 
   21500    133.29146   -384.06575    140663.98   -39354.572    2675.9267   -42030.499    104.40917      225.841 
   21550    131.64109    -243.1727    140618.96   -39339.261    2642.7944   -41982.056    104.78641    223.04472 
   21600    133.53576   -421.87376    140653.78   -39323.382    2680.8313   -42004.213    105.17895    226.25493 
   21650    130.83208   -196.83305     140595.6   -39372.683    2626.5529   -41999.236    105.59934    221.67398 
   21700    130.93896   -142.41423     140641.6   -39367.927    2628.6986   -41996.625    105.75598    221.85507 
   21750    134.10981   -389.74015    140660.79   -39323.178    2692.3559   -42015.534    105.94514    227.22757 
   21800    134.42943    -31.54278    140663.46    -39293.26    2698.7723   -41992.033    106.05054    227.76911 
   21850    132.94208   -407.07554     140644.4   -39325.472    2668.9128   -41994.384    106.50926    225.24904 
   21900     135.4791   -231.90459    140568.78   -39313.963    2719.8453   -42033.809    106.72069    229.54761 
   21950    132.46405    11.207112    140616.01   -39338.659    2659.3159   -41997.975    106.96741    224.43909 
   22000    133.06586    -244.8815    140602.73   -39305.745    2671.3978   -41977.142    107.27401    225.45877 
   22050    133.53576   -207.88155    140583.49   -39306.525    2680.8313   -41987.356     107.5001    226.25493 
   22100    134.40192   -162.90201    140594.83   -39310.143    2698.2201   -42008.363    107.64017     227.7225 
   22150    130.33485   -475.57813    140565.68    -39297.72    2616.5706   -41914.291    107.93829     220.8315 
   22200     133.3642   -168.99616     140503.7   -39305.558    2677.3871   -41982.945    108.26155    225.96425 
   22250    134.18607   -282.84176     140468.8   -39354.485    2693.8868   -42048.372     108.5485    227.35678 
   22300    132.99512   -137.24641    140472.51   -39377.946    2669.9776   -42047.924    108.99543     225.3389 
   22350    132.78549   -184.26399     140522.9   -39428.879     2665.769   -42094.648    109.09986    224.98372 
   22400    133.89401   -50.410971    140544.75   -39455.605    2688.0233   -42143.628    109.60542    226.86192 
   22450    134.71603   -142.46539    140562.23   -39442.814    2704.5261    -42147.34    109.94245    228.25471 
   22500    130.61851   -248.96815    140530.99   -39436.871    2622.2653   -42059.136    110.46125    221.31211 
   22550    131.47836   -153.38121    140518.61    -39440.27    2639.5275   -42079.797    110.69544      222.769 
   22600    131.83281   -18.919635    140575.31   -39410.266    2646.6432   -42056.909    111.16049    223.36955 
   22650    132.25217   -165.43581    140631.79     -39432.8    2655.0622   -42087.862    111.47612    224.08009 
   22700    130.28456   -37.990389    140770.57   -39428.877     2615.561   -42044.438    111.81694     220.7463 
   22750     133.4447    -476.3506    140785.71   -39447.752    2679.0031   -42126.755    111.78843    226.10064 
   22800    133.63346   -394.06793    140717.44   -39484.868    2682.7927   -42167.661    112.17994    226.42047 
   22850    130.35176   -78.369694    140649.82    -39461.68    2616.9101    -42078.59    112.32039    220.86015 
   22900    133.82551   -63.951052    140698.01   -39466.001    2686.6483   -42152.649    112.64202    226.74587 
   22950    133.15358   -54.650749    140780.26    -39455.37    2673.1587   -42128.529    112.78752    225.60738 
   23000    129.71759     -279.877    140754.92   -39446.943    2604.1787   -42051.122    112.97425    219.78566 
   23050    133.79424   -169.97255    140771.04   -39421.349    2686.0204   -42107.369    113.15269    226.69288 
   23100    134.18929    -158.8963       140752   -39427.685    2693.9513   -42121.636    113.43431    227.36222 
   23150    130.93743   -235.81471    140718.34   -39430.884    2628.6678   -42059.552    113.67026    221.85247 
   23200    134.64059    -239.0839    140707.89   -39394.745    2703.0116   -42097.757    113.78222    228.12688 
   23250    133.15669    -287.5274    140637.47   -39396.431    2673.2211   -42069.653    113.72156    225.61265 
   23300    132.55175   -164.75987    140638.26   -39381.748    2661.0766   -42042.825    113.65229    224.58769 
   23350    131.64332    -178.8167    140550.48   -39425.187     2642.839   -42068.026    113.74902    223.04849 
   23400    133.25414    24.604488    140590.79   -39428.101    2675.1775   -42103.278    113.72468    225.77776 
   23450    132.66882   -272.96936    140605.64   -39406.794    2663.4268   -42070.221    114.14819    224.78604 
   23500    134.90102   -235.49995     140589.8   -39397.631    2708.2399   -42105.871    114.15791    228.56814 
   23550    135.50972   -130.73668    140526.32   -39366.773    2720.4601   -42087.233    114.28086    229.59949 
   23600    135.59548   -14.804164       140595   -39300.921    2722.1818   -42023.103    114.47453     229.7448 
   23650    136.45687   -229.19678    140655.81    -39331.05    2739.4747   -42070.525    114.07336    231.20428 
   23700    136.78526   -136.91725    140619.77   -39314.447    2746.0675   -42060.514    114.23517    231.76069 
   23750    135.03044   -388.81108    140585.33   -39369.506    2710.8382   -42080.345     114.4394    228.78743 
   23800    133.21995   -213.61118    140523.38   -39360.279    2674.4912    -42034.77    114.80093    225.71984 
   23850    133.98125   -229.05505    140496.69   -39363.811    2689.7749   -42053.586     115.0786    227.00975 
   23900    135.33602   -89.936704    140461.87   -39383.602     2716.973   -42100.575    115.42172    229.30519 
   23950    131.96218   -176.91694    140453.39   -39407.856    2649.2405   -42057.097    115.64958    223.58875 
   24000      132.123   -249.43751    140436.17    -39417.89    2652.4692   -42070.359    115.88806    223.86124 
   24050    134.61333   -254.91544    140426.38   -39394.563    2702.4643   -42097.028    116.29447     228.0807 
   24100    133.27252   -210.90552    140434.37     -39400.6    2675.5465   -42076.147    116.61583    225.80891 
   24150    130.01364   -290.09855    140475.16   -39414.166    2610.1222   -42024.288    116.82128    220.28727 
   24200    133.83829   -49.097111    140483.85   -39440.207    2686.9047   -42127.112    117.16489    226.76751 
   24250     132.6528    -214.6333    140570.84   -39446.048    2663.1053   -42109.153     117.2917     224.7589 
   24300    129.86911   -30.786874    140505.68   -39437.164    2607.2205   -42044.384    117.55551    220.04238 
   24350    130.80755   -259.64662    140534.78   -39438.936    2626.0603   -42064.996    117.57947    221.63241 
   24400    132.39987   -215.72056    140483.06   -39432.508    2658.0275   -42090.536    118.01996    224.33035 
   24450     129.5625    125.35692    140526.96   -39393.177    2601.0651   -41994.242     118.2965    219.52288 
   24500    135.08105   -143.82637    140612.82   -39388.666    2711.8542    -42100.52    118.37923    228.87318 
   24550    131.47424   -192.47498    140666.59   -39422.061    2639.4447   -42061.506    118.80498    222.76201 
   24600    131.89632   -259.02865    140732.28   -39404.378    2647.9183   -42052.297    119.05383    223.47716 
   24650    131.32896   -314.78969    140688.32   -39407.268    2636.5282   -42043.796    119.27793    222.51586 
   24700    134.15875   -435.75139    140617.29   -39402.731    2693.3382   -42096.069    119.72687    227.31048 
   24750    132.92068   -153.49495    140588.98   -39358.773    2668.4832   -42027.256    120.06137    225.21278 
   24800    135.99633   -321.17877     140651.3    -39371.55    2730.2292   -42101.779    120.70559    230.42398 
   24850    134.55862   -334.35589    140655.92   -39338.373     2701.366   -42039.739    121.13244      227.988 
   24900    134.95746   -249.06773    140608.94   -39389.116    2709.3731   -42098.489    121.29621    228.66378 
   24950    133.76416   -228.83697    140607.12    -39418.34    2685.4165   -42103.756    121.84455    226.64191 
   25000    133.06289   -40.887212    140623.52   -39394.599     2671.338   -42065.937    122.06027    225.45372 
   25050    134.01091   -305.96557    140659.44   -39348.213    2690.3702   -42038.583    122.39043    227.05999 
   25100     132.9664   -425.54513    140602.23   -39382.609     2669.401    -42052.01    122.71323    225.29024 
   25150    134.15357   -284.78709    140539.94   -39405.192    2693.2343   -42098.426    122.91027    227.30171 
   25200    133.84752   -365.24786    140652.83   -39376.196    2687.0902   -42063.286    122.87769    226.78316 
   25250    133.77433   -340.15408    140700.32   -39381.227    2685.6208   -42066.848     122.8227    226.65915 
   25300    134.41278   -256.79895    140695.26   -39362.247    2698.4381   -42060.685    122.98679     227.7409 
   25350    133.24102   -469.32968    140708.87   -39304.693    2674.9142   -41979.607    123.31591    225.75554 
   25400    134.18663   -335.50588    140615.96   -39304.666    2693.8979   -41998.564    123.63455    227.35772 
   25450    131.22288    -361.2408    140534.92   -39385.885    2634.3985   -42020.284    123.89677    222.33613 
   25500    134.00185    -294.4848    140449.83   -39350.558    2690.1884   -42040.746    124.41477    227.04464 
   25550    132.99878   -224.15394    140446.38   -39351.192    2670.0511   -42021.243     124.9296    225.34511 
   25600    132.05002   -160.45425       140393   -39328.033     2651.004   -41979.037    125.29145    223.73759 
   25650    133.54496   -139.40084    140420.17   -39364.816    2681.0161   -42045.832    125.75621    226.27052 
   25700    133.91556   -423.13597    140471.11   -39382.087     2688.456   -42070.543    125.90622    226.89844 
   25750    133.04314   -418.84772    140461.89   -39426.853    2670.9415   -42097.795    126.33324    225.42026 
   25800    130.86141   -18.483705    140457.33   -39390.918    2627.1416   -42018.059    126.46511    221.72366 
   25850    133.56199   -286.03691    140474.64    -39419.46    2681.3578   -42100.817    126.50301    226.29936 
   25900    130.93876   -188.55174    140471.29   -39448.805    2628.6945   -42077.499    126.73963    221.85473 
   25950     131.1048   -300.40125    140446.09   -39453.264    2632.0279   -42085.292    126.79864    222.13605 
   26000    129.43122   -298.83828    140348.26   -39510.698    2598.4295   -42109.127    126.45155    219.30044 
   26050    131.22921   -316.02246    140256.24   -39494.182    2634.5256   -42128.708    126.65976    222.34685 
   26100     133.3879   -66.773465    140280.72   -39443.446    2677.8628   -42121.309    127.09869     226.0044 
   26150    131.16406   -147.56857     140350.3   -39477.352    2633.2175    -42110.57    127.19573    222.23646 
   26200    130.76049    41.896198    140369.69   -39493.284    2625.1156   -42118.399    127.10292    221.55268 
   26250    132.91503   -139.36881     140442.1   -39482.085    2668.3697   -42150.455    127.24966    225.20321 
   26300    130.63192   -225.35371    140453.15   -39464.875    2622.5345    -42087.41     127.3696    221.33484 
   26350    133.40007   -191.68371    140465.91   -39452.912    2678.1072   -42131.019     127.6938    226.02502 
   26400    130.18689   -387.66937    140520.09    -39455.47    2613.6002   -42069.071    127.94223     220.5808 
   26450    130.36898    -446.0408    140610.28   -39470.719    2617.2558   -42087.975    128.22062    220.88933 
   26500    131.95073   -333.62041    140604.18   -39502.364    2649.0106   -42151.375     128.2063    223.56935 
   26550    131.50414   -325.35002    140526.97    -39469.08     2640.045   -42109.125    128.42363    222.81268 
   26600     129.4752    35.015183    140538.16   -39442.004    2599.3124   -42041.316    128.28798    219.37495 
   26650    133.03107   -260.14934    140594.45   -39415.055    2670.6992   -42085.755    128.92915    225.39981 
   26700    132.01098   -249.54013    140594.68   -39433.733    2650.2201   -42083.954     129.2696    223.67143 
   26750    132.31773   -132.11608    140662.02   -39424.709    2656.3785   -42081.088    129.53097    224.19118 
   26800    135.17358   -330.68892    140648.49   -39396.656    2713.7117   -42110.368    130.09835    229.02995 
   26850    133.47975   -237.69573    140720.27   -39375.418    2679.7069   -42055.125    130.43411    226.16003 
   26900    134.79334   -336.78976     140741.2   -39410.513    2706.0781   -42116.591    131.03429    228.38569 
   26950    133.47598    -401.4512    140698.06    -39399.99    2679.6311   -42079.621    131.36099    226.15364 
   27000    132.68461   -288.65079    140638.01    -39352.76    2663.7437   -42016.504    131.67538    224.81279 
   27050    131.74838   -193.52834     140610.1   -39358.066    2644.9484   -42003.015    131.86625    223.22651 
   27100    134.67767   -215.30732    140608.86   -39325.084    2703.7559    -42028.84    131.88981    228.18971 
   27150    133.62729   -278.41483    140654.09   -39351.421    2682.6689   -42034.089      132.419    226.41002 
   27200    134.45332   -72.038638    140675.73   -39400.359    2699.2521   -42099.612    132.34821    227.80959 
   27250    131.80325   -73.928143    140744.58   -39414.257    2646.0498   -42060.306    132.60113    223.31946 
   27300    133.97367   -451.25155    140750.21   -39456.925    2689.6226   -42146.548    132.82058    226.99689 
   27350    131.49383   -150.84496    140716.74   -39419.559     2639.838   -42059.397    132.77747    222.79521 
   27400    131.23209   -294.29835    140705.23   -39410.049    2634.5833   -42044.632    132.99422    222.35172 
   27450    133.23105   -302.42948    140621.03   -39394.428    2674.7141   -42069.142    133.07081    225.73865 
   27500    131.44324   -264.31472    140618.64   -39380.748    2638.8223    -42019.57     133.2786    222.70949 
   27550    131.23589    -31.73374    140648.22     -39389.9    2634.6597    -42024.56    133.60584    222.35817 
   27600     132.8447   -168.91683       140661   -39359.514    2666.9577   -42026.471    133.69543    225.08404 
   27650    130.60929    -292.6788    140608.49   -39415.175    2622.0802   -42037.256    133.75451     221.2965 
   27700    130.88142   -112.83654    140672.29   -39404.165    2627.5435   -42031.708    133.86814    221.75758 
   27750    134.72264   -174.72293    140716.07   -39343.961    2704.6588    -42048.62      133.937    228.26591 
   27800     135.2315   -5.6183968    140758.35    -39368.31    2714.8746   -42083.185    133.90795    229.12809 
   27850    129.01324   -264.13841    140764.83   -39390.599    2590.0383   -41980.638    134.12838    218.59225 
   27900    132.06819   -294.96188    140757.68   -39401.215    2651.3688   -42052.584    134.30883    223.76837 
   27950    133.14329   -327.12808    140796.22     -39430.1    2672.9521   -42103.052    134.40377    225.58995 
   28000    130.33856   -227.77633    140764.86   -39380.618    2616.6452   -41997.264    134.60708    220.83779 
   28050    132.35279   -206.32489    140677.71   -39458.991    2657.0822   -42116.073    134.55566    224.25057 
   28100    132.99967   -322.72898    140641.42   -39428.979     2670.069   -42099.048    134.51893    225.34662 
   28150    132.50402     8.845799    140796.02   -39366.957    2660.1182   -42027.075     134.6708     224.5068 
   28200    135.66676   -337.78899    140825.04   -39360.394    2723.6127   -42084.006    134.81642    229.86556 
   28250    130.51377   -97.446472    140831.06   -39362.103    2620.1625   -41982.265    135.02398    221.13464 
   28300    135.27896   -202.31321    140807.53   -39348.651    2715.8274   -42064.478    135.09646     229.2085 
   28350    131.76526   -212.15301     140753.3   -39379.931    2645.2872   -42025.218    135.62861     223.2551 
   28400    132.54477   -237.82898     140689.6   -39401.241    2660.9365   -42062.177    135.77187    224.57586 
   28450    134.88682   -160.61164    140768.32   -39350.954    2707.9549   -42058.909    136.11331    228.54409 
   28500    134.66115   -55.562943    140941.02   -39361.442    2703.4243   -42064.866    136.37491    228.16172 
   28550    134.61177   -234.07787    140957.64   -39322.918     2702.433   -42025.351    136.59279    228.07806 
   28600    132.81009   -327.18546    140999.39   -39325.933    2666.2628   -41992.196    136.88439    225.02539 
   28650    132.64849   -251.45013    140960.85   -39353.563    2663.0187   -42016.582    137.17435     224.7516 
   28700    135.40415    -236.6673       140980   -39345.084    2718.3406   -42063.424    137.63649    229.42061 
   28750    134.54056   -297.67183    140991.58   -39332.842    2701.0035   -42033.845    137.91111    227.95741 
   28800     134.8088   -245.60678    140993.51   -39312.217    2706.3885   -42018.606    138.26408    228.41189 
   28850    135.63025   -124.80376    141042.95   -39297.429    2722.8798   -42020.308    138.65312    229.80371 
   28900    134.14479   -246.36623    141078.35    -39340.71    2693.0581   -42033.768    139.04832    227.28684 
   28950    137.96211   -203.40982     141084.5   -39299.673    2769.6936   -42069.366    139.26867    233.75467 
   29000     135.0067   -279.52989    141001.46   -39308.569    2710.3616   -42018.931    139.47407    228.74721 
   29050    132.39004   -167.28874    140972.39   -39366.139      2657.83   -42023.969    139.51777    224.31369 
   29100     133.6424   -226.59478    140963.59   -39371.682    2682.9722   -42054.654     140.1165    226.43561 
   29150    135.71519   -64.421653    140988.95    -39422.72     2724.585   -42147.305    140.26324    229.94763 
   29200    133.90758   -149.58415    140940.08   -39383.904    2688.2959     -42072.2     140.3494    226.88492 
   29250    133.58068   -279.08902    140912.75   -39362.641    2681.7331   -42044.374     140.9601    226.33104 
   29300    133.36143   -168.59831    140862.95   -39417.384    2677.3314   -42094.715    140.99222    225.95955 
   29350    134.23179   -180.10732    140818.16   -39393.607    2694.8045   -42088.411    140.92204    227.43423 
   29400    131.99646    21.473577    140870.74   -39437.916    2649.9286   -42087.844    141.01121    223.64683 
   29450    133.86811    -227.9622    140865.24    -39418.93    2687.5035   -42106.434    141.21983    226.81805 
   29500    133.33787    -146.3369     140765.3    -39421.58    2676.8586   -42098.438    141.20908    225.91964 
   29550    134.34211   -247.15196    140742.64   -39407.342    2697.0193   -42104.362    141.20487    227.62115 
   29600    133.79789   -164.95664     140736.3   -39343.201    2686.0938   -42029.295    141.58481    226.69907 
   29650    134.48183   -215.57506    140772.23   -39354.194    2699.8244   -42054.018     141.9764     227.8579 
   29700     133.7007   -73.506547       140784   -39337.134    2684.1426   -42021.276    142.20167    226.53439 
   29750    135.37747   -436.20847    140795.58   -39341.637     2717.805   -42059.442    142.16242    229.37541 
   29800    133.84949   -368.00045    140797.79   -39347.327    2687.1297   -42034.457    142.36056     226.7865 
   29850    134.11378   -338.22353    140844.37   -39369.756    2692.4354   -42062.192    142.42598    227.23428 
   29900    133.27448   -223.16979    140856.89    -39405.94    2675.5858   -42081.526    142.61125    225.81222 
   29950     132.7429    77.904009    140882.59   -39398.775    2664.9141   -42063.689    142.63353    224.91156 
   30000    137.05139   -379.49426    140915.44   -39372.064    2751.4102   -42123.474    142.71282     232.2116 
   30050    134.70553    -183.8535    140862.82   -39397.053    2704.3154   -42101.368    142.80965    228.23693 
   30100    134.56958   -170.21389    140834.62   -39456.511     2701.586   -42158.097     142.7753    228.00657 
   30150    132.55472   -212.55994     140781.7   -39516.918    2661.1361   -42178.054    142.76242    224.59271 
   30200    132.42585    -277.3893    140784.73    -39532.53     2658.549   -42191.079    143.11407    224.37436 
   30250    134.95875   -125.79512    140812.36   -39477.654    2709.3989   -42187.053    143.21349    228.66596 
   30300    134.66094   -41.605271    140843.31    -39492.15    2703.4201    -42195.57    143.20433    228.16136 
   30350    133.47057   -237.70507    140823.72   -39512.113    2679.5226   -42191.636    143.54178    226.14448 
   30400    133.90503   -222.96284    140767.11    -39496.09    2688.2447   -42184.334    143.72289     226.8806 
   30450    131.98254   -27.807453    140842.45   -39500.739    2649.6493   -42150.389    143.58443    223.62325 
   30500    134.65924    23.292062     140940.6     -39469.7    2703.3859   -42173.086    144.09265    228.15848 
   30550    131.98891   -351.84732    140931.63   -39511.061    2649.7771   -42160.838    144.49918    223.63404 
   30600    131.30251    -252.5554    141003.16   -39506.727     2635.997   -42142.724    144.78143    222.47104 
   30650     133.3741   -133.28788    140933.63   -39482.739    2677.5858   -42160.325    145.05466    225.98102 
   30700     132.0462   -286.75775    140909.87   -39489.227    2650.9273   -42140.155    145.59339    223.73112 
   30750    132.71413   -110.14677    140889.53   -39420.257    2664.3364   -42084.593    145.53142     224.8628 
   30800    132.91376   -115.56556    140981.51   -39459.083    2668.3442   -42127.428    145.86857    225.20105 
   30850    134.87482   -13.731099    140966.74    -39413.86    2707.7139   -42121.574    146.26746    228.52375 
   30900    135.14796   -144.43116    140922.78   -39387.088    2713.1974   -42100.285    146.50986    228.98654 
   30950    133.44541   -63.006406    140906.46   -39383.647    2679.0175   -42062.664    146.57965    226.10185 
   31000    133.79075   -48.900138    140927.68   -39372.531    2685.9503   -42058.481    146.56148    226.68696 
   31050    133.90479    97.137927    141068.49   -39367.423    2688.2398   -42055.662     146.9325    226.88018 
   31100      133.741   -241.73534    141127.52   -39395.726    2684.9516   -42080.678    147.20585    226.60267 
   31150    132.18141   -202.78018    141064.85   -39425.791    2653.6417   -42079.433    147.44741     223.9602 
   31200    132.46061   -308.86303    141031.85   -39350.914    2659.2469   -42010.161    147.72375    224.43326 
   31250    136.06607   -293.59895    140969.52   -39327.134    2731.6292   -42058.763    148.09825    230.54214 
   31300    133.54982   -277.68534    141006.15   -39402.887    2681.1136   -42084.001    148.37242    226.27875 
   31350    133.09385    -463.5842     141027.8   -39393.146    2671.9597   -42065.106    148.76899    225.50619 
   31400    134.92394   -270.61664    141021.35   -39414.715    2708.7001   -42123.415    149.01411    228.60698 
   31450    131.45069   -57.248809    141039.94   -39383.702    2638.9719   -42022.674    149.25273    222.72211 
   31500    135.51591   -342.88307    141079.39   -39345.074    2720.5843   -42065.658    149.43429    229.60998 
   31550    135.41536   -112.67069    141074.82   -39359.316    2718.5658   -42077.882    149.60338    229.43962 
   31600    133.68722   -245.76817    141030.27   -39393.428     2683.872     -42077.3    150.19728    226.51156 
   31650    129.71216   -153.32069    140988.68   -39451.049    2604.0696   -42055.118    150.58212    219.77645 
   31700    129.15755   -162.40944    140942.49   -39498.086    2592.9354   -42091.021    150.76979    218.83676 
   31750    133.95688    -134.6337    140899.78   -39491.955    2689.2855    -42181.24    151.29374    226.96844 
   31800    131.19372   -17.020964    140865.06   -39535.079    2633.8131   -42168.892    151.54864    222.28672 
   31850    129.16776   -13.591995    140979.51   -39599.141    2593.1403   -42192.282    151.95237    218.85405 
   31900    130.91039   -50.717632       140988   -39533.435    2628.1249    -42161.56    151.67529    221.80665 
   31950    132.95858   -255.67211    141130.34   -39463.562     2669.244   -42132.806    152.03049      225.277 
   32000    135.65687   -233.07017    141107.45   -39485.928    2723.4141   -42209.343    152.17726    229.84881 
   32050    134.52006   -196.92714    141219.84   -39424.226     2700.592   -42124.818    152.11613    227.92268 
   32100     132.0768   -46.847856    141320.75   -39448.457    2651.5416   -42099.998    152.33373    223.78295 
   32150    131.62065   -46.125564    141320.38   -39474.341     2642.384   -42116.725    152.49446    223.01008 
   32200    132.77701   -180.52965    141315.85   -39493.139    2665.5987   -42158.738    152.79094    224.96934 
   32250    131.59161   -300.85128    141263.47   -39518.482     2641.801   -42160.283    152.69063    222.96088 
   32300    132.78069    -317.2298    141185.52    -39536.52    2665.6728   -42202.193    153.01275    224.97559 
   32350    131.89864    -228.8362    141094.42   -39495.737     2647.965   -42143.702    153.07931     223.4811 
   32400    132.75949   -255.23258    141064.12   -39482.628    2665.2471   -42147.875    153.18522    224.93967 
   32450    134.93211   -239.90899    141025.48   -39458.176     2708.864    -42167.04    153.34129    228.62081 
   32500    129.62023   -395.10464    140957.33   -39503.555    2602.2241   -42105.779    153.46658    219.62069 
   32550    131.49928   -203.55762    140905.82   -39464.507    2639.9473   -42104.454    153.90242    222.80443 
   32600    132.29535   -150.80013    140971.23   -39477.601    2655.9292    -42133.53    154.37011    224.15326 
   32650    132.42493   -251.15308    140997.67   -39408.146    2658.5305   -42066.676     154.7716     224.3728 
   32700    133.36589   -139.79626    140977.87   -39408.879    2677.4211     -42086.3    154.90207    225.96712 
   32750    133.36231   -344.03352       140947   -39444.571    2677.3492    -42121.92    155.08073    225.96105 
   32800    134.06661    -372.6941    140821.53    -39445.12    2691.4885   -42136.608    155.08145    227.15437 
   32850    132.95374   -340.52111    140754.55   -39525.699    2669.1467   -42194.845    155.16294    225.26878 
   32900    133.48811   -187.98809    140701.38    -39475.79    2679.8747   -42155.665    155.54161     226.1742 
   32950    130.77329    2.7067377    140719.75   -39501.402    2625.3727   -42126.775    156.05183    221.57437 
   33000     132.6759   -225.68078     140755.7   -39490.065    2663.5689   -42153.634    156.22339    224.79803 
   33050    130.53963   -261.81794    140723.77   -39530.583    2620.6818   -42151.265    156.67001    221.17848 
   33100      130.413   -203.20255    140708.98   -39546.159    2618.1395   -42164.298     157.1571    220.96391 
   33150    132.76208   -123.54368    140752.87   -39515.912    2665.2992   -42181.211    157.18451    224.94406 
   33200     133.2336   -22.988464    140802.71   -39465.342    2674.7652   -42140.107    157.27027    225.74297 
   33250    132.12693   -159.98284     140847.5   -39468.294    2652.5479   -42120.842    157.53966    223.86789 
   33300    132.34728    -313.9566    140819.55   -39438.797    2656.9717   -42095.768    157.92908    224.24124 
   33350    132.39459    -212.8128    140808.41    -39449.17    2657.9215   -42107.092    158.01556    224.32141 
   33400    133.31932   -295.74081    140777.54   -39439.621    2676.4862   -42116.107    158.35848    225.88821 
   33450     133.7824   -152.24495    140825.24   -39454.454    2685.7827   -42140.237    158.55952    226.67282 
   33500    136.49996   -186.27962    140815.38    -39452.76    2740.3398     -42193.1    158.88152    231.27728 
   33550    130.07762   -47.887024    140876.81   -39447.022    2611.4066   -42058.428    159.04702    220.39567 
   33600    132.31435   -92.800663    140895.53   -39429.683    2656.3105   -42085.994    159.16663    224.18544 
   33650     136.0879   -62.003358    140960.09   -39407.781    2732.0674   -42139.849    158.85935    230.57912 
   33700    130.60207   -126.94033    140965.57   -39485.789    2621.9353   -42107.724     158.6223    221.28427 
   33750    130.19426   -287.88744    140959.26    -39518.38    2613.7481   -42132.128     158.8735    220.59329 
   33800    130.32239   -1.8042234    140930.09   -39485.028    2616.3206   -42101.348    158.84551     220.8104 
   33850    131.80952   -251.20063     140990.5   -39523.851    2646.1758   -42170.026    159.07094     223.3301 
   33900    131.70426   -228.85064    141011.76   -39500.435    2644.0625   -42144.498    159.20147    223.15174 
   33950    133.93892   -200.03592     141017.2   -39467.765    2688.9251    -42156.69     159.4931    226.93803 
[...]
   92000    134.26892   -369.01202    140795.55    -39368.37    2695.5501    -42063.92    401.76071    227.49715 
   92050    134.53714    -148.5867    140762.06   -39417.094    2700.9348   -42118.029    401.57522    227.95161 
   92100    133.38478   -210.21237    140747.65     -39398.4    2677.8002     -42076.2    401.66893    225.99911 
   92150    132.79088   -252.70941    140741.25   -39408.822    2665.8773     -42074.7    401.49113    224.99285 
   92200    133.12173   -398.98758     140670.3   -39410.018    2672.5194   -42082.538    401.71454    225.55343 
   92250    130.44965   -337.45311    140547.07   -39463.958    2618.8753   -42082.834    402.21494    221.02601 
   92300    128.66549    -320.7426    140484.44   -39462.668    2583.0569   -42045.725    402.28711    218.00303 
   92350    132.35814   -245.87672    140414.11   -39422.944    2657.1896   -42080.134     402.4847    224.25964 
   92400    131.63478   -203.96364       140352   -39441.567    2642.6676   -42084.234    403.03497    223.03402 
   92450     132.5737   -37.924079     140405.1   -39411.918    2661.5173   -42073.435    403.63146    224.62488 
   92500    132.18122   -71.753426    140438.43   -39376.907    2653.6379   -42030.545    403.84366    223.95988 
   92550    131.80535   -183.86214    140432.19   -39399.173     2646.092   -42045.265    403.80923    223.32302 
   92600    135.69829   -33.395075     140482.7    -39405.94    2724.2457   -42130.185    403.94287    229.91899 
   92650    133.02889   -227.85406    140507.09   -39411.848    2670.6555   -42082.503    404.16201    225.39612 
   92700    132.55842   -116.40987    140525.79   -39404.821    2661.2104   -42066.031    404.09857    224.59898 
   92750    133.04494   -316.15266    140534.49   -39398.339    2670.9777   -42069.316    404.50059    225.42331 
   92800    132.05072   -186.50118    140486.93   -39383.537    2651.0179   -42034.555    404.30633    223.73876 
   92850    134.22188   -182.99102    140443.39   -39400.838    2694.6057   -42095.444    404.35828    227.41745 
   92900    135.50291   -183.66348    140497.46   -39348.371    2720.3234   -42068.694    404.59147    229.58796 
   92950    134.20869   -6.9312794    140559.03    -39349.74    2694.3408   -42044.081    404.49508     227.3951 
   93000    135.20904   -72.432221    140578.12   -39383.128    2714.4237   -42097.552    405.01091    229.09004 
   93050    133.49537   -11.673382    140621.05    -39377.82    2680.0204    -42057.84    405.25572    226.18649 
   93100    135.65444   -168.99595    140658.01    -39357.77    2723.3654   -42081.136    405.33992    229.84469 
   93150    133.19228   -46.850734    140668.13   -39348.942    2673.9356   -42022.878     405.6364    225.67295 
   93200    133.42555   -281.31128       140737   -39387.711    2678.6188    -42066.33    405.66379     226.0682 
   93250    132.11809   -306.45299    140733.05    -39393.77    2652.3706   -42046.141    405.71675    223.85292 
   93300    130.97281   -182.64224    140679.43   -39363.972     2629.378    -41993.35    405.73967    221.91241 
   93350     133.9195    94.590973    140673.71   -39327.151    2688.5352   -42015.686    405.96415    226.90512 
   93400    129.46897   -18.070574    140790.77   -39424.631    2599.1874   -42023.819    405.98154    219.36441 
   93450    130.96022   -301.17492     140728.1   -39493.891    2629.1254   -42123.016     405.8258    221.89109 
   93500    131.92473   -81.740033    140697.58   -39471.302    2648.4887   -42119.791    406.11161     223.5253 
   93550    131.93295   -84.600516    140739.16   -39448.996    2648.6537    -42097.65    406.46457    223.53922 
   93600    131.09502   -187.52777     140807.1    -39401.34    2631.8315   -42033.171    406.69608    222.11948 
   93650    133.44705   -48.820084    140803.37   -39355.355    2679.0504   -42034.406    407.25387    226.10462 
   93700    133.98176   -128.97699    140788.94   -39374.195    2689.7851    -42063.98    407.54704    227.01061 
   93750    131.18597   -253.78089     140786.6   -39399.606    2633.6574   -42033.263     407.7027    222.27358 
   93800    136.77193   -113.56071     140806.3   -39341.059    2745.7999   -42086.859    407.90744     231.7381 
   93850    131.73619   -384.40112    140726.58    -39362.75    2644.7036   -42007.453    408.04741    223.20585 
   93900    132.25594    -229.7712    140712.53   -39389.077     2655.138   -42044.215    407.93049    224.08648 
   93950    133.24434   -381.33387     140691.6   -39366.444    2674.9808   -42041.424    408.36243    225.76116 
   94000    133.54346   -171.97104    140657.38   -39325.523    2680.9858   -42006.509    408.79474    226.26797 
   94050    131.92096   -24.018489    140645.41   -39322.319    2648.4129   -41970.732    408.41937    223.51891 
   94100    135.15299   -265.15812    140621.26   -39345.853    2713.2985   -42059.151    408.23628    228.99507 
   94150    134.20123   -171.42769    140615.69   -39328.835     2694.191   -42023.026    408.39326    227.38246 
   94200    136.56103   -167.50705    140597.54   -39372.209    2741.5658   -42113.775    408.43421    231.38076 
   94250    131.88173   -342.92171       140647   -39378.444    2647.6254   -42026.069    408.40713    223.45244 
   94300    132.70545   -285.94027    140593.36   -39341.445    2664.1622   -42005.607    408.55982     224.8481 
   94350    132.96863   -281.92088    140591.06   -39338.749    2669.4457   -42008.194     408.2754    225.29402 
   94400    132.61758   -24.098179    140577.26   -39388.457     2662.398   -42050.855    408.20015    224.69921 
   94450    134.04563    -222.1508    140647.02   -39399.889    2691.0672   -42090.956    408.53891    227.11881 
   94500    133.89482   -86.430248    140689.72   -39320.154    2688.0397   -42008.194    408.48133     226.8633 
   94550     133.0116   -270.22537     140687.2   -39337.588    2670.3085   -42007.897    408.61194    225.36683 
   94600    134.83627   -286.59728    140679.56   -39324.735      2706.94   -42031.675     408.8922    228.45844 
   94650    130.67732   -298.68582    140662.81   -39391.396     2623.446   -42014.842     408.9285    221.41176 
   94700    134.29645   -239.98474    140634.28    -39332.62    2696.1028   -42028.723    408.34401     227.5438 
   94750    134.24074   -341.68781    140679.33   -39288.145    2694.9844   -41983.129    409.08134    227.44941 
   94800    136.58982   -123.44094    140680.47   -39268.023    2742.1439   -42010.167     409.3884    231.42955 
   94850    134.46832   -311.78893    140695.45   -39307.973    2699.5532   -42007.526    409.53978    227.83501 
   94900    133.19605   -323.96765    140584.79   -39330.054    2674.0114   -42004.065    409.34578    225.67935 
   94950     133.4421   -280.04163    140596.25   -39351.013     2678.951   -42029.964    409.82922    226.09623 
   95000    132.67357   -145.54659    140579.81   -39386.046    2663.5221   -42049.568    410.07979    224.79408 
   95050    131.72947    -33.90775    140625.01   -39402.441    2644.5687   -42047.009     409.8701    223.19446 
   95100    132.29726   -104.60547    140696.69   -39402.471    2655.9675   -42058.439    410.15339    224.15649 
   95150    131.94632   -246.68255    140769.24   -39428.379    2648.9222   -42077.301    409.98948    223.56188 
   95200    130.74116   -273.32544    140788.25   -39453.197    2624.7275   -42077.925    410.10595    221.51992 
   95250    131.93874   -370.05646    140698.69   -39463.285    2648.7699   -42112.055    410.06258    223.54904 
   95300     132.3296   -320.33124    140656.19   -39484.123    2656.6167    -42140.74    410.52125    224.21128 
   95350    133.56782   -183.45074    140684.88   -39485.717     2681.475   -42167.192    410.58161    226.30926 
   95400    131.39962   -362.74451    140704.51   -39483.619    2637.9466   -42121.566    410.90187    222.63558 
   95450    131.14892   -273.70868    140669.11   -39469.175    2632.9136   -42102.088     411.0148    222.21081 
   95500    130.81823   -269.63487    140673.45   -39487.498    2626.2748   -42113.772    410.97404    221.65051 
   95550    131.40067   -102.18711    140610.95    -39503.29    2637.9678   -42141.258    410.87207    222.63737 
   95600    133.29694   -366.63776     140579.3   -39461.949    2676.0368   -42137.986    411.48904    225.85028 
   95650    131.97059   -178.99956    140541.93   -39464.849    2649.4093   -42114.259    411.77894      223.603 
   95700    134.33553   -185.28749    140627.01   -39431.722    2696.8873    -42128.61    412.25642    227.61002 
   95750    131.94934   -339.81097     140651.4   -39463.738    2648.9827   -42112.721    412.13604    223.56699 
   95800    134.89296    -196.3519     140590.5   -39475.957    2708.0782   -42184.035    412.05751    228.55449 
   95850    131.98627   -82.512174    140535.18    -39524.28    2649.7241   -42174.004      412.239    223.62956 
   95900    130.20845   -75.251513    140541.94   -39499.898    2614.0331   -42113.931    412.19159    220.61734 
   95950    131.82321    6.2534627    140613.69   -39510.358    2646.4505   -42156.809    412.48683    223.35328 
   96000    135.14292   -25.720038    140686.62   -39446.797    2713.0963   -42159.893    413.10527    228.97801 
   96050     132.8654    26.774967    140677.12   -39483.256    2667.3733   -42150.629     413.9616    225.11911 
   96100    133.25552   -107.34468    140643.18   -39426.295    2675.2052   -42101.501    414.40344     225.7801 
   96150    132.36044   -40.767156    140636.76   -39381.121    2657.2358   -42038.357    414.82994    224.26353 
   96200    130.80904   -19.566434    140672.18    -39400.43    2626.0902   -42026.521    415.28865    221.63493 
   96250    132.69432    148.94937    140664.29   -39402.365    2663.9387   -42066.304    415.35018    224.82924 
   96300    132.82353   -42.134375    140769.48   -39384.875    2666.5326   -42051.407    415.80682    225.04816 
   96350    133.77264   -163.77069    140820.38   -39406.725    2685.5869   -42092.312    416.14686    226.65629 
   96400    130.70055   -17.916191    140829.26   -39458.482    2623.9122   -42082.394    416.64434    221.45111 
   96450    133.42462   -178.28542    140840.55   -39401.793       2678.6   -42080.393    417.45936    226.06662 
   96500    132.72372   -111.46811     140913.8   -39407.992     2664.529   -42072.521    417.75727    224.87906 
   96550    131.98166   -343.36951    140884.04   -39395.537    2649.6316   -42045.169    417.82872    223.62176 
   96600    133.67079   -175.12307    140853.01   -39417.769    2683.5422   -42101.311    418.19633    226.48372 
   96650    131.55602   -277.06198    140817.51   -39463.165    2641.0866   -42104.252    418.65897    222.90058 
   96700    131.70502   -153.15892    140808.27   -39455.006    2644.0777   -42099.084    418.60112    223.15303 
   96750    132.30246   -217.30383     140783.8   -39438.138    2656.0719   -42094.209    418.90392     224.1653 
   96800    134.17709   -198.70142    140700.51   -39442.793    2693.7065     -42136.5    418.90347    227.34157 
   96850    132.13344   -86.918935    140710.64   -39461.422    2652.6786   -42114.101    419.08151    223.87892 
   96900    132.06476    -173.5307     140724.4   -39475.623    2651.2998   -42126.923    419.15998    223.76255 
   96950    131.93658    -160.3645    140684.35   -39453.387    2648.7266   -42102.114    420.26298    223.54538 
   97000    132.35644   -187.55912    140647.24   -39428.694    2657.1555    -42085.85    420.53275    224.25676 
   97050    133.82122   -229.76726    140640.82   -39458.609    2686.5622   -42145.172     420.6945     226.7386 
   97100    133.30991   -150.39623    140596.45    -39460.95    2676.2972   -42137.248    420.69094    225.87227 
   97150    131.18075   -126.18968    140584.08   -39387.391    2633.5526   -42020.944    420.67246    222.26473 
   97200    135.31409   -425.24702    140567.52   -39430.495    2716.5326   -42147.028    421.16613    229.26802 
   97250    133.90227    -214.9484    140541.38   -39426.906    2688.1892   -42115.095    421.59576    226.87592 
   97300    133.74825   -356.05704    140494.37   -39444.088    2685.0972   -42129.185    422.01068    226.61496 
   97350    134.03903   -374.01006    140501.59   -39377.625    2690.9349    -42068.56     421.6482    227.10765 
   97400    134.56581   -537.01624     140492.9   -39403.494    2701.5103   -42105.004     421.7389    228.00018 
   97450    132.98101   -118.30703    140419.53   -39445.482    2669.6944   -42115.177    422.07259      225.315 
   97500     133.0916   -160.86502     140472.7   -39450.894    2671.9143   -42122.809    421.90566    225.50236 
   97550    132.64434   -165.73418    140477.36   -39453.183    2662.9353   -42116.118    421.78305    224.74456 
   97600    133.89493   -144.80334    140479.57    -39445.06    2688.0419   -42133.102    422.52698    226.86349 
   97650    132.51239   -159.77207    140432.81    -39481.85    2660.2863   -42142.136    422.86122    224.52099 
   97700     131.5235    -222.3622    140481.07   -39534.939    2640.4336   -42175.372    423.21717    222.84547 
   97750    133.30719   -218.28464    140527.37   -39517.827    2676.2426    -42194.07    422.79861    225.86766 
   97800    129.54226   -61.045858    140617.28   -39519.724    2600.6587   -42120.383    422.97992    219.48858 
   97850    132.93788   -11.500189    140635.25   -39504.078    2668.8285   -42172.906    423.08874    225.24192 
   97900     130.5554   -227.02709    140596.21   -39542.577    2620.9984   -42163.575    422.98031    221.20519 
   97950    128.52055   -44.064795    140535.25   -39536.787    2580.1473   -42116.934    423.48504    217.75747 
   98000    130.49917   -8.4938622    140589.84   -39480.653    2619.8695   -42100.522    423.72954    221.10992 
   98050    130.51401   -181.96925    140658.62    -39512.76    2620.1674   -42132.928    424.38583    221.13506 
   98100     132.5292   -1.4209135    140701.19   -39474.773    2660.6238   -42135.397    424.64372    224.54947 
   98150    131.17885   -251.31949    140687.04   -39490.986    2633.5145   -42124.501    425.11568    222.26152 
   98200    132.38188   -149.27107    140715.37   -39483.693    2657.6662    -42141.36    425.24348    224.29986 
   98250    130.05303   -89.928321     140794.6   -39502.472    2610.9129   -42113.385    425.36148    220.35401 
   98300    131.72495   -152.95786    140802.14   -39508.665    2644.4778   -42153.143    426.00528     223.1868 
   98350    130.84447   -265.45997    140783.81    -39480.34    2626.8016   -42107.142    426.36715    221.69497 
   98400    130.56251    89.030842    140778.39   -39493.992    2621.1411   -42115.133    426.54591    221.21724 
   98450    132.38447   -207.31671    140885.48   -39470.364    2657.7183   -42128.083    427.28466    224.30426 
   98500    133.75206   -372.47981    140936.21   -39469.624    2685.1736   -42154.797    427.51849    226.62141 
   98550    135.46338   -192.47366    140882.51   -39441.451    2719.5297   -42160.981    427.92248    229.52097 
   98600    133.82726   -248.10394    140867.29   -39424.897    2686.6833    -42111.58     428.1043    226.74882 
   98650    136.21645   -228.25355    140856.33   -39427.958    2734.6482   -42162.607    428.07968    230.79693 
   98700    131.83769    -22.62547    140863.39   -39415.104    2646.7413   -42061.845    428.36858    223.37782 
   98750    133.20929   -313.75707    140894.78   -39442.036    2674.2772   -42116.313    428.89546    225.70178 
   98800    133.83241   -210.85005    140909.06   -39465.114    2686.7867   -42151.901    429.25176    226.75755 
   98850    132.57179   -243.65942    140885.85   -39453.684    2661.4789   -42115.163    429.28278    224.62164 
   98900    131.81438   -339.62124    140927.23   -39451.471    2646.2734   -42097.744    429.75611    223.33834 
   98950    131.00696    -305.8235    140862.38   -39484.906    2630.0637    -42114.97    429.64821    221.97028 
   99000    132.56115   -300.30288    140786.35   -39457.086    2661.2654   -42118.351    429.97446    224.60362 
   99050    133.59379   -234.11297    140787.78     -39451.3    2681.9964   -42133.296    430.04378    226.35326 
   99100     135.1274    -0.533057    140853.81   -39419.036    2712.7847   -42131.821    429.63322    228.95171 
   99150    132.55349   -92.201591    140978.81   -39437.554    2661.1115   -42098.666    429.95569    224.59063 
   99200    133.20145   -222.98237    140959.48   -39409.446    2674.1198   -42083.566    429.73807     225.6885 
   99250    133.48935   -215.51187    141032.65   -39444.276    2679.8996   -42124.176    429.75821     226.1763 
   99300    134.68148   -261.07019    140979.68   -39452.571    2703.8325   -42156.403    429.49222    228.19617 
   99350    134.86412   -183.20145    140949.06   -39450.898    2707.4992   -42158.397    429.47703    228.50562 
   99400    134.46551   -183.19013    141028.54   -39479.524    2699.4967   -42179.021      430.077    227.83024 
   99450    134.92595   -268.42916    141065.46   -39451.896    2708.7405   -42160.636    429.69089    228.61039 
   99500    132.51896   -432.74997     141055.5   -39458.933    2660.4184   -42119.352    429.74953    224.53213 
   99550    132.36887   -222.02564    140988.09   -39453.936    2657.4051   -42111.341    429.86848    224.27782 
   99600    133.66186   -165.47634    141030.58   -39415.199    2683.3629   -42098.562    429.66666    226.46859 
   99650     132.6089   -404.91285    141015.31   -39422.294    2662.2239   -42084.517    429.97557    224.68451 
   99700    133.32675    -199.9645    140906.56   -39407.453    2676.6352   -42084.088    430.51371    225.90079 
   99750    133.78392    -178.1725    140915.71   -39438.269    2685.8133   -42124.082    430.31602     226.6754 
   99800    133.46674   -408.17356    140855.47   -39424.167    2679.4456   -42103.612    430.84472    226.13798 
   99850    132.78399   -80.539815    140837.34   -39361.592     2665.739   -42027.331    430.75914    224.98118 
   99900    136.72751   -273.63177     140887.8   -39338.089    2744.9081   -42082.997    430.29264    231.66284 
   99950     135.2339   -258.94208    140877.49   -39316.849    2714.9227   -42031.771     430.3505    229.13215 
  100000    131.45591   -359.97635    140827.58   -39417.294    2639.0766    -42056.37    430.98107    222.73095 
Loop time of 303.573 on 40 procs for 100000 steps with 6736 atoms

Performance: 142.305 ns/day, 0.169 hours/ns, 329.410 timesteps/s
99.6% CPU use with 40 MPI tasks x no OpenMP threads

MPI task timing breakdown:
Section |  min time  |  avg time  |  max time  |%varavg| %total
---------------------------------------------------------------
Pair    | 55.938     | 146.63     | 243.79     | 604.1 | 48.30
Neigh   | 1.9721     | 4.1069     | 11.253     | 163.6 |  1.35
Comm    | 36.665     | 113.1      | 165.09     | 418.0 | 37.26
Output  | 0.17332    | 0.17762    | 0.19269    |   0.7 |  0.06
Modify  | 7.8283     | 38.233     | 80.385     | 527.9 | 12.59
Other   |            | 1.325      |            |       |  0.44

Nlocal:    168.4 ave 380 max 111 min
Histogram: 32 0 0 0 0 0 0 0 3 5
Nghost:    1284.45 ave 1638 max 872 min
Histogram: 16 0 0 0 0 0 0 0 16 8
Neighs:    0 ave 0 max 0 min
Histogram: 40 0 0 0 0 0 0 0 0 0
FullNghs:  20252.2 ave 69501 max 7100 min
Histogram: 32 0 0 0 0 0 0 0 0 8

Total # of neighbors = 810088
Ave neighs/atom = 120.262
Neighbor list builds = 6141
Dangerous builds = 0

write_data		${DIR}/data.eq-${NAME}-${TEMP}
write_data		run_5/data.eq-${NAME}-${TEMP}
write_data		run_5/data.eq-het_freeze_5-${TEMP}
write_data		run_5/data.eq-het_freeze_5-225
undump          1

reset_timestep  0

unfix           2
unfix           3
unfix           4


################################################
#######         Run Simulation         #########
################################################

log				${DIR}/log.run_${NAME}
log				run_5/log.run_${NAME}
log				run_5/log.run_het_freeze_5
