
# Create simulation box and atoms

read_data data.ML_graphite_1atm_240K
  orthogonal box = (0 0 3.74403) to (49.22 49.0196 56.318)
  5 by 3 by 6 MPI processor grid
  reading atoms ...
  6328 atoms
  reading velocities ...
  6328 velocities
group water type 1
3568 atoms in group water
group graphite type 2
2760 atoms in group graphite

# Define potential

pair_style sw
pair_coeff * * MLC_e.sw mW C


# Fix graphite atoms in place

fix 5 graphite setforce 0.0 0.0 0.0
velocity graphite set 0.0 0.0 0.0


# Equilibration of molecular water

# Add velocity/set timestep

velocity	    water create ${TEMP} ${SEED} rot yes dist gaussian
velocity	    water create 240 ${SEED} rot yes dist gaussian
velocity	    water create 240 11016 rot yes dist gaussian
timestep	    5.0

# Define output

compute			1 water msd
compute			3 water temp
thermo	    	50
thermo_style	custom step temp press vol etotal ke pe c_1[4] c_3

# Neighbor lists

neigh_modify    delay 0 every 1 check yes

# Set fixes

fix             1 water momentum 10 linear 1 1 1 rescale
fix             2 water nve
fix             3 water temp/csvr ${TEMP} ${TEMP} 500.0 ${SEED}
fix             3 water temp/csvr 240 ${TEMP} 500.0 ${SEED}
fix             3 water temp/csvr 240 240 500.0 ${SEED}
fix             3 water temp/csvr 240 240 500.0 11016
fix             4 water press/berendsen z ${PRES} ${PRES} 1000.0 modulus 20000
fix             4 water press/berendsen z 1 ${PRES} 1000.0 modulus 20000
fix             4 water press/berendsen z 1 1 1000.0 modulus 20000

# Run 0.5 ns equilibration

dump		    1 all atom 2000 ${DIR}/eq.${NAME}-${TEMP}.dump
dump		    1 all atom 2000 run_4/eq.${NAME}-${TEMP}.dump
dump		    1 all atom 2000 run_4/eq.het_freeze_4-${TEMP}.dump
dump		    1 all atom 2000 run_4/eq.het_freeze_4-240.dump

reset_timestep  0

run	            100000
Neighbor list info ...
  update every 1 steps, delay 0 steps, check yes
  max neighbors/atom: 2000, page size: 100000
  master list distance cutoff = 6.67472
  ghost atom cutoff = 6.67472
  binsize = 3.33736, bins = 15 15 16
  1 neighbor lists, perpetual/occasional/extra = 1 0 0
  (1) pair sw, perpetual
      attributes: full, newton on
      pair build: full/bin/atomonly
      stencil: full/bin/3d
      bin: standard
Per MPI rank memory allocation (min/avg/max) = 4.07 | 4.222 | 4.501 Mbytes
Step Temp Press Volume TotEng KinEng PotEng c_1[4] c_3 
       0    135.30583   -58.143592    126847.59   -33960.221    2551.8119   -36512.033            0          240 
      50    137.40515   -292.39701    126917.53   -33965.158    2591.4042   -36556.563   0.51794296    243.72369 
     100    135.95856   -308.47691    126859.73   -33995.249     2564.122   -36559.371   0.90189044    241.15778 
     150    133.00553   -44.911037    126865.43     -34022.6    2508.4291    -36531.03    1.1594742    235.91982 
     200     134.0306   -194.43867    126915.78   -34009.475    2527.7615   -36537.236    1.4562419    237.73804 
     250    135.77874   -370.74827    126873.94   -34012.182    2560.7308   -36572.913    1.7631318    240.83883 
     300    132.40716   -256.53226     126836.9    -34002.99    2497.1442   -36500.135    2.0282627    234.85846 
     350    136.38196   -296.25763    126867.19   -33952.006    2572.1072   -36524.113    2.3211233     241.9088 
     400    137.31352   -294.17917    126918.84   -33869.274    2589.6759    -36458.95    2.6348448    243.56115 
     450    136.77771   -12.203361    126908.19       -33903     2579.571   -36482.571    2.8938843    242.61077 
     500    138.41844   -112.32582    126962.52   -33896.351    2610.5144   -36506.865    3.0975891    245.52102 
     550    135.89258   -249.32097    126970.97   -33887.476    2562.8778   -36450.354    3.2837957    241.04076 
     600    137.52412   -382.71326     127085.3   -33905.752    2593.6479     -36499.4    3.5730561    243.93471 
     650    133.79199   -222.61233    127101.97    -33907.17    2523.2614   -36430.432    3.8155863    237.31481 
     700    133.69848   -179.47213    127150.15   -33922.534    2521.4978   -36444.032     4.051868    237.14894 
     750    137.42942   -294.50532    127188.03   -33911.709    2591.8619   -36503.571    4.3343598    243.76674 
     800     135.9635   -499.94714    127155.37   -33904.841    2564.2153   -36469.056      4.56157    241.16655 
     850    137.19732   -581.21742    126985.18   -33911.964    2587.4845   -36499.448    4.8511298    243.35504 
     900    133.68357   -223.86607    127019.87   -33928.044    2521.2166   -36449.261    5.1262683    237.12249 
     950    132.16686   -283.25558    127064.11    -33946.71    2492.6122   -36439.323    5.3357898    234.43222 
    1000     133.5752   -323.10238     127172.5   -33925.413    2519.1728   -36444.585    5.6030071    236.93027 
    1050    135.08316   -397.59904    127216.96   -33914.311    2547.6124   -36461.923    5.8981797    239.60504 
    1100    135.54559   -252.63227    127180.09    -33922.94    2556.3336   -36479.274     6.206136    240.42527 
    1150    134.05243    21.738821    127199.97   -33924.418    2528.1732   -36452.591    6.4506179    237.77676 
    1200    136.38117   -122.67181    127298.53   -33945.574    2572.0922   -36517.666     6.718036    241.90738 
    1250    136.45303   -336.75022    127384.71   -33933.609    2573.4475   -36507.056    6.9829066    242.03484 
    1300    136.78375   -59.169549    127394.13   -33937.568    2579.6849   -36517.253    7.2992514    242.62148 
    1350    136.40894   -290.03311    127361.62   -33953.463    2572.6161   -36526.079    7.6246213    241.95665 
    1400    137.24502    15.134595    127334.76   -33950.278    2588.3841   -36538.662    7.9989345    243.43965 
    1450    136.48185    8.9277111    127398.46    -33896.46    2573.9911   -36470.451    8.2226143    242.08597 
    1500    137.61858   -130.85304    127427.02    -33912.35    2595.4294   -36507.779    8.3921088    244.10226 
    1550    134.04832   -4.3971601    127541.07   -33945.419    2528.0957   -36473.514    8.6523338    237.76947 
    1600     137.6837   -323.97761    127587.03    -33920.58    2596.6575   -36517.238    8.9203757    244.21777 
    1650    137.29174   -257.68965    127603.51   -33901.294    2589.2652   -36490.559    9.1720872    243.52251 
    1700     134.9551   -174.82992    127620.21   -33886.838    2545.1973   -36432.036    9.4206005    239.37789 
    1750    137.89817   -371.81685    127643.91   -33862.581    2600.7024   -36463.284    9.8129986    244.59819 
    1800    139.03094    -81.38213    127723.43   -33852.669    2622.0659   -36474.735    10.149606    246.60744 
    1850    136.92279   -82.052279    127754.62   -33885.422     2582.307   -36467.729    10.409723     242.8681 
    1900    137.22357   -345.12739    127750.24   -33924.022    2587.9797   -36512.002    10.695402    243.40161 
    1950    137.15842    -505.6886    127682.79   -33954.158    2586.7509   -36540.909     10.89161    243.28604 
    2000    135.71045   -536.61063    127565.19   -33955.639    2559.4428   -36515.082    11.066552    240.71769 
    2050    138.57128    -137.4342    127525.18   -33945.377    2613.3968   -36558.774     11.34349    245.79212 
    2100    137.68958   -401.71041    127498.56    -33937.21    2596.7684   -36533.978    11.593195     244.2282 
    2150    135.30781    -305.5073    127438.03   -33962.753    2551.8493   -36514.602    11.793162    240.00352 
    2200    137.57006   -492.84121    127482.57   -33993.739    2594.5142   -36588.253    11.978888    244.01619 
    2250    135.93587   -64.960077    127416.08   -33976.331     2563.694   -36540.025    12.196337    241.11753 
    2300     134.8248   -248.34406    127427.76   -33983.115    2542.7398   -36525.855    12.425556    239.14677 
    2350    137.14754    75.841027    127391.32   -33956.758    2586.5457   -36543.303    12.684026    243.26674 
    2400    138.10252   -210.97415    127433.66   -33954.934    2604.5563    -36559.49    12.908556    244.96066 
    2450    135.89675   -531.56091    127385.86   -33967.964    2562.9564   -36530.921    13.195211    241.04815 
    2500    136.98006     -58.9171    127377.34   -33956.178    2583.3871   -36539.565    13.578283    242.96968 
    2550    137.16508   -219.37896    127374.91   -33988.901    2586.8765   -36575.778    13.891637    243.29786 
    2600    134.73106   -171.56528    127477.77    -34007.27    2540.9719   -36548.242    14.161304    238.98049 
    2650    137.14384    -319.1779    127519.56   -33960.766     2586.476   -36547.242    14.439459    243.26019 
    2700    137.58589   -81.053064    127552.25   -33954.445    2594.8128   -36549.258    14.736752    244.04427 
    2750    139.16663   -349.66431    127514.45   -33952.222    2624.6249   -36576.847    15.037794    246.84812 
    2800    134.79157   -225.47108    127470.35   -33952.968    2542.1131   -36495.081    15.247239    239.08783 
    2850    139.04715   -414.55535    127385.96   -33894.773    2622.3715   -36517.145    15.430161    246.63619 
    2900    135.40215   -534.09608    127376.01   -33928.083    2553.6285   -36481.711    15.688362    240.17085 
    2950     136.6896   -81.914628    127281.71   -33985.827    2577.9091   -36563.736    15.999994    242.45447 
    3000    136.18847   -229.89211    127277.28   -33998.467     2568.458   -36566.925    16.060316    241.56559 
    3050    135.61642    95.224306    127223.94   -34017.982    2557.6694   -36575.651    16.349828    240.55091 
    3100    135.16805   -408.29188     127225.2   -34020.039    2549.2133   -36569.253    16.687777    239.75561 
    3150    133.90291   -525.61409    127151.24    -33983.95    2525.3533   -36509.303    16.966241    237.51155 
    3200    132.39308   -148.11901    127027.69   -34042.601    2496.8787   -36539.479    17.248909    234.83349 
    3250    134.65952   -411.10352    127063.51   -34039.271    2539.6226   -36578.893    17.547239    238.85359 
    3300    136.21312   -169.83493    127108.55   -33998.579    2568.9229   -36567.502    17.952863     241.6093 
    3350    136.06097   -303.01488    127090.46   -33984.037    2566.0535   -36550.091    18.304128    241.33943 
    3400    133.55242   -203.82757     127058.4   -34071.736    2518.7432   -36590.479    18.634743    236.88987 
    3450    132.88183   -262.01521    127034.35   -34089.226    2506.0961   -36595.322    18.878546     235.7004 
    3500    132.13565   -318.36852    126985.21   -34108.959    2492.0236   -36600.982    18.982899    234.37686 
    3550       132.85    -320.4872    127004.87   -34057.238    2505.4958   -36562.733    19.316447    235.64394 
    3600    133.76198   -449.54797    126901.45   -34027.918    2522.6954   -36550.614    19.598344    237.26157 
    3650    133.90839   -336.28234    126845.26   -34011.817    2525.4568   -36537.274    19.793627    237.52128 
    3700    135.88355   -474.80045     126851.9   -34019.274    2562.7074   -36581.981    20.038361    241.02474 
    3750     132.6936   -446.00755    126848.84   -34009.294    2502.5463    -36511.84    20.388277    235.36653 
    3800    133.80228   -267.18894    126720.89   -34021.805    2523.4555    -36545.26    20.722793    237.33306 
    3850    133.46697   -166.68506    126711.46   -34009.349    2517.1318   -36526.481    20.982902    236.73831 
    3900    133.90027   -222.62087    126685.75   -33999.356    2525.3035    -36524.66    21.261056    237.50687 
    3950     133.9765    -120.5469    126727.29    -33966.83    2526.7413   -36493.571    21.410191    237.64209 
    4000    137.09442   -77.571314    126788.85   -33931.829     2585.544   -36517.373    21.646003    243.17253 
    4050    132.37145   -115.47792    126923.74   -33996.626    2496.4707   -36493.097     22.01188    234.79511 
    4100    135.06911   -445.27957     127013.5   -34014.895    2547.3475   -36562.242    22.266004    239.58012 
    4150    132.28619   -421.85819    126971.67   -34052.159    2494.8627   -36547.022    22.411746    234.64389 
    4200    133.17602   -332.93303    126870.28   -34001.593    2511.6445   -36513.237    22.432059    236.22222 
    4250    133.90502   -575.68525    126817.73   -33988.956     2525.393   -36514.349    22.538984    237.51529 
    4300    135.60156   -131.85252     126709.8   -33957.585    2557.3891   -36514.974    22.666071    240.52455 
    4350    133.72993   -295.44954    126653.94    -34000.27    2522.0909   -36522.361    22.688325    237.20472 
    4400    132.35988    55.943756    126745.38   -34022.889    2496.2524   -36519.141    22.854948    234.77459 
    4450    134.61372    38.470878    126844.69   -34028.522    2538.7589   -36567.281    23.037367    238.77236 
    4500     135.3763   -81.509595     126900.1   -34033.734    2553.1409   -36586.875    23.085169    240.12499 
    4550    133.78756   -9.2940559    127023.43   -34063.898    2523.1778   -36587.076    23.218418    237.30695 
    4600    134.81642      -280.95    127107.08   -34057.527    2542.5817   -36600.109    23.511511     239.1319 
    4650    132.85719   -526.86533    126994.77   -34015.772    2505.6315   -36521.404    23.778976     235.6567 
    4700    135.07164   -262.02773    127012.21   -34007.785    2547.3951    -36555.18    24.010617     239.5846 
    4750    136.06098   -24.744397    127068.63   -34047.353    2566.0536   -36613.407     24.23107    241.33945 
    4800    134.09154    -156.7237    127073.48   -34048.099    2528.9108    -36577.01    24.444889    237.84614 
    4850    134.71969    -359.4992     127033.8   -33989.505    2540.7574   -36530.263    24.854275    238.96032 
    4900    137.79701   -303.53577    126987.34   -33977.434    2598.7944   -36576.228    25.196893    244.41874 
    4950    135.48859   -103.86584    126939.56   -33988.719    2555.2587   -36543.978    25.393306    240.32418 
    5000    133.42503   -479.77577    126933.73   -33998.041    2516.3408   -36514.382    25.751821    236.66391 
    5050     135.2948   -177.51546    126965.42   -33994.297    2551.6037   -36545.901    25.945465    239.98042 
    5100     132.1806   -366.31324     126898.2   -34020.203    2492.8712   -36513.075    26.352175    234.45658 
    5150    134.29304    -132.5846    126850.69   -34042.847    2532.7111   -36575.558    26.572804    238.20355 
    5200    132.21932   -245.47236    126837.52   -34030.803    2493.6015   -36524.405    26.687662    234.52526 
    5250    134.21722   -218.22142    126753.54   -34015.372    2531.2811   -36546.653    26.983336    238.06907 
    5300    136.23719   -357.04719    126687.95   -33977.214    2569.3768   -36546.591     27.36974      241.652 
    5350    134.61904    40.156221    126648.74   -34004.759    2538.8592   -36543.618    27.511709    238.78179 
    5400     134.3276     4.573524    126683.42   -34018.013    2533.3628   -36551.376      27.6879    238.26485 
    5450    138.26899   -256.81919    126725.39   -33935.807    2607.6957   -36543.503    27.816238    245.25592 
    5500    134.51238   -83.497857    126736.55   -33951.478    2536.8477   -36488.325    27.999763     238.5926 
    5550     135.1712   -283.66325    126805.92   -33961.024    2549.2727   -36510.296    28.297947    239.76119 
    5600    139.22882   -509.19474    126851.03   -33940.967    2625.7978   -36566.764    28.505512    246.95843 
    5650    137.17729   -106.12887    126869.59   -33990.041    2587.1067   -36577.148      28.6717    243.31951 
    5700    132.36613   -227.23382    126905.31   -33985.706    2496.3703   -36482.077    29.034634    234.78567 
    5750    134.19103   -370.63398    126835.69   -34034.884    2530.7872   -36565.671    29.450878    238.02261 
    5800    135.66625   -189.77321    126787.07   -34034.015    2558.6092   -36592.624    29.790935    240.63929 
    5850    136.16219   -183.00755    126801.76   -34035.529    2567.9625   -36603.492    29.939769    241.51898 
    5900     132.2642   -341.21998    126758.34   -34062.824    2494.4479   -36557.272    30.046346    234.60487 
    5950    132.39841   -356.96787    126682.33   -34064.693    2496.9791   -36561.672    30.249569    234.84294 
    6000    132.40255   -184.31391    126613.08   -33995.631    2497.0572   -36492.688    30.714249    234.85028 
    6050    135.35518    26.400436    126686.31   -33963.199    2552.7426   -36515.942    30.909744    240.08754 
    6100     135.7498   -383.65105    126772.87   -33946.404    2560.1849   -36506.589     31.14182    240.78749 
    6150    137.16826   -132.23451     126725.1   -34019.338    2586.9365   -36606.274    31.168557     243.3035 
    6200    135.42216   -320.42446     126756.2   -33968.299    2554.0058   -36522.305    31.335846    240.20634 
    6250     134.5895   -285.02278    126772.93    -34027.22    2538.3021   -36565.522    31.503718     238.7294 
    6300    135.94049   -169.77951       126877   -34065.328    2563.7812    -36629.11    31.714497    241.12573 
    6350    134.40078   -88.382359    126867.22    -34095.81     2534.743   -36630.553    31.793638    238.39466 
    6400    132.18693    109.19994    127028.49   -34108.437    2492.9906   -36601.428    31.927358    234.46781 
    6450    136.24809    -104.0657     127100.8   -34089.157    2569.5824   -36658.739    32.107769    241.67133 
    6500    132.39139   -102.45707    127187.05   -34107.093    2496.8468    -36603.94    32.361066    234.83049 
    6550    135.25495   -32.518642    127200.79   -34100.477    2550.8523   -36651.329    32.602071    239.90975 
    6600    132.55054   -280.77713     127249.7    -34094.46    2499.8483   -36594.308    32.815964    235.11278 
    6650     135.6761   -165.86547    127272.02   -34109.634     2558.795   -36668.429    33.168574    240.65677 
    6700    137.08558   -8.4348106    127311.95   -34074.625    2585.3772   -36660.002    33.317232    243.15685 
    6750    135.00768   -202.50596    127325.04   -34001.839    2546.1889   -36548.028    33.666745    239.47115 
    6800    135.42255    -400.9629    127275.55   -34051.689    2554.0131   -36605.702    33.846632    240.20703 
    6850    135.13855   -257.60902    127241.06   -33998.058     2548.657   -36546.715    34.149363    239.70328 
    6900    134.52503   -499.51532    127183.29   -34002.555    2537.0863   -36539.642    34.262376    238.61505 
    6950    137.13771   -304.20256    127165.35   -33972.609    2586.3603   -36558.969    34.651115     243.2493 
    7000    135.25794   -487.81189    127212.79   -33972.499    2550.9087   -36523.408     34.88432    239.91506 
    7050     134.4222   -250.37362     127129.9   -33999.864     2535.147   -36535.011    35.042496    238.43266 
    7100    135.76253   -412.83982    127156.98   -34017.146     2560.425   -36577.571    35.143191    240.81007 
    7150    135.98557   -593.82877    127082.27   -34008.601    2564.6314   -36573.232    35.220743    241.20569 
    7200    134.82676   -366.00507    126875.97    -34046.56    2542.7768   -36589.337    35.423315    239.15025 
    7250    134.23843    116.49887    126961.01   -34007.506    2531.6811   -36539.187    35.700969    238.10669 
    7300    134.26733   -176.10937    127040.06   -34017.691    2532.2262   -36549.917    35.895192    238.15795 
    7350    136.27221   -239.04068    127023.29   -34006.165    2570.0374   -36576.203    36.319893    241.71413 
    7400    134.54975   -236.50423    127020.44   -34010.245    2537.5525   -36547.797    36.633001    238.65889 
    7450    136.77204   -311.54128    127027.79   -34010.411     2579.464   -36589.875    36.816443     242.6007 
    7500    135.91232    -311.1461     126994.2    -34007.98    2563.2499    -36571.23    37.071562    241.07576 
    7550     133.3046   -111.58098     127114.1   -34007.426    2514.0695   -36521.495    37.171161     236.4503 
    7600    134.86818   -335.66606    127148.37   -34010.308    2543.5579   -36553.866    37.341141    239.22371 
    7650    137.29104   -173.17826    127219.27   -34005.695    2589.2521   -36594.947     37.59119    243.52129 
    7700    138.33833   -246.88668    127274.86   -34004.603    2609.0035   -36613.606    37.857023    245.37892 
    7750    136.16046   -401.43391    127209.14   -34050.155    2567.9298   -36618.085    37.897792     241.5159 
    7800    132.84453   -152.04489    127149.68    -34101.64    2505.3926   -36607.033    38.055667    235.63423 
    7850    135.38255    -272.4565    127189.94   -34080.863    2553.2588   -36634.122    38.263452    240.13608 
    7900     138.0576   -135.21451    127237.42   -34043.172    2603.7092   -36646.881    38.346766    244.88098 
    7950    134.40813   -215.98533    127318.81   -34103.416    2534.8816   -36638.298    38.598458     238.4077 
    8000    133.12526   -198.17917    127331.18   -34068.916    2510.6871   -36579.603    38.911482    236.13218 
    8050    136.96916   -227.85811    127374.76   -34041.916    2583.1816   -36625.097    39.327705    242.95035 
    8100    134.31536   -137.72841    127414.29   -34012.374    2533.1321   -36545.506    39.399767    238.24315 
    8150    132.43954   -197.54724     127474.4   -34086.518    2497.7548   -36584.273    39.484427    234.91589 
    8200    133.22977   -151.83255     127467.9   -34087.614    2512.6582   -36600.272    39.842676    236.31756 
    8250    135.10009   -194.87786    127505.42   -34072.905    2547.9316   -36620.836     40.05494    239.63506 
    8300    136.08536    24.060295    127599.93   -34062.701    2566.5135   -36629.215    40.247572     241.3827 
    8350    137.67227   -219.61722    127614.05   -34084.316    2596.4419   -36680.758    40.560072    244.19749 
    8400    135.64173   -45.025904    127591.11   -34115.516    2558.1467   -36673.663    40.793746     240.5958 
    8450    134.74461   -49.243045    127686.53   -34143.444    2541.2275   -36684.672    40.929419    239.00453 
    8500    132.80173   -213.27296     127656.6     -34143.7    2504.5855   -36648.285    41.085437    235.55832 
    8550     133.5714   -50.156567    127686.53   -34169.406    2519.1012   -36688.507    41.214525    236.92354 
    8600    133.15004   -193.26985    127746.44   -34182.723    2511.1545   -36693.877    41.490547    236.17614 
    8650    133.11625   -288.28748    127677.21   -34179.996    2510.5172   -36690.513    41.805267    236.11621 
    8700    134.82827   -415.68245    127727.34   -34149.231    2542.8053   -36692.037    42.135663    239.15292 
    8750     135.4011   -337.21994    127683.49   -34155.003    2553.6087   -36708.612    42.263625    240.16899 
    8800    133.15248   -75.124259    127635.67   -34158.943    2511.2005   -36670.143    42.608708    236.18047 
    8850    134.29053   -201.77456    127627.27   -34136.387    2532.6636    -36669.05    42.915833    238.19909 
    8900     137.0373   -196.57059    127620.63   -34097.026    2584.4666   -36681.493    43.095056     243.0712 
    8950    133.47156   -186.84827    127595.54   -34073.069    2517.2183   -36590.287    43.283253    236.74644 
    9000    135.00877    -163.9405    127526.19   -34056.207    2546.2094   -36602.416    43.519795    239.47309 
    9050    135.82836   -155.11477    127428.76   -34101.655    2561.6666   -36663.321    43.694181    240.92685 
    9100    135.91743   -177.15048     127418.1   -34066.513    2563.3463   -36629.859    43.763927    241.08482 
    9150      135.677   -309.68592    127378.57   -34040.291    2558.8118   -36599.103    43.776506    240.65835 
    9200    133.45953   -188.86748    127438.14   -34023.306    2516.9913   -36540.298    44.150239     236.7251 
    9250     134.3846   -361.74298    127342.43   -34060.255    2534.4378   -36594.693    44.439941    238.36596 
    9300    134.99403   -346.27007    127366.68    -34060.19    2545.9314   -36606.122    44.702551    239.44694 
    9350    136.26795   -305.55066    127385.48    -34051.29     2569.957   -36621.247    44.719055    241.70656 
    9400    135.66746    184.16712    127387.56    -34049.03     2558.632   -36607.662    44.842646    240.64143 
    9450    137.97227    43.037652    127479.56    -34070.33    2602.0998    -36672.43    44.958235    244.72962 
    9500    137.04765   -341.11659    127482.82   -34076.326    2584.6619   -36660.988    45.296337    243.08957 
    9550    133.17096   -250.29352    127506.76   -34094.147    2511.5491   -36605.697    45.443798    236.21326 
    9600    134.60611   -105.34509    127532.34   -34089.763    2538.6154   -36628.378    45.568119    238.75886 
    9650    135.71937   -219.57177     127589.8   -34087.484    2559.6111   -36647.095     45.67904    240.73352 
    9700    136.66661   -137.97678    127652.21   -34105.849    2577.4756   -36683.324    45.815295     242.4137 
    9750     133.5553    -228.8989    127681.57    -34135.73    2518.7975   -36654.528    45.902893    236.89497 
    9800     134.5144   -295.50485    127724.14   -34073.237    2536.8857   -36610.123    45.883991    238.59619 
    9850    135.16671    -246.6988    127714.52   -34093.668    2549.1881   -36642.857    45.787737    239.75323 
    9900    135.35241   -232.63019    127691.58   -34101.742    2552.6903   -36654.433    46.037568    240.08261 
    9950    135.84903   -233.39534    127662.37   -34048.786    2562.0564   -36610.842    46.285999    240.96351 
   10000    135.73257    -191.4967    127644.54   -34103.832      2559.86   -36663.692    46.455663    240.75693 
   10050    137.16786    -11.79589    127558.18   -34085.627    2586.9289   -36672.556    46.662387    243.30279 
   10100    136.44709   -110.20957    127521.41    -34107.08    2573.3356   -36680.415    46.894328    242.02432 
   10150    137.76186   -196.11088    127519.13   -34031.226    2598.1315   -36629.358     46.99461     244.3564 
   10200    137.43588   -299.31822    127437.33   -34033.458    2591.9837   -36625.442    47.217477    243.77819 
   10250    136.11134   -169.05207    127476.48   -34054.546    2567.0035   -36621.549    47.312118    241.42878 
   10300    137.77697   -376.40865    127456.47   -34054.776    2598.4164   -36653.192    47.546604     244.3832 
   10350    134.72014   -106.46082       127376   -34097.311    2540.7659   -36638.077    47.670425    238.96112 
   10400    137.91206   -389.38082    127380.59   -34072.121    2600.9642   -36673.085    47.647864    244.62282 
   10450    138.32422   -202.37075    127436.03    -34020.88    2608.7374   -36629.617    47.890868    245.35389 
   10500    137.23809   -74.465401    127508.23   -34070.807    2588.2535    -36659.06    48.038937    243.42737 
   10550    133.71747   -230.47454    127440.42    -34080.15     2521.856   -36602.006    48.314366    237.18262 
   10600    134.44027   -427.00158    127388.35   -34066.476    2535.4878   -36601.964    48.461427     238.4647 
   10650     135.6119    -261.1736    127333.85   -34063.905    2557.5841   -36621.489    48.659712    240.54289 
   10700    134.78065   -544.91256    127287.99   -34049.262    2541.9071   -36591.169    49.009572    239.06845 
   10750    136.09358   -39.270137    127156.33   -34047.994    2566.6685   -36614.662    49.152648    241.39728 
   10800    134.89131   -279.60507    127131.34   -34050.072    2543.9942   -36594.066     49.17858    239.26474 
   10850    136.09417    -325.8689    127098.87   -34024.774    2566.6796   -36591.453    49.320264    241.39833 
   10900    136.64426   -51.901809    127160.72   -34065.547     2577.054   -36642.601     49.58387    242.37404 
   10950    132.15868   -419.69505    127167.52   -34094.219    2492.4578   -36586.677    49.899116    234.41771 
   11000    133.86484    53.473186    127172.28   -34085.459    2524.6354   -36610.094    50.159682    237.44403 
   11050    133.71808   -399.02244    127112.75   -34062.085    2521.8676   -36583.953    50.404767    237.18371 
   11100    135.34768    -472.6777    127044.79   -34035.316    2552.6012   -36587.917    50.511644    240.07423 
   11150    134.42465   -354.88428    126959.86   -34063.166    2535.1932    -36598.36      50.7828      238.437 
   11200    135.13751   -191.02368    126910.88   -34099.894    2548.6375   -36648.531    51.187367    239.70144 
   11250    134.36113    -329.8882     126925.2   -34111.521    2533.9952   -36645.516    51.611138    238.32432 
   11300    138.56078   -29.692933    126902.41   -34051.062    2613.1989   -36664.261    51.808337     245.7735 
   11350    136.27417   -379.31718    126908.59   -34043.817    2570.0743   -36613.891    51.981124     241.7176 
   11400    135.66828   -371.97904    126905.16   -34027.488    2558.6476   -36586.136     52.35529     240.6429 
   11450    135.18242   -169.86092    126994.42   -34061.998    2549.4844   -36611.483    52.727725     239.7811 
   11500    133.03631   -310.98766    126987.41   -34092.072    2509.0097   -36601.082    52.797964    235.97442 
   11550    136.03713   -154.50475    126947.01   -34059.345    2565.6039   -36624.949    53.279649    241.29715 
   11600    137.16489   -100.53998    127005.45     -34011.9    2586.8729   -36598.773     53.40656    243.29752 
   11650    136.18568   -59.952094    127049.11   -33966.772    2568.4055   -36535.177    53.492827    241.56065 
   11700    135.12026   -181.60982    127073.41   -33966.806    2548.3121   -36515.118    53.809687    239.67084 
   11750    135.18373   -266.65821     127058.3   -33987.571    2549.5091    -36537.08    54.099309    239.78342 
   11800    135.20979   -220.27112    127050.55   -33972.432    2550.0005   -36522.433    54.054252    239.82964 
   11850    136.44811   -393.57886    127091.32   -33991.681    2573.3548   -36565.035    54.117414    242.02613 
   11900    134.91326   -244.20618    127178.47   -33963.621    2544.4081   -36508.029      54.1394    239.30367 
   11950    134.89089   -409.14042    127212.88   -33976.291    2543.9863   -36520.278    54.257683      239.264 
   12000    134.28324   -494.85815    127115.49   -33980.796    2532.5262   -36513.322    54.557396    238.18617 
   12050    135.71038   -49.490668    127076.75   -33930.559    2559.4415   -36490.001    54.725524    240.71757 
   12100    139.53985   -507.21469    127077.71   -33919.914    2631.6637   -36551.578    55.128513    247.51013 
   12150    138.82362   -426.62728    127092.41   -33849.275    2618.1559   -36467.431    55.602579    246.23971 
   12200    137.33196   -328.95487    127094.56   -33855.971    2590.0237   -36445.995    55.838787    243.59386 
   12250     137.8443   -565.45727    127055.38   -33874.759    2599.6864   -36474.446    56.085328    244.50264 
   12300     137.4797     -474.102    126959.54   -33886.752    2592.8101   -36479.562    56.469164    243.85592 
   12350    134.86994   -404.44964    126943.72   -33890.672    2543.5911   -36434.263    56.728517    239.22683 
   12400    133.82393   -343.94785    126901.25   -33926.411    2523.8638   -36450.274    56.949472    237.37146 
   12450     136.4183   -90.251021    126952.63   -33905.566    2572.7925   -36478.359     57.15991    241.97325 
   12500    134.74073   -257.29075     126879.9   -33915.674    2541.1542   -36456.828    57.502301    238.99764 
   12550    135.82128   -159.75334    126909.79   -33911.804    2561.5331   -36473.337    57.755053    240.91429 
   12600     135.8117    -398.6986    126946.19   -33865.719    2561.3523   -36427.071      57.9717    240.89728 
   12650    137.63616   -358.98895    126881.05   -33905.479    2595.7608    -36501.24    58.279494    244.13344 
   12700    137.26806   -194.49001    126936.05   -33862.084    2588.8188   -36450.902    58.492136    243.48053 
   12750    140.42383   -281.63339    126847.56   -33880.737    2648.3352   -36529.072    58.721334     249.0781 
   12800    137.31364   -270.64127    126902.95    -33925.29    2589.6783   -36514.968    58.960526    243.56137 
   12850    137.71285    101.61481    126934.48   -33896.532    2597.2072   -36493.739    59.195384    244.26947 
   12900    134.12344   -281.42677    126964.26   -33910.276    2529.5124   -36439.788    59.302124    237.90271 
   12950    134.15339   -199.20639    126964.75   -33913.655    2530.0772   -36443.733    59.631927    237.95584 
   13000    137.00657   -224.72705    126945.86   -33923.733    2583.8871    -36507.62    59.890976    243.01671 
   13050    136.46845    -93.19779    126979.52   -33906.098    2573.7384   -36479.837    60.190371    242.06221 
   13100    136.06698   -71.296934    127099.26   -33899.111    2566.1667   -36465.278    60.678167    241.35008 
   13150    136.08398   -293.01697    127169.02    -33859.89    2566.4873   -36426.378    61.054341    241.38024 
   13200    135.54824    -245.2121    127117.26   -33906.363    2556.3835   -36462.746    61.086395    240.42997 
   13250    139.47499   -216.92774    127221.92   -33904.869    2630.4404   -36535.309    61.335941    247.39508 
   13300    136.45197    -293.2425    127253.45   -33919.129    2573.4275   -36492.557    61.509605    242.03297 
   13350    136.49268   -312.36895    127257.76   -33912.021    2574.1953   -36486.216    61.678878    242.10518 
   13400    136.33106   -417.85172    127169.08   -33920.472    2571.1473    -36491.62     62.00584    241.81851 
   13450    135.77658   -399.49003     127192.3   -33948.627      2560.69   -36509.317    62.306588    240.83499 
   13500    137.51892    52.186315    127239.19   -33921.494    2593.5498   -36515.043     62.47248    243.92549 
   13550    135.53489    15.756899    127317.03   -33929.323    2556.1318   -36485.454    62.770066    240.40629 
   13600    135.28902   -247.19525    127382.22    -33955.43    2551.4947   -36506.925    62.995098    239.97017 
   13650    138.08094   -308.15436    127377.94   -33921.518    2604.1493   -36525.667    63.244489    244.92238 
   13700    136.54823   -324.71567    127348.84    -33968.23    2575.2431   -36543.473    63.225783    242.20372 
   13750    137.06182   -139.88104    127357.27   -33936.479    2584.9291   -36521.408    63.416907    243.11471 
   13800     135.8665   -192.41364    127443.06   -33880.185    2562.3858    -36442.57    63.716465    240.99449 
   13850    134.47099    -258.4654    127448.97     -33873.8    2536.0671   -36409.867    63.826486    238.51919 
   13900    134.02783   -444.81738    127442.78   -33925.449    2527.7093   -36453.158     64.01674    237.73313 
   13950    136.33318   -151.57141    127458.54   -33914.032    2571.1872   -36485.219    64.118468    241.82226 
   14000    135.26748   -254.99516    127363.94     -33903.7    2551.0886   -36454.788    64.340296    239.93197 
   14050    138.18915   -71.779324    127356.49   -33862.386    2606.1901   -36468.576    64.271925    245.11431 
   14100    135.25786   -153.70357    127353.57    -33942.91    2550.9071   -36493.817    64.294779     239.9149 
   14150    134.11114    -2.689798    127514.43   -33952.919    2529.2804     -36482.2    64.389758     237.8809 
   14200    134.96879    59.266915    127659.74   -33990.656    2545.4553   -36536.112    64.556289    239.40216 
   14250    136.10707   -48.662741    127625.92   -34002.574    2566.9229   -36569.497    64.943328    241.42121 
   14300    136.01106   -251.65345    127683.33   -34012.875    2565.1122   -36577.987    65.380355    241.25091 
   14350    130.75411   -151.90506    127662.43   -34085.953    2465.9682   -36551.921    65.672149    231.92633 
   14400    136.46519    -268.3728    127649.49   -34028.683    2573.6769    -36602.36    65.911621    242.05643 
   14450    134.75992     -316.846    127695.89   -34000.512    2541.5162   -36542.028    66.239476    239.03168 
   14500    133.72826   -148.93713    127686.97   -34062.533    2522.0595   -36584.592    66.426307    237.20176 
   14550    133.09955    -221.1074     127700.6   -34069.725    2510.2023   -36579.927    66.566652    236.08659 
   14600    132.62793   -314.17724    127691.54   -34095.663    2501.3078   -36596.971    66.782928    235.25005 
   14650    137.52348   -337.90635    127677.28   -34007.179    2593.6358   -36600.815    67.193281    243.93358 
   14700    133.25563   -444.07864    127635.89   -34037.052     2513.146   -36550.198    67.501425    236.36344 
   14750    135.23118   -274.97043    127570.67   -34038.923     2550.404   -36589.327    67.713615    239.86759 
   14800    136.92452   -170.84841     127501.5   -34001.533    2582.3396   -36583.873    67.934287    242.87116 
   14850    134.78812   -294.37415    127496.56   -33986.624     2542.048   -36528.672    68.024144     239.0817 
   14900    137.22841   -298.24231    127520.43   -33972.931     2588.071   -36561.002    68.183867     243.4102 
   14950    136.25792   -104.33781    127521.55   -33966.718    2569.7678   -36536.486    68.456443    241.68877 
   15000    136.73466   -294.28605    127709.88   -33944.301    2578.7589    -36523.06     68.73277    242.53439 
   15050    136.99705   -237.52848    127740.03   -33946.526    2583.7075   -36530.233    69.057495    242.99981 
   15100    136.55299    -352.2413    127708.81   -33974.616    2575.3327   -36549.949    69.418232    242.21216 
   15150    135.17216   -630.63218    127622.89   -34009.958    2549.2909   -36559.249    69.743464     239.7629 
   15200    136.17142   -140.37274    127620.37   -34019.116    2568.1365   -36587.252    70.212493    241.53535 
   15250    135.57687    -346.4281    127690.62   -34027.258    2556.9236   -36584.182    70.711456    240.48076 
   15300     134.9035   -210.20711    127762.64   -34023.623    2544.2241   -36567.847     70.83659    239.28636 
   15350    138.65324   -270.04397    127783.27   -34020.804    2614.9425   -36635.746    71.020037    245.93749 
   15400    135.47481     -291.407    127720.99   -34032.971    2554.9988    -36587.97      71.3033    240.29973 
   15450    136.50173   -260.64154    127672.52   -34003.101    2574.3659   -36577.467     71.39727    242.12123 
   15500     137.6876   -202.81712    127724.82   -34034.799     2596.731    -36631.53    71.571171    244.22468 
   15550    137.75431    -165.1205    127794.55   -34055.128    2597.9891   -36653.117    71.767034    244.34301 
   15600    134.43577   -267.94452    127857.12   -34076.685    2535.4029   -36612.088    72.182741    238.45672 
   15650    135.83402    81.836327    127849.58   -34115.432    2561.7732   -36677.206     72.41787    240.93687 
   15700    133.90066   -265.28226     127942.2   -34132.458    2525.3109   -36657.768    72.539865    237.50756 
   15750    132.47034   -161.60081    127961.92   -34152.278    2498.3356   -36650.614    72.852206    234.97051 
   15800    135.71775   -650.96191    127960.29   -34127.206    2559.5805   -36686.787    72.990945    240.73065 
   15850    133.99381   -273.44251    127940.64   -34122.666    2527.0677   -36649.733    73.341138    237.67279 
   15900    134.71111    -531.7265    127893.59   -34131.497    2540.5956   -36672.092    73.455312     238.9451 
   15950    133.91151    -348.7917     127836.3   -34132.446    2525.5155   -36657.962    73.472275    237.52681 
   16000    132.07237   -503.75222    127792.32   -34159.782    2490.8302   -36650.612    73.714766    234.26462 
   16050    130.69757   -544.00076    127770.25   -34144.661     2464.902   -36609.563    73.874261    231.82605 
   16100    134.22093   -402.97735    127686.74   -34127.127    2531.3511   -36658.478    74.043198    238.07565 
   16150    132.99494    39.298106    127714.42   -34178.763    2508.2294   -36686.993    74.291712    235.90103 
   16200    131.44508   -25.234172    127787.07   -34156.335    2478.9997   -36635.335    74.508278    233.15196 
   16250    132.26001   -43.224726    127868.67   -34184.917     2494.369   -36679.286    74.549592    234.59745 
   16300    134.31235   -246.77895    127947.34   -34183.275    2533.0751    -36716.35    74.751122    238.23779 
   16350    133.25566   -232.06134    127876.29   -34232.869    2513.1465   -36746.016    74.946977    236.36349 
   16400    132.90623   -98.580818    127864.52   -34188.579    2506.5565   -36695.135    75.100883    235.74369 
   16450    132.92387   -66.740447    127799.99   -34199.902    2506.8891   -36706.791    75.316045    235.77498 
   16500     135.3912   -342.49633    127796.18   -34134.651    2553.4218   -36688.073     75.84175    240.15142 
   16550    134.39392   -268.79648    127845.56   -34117.289    2534.6136   -36651.903     76.08412    238.38249 
   16600    134.39316    -251.7625    127808.52   -34064.051    2534.5993    -36598.65    76.333562    238.38114 
   16650    136.06965   -378.69701    127708.43   -34040.603    2566.2172    -36606.82    76.503923    241.35483 
   16700     135.4153    -515.5923    127660.02    -34074.26    2553.8763   -36628.137     76.60878    240.19416 
   16750    134.08464   -275.51768    127601.26   -34054.342    2528.7807   -36583.123    76.785245     237.8339 
   16800    134.41292   -273.92403    127562.16   -34090.317    2534.9719   -36625.289    76.932158    238.41618 
   16850    135.40367    166.99595    127706.74   -34091.554    2553.6571   -36645.211    77.301546    240.17354 
   16900     132.1323   -256.27711    127782.26   -34084.855    2491.9603   -36576.816    77.642212    234.37091 
   16950     134.1337   -520.90629       127816   -34070.399     2529.706   -36600.105     77.78562    237.92093 
   17000    134.76898   -276.49448    127867.13   -34069.771    2541.6871   -36611.458    78.024095    239.04776 
   17050    135.72421   -266.69388    127829.72   -34030.148    2559.7022   -36589.851    78.451758    240.74209 
   17100    134.31321   -419.09005    127761.62    -34057.85    2533.0914   -36590.942     78.83197    238.23932 
   17150    137.68313   -97.227414    127702.54    -34000.02    2596.6468   -36596.667    79.025219    244.21676 
   17200    138.58288   -211.33789       127751   -33983.685    2613.6157   -36597.301    79.229847     245.8127 
   17250    135.71089    -263.7101    127686.16   -33986.222    2559.4512   -36545.673    79.443286    240.71848 
   17300    134.86164   -181.87433    127713.45   -34023.114    2543.4345   -36566.549    79.718475    239.21211 
   17350    134.04922   -182.72567    127805.91   -34014.796    2528.1127   -36542.909    79.910567    237.77107 
   17400    136.07522   -251.71112    127823.72   -33993.974    2566.3221   -36560.296    80.143927     241.3647 
   17450    132.95214   -220.00334    127900.51   -34032.246    2507.4223   -36539.668    80.135606    235.82512 
   17500     136.7397   -340.45474       127899   -34072.951     2578.854   -36651.805    80.114863    242.54333 
   17550    132.34507   -427.00438    127876.38   -34070.872     2495.973   -36566.845    79.951377    234.74831 
   17600    132.74367   -334.47546    127825.39    -34059.84    2503.4905   -36563.331    80.213206    235.45534 
   17650    133.96317   -239.54104    127765.17   -34062.108    2526.4897   -36588.598    80.367913    237.61843 
   17700    133.23428   -472.38833     127778.6   -34035.365    2512.7432   -36548.108    80.839348    236.32556 
   17750    134.59352   -237.51241    127672.42   -34042.374    2538.3779   -36580.752    81.030699    238.73652 
   17800    134.18404   -202.39012    127631.42   -34033.887    2530.6553   -36564.542    81.041987    238.01021 
   17850    132.49102    -194.9956    127641.06   -34065.058    2498.7256   -36563.783    81.368679     235.0072 
   17900    133.98934   -203.11162    127672.27   -34030.857    2526.9834    -36557.84    81.459109    237.66486 
   17950    134.19904   -602.53213    127698.97   -34051.517    2530.9383   -36582.455    81.825734    238.03682 
   18000    133.53885     -186.026    127698.24    -34010.34    2518.4874   -36528.827    81.951362    236.86581 
   18050    137.96069    -193.1294    127726.09   -34038.697    2601.8815   -36640.579    82.020172    244.70909 
   18100    135.06385    58.068057    127774.29   -34061.033    2547.2482   -36608.281    82.346683    239.57078 
   18150    136.25161   -448.65132    127723.87   -34058.492    2569.6488   -36628.141    82.544798    241.67758 
   18200     138.2522   -362.16004    127747.55   -34065.013    2607.3791   -36672.392    82.743042    245.22614 
   18250    134.23827   -81.304488    127705.38   -34049.719     2531.678   -36581.397    82.807038     238.1064 
   18300    133.92952   -260.99067    127659.79   -34092.835    2525.8552   -36618.691    83.254639    237.55875 
   18350     134.4663   -165.53575    127675.45   -34107.829    2535.9787   -36643.807    83.685892    238.51088 
   18400    134.54916    -300.7806    127593.73   -34126.763    2537.5414   -36664.305    83.836675    238.65785 
   18450    135.30601   -340.99427     127629.3   -34074.572    2551.8153   -36626.387    84.091803    240.00032 
   18500    135.81772    -598.9789    127663.58   -34071.919    2561.4659   -36633.385    84.396923    240.90797 
   18550    134.32012   -501.60547    127673.99   -34081.326    2533.2217   -36614.548    84.452174    238.25158 
   18600    136.44216   -344.33251    127586.61   -34045.696    2573.2426   -36618.938     84.83634    242.01557 
   18650    134.53766   -184.88034    127586.81   -34092.572    2537.3244   -36629.896    85.146556    238.63745 
   18700    133.89409   -75.388497    127658.73   -34103.213     2525.187     -36628.4    85.318607    237.49591 
   18750    133.24072   -359.13462    127615.97   -34111.171    2512.8648   -36624.036    85.454135      236.337 
   18800    135.40121   -275.18146    127577.88   -34112.056    2553.6106   -36665.667    85.741824    240.16917 
   18850    133.91588   -203.38447    127629.14    -34091.04     2525.598   -36616.638     86.20506    237.53456 
   18900    133.79685   -212.22591     127705.1   -34076.673    2523.3532   -36600.026    86.547778    237.32344 
   18950    138.80035   -21.343083    127717.42   -34033.779     2617.717   -36651.496    86.740061    246.19843 
   19000    135.03893   -375.29281     127754.5   -34033.089    2546.7783   -36579.867    86.848741    239.52659 
   19050     135.2476   -114.27519    127800.28   -34087.126    2550.7136    -36637.84    87.061132    239.89671 
   19100    137.14188   -466.97493    127854.35   -34076.989     2586.439   -36663.428    87.107823    243.25671 
   19150    136.92363   -401.20072    127874.81    -34088.17    2582.3229   -36670.493    87.174374    242.86959 
   19200    135.15585   -501.89201    127790.25   -34163.408    2548.9833   -36712.391    87.340863    239.73397 
   19250    131.77554   -291.22963    127666.58   -34194.412     2485.232   -36679.644    87.592684    233.73811 
   19300     133.8525   -493.14962    127681.87   -34102.196    2524.4026   -36626.599    87.871823    237.42213 
   19350    133.06367   -499.80318    127604.72   -34094.147    2509.5257   -36603.672     87.91826    236.02295 
   19400    135.34872   -350.14639    127475.04   -34063.221    2552.6206   -36615.842    88.190026    240.07607 
   19450    134.96894   -15.539888    127556.55   -34088.487    2545.4583   -36633.946    88.711272    239.40244 
   19500    133.27591   -155.08676    127609.37   -34101.976    2513.5284   -36615.504    89.038701    236.39941 
   19550    132.01243   -254.26181    127630.41   -34119.205    2489.6998   -36608.905    89.304666     234.1583 
   19600    133.79083   -156.09131    127677.31   -34160.058    2523.2395   -36683.298    89.606585    237.31275 
   19650    133.24136   -276.32421     127618.1   -34147.103    2512.8767    -36659.98    89.319295    236.33812 
   19700    135.61573    77.386787       127628   -34126.418    2557.6563   -36684.074    89.394771    240.54968 
   19750    132.70259   -227.54916    127587.72   -34215.907    2502.7158   -36718.622    89.238717    235.38248 
   19800    136.14365   -94.522853    127600.19   -34143.154    2567.6128   -36710.766    89.273954    241.48609 
   19850    133.48432    22.797689    127711.44   -34132.588     2517.459   -36650.047    89.189127    236.76908 
   19900    135.66869    17.960256    127817.82   -34100.579    2558.6553   -36659.234    89.499115    240.64363 
   19950    134.18307   -323.78011    127896.06   -34135.746     2530.637   -36666.383    89.763001    238.00849 
   20000    130.99809   -367.50568    127869.32   -34219.707    2470.5697   -36690.277    90.020623    232.35911 
   20050    130.15662   -238.96108    127768.52   -34241.652    2454.6999   -36696.352    90.293836    230.86654 
   20100    128.85558   -444.95847    127720.17   -34268.019    2430.1627   -36698.182    90.368597     228.5588 
   20150    131.81478   -580.27534    127687.83   -34246.781    2485.9721   -36732.753    90.628892    233.80771 
   20200    132.20072    -203.6646    127657.07   -34262.052    2493.2507   -36755.303    90.938725    234.49227 
   20250    133.44583   -430.34766    127640.24   -34191.192    2516.7329   -36707.925     91.14774     236.7008 
   20300    133.46652   -280.14421    127613.03   -34172.886    2517.1232    -36690.01    91.320859    236.73751 
   20350     129.2971   -213.64872    127620.36   -34166.125    2438.4897   -36604.615    91.457062    229.34196 
   20400    133.92351   -101.44572     127649.8    -34138.38    2525.7418   -36664.122    91.490546    237.54809 
   20450    133.78747   -29.975811    127751.05    -34127.12    2523.1762   -36650.296    91.658057    237.30679 
   20500    136.65416   -127.45144    127746.44   -34096.356    2577.2407   -36673.597    91.767152    242.39161 
   20550    136.01757    -221.0647    127732.38   -34110.508     2565.235   -36675.743    92.011726    241.26245 
   20600    135.17934    -326.6039    127667.51   -34083.152    2549.4263   -36632.578    92.226549    239.77564 
   20650    135.25842   -310.21677    127649.15   -34085.106    2550.9177   -36636.024    92.512299     239.9159 
   20700    137.89935    -261.3712    127699.58   -34099.149    2600.7246   -36699.874    92.763386    244.60028 
   20750    136.90205   -445.70749    127765.61   -34100.989    2581.9159   -36682.905    93.130427    242.83131 
   20800    134.94557   -87.108482    127759.11   -34083.888    2545.0174   -36628.906    93.240832    239.36098 
   20850    132.06531   -361.40939    127791.33   -34127.014    2490.6969   -36617.711    93.524412    234.25209 
   20900    134.94861   -298.56312    127714.15   -34138.335    2545.0748    -36683.41    93.436728    239.36637 
   20950    132.06849   -422.70693    127742.32    -34136.19     2490.757   -36626.947    93.473707    234.25774 
   21000     135.1337   -146.01332    127778.36   -34144.707    2548.5655   -36693.272    94.026602    239.69467 
   21050    133.77734   -86.016016    127827.29   -34127.715    2522.9851     -36650.7    94.765443    237.28882 
   21100    135.25289   -394.85139    127863.04   -34150.003    2550.8133   -36700.816    95.128045    239.90609 
   21150     132.7064    -307.5154    127810.84   -34178.547    2502.7877   -36681.334    95.451493    235.38923 
   21200    134.01086   -398.56426    127781.37   -34161.812    2527.3893   -36689.201    95.654844    237.70304 
   21250    134.59338   -208.89059    127707.24   -34146.417    2538.3753   -36684.792     95.76489    238.73628 
   21300    132.94896   -125.03145    127711.86    -34085.69    2507.3621   -36593.052    96.115183    235.81947 
   21350    134.98773   -90.868522    127793.78   -34070.972    2545.8126   -36616.785    96.429072    239.43576 
   21400    134.31532    69.642172    127841.63   -34027.974    2533.1312   -36561.105    96.555687    238.24307 
   21450    133.37492   -423.53078    127881.39   -34073.224    2515.3957   -36588.619    96.644859    236.57503 
   21500    134.19214   -31.341843    127928.71   -34045.331    2530.8081   -36576.139    96.949454    238.02458 
   21550    134.01551   -216.79818    127986.95   -34083.712    2527.4768   -36611.189    97.618631    237.71127 
   21600    133.39804   -116.09928    127911.43   -34031.367    2515.8318   -36547.199    98.062738    236.61604 
   21650    133.12671   -273.80974    127964.11   -34043.297    2510.7146   -36554.012    98.466881    236.13477 
   21700    135.18264   -465.38251    127933.26   -34066.254    2549.4885   -36615.743    98.701261    239.78149 
   21750    136.73565    -293.3861    127852.93    -34015.24    2578.7777   -36594.018     98.75957    242.53616 
   21800    137.39259   -328.05545    127912.71   -34058.737    2591.1672   -36649.904    98.991935     243.7014 
   21850    135.58062   -131.63685    127918.27   -34047.134    2556.9943   -36604.128    99.072489    240.48742 
   21900    138.22225   -244.05944     127983.7   -34047.863    2606.8144   -36654.677    99.341785    245.17303 
   21950    136.33392   -358.93687    127970.15   -34076.615    2571.2013   -36647.816     99.42104    241.82359 
   22000    133.40296   -108.72204    127964.58   -34058.894    2515.9246   -36574.818    99.558931    236.62477 
   22050    136.32667    40.022053    127970.41   -34007.134    2571.0645   -36578.199       99.791    241.81072 
   22100    136.30616   -177.25711    127972.23   -33993.861    2570.6776   -36564.538    99.861753    241.77434 
   22150    133.62475   -393.72965    127780.34   -34013.869    2520.1074   -36533.977    99.859427    237.01816 
   22200    136.87876    92.040961    127755.74   -34009.051    2581.4766   -36590.527    100.03678    242.78999 
   22250    136.39396   -227.06875    127717.19   -34080.088    2572.3336   -36652.421    100.34705    241.93008 
   22300     136.0393   -260.62021    127732.88   -34038.238    2565.6447   -36603.883    100.49348    241.30099 
   22350    135.62829   -547.83355    127670.38   -34044.271    2557.8933   -36602.165    100.51259    240.57197 
   22400    130.82333   -379.58262    127673.78   -34078.486    2467.2737   -36545.759    100.62193    232.04912 
   22450    135.26936   -61.920319    127640.34   -34096.121    2551.1241   -36647.245    100.91333    239.93531 
   22500    132.55413   -414.34174    127623.38   -34077.185    2499.9159   -36577.101    101.31604    235.11914 
   22550    133.85556    -420.4051    127612.08   -34062.845    2524.4603   -36587.305    101.45769    237.42756 
   22600    135.07591   -435.66929    127666.42   -34065.704    2547.4756    -36613.18    101.69514    239.59217 
   22650    134.09294   -115.91628    127670.92   -34021.892    2528.9373   -36550.829    101.68041    237.84863 
   22700    137.51505   -110.83132    127704.87   -33972.936    2593.4767   -36566.413    101.95504    243.91862 
   22750    139.16368   -421.19065     127754.4   -34013.302    2624.5693   -36637.871    102.44796    246.84289 
   22800     133.3694   -636.68063    127686.18   -34021.367    2515.2916   -36536.659    102.64905    236.56524 
   22850    134.95274   -276.67266    127709.93    -34050.68    2545.1527   -36595.833    102.80788     239.3737 
   22900    133.97689   -541.35729    127677.32   -34065.202    2526.7485   -36591.951    103.08532    237.64277 
   22950    136.92208   -260.66537    127653.77    -34032.91    2582.2937   -36615.203    103.06478    242.86684 
   23000    135.10981   -321.23859    127733.78   -34086.342     2548.115   -36634.457    103.08812    239.65231 
   23050    135.34154   -428.76016    127686.23   -34118.284    2552.4854    -36670.77    103.09625    240.06334 
   23100    133.53157   -432.48408    127648.81   -34134.791    2518.3501   -36653.141    103.44015    236.85289 
   23150    131.18042   -163.96438    127593.85   -34157.637    2474.0084   -36631.646    103.72851    232.68252 
   23200    136.28517   -41.821141    127554.05   -34159.148    2570.2818    -36729.43    103.84049    241.73711 
   23250    134.79356   -384.17543    127695.39   -34146.213    2542.1506   -36688.364    104.06759    239.09135 
   23300    137.69072   -125.96668     127709.6   -34103.024    2596.7899   -36699.814    104.36228    244.23023 
   23350    136.54924   -202.27837    127696.96   -34079.018     2575.262    -36654.28    104.70412     242.2055 
   23400     132.1578   -76.673926     127753.8   -34065.162    2492.4412   -36557.603    105.06713    234.41614 
   23450    135.42944    -229.4929    127774.92   -34018.195     2554.143   -36572.338    105.19728    240.21924 
   23500    134.73878   -252.02758    127785.52   -34079.161    2541.1176   -36620.279    104.99472    238.99419 
   23550    136.91373   -270.39033     127854.1   -34010.666    2582.1362   -36592.803    104.93866    242.85203 
   23600    136.26024   -82.559684    127921.08   -34060.179    2569.8117    -36629.99    104.97338     241.6929 
   23650     134.0229   -247.63627    127996.19   -34093.613    2527.6162   -36621.229    104.95636    237.72438 
   23700    135.48797   -547.76895    127964.33   -34110.669    2555.2468   -36665.916    105.20079    240.32306 
   23750    132.12537   -259.51289    128037.94   -34152.137    2491.8297   -36643.967    105.39734    234.35863 
   23800    135.05885    -398.6271    128005.95   -34133.308    2547.1538   -36680.462    105.57404    239.56191 
   23850    135.04577   -374.37703    128030.09   -34092.401    2546.9073   -36639.308     105.4913    239.53872 
   23900    135.88731   -327.23579    127979.51   -34074.102    2562.7783   -36636.881    105.94736     241.0314 
   23950    135.26937   -371.22477    127955.04   -34065.025    2551.1243   -36616.149    106.23169    239.93533 
   24000     130.4985   -477.15027    127930.97    -34110.87    2461.1475   -36572.017    106.39203    231.47294 
   24050    131.38808    -508.5748    127852.34   -34088.522    2477.9247   -36566.447    106.41371    233.05086 
   24100     134.0436   -294.92956    127843.44   -34025.157    2528.0067   -36553.164    106.87637    237.76111 
   24150    137.20872   -116.36059     127792.6    -34005.14    2587.6996    -36592.84    107.23192    243.37527 
   24200    133.52818   -392.48031    127771.08   -34044.628    2518.2861   -36562.914    107.48522    236.84688 
   24250    135.79588   -209.45214    127774.52   -34018.758     2561.054   -36579.812    107.43795    240.86923 
   24300    136.64136   -512.86227     127797.9   -33997.294    2576.9993   -36574.293    107.54496     242.3689 
   24350    135.14779   -514.12135    127806.29   -34048.054    2548.8313   -36596.885    107.94636    239.71968 
   24400    134.66105   -376.96217    127784.64   -34060.801    2539.6516   -36600.453    108.19305    238.85631 
   24450    132.68732   -187.54296    127835.42   -34091.592    2502.4279   -36594.019    108.41388    235.35539 
   24500    130.20488    -216.4472    127822.35   -34137.279      2455.61   -36592.889    108.71595    230.95213 
   24550    131.98162   -5.9194148    127885.15   -34165.186    2489.1186   -36654.305    108.77653    234.10364 
   24600    133.91884   -422.71458     127893.5   -34113.897    2525.6539   -36639.551    109.41728    237.53982 
   24650    135.81623    -163.1513    127976.83       -34113    2561.4377   -36674.437    109.50347    240.90532 
   24700    133.82037   -593.96861    127868.05   -34135.122    2523.7967   -36658.919    109.54355    237.36515 
   24750    131.30383   -194.87704    127777.44    -34073.14    2476.3358   -36549.476    109.88869    232.90142 
   24800    132.80488   -475.51877    127683.09   -34081.575     2504.645    -36586.22     110.1714    235.56392 
   24850    133.62907   -616.13865     127572.4   -34075.632    2520.1887   -36595.821    110.36664    237.02582 
   24900    132.18155   -436.44891    127465.17   -34104.249    2492.8892   -36597.138     110.4133    234.45828 
   24950    134.72952   -386.23571    127369.72   -34100.835    2540.9428   -36641.778    110.72652    238.97775 
   25000    134.71764    -364.0575    127404.09    -34092.32    2540.7189   -36633.038    111.11022    238.95669 
   25050    133.54711   -390.08335    127426.94   -34071.556    2518.6432   -36590.199    111.31495    236.88046 
   25100    135.18044   -393.61967    127345.58   -34046.345     2549.447   -36595.792    111.54823    239.77758 
   25150    133.16385   -301.48595    127393.81   -34012.033    2511.4151   -36523.449    111.93001    236.20065 
   25200    134.79191    -488.6952    127382.01   -34019.105    2542.1194   -36561.225    112.20327    239.08842 
   25250    134.84741   -377.11243    127424.76   -34011.669    2543.1662   -36554.836    112.28873    239.18687 
   25300    135.51737   -267.75457    127489.82    -34015.09    2555.8015   -36570.892    112.49523    240.37522 
   25350     134.1092   -357.03011     127573.9   -34016.599    2529.2439   -36545.843    113.02187    237.87746 
   25400    135.54901   -171.76235    127678.67   -34009.728    2556.3981   -36566.126    113.58082    240.43134 
   25450     133.6886   -471.93934    127724.55   -34040.996    2521.3116   -36562.307    113.95142    237.13142 
   25500    136.15856    -370.0679     127748.4   -34033.381    2567.8939   -36601.275    114.32379    241.51253 
   25550    136.70836   -335.80197    127649.63   -34062.309     2578.263   -36640.572    114.62922    242.48775 
   25600    133.81557   -299.29646    127654.11   -34116.319    2523.7061   -36640.026    114.65833    237.35663 
   25650    132.87484   -249.78243    127639.17   -34081.043    2505.9643   -36587.007    114.52575      235.688 
   25700    133.35327   -683.06928       127617   -34036.656    2514.9873   -36551.643    114.62511    236.53662 
   25750    132.05015    -542.2974    127608.76   -33971.023    2490.4111   -36461.434    114.60915    234.22521 
   25800    135.69304   -462.75181    127594.68   -33956.607    2559.1144   -36515.722    114.64494    240.68681 
   25850    136.31831   -358.36036     127594.3   -33949.051    2570.9067   -36519.957     114.7647    241.79589 
   25900    136.38085   -306.50045    127563.37   -33957.796    2572.0864   -36529.882    115.06137    241.90683 
   25950     133.5553   -275.72773    127624.85   -33981.748    2518.7975   -36500.546    115.32868    236.89497 
   26000     138.2133   -475.27225    127709.52   -33934.722    2606.6456   -36541.368    115.35542    245.15716 
   26050    136.03983   -208.67843    127628.01   -33911.012    2565.6548   -36476.667     115.6962    241.30194 
   26100    139.00754   -326.22119    127518.67   -33915.919    2621.6246   -36537.544    116.13742    246.56594 
   26150    136.32914    -373.5058    127529.17   -33942.836     2571.111   -36513.947    116.21214     241.8151 
   26200     136.2524   -46.718835    127559.56   -33959.917    2569.6637   -36529.581    116.52872    241.67898 
   26250    137.74573   -365.31611     127522.1   -33900.347    2597.8274   -36498.174     116.7896     244.3278 
   26300     136.2142   -353.90007    127518.33   -33938.931    2568.9434   -36507.874    117.25934    241.61123 
   26350    136.29423   -70.011957    127529.98   -33939.126    2570.4526   -36509.579    117.57129    241.75318 
   26400    138.93074   -91.277056    127510.68   -33934.625    2620.1761   -36554.801    117.94753    246.42972 
   26450    135.33962   -158.83798    127483.17   -33954.564     2552.449   -36507.013    118.36385    240.05992 
   26500    136.82507    65.146399    127571.57   -33966.164    2580.4641   -36546.628    118.70906    242.69477 
   26550    138.51284   -317.78001    127614.91   -33915.094    2612.2947   -36527.389    119.04694    245.68846 
   26600    135.05775   -335.45709    127589.97   -33960.644    2547.1332   -36507.777     119.5543    239.55997 
   26650    137.49249   -466.52416    127510.45   -33933.792    2593.0512   -36526.843    119.79207     243.8786 
   26700    134.20131   -383.85899    127472.55   -33972.792     2530.981   -36503.773    119.93628    238.04084 
   26750    138.45395   -381.70881    127453.01   -33952.881    2611.1841   -36564.065    120.12993    245.58401 
   26800    135.19803   -397.71253    127454.64   -33961.376    2549.7788   -36511.155    120.48012    239.80879 
   26850    136.95143   -139.01996    127476.63   -33969.039    2582.8471   -36551.887    120.80246    242.91889 
   26900    133.04728   -439.32807    127460.02   -33954.724    2509.2166   -36463.941    121.16241    235.99388 
   26950     137.0266   -37.807485    127356.55   -33902.126    2584.2647    -36486.39    121.34356    243.05222 
   27000    135.37721   -25.206863    127496.78   -33926.315    2553.1581   -36479.473    121.41475    240.12661 
   27050    135.39894   -282.52167    127487.01   -33993.936    2553.5678   -36547.504    121.50792    240.16515 
   27100    136.63091   -594.02776    127459.04   -33953.718    2576.8024   -36530.521    121.57014    242.35038 
   27150    135.08614   -202.04492     127429.8   -33935.679    2547.6685   -36483.348    121.94379    239.61031 
   27200    132.65936   -389.33541    127443.82   -33964.824    2501.9004   -36466.724    122.21814    235.30579 
   27250    137.45935   -181.33644    127536.91   -33974.233    2592.4264   -36566.659    122.32598    243.81983 
   27300    134.56904   -446.51605    127529.45   -33972.076    2537.9162   -36509.993     122.4262     238.6931 
   27350    138.64441   -169.18827    127533.23   -33951.561    2614.7761   -36566.337    122.65526    245.92184 
   27400    141.09806   -273.48665    127571.65   -33917.836    2661.0509   -36578.887    123.10054    250.27402 
   27450    137.35412   -189.15397    127623.99   -33919.977    2590.4417   -36510.419    123.31078    243.63317 
   27500    137.14337   -524.08599    127645.55   -33878.735    2586.4671   -36465.203     123.4181    243.25936 
   27550    136.28927   -452.61896    127580.42   -33962.285    2570.3591   -36532.644    123.56748    241.74439 
   27600    136.31737    -191.2493    127530.39   -33987.511     2570.889     -36558.4    123.32214    241.79422 
   27650    133.96532   -383.84992     127537.4   -33920.354    2526.5304   -36446.885    123.30425    237.62226 
   27700    135.78099   -225.31894    127515.06   -33945.497    2560.7732    -36506.27    123.06483    240.84282 
   27750    136.81119    -185.2137    127603.77   -33951.441    2580.2023   -36531.643    123.22003    242.67015 
   27800    134.53018   -308.21199    127649.31   -33983.409    2537.1835   -36520.593    123.69708    238.62419 
   27850    133.36082   -221.26729    127612.15   -34013.252    2515.1297   -36528.381    124.16031    236.55001 
   27900    134.81308   -394.93758    127584.74   -33990.637    2542.5188   -36533.155    124.19825    239.12598 
   27950    138.38748   -133.45802    127635.54   -33984.518    2609.9305   -36594.449    124.26213    245.46611 
   28000    136.06763   -376.11857    127690.32   -33986.054     2566.179   -36552.233    124.38831    241.35124 
   28050    137.96458   -231.97644    127682.55    -33984.95    2601.9548   -36586.905    124.85883    244.71598 
   28100     136.1592   -304.46678    127732.12   -34033.354    2567.9061    -36601.26    124.86223    241.51367 
   28150    134.07807   -333.80303    127756.08   -34071.892    2528.6568   -36600.549    124.89023    237.82225 
   28200    133.89352   -361.58024    127867.19   -34022.183    2525.1763   -36547.359    125.18264     237.4949 
   28250    135.66846   -433.35334    127918.22   -34050.262     2558.651   -36608.913    125.31187    240.64322 
   28300    135.30789   -260.47329    127966.53   -34038.199    2551.8507    -36590.05    125.48016    240.00365 
   28350    135.99243   -139.04906    127875.48   -34047.482    2564.7607   -36612.243    125.58375    241.21785 
   28400    135.08079   -174.10427    127880.51   -34090.545    2547.5676   -36638.113    125.79231    239.60083 
   28450    131.85879   -302.72781    127840.36   -34095.877     2486.802   -36582.679    125.79047    233.88577 
   28500    134.26526    37.066316    127857.99   -34052.759    2532.1871   -36584.946    125.92527    238.15427 
   28550    136.48309   -205.96237    127859.12   -34036.196    2574.0144   -36610.211    126.25978    242.08817 
   28600     133.1373   -124.54589    127873.64   -34069.696    2510.9142    -36580.61    126.29775    236.15355 
   28650    136.70106   -273.65046    127952.63   -34015.157    2578.1253   -36593.282    126.45232     242.4748 
   28700    134.75847   -392.09079    127996.32    -34007.27    2541.4888   -36548.759    126.53049    239.02911 
   28750    134.46937   -328.41536    128048.99   -34052.153    2536.0366    -36588.19    126.62559    238.51632 
   28800    133.10808   -599.48074    127991.65   -34068.768    2510.3632   -36579.132    126.60046    236.10172 
   28850    134.56555   -313.20578    127940.75   -34043.881    2537.8504   -36581.731    126.94868    238.68691 
   28900    132.71263   -158.35779       127922   -34083.552    2502.9052   -36586.457    127.19188    235.40029 
   28950    132.83201   -451.69566    127966.52    -34097.67    2505.1567   -36602.826    127.20724    235.61204 
   29000    134.28011   -179.50056    127871.24   -34096.464    2532.4671   -36628.931     127.3537    238.18061 
   29050    135.93063   -562.55512    127794.38   -34057.895    2563.5952    -36621.49    128.02994    241.10823 
   29100    135.97125   -401.36811    127706.79   -34072.615    2564.3614   -36636.977    128.18054     241.1803 
   29150    134.30141   -80.858614    127693.41   -34087.176    2532.8689   -36620.045    128.34595     238.2184 
   29200    136.09903   -282.12373    127667.88   -34041.862    2566.7712   -36608.633    128.52231    241.40694 
   29250    134.56794   -401.98991    127748.62   -34096.954    2537.8955    -36634.85    129.16412    238.69115 
   29300    134.54643   -9.1726506    127795.47   -34071.283    2537.4899   -36608.773    129.25222      238.653 
   29350    133.18122   -286.67962    127857.59   -34117.939    2511.7426   -36629.682    129.91183    236.23145 
   29400    132.81027   -310.67541    127788.75    -34173.33    2504.7466   -36678.076    130.13289    235.57347 
   29450    133.51571   -333.78221    127739.23    -34168.63    2518.0509   -36686.681    130.32385    236.82476 
   29500    132.83512   -294.10738    127743.27   -34198.466    2505.2153   -36703.681    130.46917    235.61755 
   29550    134.00663   -495.48445     127756.3    -34134.66    2527.3095    -36661.97    130.41831    237.69553 
   29600    133.79063   -354.93181    127794.38   -34115.227    2523.2358   -36638.463    130.44339    237.31239 
   29650    134.23126   -101.29727    127830.51   -34097.602    2531.5458   -36629.147    130.68283    238.09396 
   29700    134.24965   -48.133446    127867.75   -34126.951    2531.8927   -36658.843    130.63631    238.12658 
   29750    132.58217   -317.69937     127908.3   -34145.551    2500.4447   -36645.995    130.76216    235.16888 
   29800    132.97733   -92.415901    127941.25   -34176.828    2507.8972   -36684.725    130.85313    235.86979 
   29850    130.64706   -176.06115    128015.84   -34212.231    2463.9493   -36676.181    130.74987    231.73646 
   29900    133.01578   -335.97666    128047.37    -34187.43    2508.6224   -36696.053    131.10508    235.93799 
   29950    136.72084   -421.40962    127967.13   -34091.514    2578.4984   -36670.012    131.12517    242.50989 
   30000    136.09959    -189.2235    127966.95   -34105.869    2566.7819   -36672.651     131.2473    241.40794 
   30050     135.6054    -457.0055    128013.33   -34079.949    2557.4616   -36637.411    131.61393    240.53136 
   30100    135.12656    -256.3904    127980.51   -34088.208    2548.4308   -36636.639    131.66498    239.68201 
   30150    136.03759    12.042245    128090.76   -34046.081    2565.6125   -36611.694    132.12407    241.29796 
   30200    136.49351   -152.25078    128103.33   -34020.707    2574.2109   -36594.918    132.05794    242.10665 
   30250    135.26873   -84.723509    128132.96   -34061.074    2551.1122   -36612.186    132.43194     239.9342 
   30300    136.06281   -362.76458    128196.07   -34077.363    2566.0882   -36643.451    132.57518     241.3427 
   30350    136.01773    -314.7884     128178.6   -34111.142     2565.238    -36676.38    132.29846    241.26273 
   30400    135.86111   -17.538724    128210.59   -34139.886    2562.2842    -36702.17    132.36228    240.98493 
   30450    135.15057   -318.12662    128180.12   -34126.424    2548.8837   -36675.308    132.24055     239.7246 
   30500    135.15816   -323.62703    128162.46   -34150.909    2549.0268   -36699.936    131.98124    239.73806 
   30550    134.82069   -209.12872    128131.31   -34150.775    2542.6623   -36693.437    132.02693    239.13948 
   30600    135.05957   -219.67667    128118.57   -34208.682    2547.1675   -36755.849    132.15588    239.56319 
   30650    133.55275   -534.58162    128046.56    -34165.17    2518.7494   -36683.919      132.173    236.89045 
   30700    135.08686   -115.78901    127968.19    -34102.06    2547.6822   -36649.742    132.14099     239.6116 
   30750    135.33328   -148.17308    127963.88       -34060    2552.3296   -36612.329    132.27021    240.04869 
   30800    134.53143    -228.6779    127925.18   -34082.906     2537.207   -36620.113    132.58998     238.6264 
   30850    137.19015   -239.96625    127864.37   -34099.135    2587.3493   -36686.484    132.88038    243.34233 
   30900    136.84106   -218.67831    127863.04   -34059.452    2580.7657   -36640.218     132.9439    242.72313 
   30950     134.6296   -155.13714    127946.42   -34089.383    2539.0584   -36628.441     132.8985    238.80053 
   31000    137.07946   -182.73904    127984.39   -34034.336    2585.2617   -36619.597     133.3676    243.14598 
   31050    136.58373   -467.78692    127969.71   -34019.011    2575.9125   -36594.924    133.55308    242.26668 
   31100    135.12429   -194.40881    127885.18   -34043.763    2548.3881   -36592.151    133.63826    239.67799 
   31150    135.58123   -113.18668    127888.46   -34064.076    2557.0058   -36621.082    133.65889    240.48849 
   31200    135.63003   -311.61819    128026.71   -34086.518    2557.9262   -36644.444    133.73856    240.57506 
   31250    135.60331   -86.639753    128113.64   -34059.185    2557.4223   -36616.607    133.79638    240.52766 
   31300    134.20691   -140.43196    128187.44    -34082.26    2531.0866   -36613.346    133.97706    238.05077 
   31350    135.50733   -435.55697    128214.86   -34056.242     2555.612   -36611.854    133.96865    240.35741 
   31400    137.33935   -401.45481     128089.8   -34041.163    2590.1631   -36631.326    134.28163    243.60696 
   31450    136.09984   -148.37932    128073.73    -34021.72    2566.7866   -36588.506    134.36352    241.40838 
   31500    137.01802   -427.17592    128110.32   -34053.833     2584.103   -36637.936    134.41973    243.03701 
   31550    132.57703    -111.2669    128075.73   -34063.912    2500.3477    -36564.26    134.55705    235.15975 
   31600    136.41897   -376.25304    128049.36   -33979.318    2572.8053   -36552.123    134.55104    241.97445 
   31650    134.92991   -495.82992    128002.51   -34013.185    2544.7221   -36557.907    134.93786    239.33321 
   31700    135.42375   -347.96483    127965.08   -34040.851    2554.0358   -36594.887    135.17188    240.20916 
   31750    136.43213   -107.94071    127985.38   -34083.594    2573.0534   -36656.648    135.31385    241.99779 
   31800    134.35527   -337.61144    127922.12   -34073.308    2533.8846   -36607.193    135.80605    238.31392 
   31850    133.27728   -109.83165    127867.06   -34083.682    2513.5542   -36597.236    135.62806    236.40183 
   31900    136.69847   -517.56562    127847.64   -34013.494    2578.0764    -36591.57    135.89288     242.4702 
   31950    136.01945   -280.52632    127767.16   -33996.788    2565.2705   -36562.058    136.32495     241.2658 
   32000    136.33866   -289.74098    127763.47   -34010.287    2571.2906   -36581.578    136.51772    241.83199 
   32050    134.26312   -301.98279    127752.66   -34016.568    2532.1468   -36548.715    136.91816    238.15049 
   32100    134.30211   -219.97631    127736.64   -34015.851     2532.882   -36548.733    137.09394    238.21963 
   32150    136.24763   -70.628874    127807.52   -33988.794    2569.5737   -36558.368    137.64099    241.67052 
   32200    137.49394   -182.88653    127852.21   -33929.564    2593.0786   -36522.643    137.90979    243.88117 
   32250    136.72113     1.790178    127902.22    -33977.12    2578.5038   -36555.624    138.26203     242.5104 
   32300    134.26489   -142.81989    127835.27   -34041.321    2532.1801   -36573.501    138.56053    238.15362 
   32350    136.20532   -502.23997    127851.27   -34050.957    2568.7759   -36619.733    138.89007    241.59548 
   32400    133.20121    -468.1921    127841.58   -34083.509    2512.1196   -36595.629    138.90055    236.26691 
   32450    135.03729   -160.89591    127822.24     -34013.4    2546.7473   -36560.147    139.01033    239.52368 
   32500     136.0121   -583.56726    127771.51   -34018.288    2565.1318    -36583.42     139.2884    241.25275 
   32550    133.17665   -416.78915    127672.92   -34050.995    2511.6563   -36562.652     139.2946    236.22334 
   32600    134.13228   -251.79098     127673.3   -34019.436    2529.6791   -36549.115    139.57364    237.91839 
   32650    136.40627    -212.2318    127688.42    -34006.01    2572.5658   -36578.575    139.59401    241.95192 
   32700     134.4202   -305.15935    127620.86   -34025.834    2535.1092   -36560.943    139.68728     238.4291 
   32750    134.69594   -531.56217    127569.19   -33985.735    2540.3095   -36526.044    139.53832    238.91819 
   32800    133.76158   -363.85885    127385.02   -34038.183    2522.6879   -36560.871    139.70344    237.26086 
   32850    133.00098   -374.89742    127340.72   -34053.897    2508.3433    -36562.24    139.77405    235.91175 
   32900    133.79393   -218.59287    127237.71   -34056.479     2523.298   -36579.777    139.74873    237.31825 
   32950    134.93282   -266.28601    127215.05   -34085.046     2544.777   -36629.823     139.6051    239.33836 
   33000    134.94349   -364.79359    127174.91   -34051.598    2544.9782   -36596.576    139.83663    239.35728 
   33050    135.32378   -49.547082    127238.04   -34010.493    2552.1504   -36562.644    139.94581    240.03184 
   33100    134.82779   -417.62172     127187.9   -34061.589    2542.7962   -36604.385    140.08141    239.15207 
   33150     133.4769   -278.67069    127195.21   -33991.089    2517.3191   -36508.408    140.23558    236.75592 
   33200    134.80218    -273.3534    127158.25   -34019.678    2542.3133   -36561.992    140.53242    239.10665 
   33250    137.48248   -505.04377    127067.79   -34061.727    2592.8626    -36654.59    141.01277    243.86085 
   33300    135.48508   -9.7925981    127128.69    -34029.04    2555.1923   -36584.232    141.08673    240.31794 
   33350    135.69803   -366.16476    127217.93   -33987.292    2559.2086   -36546.501    141.34331    240.69567 
   33400    137.42635   -317.32614     127298.6    -33981.89    2591.8039   -36573.694    141.65063    243.76128 
   33450    137.32466   -207.05883    127415.99   -33981.144    2589.8862   -36571.031    141.99632    243.58092 
   33500     137.6946   -74.898204    127500.22     -34009.8    2596.8631   -36606.663    142.05683     244.2371 
   33550     135.0261   -450.52838    127551.93   -34043.988    2546.5363   -36590.524    142.46921    239.50383 
   33600    135.70797   -242.64826    127522.88   -34056.876    2559.3959   -36616.272    142.86005    240.71329 
   33650     137.1056   -375.08669    127451.15   -34035.753    2585.7547   -36621.508    143.05072    243.19235 
   33700    136.82208   -656.82949    127342.87   -34045.356    2580.4076   -36625.763    143.10094    242.68945 
   33750    133.83087   -537.47108    127270.54   -33986.163    2523.9948   -36510.158    143.24341    237.38378 
   33800    137.66799   -510.43913    127285.87   -33999.917    2596.3612   -36596.278    143.51169     244.1899 
   33850    134.89322   -452.79479    127367.52   -33936.679    2544.0302   -36480.709    143.50991    239.26813 
   33900    137.49004   -560.26857     127356.6   -33950.469    2593.0052   -36543.474    143.61806    243.87427 
   33950    139.10409   -199.51978    127363.32    -33944.12    2623.4455   -36567.565    143.96532     246.7372 
[...]
   92000    136.07977   -24.586739     127336.8   -33888.913    2566.4079   -36455.321     412.0614    241.37277 
   92050    136.24888    -299.7512    127337.88   -33933.158    2569.5974   -36502.756    412.11757    241.67274 
   92100    134.88635     -261.676    127368.39   -33931.812    2543.9006   -36475.712    412.01889    239.25594 
   92150    138.86913   -423.72532    127318.55   -33940.192    2619.0142   -36559.206    411.54466    246.32043 
   92200    137.15609   -207.60317     127283.2   -33946.058     2586.707   -36532.765    411.37783    243.28192 
   92250    132.92443   -387.52759    127222.62   -33963.187    2506.8997   -36470.087    411.14849    235.77597 
   92300    138.88981   -244.56296    127184.57    -33953.38    2619.4041   -36572.784     411.1316    246.35711 
   92350    137.13622   -370.15626    127329.37   -33940.803    2586.3323   -36527.135    411.19712    243.24667 
   92400    136.11148   -219.03415    127341.45    -33968.97     2567.006   -36535.975    411.31995    241.42902 
   92450    137.36379   -286.67868    127431.01   -33950.794     2590.624   -36541.418    411.72924    243.65031 
   92500    135.99324   -11.264952    127559.18   -33993.419    2564.7761   -36558.195    412.01847    241.21929 
   92550    137.13849   -282.03118    127630.23   -34023.229     2586.375   -36609.604    412.06473    243.25069 
   92600    134.12859   -207.44285    127664.71   -34061.828    2529.6096   -36591.437    412.03122    237.91186 
   92650     136.2235   -270.24466    127623.59   -34045.616    2569.1188   -36614.735    412.06315    241.62773 
   92700    134.82767   -439.75126    127556.07   -34010.175    2542.7939   -36552.969    412.17805    239.15185 
   92750    136.04194    45.925551    127577.61   -34022.312    2565.6946   -36588.007    411.75701    241.30568 
   92800    133.34614   -484.34833    127563.63    -33985.56    2514.8529   -36500.413    412.13925    236.52398 
   92850    135.75503   -444.70348     127519.6   -33973.687    2560.2835    -36533.97     412.7224    240.79676 
   92900    136.83203   -357.53004    127431.47   -33983.319    2580.5953   -36563.915    412.99139    242.70711 
   92950    134.39774   -464.57221    127394.97   -34016.506    2534.6857   -36551.192    412.93017    238.38927 
   93000    134.30457   -339.94034    127365.54   -33993.181    2532.9286    -36526.11    412.54796    238.22401 
   93050    135.24513   -234.79281    127313.03   -34002.269    2550.6671   -36552.936    412.53336    239.89233 
   93100       133.05   -447.56863    127308.21   -34001.769    2509.2678   -36511.037    413.18329     235.9987 
   93150    136.29016   -407.03462    127290.18   -33996.103    2570.3759   -36566.479    413.70971    241.74596 
   93200    137.95459   -383.10465     127307.9   -34011.893    2601.7664   -36613.659    413.86613    244.69827 
   93250    134.76441     -331.409    127294.74   -34066.386    2541.6008   -36607.986    414.08138    239.03964 
   93300    131.67635   -394.52866    127257.28   -34079.678    2483.3613   -36563.039    413.98646    233.56217 
   93350    136.51628   -319.34133    127337.32   -34044.471    2574.6405   -36619.111    414.03193    242.14705 
   93400    133.05595   -721.18942    127256.81   -34116.076    2509.3801   -36625.456    413.70745    236.00926 
   93450    132.93622    -167.4906    127155.98   -34092.163    2507.1219   -36599.285    413.70406    235.79687 
   93500    134.51676   -449.73479    127114.51   -34100.899    2536.9303    -36637.83    414.26384    238.60037 
   93550    135.49027   -231.33714    127170.32   -34069.181    2555.2903   -36624.471    413.95031    240.32715 
   93600    132.20319   -219.83624    127227.89    -34019.69    2493.2974   -36512.987    413.98263    234.49666 
   93650    133.83641   -222.90279    127203.28   -34017.817    2524.0992   -36541.917    414.18727     237.3936 
   93700    134.72048   -297.14569     127187.7   -34071.689    2540.7724   -36612.461    414.26393    238.96173 
   93750    135.91235   -152.05476    127177.85   -34061.969    2563.2506    -36625.22    414.42773    241.07582 
   93800    136.63973    46.935751     127226.6   -34082.614    2576.9687   -36659.583    414.92253    242.36602 
   93850     133.2681    -83.62007    127274.98   -34098.762     2513.381   -36612.143    415.30344    236.38555 
   93900    137.76024   -121.32608    127289.07   -33982.987     2598.101   -36581.088    415.48897    244.35353 
   93950    137.41749   -342.66515    127261.45    -33994.16    2591.6369   -36585.797     415.0814    243.74558 
   94000    134.53628    -304.5771    127157.62   -33986.125    2537.2984   -36523.423    415.09015      238.635 
   94050    132.32081   -200.31741    127124.54   -34048.573    2495.5156   -36544.088    415.58072    234.70529 
   94100    135.16682   -99.322904    127220.78   -34036.984    2549.1901   -36586.174    415.64317    239.75343 
   94150     136.3576    60.726066    127268.28   -34049.335    2571.6478   -36620.983    415.57161    241.86558 
   94200    134.99335   -460.16483    127318.74   -34024.957    2545.9186   -36570.876    415.45818    239.44573 
   94250     135.4084   -149.99771    127362.53   -34051.494    2553.7463    -36605.24    415.88137    240.18193 
   94300     135.7848   -214.03635    127422.65   -34012.286    2560.8451   -36573.131    415.83358    240.84958 
   94350    136.09752   -446.30995    127458.96   -33966.984    2566.7427   -36533.727    416.06195    241.40426 
   94400    138.07502   -229.77298    127424.15    -33971.09    2604.0375   -36575.127    415.72223    244.91187 
   94450    136.36317   -185.66671    127426.93   -33969.358    2571.7529   -36541.111    415.76064    241.87547 
   94500    137.91166   -131.49472    127517.57   -33970.079    2600.9568   -36571.036    415.66735    244.62212 
   94550    135.56619   -153.62085    127554.61   -33951.675     2556.722   -36508.397    415.74315    240.46181 
   94600    140.29294   -314.68837    127660.36   -33940.705    2645.8666   -36586.572    415.92412    248.84592 
   94650    139.60234   -79.082651    127654.56   -33952.198    2632.8422    -36585.04    416.22344    247.62096 
   94700    136.17462   -153.02368    127740.71   -34029.592    2568.1968   -36597.789    416.77969    241.54102 
   94750    137.27175   -425.28159    127718.35   -34036.831    2588.8883   -36625.719    416.80502    243.48707 
   94800    137.42756   -499.70467     127702.9   -34034.094    2591.8269   -36625.921    417.24445    243.76344 
   94850    134.49711   -492.96571    127691.94   -34094.844    2536.5597   -36631.404    417.98425    238.56552 
   94900    134.97647   -360.08982    127551.58   -34138.062    2545.6003   -36683.662    417.76543     239.4158 
   94950    133.81837    -218.9209    127516.64   -34138.237     2523.759   -36661.996    417.73279     237.3616 
   95000    134.87124   -350.55194    127493.56   -34104.702    2543.6156   -36648.318    418.21971    239.22913 
   95050    134.20358   -302.84762    127480.15   -34086.594    2531.0238   -36617.618     418.2101    238.04486 
   95100    137.78205   -15.503552    127466.62   -34086.673    2598.5123   -36685.186     418.5233    244.39222 
   95150    134.50525     87.26406    127537.65   -34118.385    2536.7132   -36655.098    418.35385    238.57995 
   95200    133.41794   -235.24599    127517.74   -34114.944     2516.207   -36631.151    418.87241    236.65133 
   95250     135.4547   -224.47285     127557.5   -34072.297    2554.6194   -36626.917    418.78294    240.26405 
   95300    133.50663   -367.02594    127590.84   -34123.864    2517.8797   -36641.743    418.81342    236.80865 
   95350    134.70438   -237.15907    127569.08   -34139.453    2540.4687   -36679.922    419.11383    238.93317 
   95400    135.91369   -221.61299    127575.45   -34098.422    2563.2758   -36661.697    419.78569    241.07819 
   95450       134.36   -365.39141    127515.71   -34095.604    2533.9739   -36629.578    419.91588    238.32233 
   95500    133.01295   -493.01168    127583.37   -34096.081     2508.569    -36604.65    420.40413    235.93297 
   95550    131.60919   -307.02969    127570.86   -34130.207    2482.0947   -36612.301    421.47235    233.44304 
   95600     133.1893   -287.46919    127533.56   -34144.076     2511.895   -36655.971    421.58116    236.24578 
   95650    133.78495   -237.42447     127566.7   -34161.045    2523.1286   -36684.174    421.41979    237.30232 
   95700    133.06098   -209.09222    127458.61   -34134.587    2509.4749   -36644.062    421.57711    236.01818 
   95750    134.15251    -301.4209    127391.62   -34161.127    2530.0607   -36691.188    421.81172    237.95429 
   95800    132.45499   -227.21139    127334.18   -34129.849    2498.0461   -36627.895     421.4242    234.94329 
   95850    133.86979     104.9502     127365.9   -34144.508    2524.7286   -36669.236    421.57732     237.4528 
   95900     132.9996   -395.18141    127448.63   -34145.497    2508.3174   -36653.815    421.50629    235.90931 
   95950    137.88304   -289.47399    127448.81   -34100.595     2600.417   -36701.012    421.91122    244.57135 
   96000    134.23272    -444.9594    127494.29   -34042.303    2531.5733   -36573.876    421.67218    238.09655 
   96050    132.78109    47.651538    127499.22   -34058.183    2504.1962   -36562.379     421.6734    235.52171 
   96100    134.11578   -131.65938    127533.38   -34022.932    2529.3679   -36552.299    422.49146    237.88913 
   96150     138.4719   -322.61072    127555.53   -33998.672    2611.5227   -36610.195    422.59033    245.61585 
   96200    134.50493    -274.1307    127474.67   -34004.678    2536.7072   -36541.385    422.23617    238.57939 
   96250    135.70603    6.0858954    127462.26   -34061.156    2559.3594   -36620.515    422.28461    240.70985 
   96300    136.62624   -319.33223    127408.34     -34016.9    2576.7142   -36593.614    422.82135    242.34209 
   96350    137.44014    -201.2054    127396.83   -34013.055    2592.0641   -36605.119     422.9775    243.78576 
   96400    134.47339   -276.54069    127347.14   -33990.091    2536.1124   -36526.204     423.2337    238.52346 
   96450    136.89386   -548.98925    127332.51   -33933.129    2581.7615   -36514.891    423.85776    242.81678 
   96500    137.86502   -404.17136    127330.72   -33939.617     2600.077   -36539.694    423.82617    244.53938 
   96550    138.32663   -393.51839    127287.27   -33980.898    2608.7829   -36589.681    424.16602    245.35818 
   96600    135.98609   -182.82563    127377.14   -33995.447    2564.6413   -36560.088    425.03841    241.20662 
   96650    135.99859   -373.69233    127439.12   -33965.752     2564.877   -36530.629    425.02232    241.22879 
   96700    138.11376   -637.11565    127358.82   -33941.188    2604.7681   -36545.956    424.60106    244.98058 
   96750    139.78331   -9.7328103    127339.19   -33909.436    2636.2553   -36545.691    424.47391    247.94197 
   96800    138.39308   -138.31685     127389.2   -33906.844    2610.0362    -36516.88    424.33467    245.47604 
   96850    135.43291   -209.91791    127401.72   -33929.172    2554.2085   -36483.381    423.98155     240.2254 
   96900    136.14577    16.986221    127436.88   -33927.312    2567.6528   -36494.965    423.87796    241.48986 
   96950    133.98421   -147.08037    127533.27   -33944.051    2526.8866   -36470.937    424.06498    237.65576 
   97000    134.65828   -162.58978    127543.12   -33959.982    2539.5993   -36499.581    423.95552     238.8514 
   97050    135.35097   -463.66634    127564.69    -33938.01    2552.6632   -36490.674      424.473    240.08007 
   97100    134.87831    -258.0878    127486.74   -33975.404     2543.749   -36519.153    425.36563    239.24168 
   97150    134.93434   -123.76397    127502.11   -33954.431    2544.8057   -36499.237    425.33725    239.34106 
   97200    134.97654   -117.55297    127559.21    -33949.38    2545.6015   -36494.982    425.83666    239.41591 
   97250    135.11094   -471.80973    127519.88   -34012.824    2548.1363   -36560.961    426.08706    239.65431 
   97300    135.59357   -558.10581    127437.48   -34003.773    2557.2386   -36561.011    426.02394    240.51038 
   97350    134.87629   -183.36457    127350.74   -34003.904    2543.7109   -36547.615    425.87265     239.2381 
   97400    138.10552   -147.63104       127407   -34008.392    2604.6128   -36613.005    426.09259    244.96597 
   97450    134.58069    -196.8933    127414.48   -34020.928    2538.1361   -36559.065    426.15494    238.71378 
   97500    135.90208   -397.65563    127477.86   -33953.065    2563.0568   -36516.121    426.26322     241.0576 
   97550    135.67372   -167.98163    127457.79   -34006.856    2558.7501   -36565.606    427.15803    240.65255 
   97600    134.25416   -104.23141    127459.21   -34022.939    2531.9778   -36554.917    427.17876    238.13459 
   97650    136.78769   -28.152014    127497.05   -34035.488    2579.7592   -36615.247    427.04921    242.62847 
   97700     133.8549   -198.41942    127542.57   -34030.514     2524.448   -36554.961    427.27362     237.4264 
   97750    134.28002   -183.63443    127595.96   -34025.066    2532.4655   -36557.531    427.96037    238.18046 
   97800     133.8323    50.466229    127631.29    -34025.96    2524.0217   -36549.982    427.38016    237.38631 
   97850    135.60965    55.255604    127703.63   -34053.275    2557.5417   -36610.817    427.44329     240.5389 
   97900     134.2925   -37.857648    127742.12   -33989.755    2532.7008   -36522.456    427.75814    238.20259 
   97950    135.47733   -118.69264    127782.49   -33994.525    2555.0462   -36549.571    427.72507    240.30419 
   98000    137.23415    -405.5002    127825.81   -33963.235    2588.1792   -36551.414    427.77658    243.42038 
   98050    136.98111   -257.55716    127758.04   -33963.154    2583.4069   -36546.561    427.30631    242.97154 
   98100    137.53078   -23.918369    127787.51   -33985.045    2593.7735   -36578.818    427.25052    243.94652 
   98150    134.54167   -179.70189    127843.03   -34007.761       2537.4   -36545.161    427.59535    238.64456 
   98200    134.90128   -205.32247    127862.52   -34018.006    2544.1822   -36562.188    427.66405    239.28243 
   98250     135.8431   -449.08895    127865.73   -33971.971    2561.9446   -36533.916     427.7651    240.95299 
   98300    134.97292   -515.57409    127788.86   -34013.782    2545.5333   -36559.316    427.68678     239.4095 
   98350    137.93853   -282.99255     127769.7    -33946.27    2601.4635   -36547.734    427.72315    244.66978 
   98400    134.07163   -648.45892    127765.24   -33962.171    2528.5354   -36490.706    427.91685    237.81083 
   98450    138.36923   -386.29222       127770    -34015.34    2609.5863   -36624.926    428.43624    245.43373 
   98500    135.33057    8.2120764    127874.28   -33997.734    2552.2784   -36550.012    428.98457    240.04388 
   98550    136.31946   -286.61138    127880.59   -33960.308    2570.9284   -36531.236    429.25006    241.79792 
   98600    137.28585   -354.39849    127867.83   -33943.159    2589.1542   -36532.314    429.44579    243.51208 
   98650    135.91754   -340.50682    127874.45   -33977.941    2563.3484    -36541.29    429.55214    241.08502 
   98700    137.16399   -404.63954    127918.06   -33962.686     2586.856   -36549.542    429.76022    243.29593 
   98750    135.98165   -96.119348    127911.97    -33951.25    2564.5575   -36515.807    430.08314    241.19874 
   98800    134.92679   -294.20643    127851.09   -33983.782    2544.6632   -36528.445    430.71618    239.32767 
   98850    138.14026    56.195823    127849.86   -33985.833    2605.2681   -36591.101    430.67901     245.0276 
   98900    134.66725    -292.0562     127914.8   -34057.695    2539.7685   -36597.463    431.25021    238.86731 
   98950    136.08813    -383.5506    127899.14   -34036.634    2566.5658     -36603.2    431.30457    241.38762 
   99000    133.90768   -359.91836    127802.23   -33996.471    2525.4433   -36521.914    431.56254    237.52001 
   99050    135.35812     -118.631    127798.19   -33975.885     2552.798   -36528.683    431.60821    240.09275 
   99100    136.44118   -160.42267    127828.59   -34007.439     2573.224   -36580.663    431.77954    242.01383 
   99150    134.54893   -420.84002    127819.35   -34028.057    2537.5371   -36565.594    431.88968    238.65744 
   99200    132.21913   -161.25619    127726.33   -34073.044    2493.5979   -36566.642    431.91856    234.52493 
   99250    133.04316   -376.24381    127672.84       -34093    2509.1388   -36602.139    431.99958    235.98656 
   99300     134.4873   -266.73136    127666.91   -34046.496    2536.3747   -36582.871    431.92428    238.54812 
   99350    134.95757   -433.78632    127628.41   -33987.869    2545.2437   -36533.113     432.3036    239.38226 
   99400    137.37235   -317.57406     127637.5   -33983.547    2590.7855   -36574.332    432.35582     243.6655 
   99450    133.69309   -276.18456    127515.26   -34052.835    2521.3962   -36574.231     432.0199    237.13938 
   99500    136.76096   -198.97217    127495.02   -34060.109    2579.2549   -36639.364    432.02081    242.58104 
   99550    136.34251   -428.32764    127395.84   -34080.804    2571.3631   -36652.167    432.45783    241.83881 
   99600    130.78649    -214.7718    127382.07   -34108.771    2466.5789    -36575.35    432.60371    231.98377 
   99650    133.25546    -313.6139     127387.5   -34083.481    2513.1427   -36596.624    432.71725    236.36314 
   99700    136.20345   -474.18799    127255.06   -34086.482    2568.7405   -36655.223    432.50755    241.59216 
   99750    134.44191   -192.24458     127245.6   -34094.369    2535.5187   -36629.888    432.75686    238.46762 
   99800    136.91052   -165.20471    127339.23   -34096.142    2582.0756   -36678.218    432.94508    242.84633 
   99850    135.08731    -229.9578    127452.12   -34081.001    2547.6905   -36628.691     433.8103    239.61239 
   99900    133.02185    -351.1841    127470.27   -34104.516    2508.7369   -36613.253    434.12422    235.94876 
   99950    136.57967    -505.2055    127417.93   -34084.743    2575.8359   -36660.579    434.02192    242.25948 
  100000    135.39412   -422.03413    127473.06   -34043.145     2553.477   -36596.622    433.75535    240.15661 
Loop time of 57.1629 on 90 procs for 100000 steps with 6328 atoms

Performance: 755.735 ns/day, 0.032 hours/ns, 1749.388 timesteps/s
97.3% CPU use with 90 MPI tasks x no OpenMP threads

MPI task timing breakdown:
Section |  min time  |  avg time  |  max time  |%varavg| %total
---------------------------------------------------------------
Pair    | 7.6852     | 18.754     | 40.553     | 300.5 | 32.81
Neigh   | 0.55582    | 1.2966     | 3.2395     |  78.5 |  2.27
Comm    | 6.0492     | 19.313     | 42.299     | 311.8 | 33.79
Output  | 0.14829    | 0.1513     | 0.16173    |   0.5 |  0.26
Modify  | 3.4815     | 16.852     | 39.755     | 381.3 | 29.48
Other   |            | 0.7953     |            |       |  1.39

Nlocal:    70.3111 ave 156 max 43 min
Histogram: 60 0 0 11 4 0 0 0 2 13
Nghost:    717.056 ave 1049 max 448 min
Histogram: 30 0 0 28 2 0 0 0 14 16
Neighs:    0 ave 0 max 0 min
Histogram: 90 0 0 0 0 0 0 0 0 0
FullNghs:  5769.67 ave 18871 max 1643 min
Histogram: 60 0 0 0 15 0 0 0 0 15

Total # of neighbors = 519270
Ave neighs/atom = 82.0591
Neighbor list builds = 5995
Dangerous builds = 0

write_data		${DIR}/data.eq-${NAME}-${TEMP}
write_data		run_4/data.eq-${NAME}-${TEMP}
write_data		run_4/data.eq-het_freeze_4-${TEMP}
write_data		run_4/data.eq-het_freeze_4-240
undump          1

reset_timestep  0

unfix           2
unfix           3
unfix           4


################################################
#######         Run Simulation         #########
################################################

log				${DIR}/log.run_${NAME}
log				run_4/log.run_${NAME}
log				run_4/log.run_het_freeze_4
