LAMMPS data file via write_data, version 16 Mar 2018, timestep = 6000000

6736 atoms
2 atom types

1.5243790879799946e-01 4.9067562091192357e+01 xlo xhi
1.5181736675040369e-01 4.8867818563662013e+01 ylo yhi
1.4639657171216314e-01 5.9915603428276000e+01 zlo zhi

Masses

1 18.015
2 12.01

Atoms # atomic

5561 1 2.7590491303168072e+00 2.7460333752177508e+00 2.8849202244234911e+00 1 1 0
481 1 9.5535204943554186e-01 1.0208463127648235e+00 1.9988834435373932e+00 -3 -2 0
20 1 5.3321584059391025e+00 2.7883431160394423e+00 1.7518579466095661e+00 1 2 0
1187 1 1.0530595571056894e+01 1.4074542200278095e+00 2.2318769028647885e+00 2 -2 1
4200 1 1.3109582798590651e+01 1.4176345120833460e+00 1.5921758716850236e+00 -6 -1 1
6268 1 1.4516089184626045e+01 3.2856768698616086e+00 2.7925231637551979e+00 -5 0 1
3419 1 2.3472772301662350e+00 5.1292939041835508e+00 1.9279391101769503e+00 2 1 1
4507 1 3.7382220378101638e+00 7.3706624215793379e+00 2.8161859212653253e+00 4 -2 0
3434 1 6.9358536434467926e+00 4.6070974960394668e+00 3.0840822757304291e+00 2 0 0
3759 1 6.2064359837824092e+00 6.9766436299189003e+00 2.2208530712108860e+00 3 1 0
5153 1 9.3535604943809840e+00 3.9284895693046407e+00 1.8416238407875150e+00 1 -2 0
5849 1 1.1069268384520536e+01 6.1974938163167490e+00 2.8062109354833988e+00 0 2 1
3519 1 1.3613608784062061e+01 5.3295104984944262e+00 1.6530397873818299e+00 2 1 0
5530 1 1.5076724055626705e+01 7.7799309840888347e+00 2.2663689575675945e+00 2 2 0
2859 1 3.0696576342520103e+00 9.7158683051746575e+00 1.7497362432810053e+00 -6 -1 1
5343 1 1.4058280940627954e+01 2.3243523837335392e+01 1.0034483785030508e+01 -4 -1 0
5098 1 4.8975115324052272e+00 1.1535853713175715e+01 2.7136881364694223e+00 -1 2 0
4612 1 8.1021981518681372e+00 8.9650696880357241e+00 2.7379669109710476e+00 6 -2 1
2036 1 7.2539358086850774e+00 1.1086243382854322e+01 1.6788994928639591e+00 -2 0 1
5976 1 1.0595257157220919e+01 8.6757314167465438e+00 1.8403144654682593e+00 1 0 1
2680 1 1.1918306469935084e+01 1.0898273756557495e+01 2.6344475207135143e+00 1 3 1
2024 1 1.4154570986090484e+01 9.9870925205352776e+00 1.4807201048645335e+00 3 1 1
3693 1 1.5690357236010053e+01 1.2107631310187170e+01 2.5038155024281195e+00 -1 0 0
5105 1 3.5528474984839629e+00 1.3613527604575459e+01 1.7021689145903678e+00 4 0 0
215 1 1.1331131641426131e+00 1.4022504714171397e+01 2.6371752645249309e+00 -1 2 0
3400 1 7.3422644360717255e+00 1.5633073547158782e+01 1.7085957432555636e+00 3 5 0
6123 1 4.8947529280471986e+00 1.5787475312196131e+01 2.4949583872794077e+00 0 -2 1
4582 1 8.2332542666716755e+00 1.3341672938919400e+01 2.8789545318061132e+00 2 1 1
5414 1 1.0830763345833567e+01 1.3276345043735027e+01 1.7614792338611722e+00 1 -3 0
1213 1 1.2711859636513649e+01 1.4936844565990118e+01 2.7453392240022727e+00 3 -1 1
1102 1 1.5072325639401793e+01 1.4367212361925107e+01 1.5838095469617550e+00 -1 3 0
2735 1 1.5635680694639844e+00 1.8466022296969236e+01 2.6957815918291286e+00 0 -3 1
3805 1 3.8674642540061051e+00 1.7997516259088485e+01 1.2473448324561629e+00 0 0 1
5191 1 5.4876023923656154e+00 1.9896574884507235e+01 2.4574831664536374e+00 -5 1 0
424 1 8.3299063216949119e+00 2.0007824138917641e+01 1.4929759205557762e+00 5 0 0
2535 1 9.2429807180122570e+00 1.7584272010120838e+01 2.1216731038664278e+00 3 1 1
1866 1 1.1864443204730806e+01 1.7003625043181874e+01 1.8824701228550689e+00 -4 -2 0
4117 1 1.3150849476475182e+01 1.9093875423443926e+01 2.8867985320049812e+00 5 0 0
4120 1 1.5639719298670062e+01 1.8779472201474817e+01 2.0563457328069088e+00 2 -1 0
5473 1 7.9600178327832660e-01 2.0843266225979793e+01 1.7946203567017598e+00 0 -4 0
505 1 2.3197640936371711e+00 2.2885943016265166e+01 2.6219812843771879e+00 -2 0 0
1042 1 4.7383604711214637e+00 2.2264537020181251e+01 1.4468259513531017e+00 4 -4 1
72 1 1.6396125602253466e+01 1.1688412765887442e+01 9.7236596485227267e+00 1 -2 1
9 1 9.8823958968355896e+00 2.1923191710960221e+01 2.6533247052138678e+00 5 -2 1
2878 1 1.2267584979083070e+01 2.0985589053877991e+01 1.6992580782628255e+00 0 3 1
2616 1 1.3525342692176311e+01 2.3198935680893541e+01 2.8096725081597569e+00 -1 0 1
2035 1 1.5890060234404009e+01 1.1676843500383248e+01 5.2435438957363596e+00 0 -2 0
1722 1 1.1693759837305139e+01 2.3178910587106241e+01 8.9856216552329258e+00 2 2 0
1860 1 2.9457681711563017e+00 2.6615973829702155e+00 5.4949455373719056e+00 2 2 0
996 1 8.3048945996591872e+00 2.2425861599129235e+00 6.2475467288458608e+00 3 -1 1
2664 1 1.0620718332491819e+01 1.8850727138279504e+00 5.2639217606785378e+00 3 3 1
5306 1 1.2186155068105256e+01 4.1466805211555400e+00 6.0163946662538663e+00 -3 1 0
2836 1 1.5586425691194874e+01 8.3456882927889919e-01 6.0141458520903264e+00 -1 0 0
961 1 1.4798492081939310e+01 3.3157503495830740e+00 5.4875318868732865e+00 0 -2 1
4213 1 3.6026679196511600e+00 7.2546478860124051e+00 5.5337105930836064e+00 2 2 0
2846 1 1.1804252983767503e+00 7.4574272114754008e+00 6.4593337602963556e+00 -1 -4 1
5959 1 4.3609086554175285e+00 4.7094069044912885e+00 6.6615579585516063e+00 -2 1 1
903 1 7.1878683716353429e+00 4.5853402334640672e+00 5.7851492015731756e+00 0 2 1
2880 1 9.0326707356531770e+00 6.4549101501724646e+00 6.5173941446788062e+00 4 -2 1
1923 1 1.1203159140646449e+01 6.5123123052330643e+00 5.4501488962666462e+00 1 -2 1
3383 1 1.5441697664062122e+01 7.3416536901928700e+00 4.9228078584110859e+00 2 -1 0
2115 1 9.1158346965290882e+00 2.4329381851085468e+01 1.2641780866844519e+00 2 0 0
4474 1 1.9547745161450394e+00 1.1780689689760127e+01 6.2677753208871714e+00 -2 -4 0
2138 1 4.0957697773870834e+00 1.1351760859084548e+01 5.2639267289261022e+00 7 1 0
6089 1 7.9962307712493725e+00 8.9054776010342742e+00 5.4134450925601332e+00 -2 4 1
4356 1 5.3564864480931531e+00 9.2614292536097214e+00 6.4071869230819054e+00 -1 -2 1
2002 1 9.6171273427912602e+00 1.0958281554943904e+01 6.4034598094211823e+00 2 0 1
4141 1 1.1856299074308195e+01 1.0565861104140319e+01 5.3583893938547442e+00 -2 0 0
470 1 1.3142452418292175e+01 8.5488301696353961e+00 6.3167086383075617e+00 -1 0 0
3691 1 6.4350421727538398e+00 2.4424424602921054e+01 9.9493695688598276e+00 3 2 0
831 1 1.0873243082142554e+00 1.4197427104933784e+01 5.3547630105888695e+00 -1 0 0
2794 1 3.0264403066754291e+00 1.6168952098760553e+01 6.2557313617613364e+00 -2 -1 1
2677 1 5.6459248028555482e+00 1.3212336406319707e+01 6.0657326435045702e+00 1 4 1
2437 1 5.0524488186130281e+00 1.5552962295790810e+01 5.1792631041724970e+00 2 1 1
4306 1 8.2743124776997128e+00 1.3098419577627611e+01 5.4867622147537514e+00 5 2 1
2423 1 9.9859587016189639e+00 1.5102761850975837e+01 6.4690462324647457e+00 0 1 1
46 1 1.3541912143006966e+01 1.2352481807070038e+01 6.1448966912714695e+00 2 -6 0
5175 1 1.2432563853333361e+01 1.4879702554742785e+01 5.5804854606582621e+00 3 1 0
2549 1 1.8358707515711947e+00 1.8385728667744658e+01 5.5094336714924808e+00 0 1 0
4616 1 6.6286105938123194e+00 1.7609347987391089e+01 6.1048692236066353e+00 4 -3 1
5929 1 5.4363559942934696e+00 1.9908876247962969e+01 5.3064208376321398e+00 3 -1 1
2851 1 9.0798285988546521e+00 1.7283503637531567e+01 4.8031431086344929e+00 4 0 0
6119 1 1.0724982250347342e+01 1.9189450613308924e+01 6.1405293972163664e+00 -1 4 1
4272 1 1.4184767802708295e+01 1.6666223507916207e+01 6.5529586262164630e+00 2 -2 1
3855 1 1.3064322481679827e+01 1.8875363830083593e+01 5.5107513654274110e+00 3 1 0
3598 1 2.9807491599196161e+00 2.0553129828804579e+01 6.4607250508685903e+00 0 -1 0
987 1 2.3817598569013168e+00 2.3123526583949907e+01 5.3608232191321772e+00 1 3 1
5334 1 7.1431085866200705e+00 2.2018803985605430e+01 6.2582243343626498e+00 -2 -3 0
4346 1 1.1317666840093663e+01 2.3797112312338811e+01 6.2766599734675701e+00 0 1 1
2728 1 9.8329770792158282e+00 2.1632568590286002e+01 5.4843402515843067e+00 -3 1 1
2673 1 1.4437667200354985e+01 2.0856864156621121e+01 6.3954084618999749e+00 -3 3 1
1 1 1.3825472819787334e+01 2.3161276715975696e+01 5.5459347048799348e+00 2 0 0
5188 1 1.4843425629298283e+01 2.1029112377384987e+01 9.0480502742348676e+00 1 1 0
3558 1 5.2380879865993335e-01 9.8367973615837219e+00 5.6009014824420245e+00 2 1 0
4252 1 2.8096814531714331e+00 2.9872104440127694e+00 1.0204938277746878e+01 -4 3 1
1038 1 8.5379854175840446e+00 2.2201133870416507e+00 9.0662613134472334e+00 -3 -5 1
3479 1 6.4996930681218990e-01 3.2396826272907537e+00 6.3782776106446795e+00 -1 0 0
2082 1 1.1045443496505222e+01 2.0025645030155337e+00 9.8210616049893176e+00 3 4 0
5552 1 1.2325314625196166e+01 4.0449129547745697e+00 8.7666061118591720e+00 0 0 0
3457 1 1.5794507187576013e+01 6.3640005309059566e-01 8.6970227340689856e+00 -1 0 0
64 1 1.5290409063048161e+01 3.2373914536687001e+00 9.3606514114033867e+00 -2 1 0
375 1 9.9482438236382731e-01 7.3137620502319614e+00 8.9778161080730943e+00 0 -3 0
3626 1 3.7679360048852146e+00 7.0566265017448622e+00 9.9761863026666031e+00 4 1 1
357 1 7.5055604257927984e+00 4.4939104909902436e+00 1.0104589297000924e+01 -1 0 0
4344 1 4.9773295953112546e+00 4.6522986130244570e+00 9.3418178092551010e+00 3 0 1
4298 1 8.8592820800204031e+00 7.0135316903710736e+00 9.0875199635134205e+00 -1 4 1
2793 1 1.1321986207310960e+01 6.4610116695910635e+00 9.7770864305288576e+00 7 -3 1
96 1 1.5867763596952306e+01 7.5038867309189738e+00 9.8120919711043921e+00 4 -2 1
2178 1 1.3494602966560151e+01 8.0820565086305187e+00 8.9338341928288738e+00 -1 3 0
1731 1 4.0680146774462260e+00 3.7820617411942103e-01 6.6276009693767213e+00 1 -1 0
5902 1 1.4816477192388702e+00 1.1577040432916252e+01 9.1635812729136958e+00 0 -1 1
2833 1 3.8209967225931409e+00 1.1464792582068792e+01 9.9039344058930858e+00 -3 4 1
3807 1 5.1977513808749380e+00 9.2936426607556246e+00 9.1005888985502956e+00 -1 0 0
962 1 7.6165769925815177e+00 8.9297673777187647e+00 9.9925761804665267e+00 1 -3 0
5800 1 9.5158666885220828e+00 1.0824557636035784e+01 9.1293600539008501e+00 -1 -4 0
3609 1 1.2028198150015571e+01 1.0346635601199663e+01 9.7754732104466715e+00 0 -4 0
2044 1 1.3834595806844812e+01 1.2567927877765095e+01 8.8145554693558168e+00 3 2 0
2583 1 9.2368269424944160e-01 1.4085438056693921e+01 9.9686532309583509e+00 0 0 1
969 1 2.4092705005076738e+00 1.6105571493390809e+01 8.8687530487717456e+00 -3 0 1
5548 1 5.6734326765314123e+00 1.3459886710517281e+01 8.8662115441664717e+00 -4 0 0
3554 1 4.9545419039540466e+00 1.5583721945150977e+01 9.8683491551668414e+00 2 2 0
3583 1 8.3085769029748331e+00 1.2987862008702496e+01 1.0013686220454186e+01 0 -3 0
2153 1 9.9939738023834526e+00 1.4843206544076967e+01 9.0975967842086050e+00 -1 -1 0
5381 1 1.2491604617448857e+01 1.4550325320341754e+01 1.0003566495210057e+01 3 0 1
1929 1 1.3712540658953627e+00 1.8465481558007337e+01 1.0054934046046206e+01 6 -2 0
2685 1 5.8017943433223476e+00 1.9845716620078491e+01 9.6414771412483891e+00 4 0 1
4216 1 6.5451175245945672e+00 1.7539153983710527e+01 8.8033934230215340e+00 3 1 1
1865 1 9.0343750880770983e+00 1.7067530312650316e+01 1.0057751416474966e+01 -1 2 0
133 1 1.0973426566845419e+01 1.8941981103872806e+01 9.1751787515026191e+00 0 4 1
5162 1 1.3215557996553825e+01 1.9226857966011572e+01 1.0190919418314456e+01 6 -1 0
2715 1 1.4445145885695261e+01 1.6717504351939247e+01 9.2257982293494631e+00 1 -5 1
5264 1 2.4584797614305502e+00 2.2735650730263359e+01 1.0081887443775981e+01 2 1 0
947 1 3.0726475147170516e+00 2.0201186130687152e+01 9.3158901340337952e+00 4 2 1
1034 1 7.2945504549587357e+00 2.1949667284422244e+01 9.0851041867790929e+00 0 1 1
816 1 9.6987919995005054e+00 2.1596654390173804e+01 9.7146634381164461e+00 4 2 0
1939 1 6.2972841516199001e+00 2.4312673869698457e+01 2.4336190941963229e+00 0 1 0
2492 1 3.7909608413693485e+00 5.8264428410597924e-01 9.2022121883577928e+00 0 -4 0
1893 1 5.3232077727410654e-01 9.6375790863932949e+00 2.9629323837043415e+00 1 2 1
855 1 4.3794953045721502e-01 3.0997272140015673e+00 8.9373821051947289e+00 -3 4 1
4472 1 6.3330635697082194e+00 3.3464766989753592e-01 2.8274279676612761e+00 3 5 1
4369 1 1.6126107499651106e+01 2.2874186853381051e+01 1.9234959939401017e+00 2 3 1
2653 1 6.3775704032425562e+00 7.4961016459627050e-01 1.0246379194923605e+01 2 0 1
2792 1 6.3189497363024936e+00 2.4468472981208667e+01 5.1417621514802976e+00 -3 -1 1
5116 1 6.7176574693538740e+00 3.1481893585183229e-01 5.6541225430144300e+00 -4 -3 0
504 1 1.5073218145200189e+01 3.1985664989087161e+00 1.1925658933523176e+01 3 0 0
49 1 3.6618460049923696e-01 3.0746109703493731e+00 1.3487449469310995e+01 2 3 1
3560 1 3.0039432484949957e+00 2.9038334523880964e+00 1.2743532249970341e+01 1 -3 0
2734 1 1.2510534354697098e+01 2.1513480162995428e+01 2.0572502102743222e+01 0 3 1
404 1 1.2538112971338951e+01 1.4430210479778495e+01 2.3749458131074594e+01 5 0 0
4366 1 9.2002054642794935e+00 1.7183075163943542e+01 1.2804205308303574e+01 -1 -3 1
859 1 8.1027520797573054e+00 1.8679349253094497e+00 1.3633128984409318e+01 -1 1 1
3557 1 1.0578450903269987e+01 1.5980951631256985e+00 1.2466294824350157e+01 -3 4 0
4364 1 1.2459761983538788e+01 3.5762266439938979e+00 1.3166996866891955e+01 -1 2 1
5224 1 1.2698710635876809e+01 3.6611277342422315e+00 1.5826184380715352e+01 3 1 0
1194 1 1.0266068377906814e+01 2.1633186400473058e+01 2.3936034942850672e+01 3 0 1
3733 1 3.2627061369090375e+00 7.4027734243223380e+00 2.3689658782979688e+01 -2 1 0
1863 1 1.0296689838814355e+00 7.4085307097890354e+00 1.3728606371419259e+01 1 0 0
3414 1 3.6521440507369505e+00 7.2264482344593874e+00 1.2832038156015004e+01 0 -1 1
2898 1 4.8933650358170340e+00 4.7360404353567862e+00 1.3397295139221233e+01 5 -2 1
1808 1 8.9998020078247656e+00 2.4044755662150365e+01 2.3237449639573576e+01 -3 -4 0
4529 1 9.0762192262834667e+00 6.3031250072931311e+00 1.3659151925195534e+01 -1 -3 1
4290 1 1.3392750073416122e+01 7.8516557772072586e+00 1.3228482864149777e+01 5 3 1
2072 1 1.3334767237393885e+01 7.7948270470306387e+00 1.6025247543614668e+01 -1 -4 1
5930 1 1.5792192658065664e+01 7.2134568902699829e+00 1.2424157035268243e+01 -2 0 0
4509 1 1.7192231192110941e+00 1.1720784375636823e+01 1.3627011248472591e+01 -2 1 0
73 1 7.3743653669051739e+00 4.2642832280059899e+00 1.2917742273878773e+01 1 4 0
6094 1 5.3930305094834985e+00 9.0560184217852182e+00 1.3611403289086404e+01 6 -4 1
54 1 6.6812236072200744e+00 2.0441816071345503e-01 1.7041957401512970e+01 2 -2 1
6115 1 9.7184434590726614e+00 1.0517040245389287e+01 1.3318913104298414e+01 -1 1 1
888 1 1.2396658386961867e+01 1.0368504556346519e+01 1.2396606475274364e+01 2 0 1
738 1 1.3997255532669847e+01 1.2105220512903148e+01 1.3411315152965180e+01 -2 -2 0
2095 1 6.9690369725560197e-01 1.4108242937274309e+01 1.2605944453668382e+01 0 3 0
2441 1 2.4446085655009968e+00 1.6198112216045701e+01 1.3361958901682668e+01 -2 -1 1
6247 1 6.0416735527857082e+00 1.3360279866935851e+01 1.3530489921025088e+01 -1 1 1
4546 1 1.3833860802191296e+01 1.8713746129740738e+01 2.3836388565293348e+01 3 -2 0
4229 1 6.6433535257988394e+00 1.6827483460575512e-01 1.9696303803982175e+01 2 2 0
2908 1 1.0323403589598733e+01 1.4745041828896694e+01 1.3537179422057402e+01 -2 0 1
5512 1 1.2795717972631005e+01 1.4470531235869760e+01 1.2588185548491946e+01 4 -1 0
1222 1 1.4512544998261850e+01 1.6456837482097995e+01 1.3428249915359183e+01 -1 3 1
5449 1 1.4101965905502996e+00 1.8717180612160512e+01 1.2738545326186870e+01 3 3 0
6213 1 4.3057839397867754e+00 1.1383946496378311e+01 1.2807402943745521e+01 2 0 1
950 1 6.8079822405057691e+00 1.7719457901595277e+01 1.3426852021345804e+01 -4 -4 0
1935 1 8.5077187911667469e+00 1.2797421877781524e+01 1.2845826665546211e+01 -1 2 0
4410 1 1.0732909638578867e+01 1.9266895710721826e+01 1.3596226688427024e+01 0 -3 0
2570 1 1.6151625435099685e+01 1.8520378378879606e+01 2.0103836181635430e+01 -1 -2 1
6144 1 3.1199804101268462e+00 2.0714631243961104e+01 1.3611976800209860e+01 0 -1 1
6201 1 3.1244076985584583e+00 2.0671382277045300e+01 1.6140820973985036e+01 0 2 1
2457 1 2.2615385562047026e+00 2.3115814463883641e+01 1.2841666460538109e+01 2 2 0
4518 1 7.2511096470379153e+00 2.2147011806058529e+01 1.3581983207406644e+01 1 1 1
6297 1 1.3457555696420879e+01 1.8877005390580823e+01 1.2873440487545393e+01 2 -4 0
4430 1 1.1501455763608517e+01 2.3794412588070877e+01 1.3431981422512729e+01 3 2 1
1720 1 1.1194728139186990e+01 2.3574000949182597e+01 1.6329586185069363e+01 -2 2 0
2027 1 1.3796410347860560e+01 2.3202058526430772e+01 1.2850036136283110e+01 2 2 0
1197 1 1.4986650657204342e+01 2.0824182661376732e+01 1.3594793856716219e+01 0 4 1
2487 1 1.1489418213132510e+01 6.2098593225970680e+00 1.2500449238759884e+01 -1 4 0
2060 1 7.9913517729217629e+00 8.6370129646121203e+00 1.2421071858783383e+01 2 -3 0
4102 1 3.0801885305334529e+00 3.0832342316956680e+00 1.7111162666031436e+01 -1 0 0
2105 1 4.0779946620478498e+00 6.5888695701621136e-01 1.6126616229256758e+01 1 5 0
3384 1 8.5607431942271326e+00 2.0594246830898024e+00 1.6333817639738470e+01 3 -1 0
3427 1 1.1304410035506715e+01 1.8046437262800337e+00 1.7344277614920316e+01 5 4 0
6020 1 1.1287096108910609e+01 1.8446294183159693e+00 1.9914300054670647e+01 -2 2 1
2184 1 1.5225317678750079e+01 3.4838601526036856e+00 1.6597569178736588e+01 1 -4 0
986 1 1.5188613549246814e+01 3.3493634863827402e+00 1.9567835387764472e+01 -1 6 1
21 1 9.7429045694940584e+00 2.1633243114272034e+01 1.2532094448593824e+01 1 -1 0
5081 1 1.3879708315397687e+00 7.4913435443896788e+00 1.6255413033569582e+01 -3 2 0
5438 1 3.8055850565897340e+00 7.0311273860000023e+00 1.7173415391665909e+01 1 -2 0
4561 1 5.0517982863811923e+00 5.0830406657232938e+00 1.6238481723614537e+01 4 -2 1
3570 1 7.7030600853772562e+00 4.5515321793094046e+00 1.6950728261513767e+01 5 -2 1
2642 1 7.4533906014843998e+00 4.5982160619078449e+00 1.9523200066355855e+01 -3 2 1
3595 1 9.2285513009507056e+00 6.6978952218572250e+00 1.6230163037098055e+01 0 -5 0
3475 1 1.1681621663955694e+01 5.9745272662390247e+00 1.6745974315723153e+01 1 2 1
1044 1 1.1671898094380300e+01 6.1496274080259621e+00 1.9365308125362887e+01 0 0 1
5514 1 1.6074723607204696e+01 7.5027906302496712e+00 1.6976690437662821e+01 2 -1 0
6141 1 5.6507480279218276e+00 2.0068364136938570e+01 1.2415861586682810e+01 2 -7 1
87 1 1.9684026951353535e+00 1.1841408032225832e+01 1.6334380374028537e+01 -2 -2 0
1048 1 1.2945257402029618e+01 2.1057465783521049e+01 2.3116951054533185e+01 1 -2 1
4414 1 5.2813773222175220e+00 9.1846431774417354e+00 1.6242015700769326e+01 1 1 1
5485 1 4.3671892933820766e+00 1.1544965591103034e+01 1.7088122619259703e+01 1 0 0
4110 1 4.4332470170312606e+00 1.1270545126594081e+01 1.9754145494358458e+01 0 -4 0
5999 1 7.8261419425716969e+00 8.7699271605725198e+00 1.9580592932273632e+01 -2 4 1
6081 1 7.9247289335685389e+00 8.9507303481342682e+00 1.6955227266187215e+01 -3 6 1
3470 1 9.9078490542337168e+00 1.0586572796449596e+01 1.6118722404635470e+01 0 2 1
154 1 8.4340059235000311e+00 1.9747871448610333e+01 2.3239355343818605e+01 -2 -1 0
4231 1 1.2310247961922904e+01 1.0121888125746871e+01 1.7167512332997202e+01 3 0 1
2011 1 1.3750801864693043e+01 1.2289313402908210e+01 1.6352008129096319e+01 -2 2 0
4187 1 1.2382045513829436e+01 1.0294942569598065e+01 1.9718958860170197e+01 4 3 0
5370 1 2.4494350878288853e+00 1.6121412971814948e+01 1.6203076239312438e+01 -2 1 0
140 1 9.9235019982529615e-01 1.3947291668566221e+01 1.7353108611802952e+01 -3 0 0
1716 1 8.5398757414902027e-01 1.3843511301670238e+01 1.9893689054715594e+01 -4 2 1
5407 1 6.2967721613853982e+00 1.3336906403381052e+01 1.6213063378192299e+01 1 4 0
5455 1 5.0961587202176579e+00 1.5552877565438269e+01 1.6940319957444878e+01 -1 7 0
1244 1 5.3997354690838080e+00 1.5781474660349639e+01 1.9745773759992108e+01 3 -2 1
5986 1 1.0391448247406052e+01 1.5052414196246906e+01 1.6311172978405157e+01 0 -2 1
2051 1 9.0124890122316081e+00 1.2926005799508538e+01 1.6938666723097537e+01 1 -2 0
5221 1 8.5810075917165118e+00 1.2830842332344686e+01 1.9662446603468645e+01 1 5 0
803 1 1.2856732279834862e+01 1.4802572357468600e+01 1.7199427763453958e+01 4 -2 1
4441 1 1.2743316978554311e+01 1.4707383488248848e+01 1.9927933888439942e+01 0 1 1
5419 1 1.8583498095572737e+00 1.8403133837993419e+01 1.7186701717602510e+01 0 -2 0
1101 1 1.6759010257919178e+00 1.8223225973034207e+01 1.9991253889569133e+01 -1 3 1
4453 1 6.6560989353818378e+00 1.7828648991578870e+01 1.6324513725861067e+01 -1 -1 1
1177 1 5.6439743168336074e+00 2.0361768011335382e+01 1.7172548481969184e+01 -1 4 1
3814 1 1.0498682846679042e+01 1.9462786275929918e+01 1.6332353466318203e+01 1 2 0
737 1 9.2007382880715500e+00 1.7262772581391769e+01 1.7322652138739599e+01 4 1 0
1846 1 9.3008837700088716e+00 1.7544450716027132e+01 1.9822229962795163e+01 1 -2 0
2471 1 1.4319849341787082e+01 1.6634718475205702e+01 1.6217314509903126e+01 1 1 1
4525 1 1.3272914877504343e+01 1.9259980635381666e+01 1.7018627248718609e+01 1 2 1
5995 1 1.3466056963436476e+01 1.9002265528164990e+01 1.9746261163766562e+01 -1 -1 1
408 1 2.2756254777023561e+00 2.3034682429184929e+01 1.7342224384630153e+01 2 2 1
4447 1 2.2618154117108369e+00 2.3367917443237829e+01 2.0221323112587555e+01 -2 -3 1
3847 1 7.2707680623866784e+00 2.2259337871833022e+01 1.6287429966126997e+01 -3 1 0
6264 1 5.5576282425071932e+00 2.0164739407189796e+01 1.9806218199463334e+01 1 1 1
6137 1 9.9004277339937836e+00 2.2009077850577516e+01 1.9944179266070996e+01 -4 -5 1
2428 1 9.6777327285426047e+00 2.1789189371429615e+01 1.7244809462417507e+01 -1 -6 1
785 1 1.4933354671970028e+01 2.1057755604773412e+01 1.6000580679268449e+01 2 4 0
2612 1 1.3931045334872294e+01 2.3290866396167271e+01 1.7088867974314628e+01 1 3 1
434 1 1.4275485468411986e+01 2.3524639466478181e+01 1.9679897505157008e+01 1 -1 0
6125 1 2.9672880720738979e+00 3.1244478219741398e+00 1.9732222313011629e+01 -3 3 1
3623 1 1.2663764244613667e+00 9.8024919185332215e-01 2.0454767966661109e+01 4 -2 0
2888 1 3.9514038021212055e+00 4.8807175238633477e-01 1.3555566676696101e+01 2 4 1
2176 1 1.6224582023366882e+01 9.5651615990662342e-01 1.5954832022225673e+01 3 1 0
6181 1 5.4351769854236576e+00 2.7811103597428568e+00 2.3198366524050780e+01 1 -2 1
5254 1 5.9164270037597371e+00 2.6863744459110568e+00 2.0311413351927239e+01 1 -4 0
3846 1 1.0035036313226625e+01 4.4375463971560158e+00 2.0887646268797013e+01 1 1 1
5294 1 1.0273633488139449e+01 4.3760677892020965e+00 2.3677239772997602e+01 -2 -3 0
5536 1 1.3740843250633167e+01 1.6769212680484762e+00 2.0954208293796164e+01 -2 0 0
4349 1 1.3138739914696743e+01 1.0654620510740407e+00 2.3537024803837046e+01 1 -1 1
88 1 3.5657380835136379e+00 7.1194432397116056e+00 1.9693358160958283e+01 1 -1 0
5089 1 1.2428133393542065e+00 5.4744790294898165e+00 2.3554049141084313e+01 1 2 1
1098 1 1.7893850108736244e+00 5.4361419190914404e+00 2.0814675270552357e+01 -1 2 1
5547 1 5.9582982691503732e+00 7.0650216705432634e+00 2.3250470985448072e+01 1 0 0
2701 1 6.1129238571083357e+00 6.8307999572320748e+00 2.0433563155379026e+01 -3 -1 1
506 1 1.0051587947691013e+01 8.2415967927982283e+00 2.3540928195616200e+01 5 1 0
2773 1 1.0513462119907928e+01 8.3572118827160882e+00 2.0644805269433068e+01 2 1 1
4296 1 1.4359806939220176e+01 5.6401126549061891e+00 2.0192378388608535e+01 2 3 1
2786 1 8.3846413382905749e-01 2.1035082564959797e+01 2.3211262820368191e+01 4 -1 1
2816 1 2.2061266090261280e+00 9.7658616153441145e+00 2.3350710035248774e+01 0 5 1
4265 1 2.4594294429085268e+00 9.3973800103991287e+00 2.0498376503455663e+01 -2 2 1
3398 1 6.7632922276102665e+00 1.1124131789942512e+01 2.3379655285684482e+01 7 -1 1
3646 1 6.7987911643255057e+00 1.0769191061154100e+01 2.0658748873779288e+01 -3 -2 0
4324 1 5.1196591708793671e+00 1.5825489613283963e+01 1.2648100052157904e+01 -5 -2 1
5236 1 1.5121836266427227e+01 1.0044294802717603e+01 2.3498604616494397e+01 4 -3 0
1063 1 1.4816757630823394e+01 1.0164863258906164e+01 2.0750794668762957e+01 -3 -1 0
2593 1 4.1796957804030682e-01 3.4661649716010174e+00 1.6196877631435516e+01 1 1 1
5978 1 3.4133565159439647e+00 1.3830362788161883e+01 2.0724490580427791e+01 2 -2 1
1235 1 7.5815226444254744e+00 1.5500157175336442e+01 2.3324067901040753e+01 3 1 1
6039 1 7.7012382482974191e+00 1.5495151010016077e+01 2.0687238376518415e+01 -3 2 1
6132 1 1.1191960683991290e+01 1.2552454419289564e+01 2.0432249753065502e+01 -2 1 1
5211 1 1.1022177039999400e+01 1.2450736263196847e+01 2.3104122313417538e+01 3 2 0
5289 1 6.0712199105770659e-01 1.2014965691092145e+00 2.3258878626665396e+01 1 3 0
4593 1 1.5454135093149825e+01 1.4175467933613804e+01 2.3201461050894604e+01 -3 -4 1
4392 1 1.5369770205507335e+01 1.4283620988104161e+01 2.0606184869504851e+01 1 0 1
3728 1 4.3331333684824083e+00 1.8361697860938282e+01 2.3432322217399065e+01 1 4 0
2083 1 4.5437559383608264e+00 1.8140971815495970e+01 2.0736805777372727e+01 -2 1 0
279 1 1.4553511254180474e+01 5.7972398673187984e+00 2.3172498252533828e+01 2 -1 0
1803 1 1.7333142179535563e+00 1.8549069252774043e+01 2.3614090724000775e+01 2 0 1
6293 1 8.1546227705708230e+00 1.9995919647228988e+01 2.0430012322122408e+01 -1 0 1
1936 1 1.1727256431317601e+01 1.6763429810128819e+01 2.3401655656358514e+01 1 2 0
1714 1 1.1784968730344168e+01 1.7166952387240070e+01 2.0599682791731414e+01 -2 0 1
1196 1 1.6095265768528684e+01 7.7026805953553756e+00 1.9838246741930838e+01 -1 2 1
741 1 1.6033503548904768e+01 7.9843374200939077e-01 1.3342814466422073e+01 -3 4 1
1211 1 8.4052604607511459e+00 1.2943614502287879e+01 2.3973277243870740e+01 0 -4 1
5323 1 2.6730478808877018e+00 3.1450018049992474e+00 2.3700481745985556e+01 1 1 0
778 1 7.7383876300991339e-01 2.1110171738753024e+01 2.0553786508638915e+01 3 -3 1
6218 1 4.9079194914301301e+00 2.2647076030056162e+01 2.3668548626480934e+01 2 1 1
6080 1 4.7926575950784907e+00 2.2502736843604524e+01 2.1040416878890010e+01 1 1 1
6027 1 8.9336013084825208e+00 2.4284393333368939e+01 2.0574515728935410e+01 -2 -1 1
2605 1 3.2874510800951495e+00 1.3836335989173136e+01 2.3175078871620045e+01 4 -2 1
29 1 1.5072182505079864e+01 3.2172936910446568e+00 2.4008729266157712e+01 2 0 0
475 1 6.4844699294615837e-01 1.4574930550052953e+01 2.3983210542183425e+01 0 2 0
511 2 1.5243790879799946e-01 2.9759333781657293e+00 2.6737046809834784e+01 0 0 0
512 2 1.5243790879799946e-01 1.5181736675040369e-01 2.6737046809834784e+01 0 0 0
513 2 1.3753160133580096e+00 8.5784636960399940e-01 2.6737046809834784e+01 0 0 0
517 2 1.3753160133580096e+00 2.2699043753117341e+00 2.6737046809834784e+01 0 0 0
518 2 2.5981941179180197e+00 2.9759333781657293e+00 2.6737046809834784e+01 0 0 0
519 2 2.5981941179180197e+00 1.5181736675040369e-01 2.6737046809834784e+01 0 0 0
520 2 3.8210722224771709e+00 8.5784636960399940e-01 2.6737046809834784e+01 0 0 0
528 2 3.8210722224771709e+00 2.2699043753117341e+00 2.6737046809834784e+01 0 0 0
529 2 5.0439503270380399e+00 2.9759333781657293e+00 2.6737046809834784e+01 0 0 0
530 2 5.0439503270380399e+00 1.5181736675040369e-01 2.6737046809834784e+01 0 0 0
531 2 6.2668284315972924e+00 8.5784636960399940e-01 2.6737046809834784e+01 0 0 0
543 2 6.2668284315972924e+00 2.2699043753117341e+00 2.6737046809834784e+01 0 0 0
544 2 7.4897065361563424e+00 2.9759333781657293e+00 2.6737046809834784e+01 0 0 0
545 2 7.4897065361563424e+00 1.5181736675040369e-01 2.6737046809834784e+01 0 0 0
546 2 8.7125846407159333e+00 8.5784636960399940e-01 2.6737046809834784e+01 0 0 0
562 2 8.7125846407159333e+00 2.2699043753117341e+00 2.6737046809834784e+01 0 0 0
563 2 9.9354627452780804e+00 2.9759333781657293e+00 2.6737046809834784e+01 0 0 0
564 2 9.9354627452780804e+00 1.5181736675040369e-01 2.6737046809834784e+01 0 0 0
565 2 1.1158340849837485e+01 8.5784636960399940e-01 2.6737046809834784e+01 0 0 0
585 2 1.1158340849837485e+01 2.2699043753117341e+00 2.6737046809834784e+01 0 0 0
586 2 1.2381218954396585e+01 2.9759333781657293e+00 2.6737046809834784e+01 0 0 0
587 2 1.2381218954396585e+01 1.5181736675040369e-01 2.6737046809834784e+01 0 0 0
1223 1 2.4158189679429252e+00 2.3150596237698227e+01 2.4272936840702485e+01 2 3 1
588 2 1.3604097058957144e+01 8.5784636960399940e-01 2.6737046809834784e+01 0 0 0
609 2 1.3604097058957144e+01 2.2699043753117341e+00 2.6737046809834784e+01 0 0 0
610 2 1.4826975163514685e+01 2.9759333781657293e+00 2.6737046809834784e+01 0 0 0
611 2 1.4826975163514685e+01 1.5181736675040369e-01 2.6737046809834784e+01 0 0 0
612 2 1.6049853268073370e+01 8.5784636960399940e-01 2.6737046809834784e+01 0 0 0
633 2 1.6049853268073370e+01 2.2699043753117341e+00 2.6737046809834784e+01 0 0 0
1576 2 1.6049853268073370e+01 2.2038716455211620e+01 3.3324953190135631e+01 0 0 0
514 2 1.5243790879799946e-01 7.2121073952879406e+00 2.6737046809834784e+01 0 0 0
515 2 1.5243790879799946e-01 4.3879913838730644e+00 2.6737046809834784e+01 0 0 0
516 2 1.3753160133580096e+00 5.0940203867259211e+00 2.6737046809834784e+01 0 0 0
524 2 1.3753160133580096e+00 6.5060783924342802e+00 2.6737046809834784e+01 0 0 0
525 2 2.5981941179180197e+00 7.2121073952879406e+00 2.6737046809834784e+01 0 0 0
526 2 2.5981941179180197e+00 4.3879913838730644e+00 2.6737046809834784e+01 0 0 0
527 2 3.8210722224771709e+00 5.0940203867259211e+00 2.6737046809834784e+01 0 0 0
539 2 3.8210722224771709e+00 6.5060783924342802e+00 2.6737046809834784e+01 0 0 0
1007 1 4.8923813019582081e+00 1.5857620895158744e+01 2.4064752101089699e+01 -1 0 1
540 2 5.0439503270380399e+00 7.2121073952879406e+00 2.6737046809834784e+01 0 0 0
541 2 5.0439503270380399e+00 4.3879913838730644e+00 2.6737046809834784e+01 0 0 0
542 2 6.2668284315972924e+00 5.0940203867259211e+00 2.6737046809834784e+01 0 0 0
558 2 6.2668284315972924e+00 6.5060783924342802e+00 2.6737046809834784e+01 0 0 0
559 2 7.4897065361563424e+00 7.2121073952879406e+00 2.6737046809834784e+01 0 0 0
560 2 7.4897065361563424e+00 4.3879913838730644e+00 2.6737046809834784e+01 0 0 0
975 1 4.3154372604082241e+00 1.1443899046717425e+01 2.4187164742105264e+01 2 -2 0
561 2 8.7125846407159333e+00 5.0940203867259211e+00 2.6737046809834784e+01 0 0 0
581 2 8.7125846407159333e+00 6.5060783924342802e+00 2.6737046809834784e+01 0 0 0
582 2 9.9354627452780804e+00 7.2121073952879406e+00 2.6737046809834784e+01 0 0 0
583 2 9.9354627452780804e+00 4.3879913838730644e+00 2.6737046809834784e+01 0 0 0
584 2 1.1158340849837485e+01 5.0940203867259211e+00 2.6737046809834784e+01 0 0 0