LAMMPS data file via write_data, version 16 Mar 2018, timestep = 100000

6736 atoms
2 atom types

0.0000000000000000e+00 4.9219999999999999e+01 xlo xhi
0.0000000000000000e+00 4.9019635930410494e+01 ylo yhi
9.1301834957389261e-01 5.9148981650425071e+01 zlo zhi

Masses

1 18.015
2 12.01

Atoms # atomic

2022 1 4.7573484485646240e+00 3.0492008992403501e+00 2.0814101391144399e+00 1 -1 0
4399 1 2.1203974491947517e+00 1.2782705264684944e+00 2.0315811119359135e+00 1 1 1
3755 1 2.5963239644198679e+00 8.0672104370130771e-01 6.1025320873752609e+00 -1 1 0
2689 1 5.6200505857154308e+00 1.2990844017500093e+01 1.0937930508068431e+01 1 0 1
4537 1 7.6150968129520340e+00 2.7821443643977677e+00 4.7872298003386291e+00 1 0 1
1760 1 6.5076995851334214e+00 4.1101828152702575e+00 7.1220555103935341e+00 0 2 0
273 1 7.1826525330902893e+00 1.6522419039880631e+00 2.1436721628468094e+00 1 1 0
189 1 1.0246641357620124e+01 1.5781885875997064e+01 5.3939892261473883e+00 1 1 0
1714 1 7.2029476194179933e+00 1.4419646635430723e+01 9.1661625118355019e+00 1 0 1
1853 1 1.0024297988483394e+01 1.1408601701110468e+00 6.0112440589171552e+00 0 1 0
5450 1 1.1104626514784771e+01 1.3193663624395898e+01 6.1308858612362132e+00 1 2 0
2669 1 3.4291973796704909e+00 1.4840835373377365e+01 7.8671413349589594e+00 0 0 1
1166 1 6.7734050161181392e-01 6.9388650149029765e+00 4.8486793568014690e+00 1 1 1
5303 1 4.1002908410968173e+00 6.1437881766639189e+00 3.9858753218197429e+00 -1 0 0
1978 1 7.6489872390919675e+00 1.5944472996189070e+01 6.3276271854388257e+00 1 0 0
927 1 6.3142505433302931e+00 5.2361976332112850e+00 3.1502716968719140e+00 -1 0 1
5099 1 3.7481088093410340e+00 5.4143277149176443e+00 6.4662874595726612e+00 0 0 0
3866 1 8.7137329951524887e+00 6.5450465713165915e+00 3.1352882942826721e+00 0 1 0
399 1 2.7407954243047348e+00 1.6060078819202584e+01 5.4261438220617029e+00 0 0 0
4234 1 8.8950925931471829e+00 8.0010390412532786e+00 5.7836750093583982e+00 1 1 1
102 1 3.3229623656755098e+00 1.0343302056632036e+01 5.1551417091729501e+00 1 0 0
5280 1 1.1153766299042058e+01 5.2345500851893965e+00 2.8959795217090933e+00 2 0 0
5271 1 2.5039580763736291e+00 9.0394166057290501e+00 7.2714042299323669e+00 1 0 0
1737 1 4.3513961071961607e+00 9.0068503950530499e+00 3.2222910824864428e+00 0 0 0
800 1 2.1106424303633578e-01 9.6456710708535240e+00 1.1949664437932395e+01 0 0 1
3399 1 5.4027250529542723e+00 1.1372061958571813e+01 6.6698423304138039e+00 0 1 0
2639 1 7.9380170354243100e+00 1.0522100671258571e+01 5.5793919504007210e+00 0 0 1
5259 1 1.0041661278781485e+01 1.0930462658422563e+01 7.3073824602713877e+00 1 -1 1
745 1 2.7252232262259541e+00 1.3420011626591785e+01 1.1461438523465981e+01 0 -1 1
394 1 9.7623123001631438e+00 1.2314000754635373e+01 3.7885237980416351e+00 0 0 0
2809 1 1.1718803002237580e+01 9.2562822860661313e+00 2.6911653823055359e+00 0 -1 1
5232 1 2.1291973341504509e+00 1.2717805541412776e+01 4.2761667620520516e+00 1 0 1
907 1 1.0136484486245289e+01 3.8948095505430147e+00 1.1473309932718042e+01 0 1 1
5495 1 6.0470369819812095e+00 1.2454936747531223e+01 2.1986837467712812e+00 -1 2 0
1161 1 6.9920547681827756e+00 1.0154247619209311e+01 3.0243795380372114e+00 1 1 0
4445 1 5.7076753314218731e+00 1.3963130804240006e+01 6.5726090487446651e+00 1 1 1
4531 1 8.1707271552441674e-01 1.8172834500303581e+00 8.5106415457571813e+00 0 1 1
1957 1 1.3776985697646531e+00 1.2694135449068140e+01 8.8575972187220522e+00 0 1 0
1094 1 4.9447972452983260e+00 1.4266546077772023e+01 3.9390929363029201e+00 1 -1 1
466 1 9.6668431868077462e+00 1.4364060638632477e+01 1.7432202685942304e+00 1 0 0
2587 1 1.2193960700791312e-01 1.1951530023779744e+01 6.0983450955338538e+00 1 2 1
959 1 1.3213857828380451e+00 2.9717272832101984e+00 1.1129935801518107e+01 0 1 0
4278 1 1.0863722036435215e+01 1.9443759394652107e+00 3.3675329102445115e+00 -1 1 1
3670 1 3.9279271855421567e+00 2.3314886213023129e+00 1.1501815848937269e+01 -1 0 0
5254 1 6.3308891719655440e+00 1.7663687296251847e+00 8.7248555563089933e+00 2 2 0
4275 1 9.0630193280933842e+00 5.2731905557671128e+00 7.1756724594189256e+00 1 0 1
3641 1 1.3304953751631665e+00 1.2688046981418884e+01 1.6614501715273393e+00 0 0 0
3868 1 9.1077441429198860e+00 9.4334829069497790e+00 1.6831251670931775e+00 0 -1 0
5818 1 1.0759309622650584e+01 3.2741028758419626e+00 8.9650074628042677e+00 0 1 1
5246 1 1.1468203421252323e+01 5.5078635686498412e-01 8.3457713848254738e+00 2 0 0
1052 1 8.3557397540222791e+00 1.7257307426093402e+00 1.0428267427288606e+01 0 0 1
4473 1 1.4824506096528394e+00 4.2086179991013273e+00 6.8654954821014407e+00 -1 2 0
2621 1 1.2622249214295362e+00 5.3426794116002485e+00 9.8480744353170682e+00 1 1 0
4308 1 6.4435251499876713e+00 3.6882580898542405e-01 6.1453642952528984e+00 0 0 0
5265 1 1.0704873639396538e+01 1.4356642854669321e+01 1.0070368763041120e+01 1 0 1
2465 1 4.4343978875591041e+00 7.0811368465941955e+00 8.4180771019808844e+00 3 1 1
6297 1 3.6373979559821770e+00 6.5450468481147341e+00 1.0971249258609708e+01 0 1 0
1921 1 5.6359785320295135e+00 4.3964960921427378e+00 1.0271916433809364e+01 -1 1 0
5826 1 7.4124780342635166e+00 5.3679850892554279e+00 1.1830943326461007e+01 1 1 1
3430 1 1.1143744165351062e+01 4.5083861423294378e+00 5.5494813920549957e+00 0 -1 1
6091 1 8.9801892118486055e+00 6.8158606727952025e+00 9.4281083401971255e+00 -1 1 1
6177 1 1.1148415767809192e+01 8.7360702927701404e+00 8.0923123810679236e+00 0 -1 1
5273 1 1.0819898321762627e+01 1.1405916088306157e+01 1.1362211374978434e+01 2 0 0
785 1 6.6190549995034011e+00 8.3940749280906246e+00 1.2426816470121020e+01 0 2 0
5850 1 3.5247530012216077e+00 1.0831349798604251e+01 9.0633524873411666e+00 1 0 0
1041 1 1.8226316087573766e-01 1.4790187447037171e+01 6.0686949442177429e+00 1 0 1
772 1 6.9243966481385995e+00 8.2041356817886975e+00 7.9092278331458878e+00 -1 1 1
2017 1 2.8160442536255985e+00 9.2536977979918866e+00 1.1320418049043145e+01 0 -1 0
104 1 6.8073960619218052e+00 1.0094693294962596e+01 1.0034202447032939e+01 1 0 1
2644 1 9.3038260515399713e+00 8.8046075034074995e+00 1.2250103741824979e+01 0 0 1
2142 1 1.9638685197011043e+00 4.3967820232568924e+00 3.1776629866763533e+00 1 1 0
4460 1 8.8096480852775674e+00 1.1924115003316452e+01 9.4084137728854049e+00 0 1 1
4216 1 2.8435835122091784e+00 9.1769115689926668e+00 9.6190831887412820e-01 1 1 1
297 1 1.1655020630357781e+01 6.5065595400043605e+00 1.1468196043236096e+01 0 1 0
53 1 4.9066916390539295e-01 2.7696591985600466e-01 3.9951283102827291e+00 0 2 0
4582 1 4.4325124110049838e+00 1.8325394127006170e-01 1.0320800439897868e+01 1 2 1
1812 1 1.3043402536395482e-01 1.5137278642547859e+01 2.6005258867823979e+00 -1 0 0
6171 1 3.6789440334958954e+00 3.3104798860790301e+00 1.5442601664340561e+01 1 -1 1
3694 1 3.0173779550143109e+00 5.4659698840738020e+00 1.3501640849492437e+01 2 -1 0
5416 1 1.4739784377366651e+00 2.4796177403494841e+00 1.6799693685735491e+01 1 1 0
1814 1 6.8396667679550944e+00 2.7307061968247064e+00 1.9527538342270983e+01 0 0 1
507 1 4.9824895443159756e+00 3.9633943139416892e+00 1.7816650915450207e+01 0 0 0
2870 1 3.7211635220537813e+00 1.0740822406589821e+01 1.3489968125788552e+01 2 1 1
2520 1 3.0409067810232866e+00 1.5768162853616021e+01 1.2761303537805977e+01 1 0 0
3678 1 9.7877971044467689e+00 1.9562923400234467e+00 1.6469560120885816e+01 1 -1 0
476 1 1.0543143912437762e+00 1.5916936159473165e+01 1.6506400038559260e+01 1 -1 0
1721 1 5.2695559142244874e-01 6.0263173646424102e+00 1.3844642937203863e+01 -1 0 0
5886 1 4.3925120346281377e+00 8.7452896479916031e+00 1.5408608997881505e+01 1 1 1
4519 1 1.1650871995927361e+01 1.4923724769052058e+01 2.3723085545361133e+01 0 1 1
3534 1 7.7099212793587730e+00 1.5386582196395178e+01 2.3339677738577109e+01 0 0 1
4524 1 5.1881464426968602e+00 6.7107860975995379e+00 1.4198692393418664e+01 0 0 1
765 1 6.6083463553774431e+00 5.3760021914369771e+00 1.6182663938321099e+01 -1 1 1
2732 1 8.5024977415058931e+00 4.0464379031300659e+00 1.4912521666524041e+01 0 1 1
4319 1 7.8435259292283472e+00 7.3580893452377731e+00 1.7761228994771365e+01 0 1 1
2828 1 1.1812007878626577e+01 1.1391034623259333e+01 2.1389087870143115e+01 -1 0 1
2588 1 5.4223928524536147e+00 1.0042381794077320e+01 1.7652861447099284e+01 1 1 1
2544 1 1.6995019515101897e+00 1.1845812989311277e+01 1.4647152717653064e+01 1 1 1
450 1 7.8771577820411007e+00 2.6006983937145911e-01 1.7613534555700483e+01 1 0 0
5965 1 7.7033558513095279e+00 1.1659626344241380e+01 1.7308595884565968e+01 1 2 1
4352 1 5.8082255016366364e+00 1.2474456157739667e+01 1.3489347374195514e+01 0 1 1
241 1 8.1519575138665932e+00 1.2192753972192005e+01 1.4610956422661205e+01 0 -2 0
1152 1 1.4945960453190588e+00 6.0489038507670507e+00 2.3366446327448969e+01 1 0 0
2647 1 1.0340131528760624e+01 5.9754832314492603e+00 1.4131941789452629e+01 0 0 0
6227 1 9.5002499055648606e+00 9.3328047398478979e+00 1.7432258036143200e+01 1 0 1
5935 1 5.7599804319822046e-01 1.2344015731817482e+01 2.3694881917196636e+01 0 1 1
6288 1 6.6928557460079450e+00 1.5978916392074726e+01 1.5866784408412936e+01 0 1 0
206 1 1.4332554752078910e-01 1.3026380035104852e+01 1.2771354198510263e+01 1 0 0
368 1 2.7428031108472317e+00 1.3937157899825459e+01 1.6292215640792453e+01 0 1 0
5228 1 9.1672548751696059e+00 1.4612184278461283e+01 1.4055786380470249e+01 1 1 0
988 1 5.7727955122764865e+00 1.3890677025057821e+01 1.7801373383988334e+01 1 0 1
1771 1 4.7697979018820478e+00 1.4614744936669894e+01 1.4656672074777640e+01 0 -1 0
5468 1 1.2146862970278608e+01 8.9333673984385999e+00 1.8375780004857354e+01 0 -1 0
158 1 1.0632344226322131e+01 1.3743845687215247e+01 2.0158118227580829e+01 0 0 0
4305 1 1.5449311408835692e-01 1.4676710247426228e+00 2.0851533258309065e+01 1 2 1
3826 1 1.0335239059562550e+01 9.8721767063488723e+00 1.4652176416579291e+01 1 0 0
200 1 7.8841654761738544e+00 6.4726154381675789e+00 2.3686762380327806e+01 0 0 0
2526 1 4.4461899045190441e+00 2.5507710258477552e+00 2.2823108240930029e+01 0 0 1
330 1 1.9749332201320244e+00 2.8389514326239960e+00 1.9409573311747842e+01 -1 0 0
3437 1 4.5703061209982030e+00 1.2744139009226084e+01 2.4132569454575929e+01 0 0 0
2018 1 7.8687641355648683e+00 8.4992664715791755e-01 2.1348038234729447e+01 1 1 0
4609 1 1.4582047304100036e+00 8.0334010055285709e+00 1.5831457934223836e+01 0 0 1
72 1 5.1688659742411955e+00 4.9682118888820739e+00 2.2132793863768804e+01 -1 1 1
5493 1 9.7935186991515906e+00 1.5191416625714510e+01 1.6817803619816324e+01 1 0 0
3453 1 1.0669054358671076e+01 3.3838484435059275e+00 1.8738120675604183e+01 -1 0 0
2423 1 1.0488705863044334e+01 1.9188180690917620e+00 2.0980645454749070e+01 0 1 1
1075 1 1.8642356376280553e+00 7.8182006162848330e+00 1.8764897759267004e+01 0 0 0
1905 1 6.5971779908612727e-01 5.5989838042043791e+00 2.0770899221783893e+01 0 1 0
6237 1 6.2883145555563029e+00 9.8102882446015283e+00 2.3084132330995942e+01 1 0 0
4616 1 2.0848889030868953e+00 1.5110686752805339e+01 1.9547442226822415e+01 1 0 1
3780 1 7.3754196085622823e+00 8.2418647436986241e+00 2.1393691304226834e+01 0 -1 0
2176 1 3.5382895512966512e+00 5.3899832057449846e+00 1.9912227486651407e+01 1 1 0
2911 1 5.4693202300251729e+00 7.9969444789542541e+00 1.9518178310092644e+01 0 1 0
5448 1 8.0553099165258590e+00 1.4660215285875113e+01 2.0808331529029545e+01 1 0 0
3761 1 4.5267767191269206e+00 1.4727494400183494e+01 2.0374924858792035e+01 0 -1 0
1925 1 4.5945505689814228e+00 1.5571957389728011e+01 2.3045677069015628e+01 0 1 0
3454 1 5.2729035780507172e-01 1.5606117443597711e+01 1.3851807753179759e+01 1 0 1
5918 1 9.6257064008386752e+00 5.7680635584575786e+00 1.9588466847870379e+01 1 0 0
6069 1 4.9394825668798221e+00 1.3272606591348954e+00 1.3695418028236693e+01 0 1 1
5804 1 3.0678473925795839e+00 1.1692646544169357e+01 1.8432676875553543e+01 1 1 1
4357 1 1.0825057571332781e+01 2.9465528774178695e+00 2.3271655313417796e+01 -2 0 1
5329 1 2.0227947761461773e-01 1.0271688241033633e+01 1.6136710299863807e+01 0 1 0
1064 1 3.3086228270351259e+00 9.4802258847172567e+00 2.0570445403468970e+01 1 -1 1
178 1 5.0807648097557010e+00 1.2140872628303759e+01 2.1143450451843812e+01 -1 0 1
360 1 7.5779725691628492e+00 1.1915502355058221e+01 2.0090528761613680e+01 0 -1 0
1999 1 1.1984448202311475e+01 3.1084151689622272e+00 1.3298764288475665e+01 1 0 0
487 1 1.1036769321802387e+01 1.3164756474893476e+01 1.7767027940998741e+01 1 -1 0
3440 1 9.5652764189336938e+00 9.8701553768684587e+00 2.0711426097778197e+01 -1 -1 0
3846 1 6.8262732449974772e-01 1.2471936370526420e+01 2.0739495092431429e+01 0 1 1
3380 1 7.9539503742059052e+00 4.7774641442761663e+00 2.1493246806114758e+01 1 1 1
1209 1 1.1682165056534366e+01 8.0326538009114956e-01 1.4660466301076498e+01 -1 1 1
2426 1 1.0772498577003541e+01 7.2086222288652673e+00 2.3439479239793723e+01 0 -1 0
2585 1 8.6335208739770355e+00 1.0980521325997525e+01 2.3371270128031448e+01 1 0 1
6036 1 1.1413297483933549e+01 7.4189191399221235e+00 2.0566895020188802e+01 1 0 1
1144 1 4.0887143027622330e-01 1.5613170186116467e+00 2.3607538063971734e+01 -1 0 1
2103 1 2.7908184458308947e+00 8.6689414232188646e+00 2.3456232706989720e+01 0 0 0
5203 1 6.7606347092090679e+00 1.4138443780723706e+00 2.3692117751011757e+01 1 1 0
5132 1 1.1650072837619749e+01 1.3926173357535975e+01 1.3136184261524280e+01 0 0 0
188 1 4.4593203263113548e+00 1.2472933363369700e+00 2.0234572609806051e+01 1 2 1
839 1 7.4651834115654356e+00 2.0878390924012198e+00 1.3266521558609673e+01 -1 0 0
511 2 0.0000000000000000e+00 2.8417180249513345e+00 2.6821545714338740e+01 0 0 0
512 2 0.0000000000000000e+00 0.0000000000000000e+00 2.6821545714338740e+01 0 0 0
513 2 1.2305000000000001e+00 7.1042950623783474e-01 2.6821545714338740e+01 0 0 0
517 2 1.2305000000000001e+00 2.1312885187134998e+00 2.6821545714338740e+01 0 0 0
518 2 2.4610000000000003e+00 2.8417180249513345e+00 2.6821545714338740e+01 0 0 0
519 2 2.4610000000000003e+00 0.0000000000000000e+00 2.6821545714338740e+01 0 0 0
520 2 3.6915000000000004e+00 7.1042950623783474e-01 2.6821545714338740e+01 0 0 0
528 2 3.6914999999999996e+00 2.1312885187134998e+00 2.6821545714338740e+01 0 0 0
529 2 4.9220000000000006e+00 2.8417180249513332e+00 2.6821545714338740e+01 0 0 0
530 2 4.9220000000000006e+00 0.0000000000000000e+00 2.6821545714338740e+01 0 0 0
531 2 6.1524999999999999e+00 7.1042950623783407e-01 2.6821545714338740e+01 0 0 0
543 2 6.1524999999999999e+00 2.1312885187134989e+00 2.6821545714338740e+01 0 0 0
544 2 7.3829999999999991e+00 2.8417180249513345e+00 2.6821545714338740e+01 0 0 0
545 2 7.3829999999999991e+00 0.0000000000000000e+00 2.6821545714338740e+01 0 0 0
4457 1 1.1013105819837222e+01 9.9539726399604351e+00 2.4503374689618365e+01 1 1 1
546 2 8.6134999999999984e+00 7.1042950623783407e-01 2.6821545714338740e+01 0 0 0
562 2 8.6134999999999984e+00 2.1312885187135002e+00 2.6821545714338740e+01 0 0 0
563 2 9.8440000000000012e+00 2.8417180249513332e+00 2.6821545714338740e+01 0 0 0
564 2 9.8440000000000012e+00 0.0000000000000000e+00 2.6821545714338740e+01 0 0 0
565 2 1.1074500000000002e+01 7.1042950623783330e-01 2.6821545714338740e+01 0 0 0
585 2 1.1074500000000002e+01 2.1312885187135002e+00 2.6821545714338740e+01 0 0 0
514 2 0.0000000000000000e+00 7.1042950623783341e+00 2.6821545714338740e+01 0 0 0
515 2 0.0000000000000000e+00 4.2625770374269996e+00 2.6821545714338740e+01 0 0 0
516 2 1.2305000000000001e+00 4.9730065436648339e+00 2.6821545714338740e+01 0 0 0
524 2 1.2305000000000001e+00 6.3938655561404980e+00 2.6821545714338740e+01 0 0 0
525 2 2.4610000000000003e+00 7.1042950623783341e+00 2.6821545714338740e+01 0 0 0
526 2 2.4610000000000003e+00 4.2625770374269996e+00 2.6821545714338740e+01 0 0 0
527 2 3.6914999999999996e+00 4.9730065436648339e+00 2.6821545714338740e+01 0 0 0
539 2 3.6914999999999996e+00 6.3938655561404980e+00 2.6821545714338740e+01 0 0 0
540 2 4.9220000000000006e+00 7.1042950623783341e+00 2.6821545714338740e+01 0 0 0
541 2 4.9220000000000006e+00 4.2625770374269978e+00 2.6821545714338740e+01 0 0 0
542 2 6.1524999999999999e+00 4.9730065436648339e+00 2.6821545714338740e+01 0 0 0
558 2 6.1524999999999999e+00 6.3938655561404980e+00 2.6821545714338740e+01 0 0 0
559 2 7.3830000000000009e+00 7.1042950623783341e+00 2.6821545714338740e+01 0 0 0
560 2 7.3829999999999991e+00 4.2625770374269996e+00 2.6821545714338740e+01 0 0 0
561 2 8.6135000000000002e+00 4.9730065436648339e+00 2.6821545714338740e+01 0 0 0
581 2 8.6135000000000002e+00 6.3938655561404980e+00 2.6821545714338740e+01 0 0 0
582 2 9.8440000000000012e+00 7.1042950623783341e+00 2.6821545714338740e+01 0 0 0
583 2 9.8440000000000012e+00 4.2625770374270004e+00 2.6821545714338740e+01 0 0 0
584 2 1.1074500000000002e+01 4.9730065436648339e+00 2.6821545714338740e+01 0 0 0
605 2 1.1074500000000002e+01 6.3938655561404980e+00 2.6821545714338740e+01 0 0 0
521 2 0.0000000000000000e+00 1.1366872099805333e+01 2.6821545714338740e+01 0 0 0
522 2 0.0000000000000000e+00 8.5251540748539991e+00 2.6821545714338740e+01 0 0 0
523 2 1.2305000000000001e+00 9.2355835810918343e+00 2.6821545714338740e+01 0 0 0
535 2 1.2305000000000001e+00 1.0656442593567498e+01 2.6821545714338740e+01 0 0 0
536 2 2.4610000000000003e+00 1.1366872099805333e+01 2.6821545714338740e+01 0 0 0
537 2 2.4610000000000003e+00 8.5251540748539991e+00 2.6821545714338740e+01 0 0 0
538 2 3.6915000000000004e+00 9.2355835810918343e+00 2.6821545714338740e+01 0 0 0
554 2 3.6914999999999996e+00 1.0656442593567499e+01 2.6821545714338740e+01 0 0 0
5342 1 2.6654310904621128e+00 1.1199989491752882e+01 2.4386334140258157e+01 -1 0 0
555 2 4.9220000000000006e+00 1.1366872099805333e+01 2.6821545714338740e+01 0 0 0
556 2 4.9220000000000006e+00 8.5251540748539991e+00 2.6821545714338740e+01 0 0 0
557 2 6.1524999999999999e+00 9.2355835810918343e+00 2.6821545714338740e+01 0 0 0
577 2 6.1524999999999999e+00 1.0656442593567499e+01 2.6821545714338740e+01 0 0 0
578 2 7.3829999999999991e+00 1.1366872099805333e+01 2.6821545714338740e+01 0 0 0
579 2 7.3830000000000009e+00 8.5251540748539991e+00 2.6821545714338740e+01 0 0 0
580 2 8.6134999999999984e+00 9.2355835810918343e+00 2.6821545714338740e+01 0 0 0
601 2 8.6134999999999984e+00 1.0656442593567498e+01 2.6821545714338740e+01 0 0 0
602 2 9.8440000000000012e+00 1.1366872099805333e+01 2.6821545714338740e+01 0 0 0
603 2 9.8440000000000012e+00 8.5251540748539956e+00 2.6821545714338740e+01 0 0 0
604 2 1.1074500000000002e+01 9.2355835810918343e+00 2.6821545714338740e+01 0 0 0
625 2 1.1074500000000002e+01 1.0656442593567498e+01 2.6821545714338740e+01 0 0 0
626 2 1.2304999999999998e+01 1.1366872099805333e+01 2.6821545714338740e+01 0 0 0
532 2 0.0000000000000000e+00 1.5629449137232333e+01 2.6821545714338740e+01 0 0 0
533 2 0.0000000000000000e+00 1.2787731112280996e+01 2.6821545714338740e+01 0 0 0
534 2 1.2305000000000001e+00 1.3498160618518829e+01 2.6821545714338740e+01 0 0 0
550 2 1.2305000000000001e+00 1.4919019630994494e+01 2.6821545714338740e+01 0 0 0
551 2 2.4610000000000003e+00 1.5629449137232328e+01 2.6821545714338740e+01 0 0 0
552 2 2.4610000000000003e+00 1.2787731112280996e+01 2.6821545714338740e+01 0 0 0
553 2 3.6915000000000004e+00 1.3498160618518829e+01 2.6821545714338740e+01 0 0 0
573 2 3.6915000000000004e+00 1.4919019630994494e+01 2.6821545714338740e+01 0 0 0
1522 2 9.8440000000000012e+00 1.5629449137232328e+01 3.3240454285663617e+01 0 0 0
574 2 4.9220000000000006e+00 1.5629449137232333e+01 2.6821545714338740e+01 0 0 0
575 2 4.9220000000000006e+00 1.2787731112280996e+01 2.6821545714338740e+01 0 0 0
576 2 6.1524999999999990e+00 1.3498160618518829e+01 2.6821545714338740e+01 0 0 0
597 2 6.1524999999999990e+00 1.4919019630994494e+01 2.6821545714338740e+01 0 0 0
598 2 7.3829999999999991e+00 1.5629449137232333e+01 2.6821545714338740e+01 0 0 0
599 2 7.3829999999999991e+00 1.2787731112280996e+01 2.6821545714338740e+01 0 0 0
600 2 8.6135000000000002e+00 1.3498160618518835e+01 2.6821545714338740e+01 0 0 0
621 2 8.6135000000000002e+00 1.4919019630994494e+01 2.6821545714338740e+01 0 0 0
622 2 9.8440000000000012e+00 1.5629449137232328e+01 2.6821545714338740e+01 0 0 0
623 2 9.8440000000000012e+00 1.2787731112280996e+01 2.6821545714338740e+01 0 0 0
624 2 1.1074500000000002e+01 1.3498160618518829e+01 2.6821545714338740e+01 0 0 0
642 2 1.1074500000000002e+01 1.4919019630994494e+01 2.6821545714338740e+01 0 0 0
1250 2 0.0000000000000000e+00 1.4208590124756650e+00 3.0030999999999644e+01 0 0 0
1251 2 0.0000000000000000e+00 0.0000000000000000e+00 3.0030999999999644e+01 0 0 0
1254 2 1.2305000000000001e+00 3.5521475311891644e+00 3.0030999999999644e+01 0 0 0
1255 2 1.2305000000000001e+00 2.1312885187134998e+00 3.0030999999999644e+01 0 0 0
1256 2 2.4610000000000003e+00 1.4208590124756650e+00 3.0030999999999644e+01 0 0 0
1257 2 2.4610000000000003e+00 0.0000000000000000e+00 3.0030999999999644e+01 0 0 0
1264 2 3.6914999999999996e+00 3.5521475311891644e+00 3.0030999999999644e+01 0 0 0
1265 2 3.6914999999999996e+00 2.1312885187134998e+00 3.0030999999999644e+01 0 0 0
1411 2 0.0000000000000000e+00 2.8417180249513345e+00 3.3240454285663617e+01 0 0 0
1412 2 0.0000000000000000e+00 0.0000000000000000e+00 3.3240454285663617e+01 0 0 0
1413 2 1.2305000000000001e+00 7.1042950623783474e-01 3.3240454285663617e+01 0 0 0
1417 2 1.2305000000000001e+00 2.1312885187134998e+00 3.3240454285663617e+01 0 0 0
1418 2 2.4610000000000003e+00 2.8417180249513345e+00 3.3240454285663617e+01 0 0 0
1419 2 2.4610000000000003e+00 0.0000000000000000e+00 3.3240454285663617e+01 0 0 0
1420 2 3.6915000000000004e+00 7.1042950623783474e-01 3.3240454285663617e+01 0 0 0
1428 2 3.6914999999999996e+00 2.1312885187134998e+00 3.3240454285663617e+01 0 0 0
5440 1 6.1862465091099885e+00 4.0276215928316388e+00 3.5584633051146085e+01 1 1 -1
1266 2 4.9220000000000006e+00 1.4208590124756650e+00 3.0030999999999644e+01 0 0 0
1267 2 4.9220000000000006e+00 0.0000000000000000e+00 3.0030999999999644e+01 0 0 0
1278 2 6.1524999999999999e+00 3.5521475311891644e+00 3.0030999999999644e+01 0 0 0
1279 2 6.1524999999999999e+00 2.1312885187134989e+00 3.0030999999999644e+01 0 0 0
1280 2 7.3829999999999991e+00 1.4208590124756659e+00 3.0030999999999644e+01 0 0 0
1281 2 7.3829999999999991e+00 0.0000000000000000e+00 3.0030999999999644e+01 0 0 0
1429 2 4.9220000000000006e+00 2.8417180249513332e+00 3.3240454285663617e+01 0 0 0
1430 2 4.9220000000000006e+00 0.0000000000000000e+00 3.3240454285663617e+01 0 0 0
1431 2 6.1524999999999999e+00 7.1042950623783407e-01 3.3240454285663617e+01 0 0 0
1443 2 6.1524999999999999e+00 2.1312885187134989e+00 3.3240454285663617e+01 0 0 0
1444 2 7.3829999999999991e+00 2.8417180249513345e+00 3.3240454285663617e+01 0 0 0
1445 2 7.3829999999999991e+00 0.0000000000000000e+00 3.3240454285663617e+01 0 0 0
1296 2 8.6134999999999984e+00 3.5521475311891657e+00 3.0030999999999644e+01 0 0 0
1297 2 8.6134999999999984e+00 2.1312885187135002e+00 3.0030999999999644e+01 0 0 0
1298 2 9.8440000000000012e+00 1.4208590124756659e+00 3.0030999999999644e+01 0 0 0
1299 2 9.8440000000000012e+00 0.0000000000000000e+00 3.0030999999999644e+01 0 0 0
1318 2 1.1074500000000002e+01 3.5521475311891644e+00 3.0030999999999644e+01 0 0 0
1319 2 1.1074500000000002e+01 2.1312885187135002e+00 3.0030999999999644e+01 0 0 0
1446 2 8.6134999999999984e+00 7.1042950623783407e-01 3.3240454285663617e+01 0 0 0
1462 2 8.6134999999999984e+00 2.1312885187135002e+00 3.3240454285663617e+01 0 0 0
1463 2 9.8440000000000012e+00 2.8417180249513332e+00 3.3240454285663617e+01 0 0 0
1464 2 9.8440000000000012e+00 0.0000000000000000e+00 3.3240454285663617e+01 0 0 0
1465 2 1.1074500000000002e+01 7.1042950623783330e-01 3.3240454285663617e+01 0 0 0
1485 2 1.1074500000000002e+01 2.1312885187135002e+00 3.3240454285663617e+01 0 0 0
1524 2 1.1074500000000002e+01 1.3498160618518829e+01 3.3240454285663617e+01 0 0 0
1355 2 9.8440000000000012e+00 1.2787731112280996e+01 3.0030999999999644e+01 0 0 0
1252 2 0.0000000000000000e+00 5.6834360499026637e+00 3.0030999999999644e+01 0 0 0
1253 2 0.0000000000000000e+00 4.2625770374269996e+00 3.0030999999999644e+01 0 0 0
1260 2 1.2305000000000001e+00 7.8147245686161639e+00 3.0030999999999644e+01 0 0 0
1261 2 1.2305000000000001e+00 6.3938655561404980e+00 3.0030999999999644e+01 0 0 0
1262 2 2.4610000000000003e+00 5.6834360499026637e+00 3.0030999999999644e+01 0 0 0
1263 2 2.4610000000000003e+00 4.2625770374269996e+00 3.0030999999999644e+01 0 0 0
1274 2 3.6914999999999996e+00 7.8147245686161639e+00 3.0030999999999644e+01 0 0 0
1275 2 3.6914999999999996e+00 6.3938655561404980e+00 3.0030999999999644e+01 0 0 0
1414 2 0.0000000000000000e+00 7.1042950623783341e+00 3.3240454285663617e+01 0 0 0
1415 2 0.0000000000000000e+00 4.2625770374269996e+00 3.3240454285663617e+01 0 0 0
1416 2 1.2305000000000001e+00 4.9730065436648339e+00 3.3240454285663617e+01 0 0 0
1424 2 1.2305000000000001e+00 6.3938655561404980e+00 3.3240454285663617e+01 0 0 0
1425 2 2.4610000000000003e+00 7.1042950623783341e+00 3.3240454285663617e+01 0 0 0
1426 2 2.4610000000000003e+00 4.2625770374269996e+00 3.3240454285663617e+01 0 0 0
1427 2 3.6914999999999996e+00 4.9730065436648339e+00 3.3240454285663617e+01 0 0 0
1439 2 3.6914999999999996e+00 6.3938655561404980e+00 3.3240454285663617e+01 0 0 0
1276 2 4.9220000000000006e+00 5.6834360499026637e+00 3.0030999999999644e+01 0 0 0
1277 2 4.9220000000000006e+00 4.2625770374269978e+00 3.0030999999999644e+01 0 0 0
1292 2 6.1524999999999999e+00 7.8147245686161639e+00 3.0030999999999644e+01 0 0 0
1293 2 6.1524999999999999e+00 6.3938655561404980e+00 3.0030999999999644e+01 0 0 0
1294 2 7.3829999999999991e+00 5.6834360499026637e+00 3.0030999999999644e+01 0 0 0
1295 2 7.3829999999999991e+00 4.2625770374269996e+00 3.0030999999999644e+01 0 0 0
1440 2 4.9220000000000006e+00 7.1042950623783341e+00 3.3240454285663617e+01 0 0 0
1441 2 4.9220000000000006e+00 4.2625770374269978e+00 3.3240454285663617e+01 0 0 0
1442 2 6.1524999999999999e+00 4.9730065436648339e+00 3.3240454285663617e+01 0 0 0
1458 2 6.1524999999999999e+00 6.3938655561404980e+00 3.3240454285663617e+01 0 0 0
1459 2 7.3830000000000009e+00 7.1042950623783341e+00 3.3240454285663617e+01 0 0 0
1460 2 7.3829999999999991e+00 4.2625770374269996e+00 3.3240454285663617e+01 0 0 0
1521 2 8.6135000000000002e+00 1.4919019630994494e+01 3.3240454285663617e+01 0 0 0
1314 2 8.6135000000000002e+00 7.8147245686161639e+00 3.0030999999999644e+01 0 0 0
1315 2 8.6135000000000002e+00 6.3938655561404980e+00 3.0030999999999644e+01 0 0 0
1316 2 9.8440000000000012e+00 5.6834360499026637e+00 3.0030999999999644e+01 0 0 0
1317 2 9.8440000000000012e+00 4.2625770374270004e+00 3.0030999999999644e+01 0 0 0
1337 2 1.1074500000000002e+01 7.8147245686161639e+00 3.0030999999999644e+01 0 0 0
1338 2 1.1074500000000002e+01 6.3938655561404980e+00 3.0030999999999644e+01 0 0 0
1461 2 8.6135000000000002e+00 4.9730065436648339e+00 3.3240454285663617e+01 0 0 0
1481 2 8.6135000000000002e+00 6.3938655561404980e+00 3.3240454285663617e+01 0 0 0
1482 2 9.8440000000000012e+00 7.1042950623783341e+00 3.3240454285663617e+01 0 0 0
1483 2 9.8440000000000012e+00 4.2625770374270004e+00 3.3240454285663617e+01 0 0 0
1484 2 1.1074500000000002e+01 4.9730065436648339e+00 3.3240454285663617e+01 0 0 0
1505 2 1.1074500000000002e+01 6.3938655561404980e+00 3.3240454285663617e+01 0 0 0
1353 2 8.6135000000000002e+00 1.4919019630994494e+01 3.0030999999999644e+01 0 0 0
1258 2 0.0000000000000000e+00 9.9460130873296642e+00 3.0030999999999644e+01 0 0 0
1259 2 0.0000000000000000e+00 8.5251540748539991e+00 3.0030999999999644e+01 0 0 0
1270 2 1.2305000000000001e+00 1.2077301606043163e+01 3.0030999999999644e+01 0 0 0
1271 2 1.2305000000000001e+00 1.0656442593567498e+01 3.0030999999999644e+01 0 0 0
1272 2 2.4610000000000003e+00 9.9460130873296642e+00 3.0030999999999644e+01 0 0 0
1273 2 2.4610000000000003e+00 8.5251540748539991e+00 3.0030999999999644e+01 0 0 0
1288 2 3.6914999999999996e+00 1.2077301606043163e+01 3.0030999999999644e+01 0 0 0
1289 2 3.6914999999999996e+00 1.0656442593567499e+01 3.0030999999999644e+01 0 0 0
1421 2 0.0000000000000000e+00 1.1366872099805333e+01 3.3240454285663617e+01 0 0 0
1422 2 0.0000000000000000e+00 8.5251540748539991e+00 3.3240454285663617e+01 0 0 0
1423 2 1.2305000000000001e+00 9.2355835810918343e+00 3.3240454285663617e+01 0 0 0
1435 2 1.2305000000000001e+00 1.0656442593567498e+01 3.3240454285663617e+01 0 0 0
1436 2 2.4610000000000003e+00 1.1366872099805333e+01 3.3240454285663617e+01 0 0 0
1437 2 2.4610000000000003e+00 8.5251540748539991e+00 3.3240454285663617e+01 0 0 0
1438 2 3.6915000000000004e+00 9.2355835810918343e+00 3.3240454285663617e+01 0 0 0
1454 2 3.6914999999999996e+00 1.0656442593567499e+01 3.3240454285663617e+01 0 0 0
1290 2 4.9220000000000006e+00 9.9460130873296642e+00 3.0030999999999644e+01 0 0 0
1291 2 4.9220000000000006e+00 8.5251540748539991e+00 3.0030999999999644e+01 0 0 0
1310 2 6.1524999999999999e+00 1.2077301606043163e+01 3.0030999999999644e+01 0 0 0
1311 2 6.1524999999999999e+00 1.0656442593567499e+01 3.0030999999999644e+01 0 0 0
1312 2 7.3830000000000009e+00 9.9460130873296642e+00 3.0030999999999644e+01 0 0 0
1313 2 7.3830000000000009e+00 8.5251540748539991e+00 3.0030999999999644e+01 0 0 0
1455 2 4.9220000000000006e+00 1.1366872099805333e+01 3.3240454285663617e+01 0 0 0
1456 2 4.9220000000000006e+00 8.5251540748539991e+00 3.3240454285663617e+01 0 0 0
1457 2 6.1524999999999999e+00 9.2355835810918343e+00 3.3240454285663617e+01 0 0 0
1477 2 6.1524999999999999e+00 1.0656442593567499e+01 3.3240454285663617e+01 0 0 0
1478 2 7.3829999999999991e+00 1.1366872099805333e+01 3.3240454285663617e+01 0 0 0
1479 2 7.3830000000000009e+00 8.5251540748539991e+00 3.3240454285663617e+01 0 0 0
1333 2 8.6135000000000002e+00 1.2077301606043163e+01 3.0030999999999644e+01 0 0 0
1334 2 8.6134999999999984e+00 1.0656442593567498e+01 3.0030999999999644e+01 0 0 0
1335 2 9.8440000000000012e+00 9.9460130873296642e+00 3.0030999999999644e+01 0 0 0
1336 2 9.8440000000000012e+00 8.5251540748539956e+00 3.0030999999999644e+01 0 0 0
1356 2 1.1074500000000002e+01 1.2077301606043163e+01 3.0030999999999644e+01 0 0 0
1357 2 1.1074500000000002e+01 1.0656442593567498e+01 3.0030999999999644e+01 0 0 0