
# Create simulation box and atoms

read_data data.graphite_substrate
  orthogonal box = (0 0 -0.0398667) to (49.22 49.0196 60.1019)
  4 by 3 by 5 MPI processor grid
  reading atoms ...
  6736 atoms
  reading velocities ...
  6736 velocities
group water type 1
3976 atoms in group water
group graphite type 2
2760 atoms in group graphite

# Define potential

pair_style sw
pair_coeff * * mWC.sw mW C
Reading potential file mWC.sw with DATE: 2019-02-27


# Fix graphite atoms in place

fix 5 graphite setforce 0.0 0.0 0.0
velocity graphite set 0.0 0.0 0.0


# Equilibration of molecular water

# Add velocity/set timestep

velocity	    water create ${TEMP} ${SEED} rot yes dist gaussian
velocity	    water create 225 ${SEED} rot yes dist gaussian
velocity	    water create 225 3549 rot yes dist gaussian
timestep	    5.0

# Define output

compute			1 water msd
compute			3 water temp
thermo	    	50
thermo_style	custom step temp press vol etotal ke pe c_1[4] c_3

# Neighbor lists

neigh_modify    delay 0 every 1 check yes

# Set fixes

fix             1 water momentum 10 linear 1 1 1 rescale
fix             2 water nve
fix             3 water temp/csvr ${TEMP} ${TEMP} 500.0 ${SEED}
fix             3 water temp/csvr 225 ${TEMP} 500.0 ${SEED}
fix             3 water temp/csvr 225 225 500.0 ${SEED}
fix             3 water temp/csvr 225 225 500.0 3549
fix             4 water press/berendsen z ${PRES} ${PRES} 1000.0 modulus 20000
fix             4 water press/berendsen z 1 ${PRES} 1000.0 modulus 20000
fix             4 water press/berendsen z 1 1 1000.0 modulus 20000

# Run 0.5 ns equilibration

dump		    1 all atom 2000 ${DIR}/eq.${NAME}-${TEMP}.dump
dump		    1 all atom 2000 run_6/eq.${NAME}-${TEMP}.dump
dump		    1 all atom 2000 run_6/eq.het_freeze_6-${TEMP}.dump
dump		    1 all atom 2000 run_6/eq.het_freeze_6-225.dump

reset_timestep  0

run	            100000
Neighbor list info ...
  update every 1 steps, delay 0 steps, check yes
  max neighbors/atom: 2000, page size: 100000
  master list distance cutoff = 7.76
  ghost atom cutoff = 7.76
  binsize = 3.88, bins = 13 13 16
  1 neighbor lists, perpetual/occasional/extra = 1 0 0
  (1) pair sw, perpetual
      attributes: full, newton on
      pair build: full/bin/atomonly
      stencil: full/bin/3d
      bin: standard
Per MPI rank memory allocation (min/avg/max) = 4.091 | 4.193 | 4.508 Mbytes
Step Temp Press Volume TotEng KinEng PotEng c_1[4] c_3 
       0     132.7951   -1147.9579    145106.76   -36018.829     2665.962   -38684.791            0          225 
      50    169.31725    -1115.817    144508.63   -36419.897    3399.1718   -39819.069   0.85077491    286.88093 
     100    166.10217   -1175.5308    144030.48   -36791.976    3334.6265   -40126.603    1.8751625    281.43348 
     150    160.82841   -923.35285    143514.99   -37155.253    3228.7519   -40384.005    2.8479985    272.49795 
     200    154.78026   -657.36085    143157.85   -37436.237    3107.3307   -40543.568    3.6417549    262.25033 
     250    154.48609   -802.07362    142853.33   -37593.468     3101.425   -40694.893    4.3454374     261.7519 
     300    149.86744   -815.39159     142493.5   -37787.769    3008.7021   -40796.471    5.0368073    253.92634 
     350    150.20499   -707.66693     142151.9    -37876.37    3015.4787   -40891.848    5.6380214    254.49827 
     400    146.87237     -638.266    141909.47   -37996.672    2948.5738   -40945.246    6.2911034    248.85167 
     450    143.98018   -592.67643    141659.87   -38124.764    2890.5109   -41015.275    6.8278682    243.95132 
     500    143.73193    -697.6064     141444.7   -38228.517    2885.5271   -41114.044    7.3351418     243.5307 
     550    144.13459   -598.95216    141271.68   -38392.738    2893.6107   -41286.348    7.9211061    244.21294 
     600    140.12334   -583.17313    141103.78   -38468.574    2813.0819   -41281.656    8.5055816    237.41653 
     650    141.28721   -402.79748    141025.15   -38587.663    2836.4475    -41424.11    8.8421186    239.38852 
     700    136.33074   -255.72127     140888.4   -38673.164    2736.9426   -41410.106    9.2303254    230.99058 
     750    136.81557   -544.77854    140773.35   -38757.188    2746.6759   -41503.864    9.7622667    231.81203 
     800    135.72829   -421.79644    140667.74   -38820.167     2724.848   -41545.015    10.219101    229.96982 
     850    134.87671   -325.81444    140570.96   -38865.177    2707.7518   -41572.929    10.576222    228.52695 
     900    136.87741   -210.75409    140528.88   -38933.349    2747.9175   -41681.267    10.826423    231.91683 
     950    136.48838   -344.91366    140377.01   -38974.177    2740.1073   -41714.284    11.296044    231.25767 
    1000     135.6157   -346.24894    140355.62   -38954.875    2722.5877   -41677.462    11.718893    229.77905 
    1050    135.48347   -229.34257    140349.27   -38983.921    2719.9331   -41703.854    12.041024    229.55501 
    1100    135.96997   -473.39028    140280.02   -38996.424    2729.6998   -41726.124    12.493064     230.3793 
    1150    133.15409   -246.76165    140321.82   -39074.852    2673.1689   -41748.021    12.881214    225.60824 
    1200    134.38235   -491.66264    140286.53   -39093.248    2697.8273   -41791.075    13.128164    227.68934 
    1250    131.30648   -281.54516    140291.81   -39124.892    2636.0769   -41760.968    13.432577    222.47778 
    1300    129.35264   -334.18519    140266.38   -39182.949     2596.852   -41779.801    13.711776     219.1673 
    1350    135.56231    -234.1457    140239.04   -39123.723    2721.5157   -41845.239    14.023621    229.68859 
    1400    130.98909   -216.83318    140250.48   -39173.799     2629.705   -41803.504    14.426521       221.94 
    1450    133.13229    -167.9786    140223.39   -39164.831    2672.7313   -41837.562    14.821864    225.57131 
    1500    133.88316   -256.52012    140234.36   -39175.501    2687.8056   -41863.307    15.217985    226.84354 
    1550     132.4721   -246.89092    140186.96   -39193.346    2659.4775   -41852.824    15.493991    224.45273 
    1600    134.68926   -271.34373    140173.24   -39144.549    2703.9888   -41848.538    15.782522    228.20936 
    1650    135.42464   -244.06519    140183.55   -39144.252    2718.7519   -41863.004    16.022573    229.45533 
    1700    133.02177   -20.706499    140221.23   -39106.919    2670.5126   -41777.431    16.161081    225.38406 
    1750    136.61671   -353.66263    140268.07   -39088.948    2742.6837   -41831.632    16.330588    231.47511 
    1800    134.95798   -190.03867    140243.78   -39105.632    2709.3834   -41815.015    16.562495    228.66465 
    1850    136.79583   -117.53459       140238   -39093.468    2746.2798   -41839.747    16.843199     231.7786 
    1900    135.17308    -118.3409     140266.4   -39124.188    2713.7017    -41837.89    17.104399     229.0291 
    1950    134.15546   -262.73877    140356.92   -39146.187    2693.2723   -41839.459    17.450707    227.30491 
    2000    134.32373   -369.92215    140331.08   -39158.333    2696.6503   -41854.983    17.814238    227.59001 
    2050    133.05344   -176.26245    140304.64   -39237.085    2671.1484   -41908.234    18.022123    225.43772 
    2100    132.59484   -267.59222    140277.46   -39237.908    2661.9417   -41899.849    18.264463     224.6607 
    2150     133.6863   -140.79511    140266.79   -39226.896    2683.8534    -41910.75     18.43092    226.50999 
    2200    134.02027   -215.40152    140327.71   -39312.086    2690.5582   -42002.644    18.715734    227.07585 
    2250    132.13427    43.586504    140304.63   -39322.735    2652.6953   -41975.431    18.964976    223.88033 
    2300    132.63771   -65.365591    140286.45   -39284.049    2662.8023   -41946.851    19.249926    224.73333 
    2350    132.84203   -303.36237    140269.11   -39293.219    2666.9041   -41960.123    19.598653    225.07951 
    2400    133.42219    -170.8881     140288.9   -39284.843    2678.5513   -41963.394    19.822421     226.0625 
    2450    135.29589   -47.070187    140304.71   -39267.296    2716.1673   -41983.463    20.001654    229.23719 
    2500    133.48745   -119.76331    140335.94   -39210.546    2679.8615   -41890.407    20.272759    226.17308 
    2550    134.31743   -50.821557    140357.48   -39236.681    2696.5239   -41933.204    20.547355    227.57934 
    2600    134.46401   -81.557306    140410.48   -39263.116    2699.4666   -41962.583    20.728082     227.8277 
    2650     130.2138   -228.14075    140417.35   -39335.029    2614.1404   -41949.169    20.887093     220.6264 
    2700    130.56676    -420.0353    140368.14   -39361.686    2621.2263   -41982.913    21.084894    221.22443 
    2750    133.07755    -259.5242    140310.32   -39346.781    2671.6323   -42018.413    21.278354    225.47856 
    2800    132.82763   -400.94047    140297.85   -39357.287    2666.6151   -42023.902    21.558097    225.05512 
    2850    133.14314   -159.99819     140249.7   -39388.499    2672.9492   -42061.449    21.770444    225.58971 
    2900     133.6552   -3.1752085    140262.08    -39409.12    2683.2292   -42092.349    21.954431    226.45731 
    2950    131.87402   -160.62041    140373.79   -39381.179    2647.4705    -42028.65    22.184209    223.43937 
    3000    135.38059   -216.34316    140359.49   -39357.633    2717.8676     -42075.5    22.317639    229.38069 
    3050    136.71301   -72.297577    140446.65   -39335.588    2744.6169   -42080.205    22.531538    231.63826 
    3100    132.46912   -103.59984    140525.62   -39397.904    2659.4176   -42057.322    22.811539    224.44767 
    3150    133.51683   -282.08651     140534.5   -39439.446    2680.4514   -42119.897    23.063036    226.22286 
    3200    134.49596   -53.283463     140593.2   -39409.255     2700.108   -42109.363    23.170004    227.88183 
    3250    135.52729   -114.79543    140687.86   -39398.725    2720.8128   -42119.538    23.351786    229.62926 
    3300    133.18873    31.648451    140754.65   -39411.724    2673.8643   -42085.588    23.707918    225.66693 
    3350    130.93538   -130.08615    140800.34   -39429.377    2628.6267   -42058.004    23.776333      221.849 
    3400    134.03257   -91.992528    140902.13   -39395.715     2690.805    -42086.52    23.945067    227.09669 
    3450    135.10005   -381.51953    140903.31   -39363.778    2712.2356   -42076.014    24.186921    228.90536 
    3500    132.57888   -428.12196    140829.84   -39368.697    2661.6213   -42030.318    24.371536    224.63366 
    3550    133.72344   -222.01502     140849.1   -39391.066    2684.5992   -42075.665     24.47801    226.57293 
    3600    133.50615   -171.24288    140784.57   -39371.539    2680.2369   -42051.776    24.568756    226.20476 
    3650    133.84602   -60.023289     140809.9    -39356.33      2687.06    -42043.39    24.728845    226.78062 
    3700    134.05084   -164.78793    140882.01   -39332.235     2691.172   -42023.407    24.789473    227.12765 
    3750    133.90574   -243.25356    140916.56   -39323.889    2688.2589   -42012.148    24.940899     226.8818 
    3800    133.30121   -417.49499    140838.58   -39331.916    2676.1226   -42008.039    25.216538    225.85753 
    3850    134.66461   -187.12646    140691.36   -39281.378    2703.4939   -41984.872    25.465129    228.16759 
    3900    139.27071   -79.108635    140705.81   -39220.904    2795.9648   -42016.868    25.707777    235.97189 
    3950    133.62103   -235.48589    140761.81   -39307.328    2682.5433   -41989.871    25.906474    226.39941 
    4000    135.44788   -265.05541    140790.37   -39266.747    2719.2186   -41985.965    26.168559    229.49471 
    4050    134.88657   -305.71735    140778.13   -39312.362    2707.9499   -42020.312    26.601652    228.54366 
    4100    133.98261   -281.43923    140767.42    -39346.42    2689.8022   -42036.222    26.730134    227.01205 
    4150     135.4597   -130.44341    140788.53   -39311.405    2719.4558   -42030.861    26.864152    229.51473 
    4200    132.69818   -321.52185    140730.28    -39234.21    2664.0162   -41898.226    27.187174    224.83578 
    4250    132.93482   -44.479382    140736.61   -39263.337    2668.7669   -41932.104    27.298996    225.23673 
    4300    131.37688   -196.95718    140681.87   -39301.147    2637.4902   -41938.637    27.393104    222.59706 
    4350    135.14612   -84.677483    140668.82   -39291.053    2713.1605   -42004.214    27.644638    228.98343 
    4400    135.43863    -92.94269    140743.71   -39298.507    2719.0328   -42017.539    28.006408    229.47904 
    4450    132.03402   -216.86357    140810.34   -39334.804    2650.6827   -41985.487    28.147814    223.71047 
    4500    132.29926    -173.8161    140743.94   -39359.164    2656.0076   -42015.172    28.428783    224.15988 
    4550    133.45668   -341.11977    140707.86   -39376.443    2679.2438   -42055.687    28.659019    226.12095 
    4600    131.34615   -124.42376    140666.42   -39393.907    2636.8733   -42030.781     28.90534    222.54499 
    4650     132.4564   -66.511083    140676.34   -39401.144    2659.1623   -42060.307    29.208193    224.42613 
    4700    130.78273   -64.755813    140721.36     -39374.2    2625.5621   -41999.762    29.268331    221.59036 
    4750    132.07223   -297.65114    140752.86   -39395.446    2651.4498   -42046.895    29.442272    223.77521 
    4800    131.18838   -200.10075    140776.54   -39409.181    2633.7058   -42042.887    29.677106    222.27767 
    4850     130.9829   -215.59137    140722.25   -39430.596    2629.5807   -42060.177    29.830807    221.92952 
    4900    132.88382   -71.416745     140709.4   -39418.724    2667.7431   -42086.467    29.886161    225.15032 
    4950    132.30657   -96.647947    140805.47   -39423.077    2656.1544   -42079.232     30.01696    224.17227 
    5000    134.83469   -235.57328     140823.5   -39415.606    2706.9082   -42122.514    30.395679    228.45575 
    5050    132.96023   -247.47851    140819.24   -39395.303    2669.2771   -42064.581    30.639807    225.27979 
    5100    133.80402   -134.29251    140791.74   -39372.801    2686.2169   -42059.018    30.896782    226.70946 
    5150    133.29344    -149.1589    140867.29    -39407.43    2675.9665   -42083.397    30.963488    225.84435 
    5200    132.91561   -301.16532    140961.54   -39415.262    2668.3813   -42083.643    30.974562    225.20419 
    5250    134.79459   -169.20313    140980.65   -39396.608    2706.1033   -42102.711    31.121721    228.38782 
    5300    134.37557   -150.63185     141073.1   -39392.851    2697.6912   -42090.543    31.376686    227.67786 
    5350    132.57431   -76.118976     141125.6   -39341.705    2661.5294   -42003.234    31.687191     224.6259 
    5400    133.36239    -165.1323    141124.16    -39355.46    2677.3508   -42032.811    31.815333    225.96119 
    5450    132.25942    -188.5122    141096.96   -39385.319    2655.2078   -42040.527    31.914477    224.09238 
    5500    131.66271   -164.15328    141098.69    -39388.52    2643.2285   -42031.748    32.057421    223.08135 
    5550    131.92608   -8.8148018     141095.1   -39421.092    2648.5157   -42069.608    32.175811    223.52758 
    5600    132.87921   -335.95279    141085.15   -39401.026    2667.6506   -42068.677    32.253482    225.14252 
    5650    132.36755    -361.9198    141033.38   -39451.525    2657.3786   -42108.904    32.425381    224.27558 
    5700    133.13412   -376.37195    141011.82   -39428.864    2672.7681   -42101.633    32.537715    225.57442 
    5750    132.65554   -273.33441    140974.17   -39404.961    2663.1602   -42068.122    32.860798    224.76354 
    5800    130.27908   -149.00535    140922.74   -39460.926    2615.4511   -42076.377    33.165883    220.73701 
    5850    129.90413   -230.27181    140884.35   -39438.932    2607.9235   -42046.855    33.396564    220.10171 
    5900    132.55626   -256.62831     140907.6   -39383.384    2661.1672   -42044.551    33.532488    224.59533 
    5950    131.14856   -24.947847    140857.59   -39368.499    2632.9065   -42001.405      33.6493     222.2102 
    6000    133.02068   -374.52978    140837.05   -39367.673    2670.4907   -42038.164    33.864255    225.38221 
    6050    136.07974   -303.42967     140782.2   -39373.553    2731.9036   -42105.457    34.071422    230.56529 
    6100    132.03362   -283.00098     140726.8   -39388.292    2650.6747   -42038.966    34.449478    223.70979 
    6150     135.0438   -208.99271    140667.85   -39396.312    2711.1063   -42107.418    34.590083    228.81006 
    6200    132.41511   -376.86293    140589.98   -39426.208    2658.3333   -42084.541    34.844039    224.35616 
    6250    129.31674    -141.9418    140527.56    -39414.68    2596.1312   -42010.812    35.027569    219.10647 
    6300    132.91967   -137.70918    140467.89   -39394.096    2668.4628   -42062.559    35.231504    225.21106 
    6350    132.05834   -158.68379    140427.36   -39415.941    2651.1709   -42067.112    35.686145    223.75168 
    6400    131.92399   -159.63514    140467.13   -39399.613    2648.4739   -42048.087    35.822947    223.52405 
    6450    134.93105   -153.31153    140505.23   -39379.746    2708.8428   -42088.589    36.145212    228.61902 
    6500    133.57931   -172.99036    140525.99   -39374.999    2681.7056   -42056.705    36.466603    226.32872 
    6550    134.45306   -131.58576    140514.83   -39377.256    2699.2467   -42076.503    36.487255    227.80914 
    6600    135.12022   -97.879622    140527.25   -39397.557    2712.6406   -42110.198    36.578281    228.93955 
    6650    134.58387   -6.2695321    140529.08    -39378.77    2701.8729   -42080.643    36.862713    228.03078 
    6700    132.14645   -132.08587    140647.05   -39373.778    2652.9399   -42026.718    37.143151    223.90097 
    6750    134.30752    108.48739    140712.51   -39358.823    2696.3251   -42055.148    37.337408    227.56256 
    6800     134.2825   -246.20327    140761.37   -39320.634    2695.8227   -42016.456    37.475935    227.52016 
    6850    132.24411    -226.4133    140684.57   -39402.428    2654.9004   -42057.328    37.674772    224.06643 
    6900     132.7427    -185.6441    140683.15   -39394.789      2664.91   -42059.699    38.204909    224.91121 
    6950    133.09063   -455.65132    140722.07   -39438.549    2671.8951   -42110.444    38.408583    225.50073 
    7000    132.45453   -200.97832    140741.94   -39430.953    2659.1247   -42090.078    38.718903    224.42295 
    7050    130.06891   -202.37759    140717.62   -39450.376    2611.2316   -42061.608    38.946723     220.3809 
    7100    132.36289   -245.25541    140697.24   -39434.321    2657.2851   -42091.606    39.131391    224.26769 
    7150    129.88368   -367.46171    140625.66   -39464.303     2607.513   -42071.816    39.444685    220.06707 
    7200    131.58312   -207.65716    140641.76   -39480.458    2641.6305   -42122.088    39.741971    222.94649 
    7250    132.85032   -203.25838    140601.39   -39441.413    2667.0705   -42108.483    40.150261    225.09355 
    7300     130.6665   -91.966274    140508.66   -39469.537    2623.2286   -42092.765    40.634329    221.39342 
    7350    133.15038   -89.935627    140621.97   -39460.564    2673.0945   -42133.658    40.926433    225.60196 
    7400    130.55364   -467.50439    140645.15   -39467.713    2620.9631   -42088.677    40.953409    221.20221 
    7450    132.43932   -390.49577    140570.83   -39456.022    2658.8193   -42114.841    41.060042    224.39718 
    7500    132.37384   -180.59073     140512.1   -39496.027    2657.5048   -42153.532    41.168452    224.28624 
    7550    129.24698   -220.83198    140444.33   -39506.045    2594.7307   -42100.775    41.379367    218.98827 
    7600    129.27094   -10.943007    140448.64    -39449.66    2595.2118   -42044.872     41.39311    219.02887 
    7650    134.96759   -153.79474    140462.57   -39414.212    2709.5765   -42123.789    41.421346    228.68094 
    7700    133.47817   -90.306052    140458.31    -39422.32    2679.6751   -42101.995    41.607951    226.15735 
    7750      133.779   -87.269823    140600.49    -39444.82    2685.7146   -42130.534    41.708674    226.66707 
    7800    132.89349     -150.573    140602.12   -39417.601    2667.9373   -42085.538    41.998236    225.16671 
    7850    129.79196   -143.39949    140643.13   -39455.588    2605.6717    -42061.26    42.236956    219.91167 
    7900    132.41209   -404.25097    140635.66       -39434    2658.2727   -42092.273    42.498106    224.35105 
    7950    133.91952   -139.87488    140676.04   -39424.162    2688.5356   -42112.698    42.652393    226.90515 
    8000    131.65628   -177.86741    140737.95   -39460.394    2643.0994   -42103.494    42.787888    223.07046 
    8050    130.81022   -175.93572    140828.68   -39457.143    2626.1141   -42083.257    43.201749    221.63695 
    8100    132.47035   -337.12384     140887.6   -39415.646    2659.4425   -42075.089    43.258967    224.44977 
    8150    134.48733   -225.70363       140794   -39420.569    2699.9348   -42120.504     43.48862    227.86722 
    8200    134.57197   -198.67518    140806.46   -39422.232    2701.6341   -42123.866     43.57687    228.01063 
    8250    131.46839   -322.53502    140754.83   -39429.771    2639.3273   -42069.099    43.762675    222.75211 
    8300    130.76802   -271.19517    140740.63   -39401.326    2625.2668   -42026.593    43.791834    221.56543 
    8350    134.11145   -149.82145    140705.39   -39441.847    2692.3887   -42134.236    43.935327    227.23034 
    8400    134.68833   -274.13884    140696.57   -39436.503    2703.9699   -42140.473    43.958498    228.20777 
    8450    130.80556   -149.46458    140651.63   -39470.515    2626.0204   -42096.535    44.114182    221.62904 
    8500    130.98344    67.913226    140698.06   -39469.542    2629.5915   -42099.133    44.273231    221.93043 
    8550    132.48137    106.29632    140784.01   -39494.421    2659.6637   -42154.085    44.417566    224.46844 
    8600    132.70892   -195.84087    140867.93   -39507.128    2664.2319    -42171.36    44.574049    224.85399 
    8650    133.48071   -159.98095     140956.8   -39540.672    2679.7261   -42220.398    44.794368    226.16166 
    8700    132.04929   -241.78184     140944.1   -39539.396    2650.9892   -42190.385    44.977746    223.73634 
    8750    133.92853   -153.82442    140960.44   -39520.319    2688.7164   -42209.035    45.042613    226.92041 
    8800    130.53806   -176.88726    140996.01   -39547.377    2620.6502   -42168.027    45.033216    221.17581 
    8850    131.42654    -266.2312    141020.52   -39513.603     2638.487    -42152.09    45.188989    222.68119 
    8900    134.12598   -150.53656    140974.21   -39497.541    2692.6805   -42190.222      45.5186    227.25497 
    8950    133.05164   -249.57607    140936.59   -39496.632    2671.1123   -42167.744    45.702283    225.43467 
    9000    132.35249    -212.7117    140824.65   -39478.461    2657.0763   -42135.538    45.847429    224.25007 
    9050    130.88322   -244.23421     140800.1   -39488.074    2627.5796   -42115.654    45.810022    221.76063 
    9100    134.54746   -360.60372    140835.03    -39487.36    2701.1419   -42188.502    45.994377    227.96909 
    9150    131.49691   -204.26759    140867.35   -39466.436    2639.8999   -42106.336    46.329449    222.80043 
    9200    133.20004   -100.89767    140869.65   -39461.018    2674.0914    -42135.11    46.557323     225.6861 
    9250    132.94193   -276.03975    140862.85   -39458.892    2668.9097   -42127.801     46.80391    225.24878 
    9300    133.07275   -351.95679    140772.18   -39420.548    2671.5361   -42092.084    47.193292    225.47044 
    9350    134.36114   -451.14266     140725.6    -39437.69    2697.4014   -42135.091    47.383809     227.6534 
    9400    132.31687   -340.36636    140615.82   -39448.606    2656.3612   -42104.967    47.678116    224.18972 
    9450    131.57216   -318.60159    140587.71   -39448.999    2641.4105   -42090.409    48.073015    222.92792 
    9500     131.2355   -164.12142    140550.79   -39476.122    2634.6517   -42110.774    48.180897     222.3575 
    9550    129.69388   -67.701598    140560.22   -39513.829    2603.7027   -42117.532    48.444988    219.74549 
    9600    133.53425   -183.49142    140574.42   -39467.085    2680.8011   -42147.886    48.708731    226.25238 
    9650    132.56899   -93.261199    140632.18   -39468.979    2661.4227   -42130.401    48.854062    224.61689 
    9700    131.46132    -110.3925    140697.92   -39461.001    2639.1853   -42100.186     49.06626    222.74012 
    9750     130.3979    -189.5049    140673.65   -39454.726    2617.8364   -42072.562    49.180599    220.93833 
    9800    130.35581   -243.35694    140623.39   -39469.604    2616.9913   -42086.595    49.334846    220.86701 
    9850    132.92132   -210.43963    140628.55   -39478.244     2668.496    -42146.74    49.749896    225.21387 
    9900    131.00457   -199.02538    140677.38   -39501.156    2630.0157   -42131.172    50.100259    221.96623 
    9950    133.70715   -58.778016     140629.3   -39475.492    2684.2721   -42159.764     50.36418    226.54533 
   10000    131.25104   -319.87663    140684.89    -39500.11    2634.9637   -42135.074    50.643094    222.38383 
   10050    128.99386   -140.18966    140651.03    -39531.28    2589.6491    -42120.93    50.882227     218.5594 
   10100    130.26685     -292.606    140647.88   -39482.323    2615.2054   -42097.528    51.145635    220.71628 
   10150    136.23841   -268.45156    140628.59   -39392.605    2735.0891   -42127.694    51.385145    230.83414 
   10200    131.17563   -325.23055    140654.85   -39445.237    2633.4498   -42078.687    51.608641    222.25606 
   10250    134.07546   -461.37474     140566.2   -39428.912    2691.6661   -42120.578    51.950723    227.16936 
   10300    134.22853   -200.60637    140563.86   -39424.809    2694.7392   -42119.548    52.055614    227.42872 
   10350    130.95084   -357.18838    140566.99   -39486.574    2628.9371   -42115.511    52.224043     221.8752 
   10400    130.60333   -260.66051    140559.63   -39439.238    2621.9606   -42061.198     52.42572     221.2864 
   10450    134.88959   -255.36218    140603.76   -39429.073    2708.0104   -42137.084    52.453176    228.54878 
   10500    130.84207   -161.52988     140634.1   -39478.555    2626.7534   -42105.309    52.711657     221.6909 
   10550    130.76992   -323.92839    140601.68   -39457.403     2625.305   -42082.708    53.143727    221.56866 
   10600    132.15165   -34.196977    140572.91    -39476.68    2653.0442   -42129.724    53.466145    223.90977 
   10650    129.87312   -30.382229    140655.37   -39429.194    2607.3011   -42036.495    53.645495    220.04918 
   10700    131.36486   -27.251769    140671.39     -39458.4    2637.2489   -42095.649    53.837097    222.57669 
   10750    131.43001   -246.53602    140687.87   -39467.015    2638.5568   -42105.572       54.349    222.68708 
   10800     132.6874   -125.12715    140645.21   -39419.112    2663.7997   -42082.912    54.623036    224.81751 
   10850    134.55501   -264.58166    140618.44   -39383.187    2701.2934    -42084.48    54.809228    227.98188 
   10900    133.50569   -249.92526     140494.1   -39402.548    2680.2277   -42082.776    54.958918    226.20399 
   10950    134.44735   -277.20467    140503.17   -39417.996    2699.1321   -42117.128     55.02035    227.79947 
   11000    134.04804   -208.80208    140476.78   -39411.646    2691.1158   -42102.762    55.141703    227.12291 
   11050    134.38241   -276.08248    140519.39   -39426.079    2697.8285   -42123.908    55.289261    227.68945 
   11100    133.03802   -291.32298    140482.87    -39439.08    2670.8388   -42109.918    55.697786    225.41159 
   11150    134.18982   -150.59228    140501.64   -39418.715    2693.9621   -42112.677    55.675461    227.36314 
   11200    131.38834   -94.180757     140546.3     -39467.1    2637.7202    -42104.82    55.773091    222.61647 
   11250    132.33977   -132.94788    140583.69   -39365.033    2656.8209   -42021.854    56.017966    224.22852 
   11300    132.51982   -155.93163    140552.95   -39356.297    2660.4356   -42016.733    56.063264    224.53359 
   11350    131.64245    -177.0987    140599.27   -39356.303    2642.8216   -41999.124    56.424824    223.04701 
   11400    135.72705    61.074601    140680.39   -39317.912    2724.8231   -42042.736    56.430253    229.96772 
   11450    134.69895   -156.42961    140822.52   -39358.332    2704.1832   -42062.515    56.427507    228.22577 
   11500    133.83483   -159.20181    140842.79   -39387.443    2686.8354   -42074.278    56.891137    226.76166 
   11550    134.34588   -58.059073    140888.21   -39364.237     2697.095   -42061.332    57.157016    227.62754 
   11600    132.67087   -131.27295    140905.61   -39360.377     2663.468   -42023.845    57.297444    224.78952 
   11650    135.45077   -261.89532    140932.94   -39346.423    2719.2766   -42065.699    57.586207    229.49961 
   11700    132.91948   -356.99979    140957.76   -39389.063    2668.4591   -42057.522    57.823705    225.21075 
   11750    131.71459   -318.12486       140983   -39378.725    2644.2699   -42022.995    58.003453    223.16925 
   11800     134.1423   -282.59521    140992.32    -39464.18     2693.008   -42157.188    58.085789    227.28261 
   11850    133.02219   -122.59147    141025.75   -39510.419     2670.521    -42180.94    58.324487    225.38477 
   11900    133.43058   -124.62443    141078.48   -39446.886    2678.7197   -42125.605    58.575824    226.07672 
   11950    130.62465   -260.06877    141129.99   -39457.294    2622.3886   -42079.683    58.761803    221.32252 
   12000    132.11454   -392.87532    141180.55   -39425.314    2652.2993   -42077.613    58.769678     223.8469 
   12050     132.6325   -169.33884    141127.46    -39436.18    2662.6978   -42098.878    59.116705    224.72451 
   12100    133.39072   -157.87908    141036.84   -39433.527    2677.9195   -42111.446    59.673605    226.00918 
   12150    133.95796   -16.864684    141104.04   -39456.924    2689.3073   -42146.231    59.737137    226.97028 
   12200    134.31396   -135.51226    141157.24   -39454.379    2696.4542   -42150.833    59.972278    227.57346 
   12250    132.72365   -258.76369    141144.38   -39446.314    2664.5275   -42110.842    60.148116    224.87894 
   12300    135.40784   -99.815867    141157.56   -39433.649    2718.4148   -42152.063    60.293846    229.42688 
   12350    133.69902   -160.61637     141146.6   -39414.416    2684.1088   -42098.525    60.527599    226.53154 
   12400    132.89005   -21.050819    141151.41   -39442.108    2667.8681   -42109.976    60.770283    225.16087 
   12450    131.65141   -152.68954    141265.75   -39463.227    2643.0016   -42106.228    61.132241     223.0622 
   12500    129.50574   -345.69333    141311.16   -39547.488    2599.9256   -42147.413     61.43637     219.4267 
   12550    132.22649   -340.96881    141266.13   -39512.358    2654.5467   -42166.904    61.566192    224.03658 
   12600    130.43885   -302.63636    141226.58   -39542.886    2618.6584   -42161.545    61.921452    221.00771 
   12650    131.70044   -194.87598    141183.66   -39528.441    2643.9858   -42172.427     62.19644    223.14527 
   12700    132.54251   -123.59066    141173.05   -39468.379     2660.891    -42129.27    62.171116    224.57202 
   12750    133.13196   -180.23761    141169.42   -39421.636    2672.7247   -42094.361    62.522924    225.57075 
   12800    131.38854   -375.63778    141153.46   -39448.047    2637.7243   -42085.771    62.749729    222.61682 
   12850    131.35136   -221.05857     141062.3   -39455.445    2636.9777   -42092.423     62.89888    222.55381 
   12900    133.47173   -109.36831    141011.82   -39476.826    2679.5458   -42156.372    63.224681    226.14644 
   12950    135.62305   -102.77307    141122.46   -39440.758    2722.7353   -42163.494    63.610416    229.79151 
   13000    134.04337   -114.01529    141127.23   -39493.037     2691.022   -42184.059     63.96367      227.115 
   13050    131.45848   -244.76067     141136.9   -39494.729    2639.1284   -42133.857    64.206006    222.73532 
   13100    131.00009   -244.74004     141140.1   -39506.634    2629.9257    -42136.56    64.577394    221.95864 
   13150    132.22623    -156.9335    141150.09   -39516.517    2654.5416   -42171.059    64.639674    224.03615 
   13200    130.66051   -302.76313    141128.12   -39525.612    2623.1084    -42148.72    65.023535    221.38328 
   13250    130.32049   -320.75891    141082.25   -39523.067    2616.2824   -42139.349    65.231241    220.80717 
   13300    134.32616   -413.50791     140973.4   -39469.357    2696.6992   -42166.056    65.480363    227.59414 
   13350    132.18921   -388.07433    140872.87   -39479.669    2653.7983   -42133.467     65.83077    223.97341 
   13400    134.95321   -165.95952    140755.73   -39449.831    2709.2876   -42159.119    66.048359    228.65657 
   13450    129.94021   -251.36057    140739.24   -39514.148    2608.6479   -42122.796    66.311377    220.16285 
   13500    131.68488   -120.36469    140674.96   -39477.125    2643.6734   -42120.799    66.308062    223.11891 
   13550    132.92235   -101.14492    140669.36   -39480.323    2668.5166   -42148.839    66.601251     225.2156 
   13600    134.24463   -190.68449    140717.08   -39469.363    2695.0624   -42164.425    66.609787      227.456 
   13650    132.69926   -184.17095    140669.83   -39448.303     2664.038   -42112.341    66.776209    224.83762 
   13700    130.56113    19.129188    140666.45   -39472.364    2621.1134   -42093.477    66.925495     221.2149 
   13750    131.07065   -91.183895    140722.41   -39469.169    2631.3424   -42100.511    67.124892     222.0782 
   13800    133.98363   -169.33551     140769.3   -39405.808    2689.8225    -42095.63      67.2017    227.01377 
   13850    135.28729   -198.10673    140833.86   -39342.448    2715.9945   -42058.443     67.31457    229.22261 
   13900    132.84559   -72.288218    140906.91   -39386.334    2666.9756    -42053.31    67.433375    225.08554 
   13950     130.9574   -78.693604    140978.54   -39379.772    2629.0688    -42008.84    67.606852    221.88632 
   14000    132.07248   -66.886662    141065.84   -39430.027    2651.4548   -42081.482    67.818863    223.77564 
   14050    131.48683   -162.96308    141155.05   -39439.613    2639.6976   -42079.311    67.782301    222.78335 
   14100    129.67993   -317.13741    141210.92   -39457.699    2603.4226   -42061.121     68.11578    219.72185 
   14150    131.62986   -372.11583     141191.4   -39475.201     2642.569    -42117.77    68.221781     223.0257 
   14200    132.87357   -77.781833    141107.59    -39454.76    2667.5374   -42122.297    68.477966    225.13296 
   14250    132.80095   -53.827315    141141.88   -39438.587    2666.0794   -42104.667    68.971719    225.00991 
   14300    131.55305    -357.7419    141143.96   -39463.175    2641.0268   -42104.202    69.132974    222.89554 
   14350    133.40407   -248.74026    141091.42     -39449.3    2678.1875   -42127.487     69.33504     226.0318 
   14400    134.56992   -205.57824    141055.76   -39425.832    2701.5928   -42127.424    69.358825    228.00714 
   14450    133.10084   -325.99529    141013.57   -39445.647    2672.0999   -42117.747    69.632079    225.51802 
   14500    132.28008   -238.50483    140916.94   -39436.338    2655.6225   -42091.961    69.971217    224.12737 
   14550     136.1252   -87.528829    140911.49    -39402.11    2732.8162   -42134.926    70.188014    230.64231 
   14600    133.41204   -36.315728    140939.19   -39416.648    2678.3476   -42094.996    70.367875    226.04531 
   14650     135.9956   -154.02257    140934.29   -39418.864    2730.2145   -42149.079    70.424779    230.42274 
   14700    135.15539   -123.35087    140951.09   -39410.399    2713.3465   -42123.746    70.708544    228.99913 
   14750    132.96916    30.235537    141037.21   -39393.042    2669.4564   -42062.499    70.925848    225.29492 
   14800    134.65074   -90.990254    141094.39   -39389.857    2703.2154   -42093.073     71.07107    228.14409 
   14850    134.81006   -450.26573    141051.27    -39360.36    2706.4137   -42066.774    71.324576    228.41402 
   14900    134.14027   -175.49488    141013.19   -39376.874    2692.9672   -42069.841    71.501322    227.27917 
   14950    135.98231   -97.310986    141043.72    -39333.49    2729.9477   -42063.437    71.734844    230.40022 
   15000    132.24467   -102.37505    141111.78   -39390.433    2654.9118   -42045.345    71.892586    224.06739 
   15050    133.05051   -234.93912    141147.33   -39388.689    2671.0896   -42059.779    72.052132    225.43276 
   15100    132.02185   -94.817503    141088.89   -39411.741    2650.4383   -42062.179    72.057931    223.68984 
   15150    135.69534   -206.07056    141144.04   -39412.094    2724.1864    -42136.28    72.048829    229.91398 
   15200    132.58489   -261.43149    141068.59   -39422.878    2661.7418    -42084.62    72.238623    224.64383 
   15250    134.69311   -148.56339    141103.74   -39382.327    2704.0659   -42086.393     72.37037    228.21587 
   15300    134.39422   -94.450776    141144.65   -39404.947    2698.0655   -42103.013     72.51076    227.70945 
   15350    132.97613   -260.60813    141125.73   -39371.951    2669.5963   -42041.548    72.757421    225.30673 
   15400     135.1719   -114.65693       141139   -39380.533    2713.6781   -42094.211      73.2521    229.02711 
   15450    131.58686   -225.54577    141154.84   -39394.139    2641.7057   -42035.845    73.350408    222.95283 
   15500    131.57627   -86.200254    141086.61   -39459.159     2641.493   -42100.652    73.383633    222.93488 
   15550    132.18315   -69.508965    141106.02   -39414.507    2653.6767   -42068.184    73.463241    223.96315 
   15600    129.65077   -249.67994    141132.02   -39332.059    2602.8372   -41934.896    73.639753    219.67244 
   15650    131.20446   -134.51525    141171.43   -39420.299    2634.0286   -42054.328    73.710847    222.30491 
   15700     131.7183   -366.96606     141182.8   -39411.887    2644.3444   -42056.231    73.777951    223.17554 
   15750    131.53742   -225.79362    141131.28   -39394.865    2640.7132   -42035.578    73.864986    222.86907 
   15800    131.95939   -273.78531    141096.54   -39414.265    2649.1845   -42063.449    74.028912    223.58402 
   15850    130.20249   -424.72773    141047.03   -39454.522    2613.9135   -42068.436    74.131614    220.60725 
   15900     131.4792   -395.04825    140968.75    -39476.86    2639.5443   -42116.405    74.339927    222.77042 
   15950    133.84718   -427.23538    140960.64   -39425.402    2687.0834   -42112.486    74.777446    226.78259 
   16000    131.02631   -325.85435    140915.63   -39428.405    2630.4523   -42058.857    75.132286    222.00308 
   16050     131.2425   -329.22276    140819.07   -39437.722    2634.7925   -42072.515    75.357151    222.36938 
   16100    132.01405   -424.13379     140711.2   -39426.155    2650.2819   -42076.437    75.741474    223.67664 
   16150    132.67752   -175.17768    140667.55   -39370.365    2663.6014   -42033.966    75.676424    224.80078 
   16200    133.06999   -394.91342    140585.84   -39425.285    2671.4807   -42096.766    75.949638    225.46576 
   16250    130.32311   -338.40664    140538.79   -39430.303    2616.3349   -42046.638    76.152076    220.81161 
   16300     130.4076   -226.71343    140524.06   -39444.422    2618.0312   -42062.453     76.35924    220.95477 
   16350    130.64164   -88.610478    140445.19   -39456.847    2622.7296   -42079.577    76.518856     221.3513 
   16400    130.71228   -208.22897    140415.58   -39425.494    2624.1478   -42049.642    76.764947    221.47099 
   16450    131.83757   -256.53328    140417.76   -39439.706    2646.7388   -42086.445    76.832931    223.37762 
   16500    131.17223   -267.88781     140395.4   -39412.628    2633.3816    -42046.01    77.163658     222.2503 
   16550    131.97013   -240.08426    140426.02   -39408.972    2649.4001   -42058.372    77.427497    223.60222 
   16600    131.80926   -234.60056    140411.21    -39410.33    2646.1705   -42056.501    77.684053    223.32965 
   16650    132.16084   -378.31175     140343.6   -39409.274    2653.2288   -42062.503    77.965275    223.92535 
   16700    132.45107   -269.09059    140300.26   -39403.736    2659.0554   -42062.791    78.213831     224.4171 
   16750    135.25228   -37.604767     140273.5   -39356.276    2715.2917   -42071.568     78.27144     229.1633 
   16800    131.98361      75.7486    140413.72   -39358.577    2649.6707   -42008.247    78.670782    223.62506 
   16850    132.11511   -194.84857    140534.53   -39323.411    2652.3107   -41975.722    78.692207    223.84787 
   16900     131.4145   -289.66974    140498.04   -39382.357    2638.2454   -42020.602    78.720534    222.66079 
   16950    132.12409   -123.92319     140471.3   -39341.726     2652.491   -41994.217    79.049418    223.86309 
   17000     130.3866   -275.29658    140447.67   -39354.975    2617.6096   -41972.585    79.362231    220.91919 
   17050    132.43198   -245.16298    140437.97    -39319.73     2658.672   -41978.402    79.668169    224.38475 
   17100    130.95743   -21.895455    140414.05   -39352.571    2629.0693    -41981.64     79.81326    221.88636 
   17150    134.91338    84.593901    140465.76   -39322.281    2708.4881   -42030.769    80.069873    228.58909 
   17200    131.49397   -228.15152    140483.56   -39379.007    2639.8408   -42018.848    80.279481    222.79545 
   17250    132.95524   -118.94944    140439.35   -39343.032    2669.1769   -42012.209    80.414776    225.27133 
   17300    133.04697      -14.085    140446.22   -39317.954    2671.0185   -41988.973    80.734977    225.42676 
   17350    133.54854   -62.710432    140473.02   -39336.808    2681.0879   -42017.896    80.671615    226.27659 
   17400    132.84963    -108.0442    140476.61   -39346.536    2667.0568   -42013.593    81.039212     225.0924 
   17450    134.07493   -57.615856    140462.71   -39354.413    2691.6556   -42046.069    80.917286    227.16847 
   17500    130.96742    -346.6285    140463.36    -39358.99      2629.27    -41988.26    81.095385     221.9033 
   17550    133.34823   -114.83489    140456.82     -39348.9    2677.0664   -42025.966    81.551672    225.93718 
   17600    133.33759   -141.68756    140499.35   -39315.117     2676.853    -41991.97    81.891932    225.91917 
   17650    131.85622   -9.1179159    140559.46   -39336.861    2647.1132   -41983.974    82.155139    223.40922 
   17700    136.49128   -261.23613     140596.3   -39340.513    2740.1656   -42080.678    82.435867    231.26259 
   17750     133.8892   -199.98206    140679.94   -39288.296    2687.9269   -41976.223    82.757734    226.85378 
   17800    132.73465   -259.13219    140696.56   -39286.288    2664.7485   -41951.036    83.158415    224.89758 
   17850    133.84144   -412.02449    140758.15   -39299.118     2686.968   -41986.086    83.489167    226.77285 
   17900    132.86442   -203.36449    140792.51   -39338.844    2667.3536   -42006.198    83.796018    225.11745 
   17950    129.30412   -282.04756    140767.24   -39400.792    2595.8779    -41996.67     84.10372    219.08509 
   18000    134.46274   -320.04764    140728.83   -39349.189    2699.4411    -42048.63    84.265733    227.82555 
   18050    132.54644   -102.05607    140702.27   -39307.818    2660.9699   -41968.788    84.547566    224.57868 
   18100    131.59173   -159.23189    140674.15   -39348.741    2641.8033   -41990.544    84.729639    222.96107 
   18150    132.50016   -376.95703    140645.16   -39346.954    2660.0409   -42006.995    85.123203    224.50028 
   18200    132.38822    -87.18859    140614.33   -39336.789    2657.7935   -41994.582    85.423686     224.3106 
   18250    136.88609   -330.97622    140653.49    -39301.38    2748.0918   -42049.472    85.677012    231.93153 
   18300    134.37683   -145.95072    140700.65   -39237.332    2697.7165   -41935.049    85.905987    227.67999 
   18350    134.49279   -178.65397    140664.42    -39304.01    2700.0445   -42004.055    86.253285    227.87647 
   18400    132.47902   -492.60575     140596.3    -39285.61    2659.6164   -41945.226     86.44196    224.46445 
   18450     133.3593   -254.48426    140534.23   -39279.144    2677.2888   -41956.432    86.665825    225.95595 
   18500    134.10616   -138.94036    140554.12   -39293.405    2692.2826   -41985.687    87.101853    227.22139 
   18550    132.89786   -169.07229    140644.66    -39278.07    2668.0249   -41946.095    87.600066    225.17411 
   18600    133.21145    -188.4828    140699.45   -39289.955    2674.3205   -41964.276    88.040313    225.70544 
   18650     132.1147   -300.12727    140688.65   -39326.941    2652.3024   -41979.243     88.49738    223.84717 
   18700    129.05398   -191.04592    140645.85   -39363.605    2590.8561   -41954.461    89.097836    218.66126 
   18750    131.06975   -290.26861    140650.01   -39362.052    2631.3242   -41993.376    89.665288    222.07666 
   18800    131.82542   -118.04361    140623.42   -39347.045     2646.495    -41993.54    90.031093    223.35704 
   18850    132.19484   -86.740846    140586.06    -39368.37    2653.9114   -42022.281    90.460804    223.98296 
   18900    133.21295   -21.969483    140674.32   -39316.336    2674.3506   -41990.686    90.746441    225.70798 
   18950    131.13502   -171.57246    140678.76   -39356.236    2632.6347   -41988.871    91.189595    222.18727 
   19000    132.49522   -280.47855    140662.12   -39334.068    2659.9417    -41994.01     91.36726     224.4919 
   19050    131.92958   -136.75111    140568.54   -39368.257    2648.5861   -42016.843     91.54533    223.53352 
   19100    134.65212   -256.24873    140507.79   -39349.179    2703.2431   -42052.422     91.97941    228.14642 
   19150    133.24974   -98.683603    140447.91    -39373.66    2675.0893   -42048.749    92.190794    225.77032 
   19200    131.74101    47.745882    140423.86   -39350.276    2644.8003   -41995.076    92.381365    223.21401 
   19250    132.33211   -160.73972    140493.63   -39431.062    2656.6671   -42087.729      92.4307    224.21554 
   19300     133.2962   -212.69384    140462.91    -39414.47    2676.0218   -42090.492    92.750111    225.84902 
   19350    134.37525   -193.81576     140489.4   -39400.033    2697.6846   -42097.718    93.053762    227.67731 
   19400    132.97416   -279.14653    140491.49   -39357.777    2669.5568   -42027.334    93.192909    225.30339 
   19450    134.08402   -182.19812    140489.68   -39319.401    2691.8381   -42011.239    93.433824    227.18387 
   19500    133.18228   -311.38871    140448.56   -39325.905    2673.7348    -41999.64    93.497034    225.65601 
   19550    132.61322   -129.43782     140432.1   -39345.709    2662.3106   -42008.019    93.622689    224.69183 
   19600    133.14117   -83.689639     140529.7   -39317.452    2672.9096   -41990.361    93.655751    225.58636 
   19650    134.76995    -79.71846    140577.68   -39345.516    2705.6085   -42051.124    93.649888    228.34606 
   19700    136.70708   -218.83144    140602.51   -39333.623    2744.4979   -42078.121    94.054044    231.62822 
   19750    134.36409   -233.07581    140607.79   -39311.098    2697.4606   -42008.559     94.15925     227.6584 
   19800    133.84303   -221.82695    140531.63   -39312.867    2686.9999   -41999.867    94.458302    226.77554 
   19850    133.17231   -92.743275    140567.15   -39314.863    2673.5347   -41988.398    94.569919    225.63911 
   19900    132.56529   -197.40719    140629.54   -39382.812    2661.3484   -42044.161    94.624551    224.61062 
   19950    132.96037   -66.368094    140694.13   -39395.006      2669.28   -42064.286     94.57842    225.28003 
   20000    131.68938   -106.88687    140661.07   -39360.463    2643.7639   -42004.227    94.834797    223.12654 
   20050    135.43958   -63.081895    140684.19   -39332.167    2719.0519   -42051.219    95.270405    229.48065 
   20100    132.22328    -293.3995    140690.29   -39392.125    2654.4823   -42046.607    95.332488    224.03115 
   20150    130.82272   -274.11294    140580.07   -39443.039     2626.365   -42069.404    95.911249    221.65812 
   20200    134.17201   -293.47719    140566.21   -39366.044    2693.6044   -42059.649    96.030144    227.33295 
   20250    130.17839   -255.26362    140582.44   -39382.126    2613.4296   -41995.556    96.128021    220.56641 
   20300    135.12129   -239.22811     140632.5   -39336.709     2712.662   -42049.371    96.119519    228.94135 
   20350    134.76141   -164.72678    140722.48   -39352.656    2705.4372   -42058.093    96.457908     228.3316 
   20400     132.5084   -200.58056    140701.27   -39354.519    2660.2063   -42014.725    96.851563    224.51424 
   20450    132.28566   -90.664751    140771.47   -39374.772    2655.7346   -42030.507     97.08872    224.13683 
   20500    134.62887   -289.20707    140770.66   -39386.416    2702.7763   -42089.193    97.315103    228.10703 
   20550    134.88937   -96.044374    140737.39   -39388.339     2708.006   -42096.345    97.400652     228.5484 
   20600    135.19139   -190.63938    140819.48   -39403.604    2714.0693   -42117.674    97.621384    229.06013 
   20650    132.78364   -9.2563261     140811.3   -39445.378    2665.7319    -42111.11    97.975105    224.98058 
   20700     133.7533   -98.289384    140848.03   -39438.741    2685.1987    -42123.94    98.199059    226.62352 
   20750     132.9366   -86.205489    140882.92   -39446.358    2668.8026   -42115.161    98.529366    225.23974 
   20800    131.46478   -265.41992     140883.3   -39467.612    2639.2549   -42106.867    98.837476    222.74599 
   20850    132.12388   -272.22289    140874.85   -39480.254    2652.4868   -42132.741     98.96498    223.86273 
   20900    131.50499   -207.62657    140827.61   -39456.229     2640.062   -42096.291    98.863337    222.81411 
   20950    132.10313   -101.62219     140906.5   -39437.469    2652.0702   -42089.539    98.758155    223.82757 
   21000    134.57786   -152.03844    141045.01   -39418.096    2701.7523   -42119.848    99.246165    228.02061 
   21050    132.43773   -174.28556    141110.22   -39417.395    2658.7875   -42076.183     99.38488    224.39449 
   21100    133.06821   -254.23434    141029.07   -39383.472    2671.4449   -42054.917    99.519428    225.46275 
   21150    133.61418   -325.78941    141026.59   -39397.676    2682.4056   -42080.082    99.786398     226.3878 
   21200     132.5478   -390.08779    140966.93   -39461.718    2660.9973   -42122.715     99.90166    224.58099 
   21250    135.05657   -110.08816    140888.16     -39461.6    2711.3627   -42172.963    100.05639     228.8317 
   21300    131.37013   -352.26594    140875.29   -39468.417    2637.3546   -42105.772    100.33686    222.58562 
   21350    131.86088   -213.02318    140789.02   -39453.221    2647.2067   -42100.427    100.40505    223.41711 
   21400    133.97885   -203.48372    140792.11   -39455.014    2689.7266   -42144.741    100.41867    227.00567 
   21450    133.00741   -244.68709    140718.54   -39455.715    2670.2243    -42125.94     100.4878    225.35973 
   21500    132.95909   -274.22917    140650.48   -39425.986    2669.2541    -42095.24    100.58553    225.27785 
   21550    133.00175   -245.18844     140585.6   -39413.856    2670.1106   -42083.967    100.57678    225.35014 
   21600    131.70379   -271.37282    140493.64   -39467.887    2644.0532    -42111.94    101.03265    223.15095 
   21650    131.93627   -166.52359     140454.3   -39529.899    2648.7203   -42178.619    100.91445    223.54485 
   21700    130.77182     41.29425     140503.1   -39556.165    2625.3431   -42181.508    100.84846    221.57188 
   21750     130.7154   -70.634966    140561.09   -39544.112    2624.2105   -42168.322    101.15665    221.47628 
   21800    133.41642    -212.8448    140660.43   -39511.434    2678.4355    -42189.87    101.36185    226.05273 
   21850    129.68566   -65.555468     140730.7    -39546.71    2603.5377   -42150.248    101.43877    219.73156 
   21900    130.89073   -318.12281    140729.98   -39520.485    2627.7303   -42148.215     101.6754    221.77335 
   21950    129.12373   -256.17236    140801.38   -39575.738    2592.2565   -42167.995    102.06908    218.77946 
   22000    132.12551   -96.825822    140794.82   -39587.413    2652.5195   -42239.932    102.17783    223.86549 
   22050    127.74222   -105.95757    140849.05   -39621.555    2564.5217   -42186.077    102.35569    216.43871 
   22100    128.45874   -3.0551392    140900.04   -39609.852    2578.9063   -42188.759    102.41221    217.65273 
   22150    130.52803   -299.57655    140911.18   -39583.115    2620.4488   -42203.564    102.58327    221.15881 
   22200     132.4794   -268.12963     140852.4   -39543.389     2659.624   -42203.013    102.84187    224.46509 
   22250    131.15211   -56.390416    140818.86   -39511.862    2632.9778    -42144.84    103.09624    222.21622 
   22300    134.60589    7.6213305    140818.41   -39453.119    2702.3149   -42155.434    103.05631    228.06809 
   22350    132.31274   -60.481519    140836.91   -39492.403    2656.2782   -42148.681    103.51396    224.18272 
   22400    133.68525   -74.878569    140878.03   -39470.665    2683.8323   -42154.497    103.94121    226.50821 
   22450    132.88839   -13.025032    140942.93     -39452.3    2667.8349   -42120.135    103.98385    225.15806 
   22500     132.1519   -125.74263    140925.24   -39439.728    2653.0493   -42092.777    103.85007     223.9102 
   22550    134.78589   -80.528655    140897.59   -39418.757    2705.9285   -42124.686    103.76079    228.37307 
   22600    133.08576   -208.23849    140870.31   -39450.875    2671.7971   -42122.672    103.92269    225.49247 
   22650    131.17978    85.895818    140965.55   -39407.451    2633.5333   -42040.985    104.03388     222.2631 
   22700    134.00883    12.423328    141022.81   -39359.715    2690.3286   -42050.043    104.29593    227.05647 
   22750    131.33287   -238.64413    141040.62   -39417.346    2636.6066   -42053.953    104.33989    222.52248 
   22800    130.00972   -152.16621    141027.89   -39431.917    2610.0434    -42041.96    104.64203    220.28062 
   22850    132.32306   -421.51725    140918.22   -39440.041    2656.4854   -42096.526    104.78569     224.2002 
   22900    131.22914   -171.91316    140832.84    -39442.65    2634.5242   -42077.174    105.05041    222.34674 
   22950    129.75905   -271.22213    140831.85   -39405.938     2605.011   -42010.949    105.36531     219.8559 
   23000     133.4028   -338.29116    140825.79   -39372.419    2678.1621   -42050.581    105.29614    226.02965 
   23050    133.78136   -303.82283    140757.22   -39378.387    2685.7619   -42064.148    105.37808    226.67106 
   23100    130.45167   -163.40886    140660.24   -39467.344    2618.9158    -42086.26    105.67875    221.02943 
   23150    133.17362   -343.27285    140651.74   -39435.879    2673.5611    -42109.44    105.77516    225.64135 
   23200    131.92569   -160.60949    140564.03   -39428.231    2648.5079   -42076.739    106.08443    223.52692 
   23250    133.45997   -127.78097    140603.36   -39404.325    2679.3098   -42083.635    105.87188    226.12652 
   23300    133.05935   -306.26078    140642.56   -39459.721     2671.267   -42130.988    105.84494    225.44773 
   23350    133.72505   -279.77853    140620.14   -39427.123    2684.6315   -42111.754    105.83549    226.57565 
   23400    131.80236   -97.792405    140674.54    -39452.95    2646.0319   -42098.982    106.01786    223.31795 
   23450    132.33587   -57.670185    140684.21   -39457.257    2656.7425   -42113.999    106.34175     224.2219 
   23500    130.16635   -138.75673    140663.02   -39502.475    2613.1879   -42115.663    106.53337    220.54601 
   23550    130.83203   -220.79572    140704.24   -39484.348    2626.5519   -42110.899    106.44022    221.67389 
   23600    130.17595   -199.25795     140680.5   -39430.672    2613.3806   -42044.053    106.45998    220.56227 
   23650    133.14721   -268.09732    140632.25   -39389.528    2673.0309   -42062.558    106.71679     225.5966 
   23700     132.0914   -158.24212    140653.19   -39424.481    2651.8346   -42076.316     106.9211    223.80769 
   23750    131.53327   -190.41124    140692.13   -39393.422    2640.6297   -42034.052     106.9979    222.86203 
   23800    131.85412   -223.89008    140746.04   -39369.381     2647.071   -42016.452    107.31477    223.40565 
   23850    132.61498   -286.42788    140729.22   -39372.442     2662.346   -42034.788    107.55047    224.69482 
   23900    136.44696   -348.53749    140700.11   -39319.707    2739.2758   -42058.982    107.43934    231.18749 
   23950    133.70018   -94.074255    140568.29   -39333.795    2684.1321   -42017.927    107.81098    226.53351 
   24000    132.96094    -245.7489    140593.35   -39361.098    2669.2914    -42030.39    107.77348    225.28099 
   24050    134.20359   -82.862502    140570.28   -39365.068    2694.2384   -42059.307    108.00251    227.38645 
   24100    135.37392   -120.24263     140621.7   -39407.053    2717.7338   -42124.787    108.13755     229.3694 
   24150    130.33281   -357.61161    140560.19   -39442.638    2616.5296   -42059.168    108.49012    220.82804 
   24200    130.69466   -327.13134    140564.63   -39483.417     2623.794   -42107.211    108.66185    221.44113 
   24250    130.53938   -134.67904    140612.94   -39433.991    2620.6767   -42054.667    108.76206    221.17805 
   24300    132.63491   -190.02844    140680.49   -39431.475    2662.7461   -42094.221    108.78118    224.72859 
   24350    131.31336   -172.36979    140715.68   -39478.894    2636.2149   -42115.109    108.92419    222.48943 
   24400    131.43155     -247.762     140793.6   -39444.438    2638.5876   -42083.025    109.28412    222.68968 
   24450    132.94122   -140.54548    140807.39   -39461.219    2668.8954   -42130.115    109.55926    225.24757 
   24500    132.59973   -90.841821    140784.29   -39397.912    2662.0397   -42059.952    109.56515    224.66897 
   24550    133.49876   -117.58825    140773.24   -39352.025    2680.0885   -42032.114    109.55155    226.19224 
   24600    134.67627   -64.732401    140793.01    -39359.81    2703.7279   -42063.538     109.6989    228.18734 
   24650    134.14829   -220.77929    140804.78   -39363.055    2693.1284   -42056.183    109.87485    227.29277 
   24700     132.8064   -113.32996    140763.04   -39386.814    2666.1889   -42053.003    110.14015    225.01915 
   24750    131.68322   -313.57129     140732.2   -39398.277    2643.6401   -42041.917    110.42984    223.11609 
   24800    132.06034   -117.15608    140794.53   -39382.149    2651.2111    -42033.36    110.66273    223.75506 
   24850     131.2254    -114.3754    140908.32   -39453.473     2634.449   -42087.922     110.7925    222.34039 
   24900    132.75078    -449.5943    140985.89   -39465.848    2665.0721    -42130.92     111.2438     224.9249 
   24950    133.75257   -160.60882    140876.29   -39447.229     2685.184   -42132.413    111.58167    226.62229 
   25000    130.87692   -275.99385    140857.08   -39468.429     2627.453   -42095.882    111.64618    221.74994 
   25050    134.48477   -168.55124     140890.9    -39445.35    2699.8835   -42145.234    111.91331    227.86288 
   25100      134.793   -148.27492    140922.61   -39391.858    2706.0713   -42097.929    111.89463    228.38512 
   25150    131.91337   -160.19668    140966.58   -39399.565    2648.2606   -42047.825    112.28651    223.50605 
   25200    134.76143   -261.60548    141038.93   -39420.993    2705.4376    -42126.43    112.57813    228.33164 
   25250    133.13695   -384.67664    141004.43   -39398.337    2672.8248   -42071.162    112.70249     225.5792 
   25300    133.62902   -350.78428    140904.63    -39435.71    2682.7035   -42118.414    112.98651    226.41294 
   25350    131.77178   -289.37929    140850.04   -39430.913    2645.4181   -42076.331    113.22991    223.26615 
   25400    130.17007   -443.02712    140803.67   -39427.113    2613.2625   -42040.375    113.34108    220.55231 
   25450    133.21822   -108.04653     140774.9   -39406.147    2674.4565   -42080.604     113.1563    225.71692 
   25500    133.90784   -514.05024    140704.09   -39424.616     2688.301   -42112.917    113.51872    226.88535 
   25550    130.97729   -299.21934     140681.6   -39383.988    2629.4682   -42013.457       113.92    221.92002 
   25600    131.49537   -308.00128    140662.26   -39418.183    2639.8689   -42058.052    114.08519    222.79782 
   25650    133.18472   -259.98638    140660.77   -39365.876    2673.7839    -42039.66    114.26704    225.66015 
   25700    133.77067   -244.79823    140736.05   -39375.596    2685.5473   -42061.144    114.29702    226.65295 
   25750    133.62226   -461.29712    140773.43   -39380.998    2682.5679   -42063.566    114.56318     226.4015 
   25800    132.27552   -162.07675    140726.25   -39443.449    2655.5311    -42098.98    114.75442    224.11966 
   25850    129.79487   -424.66327    140697.75   -39444.377    2605.7301   -42050.108    114.82914    219.91659 
   25900    129.70998   -279.53575    140668.97    -39475.87    2604.0259   -42079.896    114.89971    219.77276 
   25950    133.26738   -389.86268    140618.12   -39442.755    2675.4434   -42118.199    115.13058    225.80021 
   26000    131.01785   -157.27861     140599.5   -39437.615    2630.2824   -42067.898    115.33862    221.98874 
   26050    135.50254   -248.62315    140621.36   -39403.178    2720.3158   -42123.494    115.84937    229.58731 
   26100     131.5754   -140.63826    140649.02   -39447.216    2641.4756   -42088.691    116.25097    222.93342 
   26150    130.24203   -374.53635    140684.71   -39468.891    2614.7072   -42083.598    116.75062    220.67424 
   26200    133.16213   -209.30649    140688.55   -39428.857    2673.3304   -42102.187    116.77156    225.62187 
   26250    133.89238   -343.79585    140677.83    -39422.69    2687.9907   -42110.681    116.83761    226.85917 
   26300    131.31665   -295.48558    140678.05   -39437.493     2636.281   -42073.774      117.413      222.495 
   26350    136.22679   -199.15095    140705.95   -39374.464    2734.8558    -42109.32    117.58269    230.81445 
   26400      132.397   -449.31459    140647.95   -39393.548    2657.9699   -42051.518    117.89067    224.32549 
   26450     132.5436   -271.62728    140619.67   -39313.239     2660.913   -41974.152    118.18727    224.57388 
   26500    134.31171   -240.74781    140631.99    -39304.36     2696.409   -42000.769     118.3984    227.56965 
   26550     134.6155   -283.59096    140674.41   -39330.885    2702.5078   -42033.393    118.52728    228.08437 
   26600    134.54016   -74.190894     140705.5   -39346.729    2700.9955   -42047.724     118.8048    227.95673 
   26650    133.33757   -245.13726    140712.77   -39381.711    2676.8524   -42058.563    119.09459    225.91912 
   26700    132.18644   -290.50808    140701.04   -39410.763    2653.7427   -42064.506    119.35863    223.96873 
   26750    133.62982   -265.34485     140689.6   -39410.832    2682.7197   -42093.552    119.53284    226.41431 
   26800    133.95937    -93.98301     140678.3   -39395.175    2689.3356   -42084.511    119.41212    226.97267 
   26850    132.29059   -145.87603    140719.89   -39457.035    2655.8335   -42112.868    119.80112    224.14518 
   26900    134.36951   -20.613396    140802.79   -39443.493    2697.5695   -42141.063    119.86503    227.66759 
   26950    134.85893   -125.92397    140794.56   -39415.195     2707.395    -42122.59    120.05922    228.49683 
   27000    136.11342   -216.24141    140845.15   -39380.621    2732.5798   -42113.201    120.55824    230.62237 
   27050    133.06405   -240.65347    140791.29   -39420.646    2671.3614   -42092.008    120.64866     225.4557 
   27100    132.91634   -189.86612    140721.01   -39421.135     2668.396   -42089.531    120.82262    225.20542 
   27150    134.81058   -124.44633    140695.95   -39472.306    2706.4243   -42178.731     121.1286    228.41491 
   27200    131.24245   -158.86584    140723.95   -39471.819    2634.7914    -42106.61    121.34544    222.36928 
   27250    134.00568   -114.55279    140760.86   -39467.633    2690.2653   -42157.898    121.45885    227.05113 
   27300    130.35149    -253.1655    140750.83   -39488.697    2616.9046   -42105.601     121.9302    220.85969 
   27350    131.70835    -315.2471     140669.3   -39480.465    2644.1446    -42124.61    122.13298    223.15867 
   27400     127.5843    46.071915    140644.61   -39479.503    2561.3512   -42040.854    122.37927    216.17113 
   27450    132.57639   -137.08812    140688.06   -39460.687    2661.5712   -42122.258    122.56002    224.62943 
   27500    134.82212   -41.829514    140800.62   -39469.522     2706.656   -42176.178    122.85486    228.43446 
   27550    134.90751   -337.90643    140829.22   -39440.191    2708.3703   -42148.562      123.096    228.57914 
   27600    132.22325    -413.1891    140823.44   -39431.828    2654.4817   -42086.309    123.34306    224.03109 
   27650    131.08604    -243.0483    140785.43   -39458.726    2631.6514   -42090.378    123.23383    222.10428 
   27700    130.94444   -298.33587    140796.09    -39476.35    2628.8086   -42105.159    123.40655    221.86435 
   27750    132.29442   -144.78076    140778.82   -39442.397    2655.9104   -42098.307    123.44872    224.15167 
   27800    133.82945    -251.6372    140850.83   -39433.492    2686.7273   -42120.219    123.61951    226.75254 
   27850    133.21091   -391.24514    140866.57   -39420.518    2674.3096   -42094.828    123.56413    225.70452 
   27900    133.08563   -266.91967    140796.92   -39396.004    2671.7947   -42067.799    123.85588    225.49226 
   27950    133.71801   -169.94081    140793.27   -39424.801    2684.4901   -42109.291    124.11828    226.56372 
   28000    134.13393   -214.38007    140810.72   -39435.708    2692.8401   -42128.548    124.55283    227.26844 
   28050     135.2924   -105.09853    140807.18   -39437.792    2716.0972   -42153.889    124.80314    229.23128 
   28100    133.24951   -84.036321    140880.25   -39442.372    2675.0845   -42117.457    124.82399    225.76992 
   28150    132.12263   -287.18189    140852.11   -39505.695    2652.4617   -42158.156    124.95926    223.86061 
   28200    132.29463   -338.94309     140785.1   -39500.805    2655.9146   -42156.719      125.496    224.15203 
   28250    132.09065   -373.29049    140739.53   -39501.615    2651.8197   -42153.435    125.93385    223.80643 
   28300     131.2891    -156.4765    140746.98   -39486.886     2635.728   -42122.614    125.79047    222.44833 
   28350    130.87355     -156.962    140787.03   -39511.155    2627.3854   -42138.541    125.93533    221.74424 
   28400    131.80312   -274.33586     140841.3   -39520.689    2646.0472   -42166.736    126.13622    223.31925 
   28450    132.92405   -357.64418    140847.51   -39504.062    2668.5508   -42172.612    126.43448    225.21849 
   28500    132.38828   -189.00995    140833.15   -39475.062    2657.7948   -42132.857    126.65682    224.31071 
   28550    133.39928   -228.93099    140863.98   -39469.047    2678.0913   -42147.138    126.96752    226.02368 
   28600    135.90874   -258.19098    140866.59    -39441.24    2728.4707    -42169.71    126.98372    230.27557 
   28650     132.5286    -31.20695    140904.06   -39483.872    2660.6119   -42144.484    127.24158    224.54847 
   28700    131.45175   -332.77284    140840.18   -39471.901    2638.9932   -42110.895    127.47449    222.72391 
   28750    130.27579   -436.17997    140799.62   -39475.909    2615.3849   -42091.294    127.76909    220.73143 
   28800     133.0883   -161.10401    140850.22   -39433.276    2671.8481   -42105.124    128.12305    225.49677 
   28850     132.9877   -226.21242     140867.1   -39413.519    2669.8286   -42083.348    128.29277    225.32633 
   28900    132.98504   -457.53507    140846.43   -39461.244    2669.7752   -42131.019    128.46882    225.32182 
   28950    130.56093   -342.90619    140831.91    -39465.72    2621.1092   -42086.829    128.54051    221.21455 
   29000    134.35546   -212.88193    140814.87   -39450.538    2697.2874   -42147.825    128.95083    227.64378 
   29050    132.34317   -226.85723    140760.74    -39388.24    2656.8892   -42045.129    129.02238    224.23428 
   29100    133.79014   -475.81039    140671.42    -39360.36    2685.9382   -42046.298     129.1029    226.68594 
   29150    133.63155   -89.085656    140606.14   -39403.118    2682.7543   -42085.873    129.54896    226.41722 
   29200    131.31271   -42.411634    140673.09   -39415.756    2636.2018   -42051.958    129.73604    222.48832 
   29250    133.04736    69.779085    140716.14   -39428.909    2671.0264   -42099.935    130.10641    225.42742 
   29300    132.22353   -185.08695    140824.47   -39436.968    2654.4872   -42091.455    130.34048    224.03156 
   29350    132.92726   -364.98158    140881.31   -39461.854    2668.6152   -42130.469    130.46955    225.22392 
   29400    130.88015   -376.68984     140836.1   -39504.663    2627.5179   -42132.181    130.90919    221.75542 
   29450    131.88726   -85.623145    140789.37   -39522.055    2647.7363   -42169.792    130.82387     223.4618 
   29500    131.65017   -101.44066    140820.37   -39501.418    2642.9767   -42144.395    131.03905    223.06011 
   29550    130.84546   -504.82324    140865.77   -39514.244    2626.8214   -42141.065    131.41801    221.69664 
   29600    130.98401   -289.41556     140773.3   -39500.336     2629.603   -42129.939    131.79202     221.9314 
   29650    132.34309   -259.81124    140793.51   -39498.545    2656.8876   -42155.433    132.03446    224.23415 
   29700    131.38924   -309.40139    140774.58   -39453.047    2637.7383   -42090.786     132.2212    222.61799 
   29750    132.84258   -84.638352    140822.52   -39461.091    2666.9151   -42128.006     132.3199    225.08044 
   29800    132.36783   -49.198203    140860.95   -39443.163    2657.3842   -42100.547    132.59672    224.27606 
   29850     132.6411    -364.6467    140856.86   -39419.024    2662.8704   -42081.894    132.77144    224.73908 
   29900    133.64712   -263.70904    140903.94   -39383.089    2683.0669   -42066.156    132.99685    226.44361 
   29950    131.45494   -266.44897    140831.82   -39421.986    2639.0572   -42061.043     133.4547    222.72931 
   30000    133.86114   -358.41457    140858.58   -39417.738    2687.3636   -42105.101    133.76204    226.80624 
   30050    134.43197   -458.08007    140874.28   -39398.888    2698.8233   -42097.712    134.17874    227.77341 
   30100    134.63401   -215.84145    140854.52   -39412.827    2702.8795   -42115.706    134.20794    228.11574 
   30150    137.48051   -231.56524    140879.89    -39349.31    2760.0252   -42109.335    134.35572    232.93868 
   30200    131.80916   -299.11713    140880.91    -39405.71    2646.1686   -42051.879    134.81619    223.32949 
   30250     133.5639   -284.41492    140792.33   -39490.968    2681.3963   -42172.365    135.10074    226.30261 
   30300    131.76447   -204.18114    140771.34   -39488.244    2645.2713   -42133.515    134.89815    223.25376 
   30350    134.25249   -159.03568    140725.57   -39493.256    2695.2202   -42188.477    134.87992    227.46931 
   30400    132.74999   -237.20437    140712.17   -39463.229    2665.0563   -42128.285    135.10833    224.92357 
   30450    132.65062   -227.95146    140692.05   -39473.589    2663.0615   -42136.651    135.50824    224.75521 
   30500    132.65733   -181.08053    140620.14   -39452.252    2663.1961   -42115.448    135.63296    224.76657 
   30550    133.03565    71.124369    140673.56    -39445.48    2670.7912   -42116.272    136.13702    225.40757 
   30600    133.39103   -93.685521    140798.63   -39419.458    2677.9257   -42097.383    136.49375    226.00971 
   30650    131.44228   -65.801869    140814.02   -39458.772    2638.8032   -42097.575    136.74607    222.70787 
   30700    133.70301   -82.398256    140848.64   -39449.692    2684.1889   -42133.881    137.06332    226.53831 
   30750    133.59589   -18.580994    140971.01   -39426.633    2682.0384   -42108.671    137.05446     226.3568 
   30800    134.40614   -122.07827    141006.97   -39414.901    2698.3049   -42113.206    137.36732    227.72965 
   30850    133.37654   -15.270588    141020.52   -39372.493    2677.6349   -42050.128     137.5414    225.98516 
   30900    137.87186   -226.42336    141045.37   -39392.073    2767.8817   -42159.955    137.89219    233.60175 
   30950    134.37078   -221.73099    141043.88   -39366.983    2697.5949   -42064.578    138.03396    227.66973 
   31000    135.82067   -143.51723    141012.33   -39370.233    2726.7025   -42096.935    138.29004    230.12634 
   31050    135.87778   -161.03908     141035.4   -39362.457    2727.8491   -42090.306    138.64164    230.22311 
   31100    133.48636    -206.0181    141063.65   -39353.471    2679.8395    -42033.31    138.71216    226.17122 
   31150    132.39934   -112.04413    141095.65   -39386.568    2658.0168   -42044.585    138.78505    224.32945 
   31200    130.34241   -174.21234    141031.65    -39406.61    2616.7225   -42023.332     139.0681    220.84432 
   31250    133.12951   -144.71226    141110.09   -39346.497    2672.6755   -42019.173    139.28115     225.5666 
   31300    132.56911    -250.1683    141195.82   -39355.903     2661.425   -42017.328    139.60537    224.61709 
   31350    135.04899   -347.87197    141160.05   -39357.606    2711.2106   -42068.817    139.56353    228.81886 
   31400    134.39022    -168.2005       141151   -39395.113    2697.9853   -42093.099    139.81649    227.70268 
   31450     136.2218   -252.17796    141145.89   -39416.611    2734.7556   -42151.367    140.03708      230.806 
   31500     130.7678   -347.06021    141110.67   -39429.445    2625.2624   -42054.708    140.19746    221.56506 
   31550     133.0329   -256.46916    140952.42    -39428.82     2670.736   -42099.556    140.11952    225.40292 
   31600     131.8176   -345.78353    140886.02   -39426.857    2646.3379   -42073.194     140.2541    223.34378 
   31650    131.18583   -399.15775    140854.55   -39375.609    2633.6546   -42009.264    140.63805    222.27334 
   31700    133.58088   -134.20137    140789.92   -39347.084    2681.7372   -42028.822    140.77992    226.33138 
   31750    131.75449   -266.98609    140785.63   -39397.317     2645.071   -42042.388    141.07255    223.23685 
   31800    133.82277    -88.96257    140807.82   -39323.354    2686.5933   -42009.947    141.27657    226.74123 
   31850    134.32452   -154.09068    140834.38    -39372.38    2696.6663   -42069.046    141.67135    227.59136 
   31900    129.44715   -125.99168     140861.8   -39393.327    2598.7494   -41992.077    141.83653    219.32744 
   31950    132.35998   -113.52075    140875.79   -39387.798    2657.2266   -42045.025    142.20772    224.26276 
   32000    130.62361    141.08584    140974.46   -39416.851    2622.3676   -42039.218    142.19444    221.32075 
   32050    132.21265   -262.42901    140997.86   -39426.816    2654.2689   -42081.084    142.06597    224.01313 
   32100    131.99343   -264.43178    140992.48   -39418.505    2649.8678   -42068.373    142.46921     223.6417 
   32150    132.19069   -82.567467    141066.37   -39422.761    2653.8281   -42076.589     142.7399    223.97593 
   32200    130.99848    -218.1872    141057.52   -39467.005    2629.8936   -42096.898      143.137    221.95592 
   32250    131.37846   -308.70535    140964.44   -39416.132    2637.5218   -42053.654    143.50839    222.59973 
   32300    134.10459   -68.514985    141041.47   -39425.374     2692.251   -42117.625    143.73681    227.21872 
   32350    134.24577   -210.70317     140982.4   -39436.097    2695.0853   -42131.183    143.69911    227.45793 
   32400    133.03915   -76.113106    141040.32   -39448.807    2670.8614   -42119.668    144.05804     225.4135 
   32450    130.95796   -80.789942    141014.15   -39425.102      2629.08   -42054.182    144.50981    221.88726 
   32500    131.51207   -257.51537    141009.88   -39452.646    2640.2041    -42092.85    144.66329    222.82611 
   32550    134.08163   -319.11065    141047.38    -39440.92    2691.7901    -42132.71    144.75178    227.17982 
   32600    130.99455   -73.352303    141099.59   -39471.333    2629.8145   -42101.148    144.87501    221.94925 
   32650    131.69539   -255.56392    141161.97   -39422.884    2643.8845   -42066.768    145.25719    223.13672 
   32700    132.54784   -79.126765    141161.33   -39446.012     2660.998    -42107.01    145.20062    224.58105 
   32750    134.12387   -305.73763    141157.97    -39438.16     2692.638   -42130.798    145.26649    227.25139 
   32800    133.18354    -336.9817    141107.78   -39406.199    2673.7603    -42079.96     145.3465    225.65815 
   32850    135.39646    -266.8168    141020.06   -39404.513    2718.1864     -42122.7    145.57347     229.4076 
   32900     133.1841   -70.077036    141125.09   -39396.144    2673.7715   -42069.915    145.80525     225.6591 
   32950    132.64482   -487.80229    141092.33   -39345.298    2662.9449   -42008.243    146.12752    224.74537 
   33000     134.1623   -197.64954    141026.71   -39357.879    2693.4095   -42051.289    146.42442     227.3165 
   33050    131.87578   -268.43566    140972.29   -39441.304     2647.506    -42088.81    146.81626    223.44236 
   33100    132.21464   -278.94879    140954.24   -39432.931    2654.3088   -42087.239    147.51044     224.0165 
   33150    131.49356   -216.47803    140935.97   -39461.087    2639.8325   -42100.919    147.82917    222.79474 
   33200    131.51853    -145.4149    140973.64   -39478.834    2640.3339   -42119.168    148.36233    222.83706 
   33250    130.71491   -363.78616    140972.71   -39514.892    2624.2005   -42139.092     148.5635    221.47544 
   33300    135.01252    -265.7895    140925.17   -39461.977    2710.4784   -42172.455    148.94075    228.75706 
   33350    131.81172   -358.39291    140919.43   -39498.203    2646.2199   -42144.423    148.95268    223.33382 
   33400    135.78675   -235.11296    140974.81   -39481.218    2726.0216    -42207.24    149.15707    230.06887 
   33450    132.83447   -332.49779    140971.09   -39467.574    2666.7525   -42134.326    149.48264    225.06671 
   33500    138.52942   -248.90431    140987.79   -39427.112    2781.0829   -42208.195    149.75579    234.71589 
   33550    135.26688   -59.624129    140994.89   -39394.063    2715.5848   -42109.648    149.81592    229.18803 
   33600    134.06995   -234.07128     141003.7   -39421.188    2691.5557   -42112.744    150.29745    227.16004 
   33650    132.74928   -46.565013     140950.4   -39452.789    2665.0421   -42117.832    150.49308    224.92237 
   33700    130.57676    -185.5444       140976   -39522.095    2621.4271   -42143.523    150.37776    221.24138 
   33750    134.46239   -125.12677    141009.14   -39508.211     2699.434   -42207.645    150.64574    227.82495 
   33800    133.58644   -145.52639    141014.37   -39490.883    2681.8487   -42172.732    150.75464     226.3408 
   33850       131.58   -255.89902    141050.82   -39529.649    2641.5679   -42171.217    150.88105    222.94121 
   33900    131.13519   -67.905959    141031.16    -39515.67     2632.638   -42148.308    151.03299    222.18755 
   33950    132.79581   -68.325103    141024.59   -39517.648    2665.9762   -42183.624    151.29228     225.0012 
[...]
   92000     131.3309   -582.24533    140588.16   -39464.719    2636.5671   -42101.286    411.70166    222.51915 
   92050    129.90798   -387.55504    140450.49    -39493.67    2608.0009   -42101.671    411.76419    220.10824 
   92100     131.3802   -236.85647    140456.48    -39464.19    2637.5568   -42101.747    412.20219    222.60268 
   92150    130.42129   -148.59607    140469.62   -39457.869    2618.3059   -42076.175    412.53374    220.97796 
   92200    129.58275   -86.513714    140511.17   -39470.737    2601.4715   -42072.209    412.35132    219.55718 
   92250    131.43845   -294.22668    140518.98   -39478.665    2638.7262   -42117.391    412.71748    222.70138 
   92300     133.1323   -326.15003    140488.51   -39469.778    2672.7316    -42142.51    412.78105    225.57134 
   92350    132.54864   -47.910635    140470.36   -39502.412     2661.014   -42163.426    412.53341     224.5824 
   92400    130.26883   -265.07504    140518.23   -39498.821    2615.2453   -42114.067    412.85603    220.71965 
   92450    131.77871   -116.40766    140492.27   -39430.103    2645.5572   -42075.661    413.13206    223.27789 
   92500    131.55335   -231.44542    140485.72   -39436.065    2641.0329   -42077.098    413.30587    222.89605 
   92550    130.33403   -178.64725    140450.66   -39456.845    2616.5541   -42073.399     413.8424    220.83011 
   92600    131.34506   -223.62303    140400.21   -39465.882    2636.8513   -42102.733    413.92805    222.54314 
   92650    128.72348   -103.46179    140387.44   -39490.546    2584.2211   -42074.767    414.14871    218.10129 
   92700    132.53765   -114.58121    140419.53   -39458.207    2660.7935   -42119.001    414.28256    224.56379 
   92750    131.62565   -62.738478    140489.11   -39480.257    2642.4843   -42122.741    414.35966    223.01855 
   92800    132.35517    -89.94589    140525.49   -39404.251    2657.1301   -42061.381    414.39481    224.25461 
   92850    132.00617   -1.0418214    140544.18   -39344.174    2650.1236   -41994.298    414.66651    223.66329 
   92900    134.35383   -270.88614       140552   -39356.112    2697.2546   -42053.367     415.0455    227.64101 
   92950    131.76461   -204.94992    140522.51   -39309.948    2645.2741   -41955.223    414.96059      223.254 
   93000    131.11376    -183.2332    140490.21   -39331.482    2632.2079    -41963.69     415.0414    222.15124 
   93050    135.57931   -85.128569    140541.77   -39303.403    2721.8572    -42025.26    415.59465     229.7174 
   93100    134.70708   -149.52353    140557.34    -39326.42    2704.3464   -42030.766    416.06056    228.23954 
   93150    134.45276    184.95722    140623.32   -39317.889    2699.2407    -42017.13    416.60458    227.80864 
   93200    132.38654   -156.31707    140663.71   -39293.347    2657.7598   -41951.107    417.49451    224.30776 
   93250    134.14814   -83.843393    140707.91   -39307.887    2693.1252   -42001.013    417.68741     227.2925 
   93300    133.25402   -216.25739    140746.99   -39319.046    2675.1752   -41994.221     418.2282    225.77757 
   93350    132.39194   -186.45884    140815.45   -39294.196    2657.8681   -41952.065    418.72038     224.3169 
   93400    136.55326   -323.76908    140814.11   -39282.029    2741.4098   -42023.439    418.25615     231.3676 
   93450    133.38504   -256.48964    140846.78   -39312.608    2677.8055   -41990.414    418.57539    225.99956 
   93500    134.32339   -417.63335    140792.16   -39310.661    2696.6437   -42007.305    418.98276    227.58945 
   93550    133.20732   -115.00934    140739.76    -39254.56    2674.2375   -41928.797     419.0456    225.69843 
   93600     134.1158   -531.27411    140697.47   -39316.047     2692.476   -42008.523    419.55865    227.23772 
   93650    133.11081   -140.30692    140659.81   -39319.593    2672.3001   -41991.893    419.62266    225.53492 
   93700    133.07205   -236.48274    140684.94   -39265.531     2671.522   -41937.053    419.87326    225.46925 
   93750    132.92856   -291.95441    140677.65   -39285.786    2668.6413   -41954.427    420.22673    225.22613 
   93800    130.09969   -171.30496    140649.58   -39325.094    2611.8496   -41936.944    420.83971    220.43306 
   93850    133.93318   -258.80002    140656.32   -39355.139    2688.8097   -42043.949    421.57774    226.92829 
   93900    131.75007   -374.86548    140613.63    -39363.63    2644.9823   -42008.613    421.39873    223.22937 
   93950    132.57727    -262.8042    140572.41   -39333.402    2661.5889   -41994.991    421.91705    224.63092 
   94000    131.90339   -313.04148    140612.22    -39313.69    2648.0601    -41961.75    422.19655    223.48913 
   94050    135.51584   -213.78096    140543.94   -39295.365    2720.5829   -42015.948    422.57511    229.60986 
   94100    136.19225   -190.51105    140519.28   -39317.206    2734.1623   -42051.368    422.73465    230.75592 
   94150    133.62669   -103.40702    140482.59   -39394.741    2682.6568   -42077.398    423.29336      226.409 
   94200    131.71303   -182.11837    140504.38   -39438.828    2644.2386   -42083.067    423.82898     223.1666 
   94250    132.84955   -31.995751    140457.11   -39409.126    2667.0551   -42076.181    423.87114    225.09226 
   94300     135.9846   -9.4552122    140506.87    -39411.66    2729.9935   -42141.654    423.88134    230.40409 
   94350     133.0538   -76.411268    140599.14   -39448.085    2671.1556   -42119.241    424.75139    225.43833 
   94400    132.98496   -151.12338    140561.08   -39479.911    2669.7736   -42149.684    425.00283    225.32169 
   94450    131.50405   -215.85161    140604.84   -39497.208    2640.0432   -42137.251    425.53241    222.81252 
   94500    131.09489    62.614099    140593.99   -39502.605     2631.829   -42134.434    426.14923    222.11927 
   94550    130.64053   -328.92523    140530.54   -39482.441    2622.7073   -42105.148    426.05648    221.34942 
   94600    131.40954   -163.67252    140476.01   -39468.114    2638.1458    -42106.26    425.88361    222.65239 
   94650    133.68912   -30.853362    140511.05    -39394.79      2683.91     -42078.7    426.25295    226.51477 
   94700    132.28337   -56.018771    140548.78   -39390.729    2655.6885   -42046.418    426.12598    224.13295 
   94750    130.05772   -89.619597    140584.07   -39405.744    2611.0071   -42016.751    425.98568    220.36195 
   94800    130.79042   -138.08354    140659.21   -39413.924    2625.7166    -42039.64    426.33082     221.6034 
   94850    133.53056   -160.45026    140632.95   -39339.641    2680.7269   -42020.368     426.8314    226.24612 
   94900     131.1024   -248.72218    140623.86   -39335.202    2631.9798   -41967.182    426.95941      222.132 
   94950    134.09176   -274.48579    140584.94   -39342.322    2691.9935   -42034.316    426.83906    227.19699 
   95000    135.28201   -31.624136    140588.82   -39295.219    2715.8886   -42011.108     427.1028    229.21367 
   95050    136.03269   -66.313601    140631.92   -39326.785    2730.9591   -42057.744    427.14989    230.48558 
   95100    136.35661   -140.55307    140595.79   -39291.317    2737.4619   -42028.779    427.16867     231.0344 
   95150    132.11811   -248.67709    140654.77   -39348.995    2652.3709   -42001.366    427.27388    223.85295 
   95200    133.78187   -226.31919    140635.37   -39369.775    2685.7722   -42055.547     427.9117    226.67193 
   95250    132.85542   -324.38561    140572.24   -39383.364    2667.1729   -42050.537    428.26305     225.1022 
   95300    133.71165   -129.24739    140574.51    -39361.16    2684.3624   -42045.522     428.1839    226.55294 
   95350    132.63522   -229.48477    140572.21   -39379.522    2662.7522   -42042.274    428.27456     224.7291 
   95400    134.04546   -297.18479    140611.06    -39347.87     2691.064   -42038.934    428.04111    227.11854 
   95450    129.12277   -116.53722    140634.78   -39411.541    2592.2372   -42003.778    428.32918    218.77783 
   95500     131.7527   -398.86813    140521.73   -39412.823     2645.035   -42057.858    428.68402    223.23382 
   95550     132.3206   -272.98495    140444.38   -39426.516     2656.436   -42082.952    428.78272    224.19603 
   95600    133.07349   -330.34985    140433.78   -39453.131    2671.5508   -42124.682    428.85243    225.47168 
   95650    133.62953   -308.23578    140386.85    -39419.68    2682.7137   -42102.394    428.97038     226.4138 
   95700     130.9796   -96.949504    140428.98   -39436.435    2629.5144    -42065.95    428.69967    221.92392 
   95750    134.47024    -130.7305    140416.61   -39401.377    2699.5918   -42100.969     429.2231    227.83826 
   95800    131.02113   -184.38988    140408.26   -39394.881    2630.3483   -42025.229    429.19182     221.9943 
   95850    131.99475   -228.53682    140410.85   -39397.401    2649.8943   -42047.296    429.44372    223.64393 
   95900    132.03358   -483.78528    140372.61   -39394.351    2650.6739   -42045.024    429.91335    223.70973 
   95950    130.55163    -164.8213    140297.29   -39363.739    2620.9226   -41984.661    430.08939     221.1988 
   96000     134.3526    -67.59266    140374.06   -39376.437      2697.23   -42073.667    430.18508    227.63893 
   96050    132.42502   -68.086684    140392.63   -39402.645    2658.5324   -42061.178    430.27814    224.37297 
   96100    132.47973   -381.45769    140352.77   -39384.045    2659.6306   -42043.676    431.10004    224.46565 
   96150    131.63694   -126.33782    140304.03    -39387.72     2642.711   -42030.431    431.27845    223.03768 
   96200    135.35081    -169.6534    140285.98   -39315.192    2717.2697   -42032.462    431.32591    229.33024 
   96250    133.14152   -357.56606    140256.85   -39322.464    2672.9167   -41995.381    431.17592    225.58696 
   96300    135.15773   -133.39089    140236.89   -39316.897    2713.3936   -42030.291    430.76362     229.0031 
   96350    133.11091   -138.66111    140246.15   -39308.635    2672.3022   -41980.937    430.77217    225.53509 
   96400    136.21055   -158.84071    140245.02   -39278.968    2734.5298   -42013.498    430.50148    230.78694 
   96450     137.7858   -226.49141    140281.72   -39314.576     2766.154    -42080.73    430.72273    233.45594 
   96500    133.70004   -76.154236    140260.58   -39242.701    2684.1293   -41926.831    431.17439    226.53327 
   96550    133.31864   -157.66659    140276.34   -39298.108    2676.4725    -41974.58    431.25702    225.88706 
   96600     131.8886   -182.27304    140357.82   -39329.794    2647.7633   -41977.557    430.93811    223.46408 
   96650    133.67427   -286.54347    140317.61    -39336.72    2683.6119   -42020.332    431.40766    226.48961 
   96700     132.5996   -153.34491    140417.99   -39327.378    2662.0372   -41989.415    432.13798    224.66876 
   96750    133.34399   -218.30698    140444.53   -39322.321    2676.9813   -41999.302    432.22852       225.93 
   96800    129.98627   -201.85095     140460.2    -39393.61    2609.5725   -42003.182    432.20618    220.24088 
   96850    130.93697   -332.97334    140381.92   -39399.642    2628.6585     -42028.3    432.37265    221.85169 
   96900    133.12026   -241.46836    140448.46   -39329.932    2672.4898   -42002.421    432.91048    225.55093 
   96950    135.27925   -287.85944    140403.07   -39266.053    2715.8333   -41981.886    433.30376      229.209 
   97000    133.79826   -452.98429    140359.47   -39340.469    2686.1012    -42026.57    433.58381     226.6997 
   97050    131.54708   -216.58241    140405.59   -39359.877     2640.907   -42000.784     433.7469    222.88543 
   97100    130.86036   -358.91682    140373.84   -39383.957    2627.1207   -42011.078    433.90451     221.7219 
   97150    133.38325   -248.59739    140423.82   -39347.946    2677.7696   -42025.715    434.00414    225.99653 
   97200    131.62328   -255.50349    140427.35   -39332.696    2642.4367   -41975.133    434.16381    223.01453 
   97250    133.91629   -212.88899    140361.65   -39277.859    2688.4708    -41966.33    434.31508    226.89968 
   97300    132.74927   -232.34618    140405.54   -39287.196    2665.0419   -41952.238    434.36873    224.92235 
   97350    133.24999   -386.63165    140439.86   -39290.345    2675.0942   -41965.439    434.83412    225.77073 
   97400    134.86266   -312.89367    140473.02   -39320.938    2707.4698   -42028.408    435.01426    228.50315 
   97450    132.50941   -69.860984    140383.07   -39303.248    2660.2264   -41963.474    434.88634    224.51594 
   97500       138.21   -133.20208    140482.57   -39284.529    2774.6702     -42059.2    435.64352    234.17468 
   97550    134.35953   -348.35894    140509.11   -39323.566    2697.3691   -42020.935    435.71547    227.65067 
   97600    133.23354   -199.94878    140463.37   -39335.034    2674.7639   -42009.798    435.90178    225.74286 
   97650    135.39305   -341.09297    140418.25   -39332.022    2718.1178   -42050.139     435.7692    229.40181 
   97700    133.04715   -92.556229     140500.6   -39342.889    2671.0222   -42013.911    435.71419    225.42706 
   97750     134.2403   -222.36346    140543.11   -39396.129    2694.9755   -42091.104    435.73986    227.44866 
   97800    132.01265   -464.23637    140520.23   -39371.699    2650.2538   -42021.953    435.63899    223.67427 
   97850    132.34247    19.155097     140546.6   -39347.087    2656.8751   -42003.962    435.64948    224.23309 
   97900    131.78691   -102.05254    140574.24     -39362.1    2645.7218   -42007.822     435.8662    223.29178 
   97950    129.80472   -376.54054    140563.49    -39393.95    2605.9278   -41999.878    436.36285    219.93328 
   98000    132.25561   -121.28067    140548.48   -39343.099    2655.1313    -41998.23     436.7551    224.08592 
   98050    132.30033   -182.73657    140634.98   -39340.774    2656.0292   -41996.803    436.56767     224.1617 
   98100    134.03443   -208.48498    140621.13    -39322.43    2690.8424   -42013.273    437.28307    227.09984 
   98150    129.45336     -381.277    140533.58   -39397.263    2598.8739   -41996.137    437.06472    219.33795 
   98200    132.03169   -128.20179    140498.29   -39407.672     2650.636   -42058.308    437.09683    223.70652 
   98250    133.20536   -105.08539    140496.96   -39398.355    2674.1983   -42072.554    437.16997    225.69512 
   98300    133.07304   -165.21407    140477.59   -39404.581    2671.5418   -42076.123    437.38235    225.47092 
   98350    132.18204    -71.32707     140500.7   -39379.602    2653.6543   -42033.256     437.3443    223.96126 
   98400    135.64833   -278.20644    140492.43   -39324.792    2723.2428   -42048.035    437.26337    229.83434 
   98450    133.67648   -451.05137    140391.99   -39376.122    2683.6563   -42059.778    437.88788    226.49336 
   98500    131.58897   -117.15923    140317.36   -39338.714     2641.748   -41980.462    437.65253     222.9564 
   98550    132.68609    -50.02175    140333.38    -39368.12    2663.7735   -42031.894    437.60065     224.8153 
   98600    131.74581   -258.19819    140336.61   -39438.951    2644.8968   -42083.848    437.97315    223.22215 
   98650    130.26865   -167.00964    140368.34   -39413.115    2615.2417   -42028.356    438.00094    220.71934 
   98700    131.91671   -32.164962    140335.21   -39424.111    2648.3275   -42072.439    438.13941     223.5117 
   98750    131.79256   -46.150104    140308.51   -39421.938    2645.8353   -42067.773    438.19353    223.30136 
   98800    130.44616   -257.03865    140349.67   -39454.211    2618.8052   -42073.016    438.22614    221.02009 
   98850    127.18505   -154.75332    140335.44   -39473.722     2553.336   -42027.058    438.37843    215.49467 
   98900    129.26942   -322.43658    140303.85   -39448.163    2595.1812   -42043.344    438.75881     219.0263 
   98950    131.68296   -272.22193    140317.98    -39372.06    2643.6349   -42015.695    438.53618    223.11565 
   99000    132.67584   -153.69422    140333.71   -39353.576    2663.5677   -42017.143    438.84573    224.79793 
   99050    134.56886   -246.15411    140363.38   -39309.614    2701.5716   -42011.185    439.04249    228.00536 
   99100    133.76371   -294.08346    140356.62   -39324.687    2685.4076   -42010.095    439.24892    226.64116 
   99150    133.46324   -178.78469    140379.91   -39258.979    2679.3753   -41938.354    439.30277    226.13205 
   99200    133.65449    -252.2185    140380.44   -39296.751    2683.2148   -41979.965    439.59481    226.45609 
   99250    134.03561   -202.58259     140376.6   -39274.125    2690.8662   -41964.991    439.98166    227.10185 
   99300    132.75929   -248.19616    140389.73   -39291.266    2665.2431   -41956.509    440.33642    224.93933 
   99350    133.67203   -337.40952    140349.92   -39307.559    2683.5671   -41991.126    440.57126    226.48582 
   99400    133.80023   -214.52239    140344.18   -39320.624    2686.1408   -42006.765    440.90599    226.70304 
   99450    134.44175    -324.4816    140308.73   -39304.327    2699.0198   -42003.347    441.28249    227.78999 
   99500    134.88991   -344.87046    140278.11   -39338.855    2708.0168   -42046.872    441.44341    228.54931 
   99550     133.2454   -284.75661    140288.43   -39330.405    2675.0022   -42005.407    441.90059    225.76297 
   99600    132.85657   -135.31518    140306.46   -39318.839     2667.196   -41986.035    442.25542    225.10415 
   99650    133.52492   -360.41824    140333.03   -39315.035    2680.6137   -41995.649    441.84591    226.23656 
   99700    131.79613   -102.31519     140356.2   -39389.693    2645.9069     -42035.6    441.93681    223.30741 
   99750    130.55113   -280.17582    140361.36    -39437.28    2620.9126   -42058.193    442.21812    221.19795 
   99800    131.59693   -203.96115    140371.57   -39407.728    2641.9079   -42049.635    442.51277     222.9699 
   99850    133.10069   -101.50171    140353.21    -39386.37    2672.0969   -42058.467     442.5289    225.51777 
   99900    130.85964   -182.05605    140365.15   -39453.982    2627.1061   -42081.088    442.82028    221.72067 
   99950    131.70823    -133.8856    140462.21   -39475.223    2644.1423   -42119.365    443.17068    223.15847 
  100000    133.71483    -389.1502    140508.62   -39450.854    2684.4263   -42135.281    443.29277    226.55834 
Loop time of 221.23 on 60 procs for 100000 steps with 6736 atoms

Performance: 195.272 ns/day, 0.123 hours/ns, 452.019 timesteps/s
99.6% CPU use with 60 MPI tasks x no OpenMP threads

MPI task timing breakdown:
Section |  min time  |  avg time  |  max time  |%varavg| %total
---------------------------------------------------------------
Pair    | 37.012     | 98.292     | 163.05     | 493.7 | 44.43
Neigh   | 1.3114     | 2.7534     | 7.6617     | 132.2 |  1.24
Comm    | 36.941     | 86.207     | 119.62     | 297.8 | 38.97
Output  | 0.20425    | 0.21011    | 0.33087    |   3.4 |  0.09
Modify  | 10.686     | 32.255     | 62.783     | 424.5 | 14.58
Other   |            | 1.512      |            |       |  0.68

Nlocal:    112.267 ave 256 max 68 min
Histogram: 44 4 0 0 0 0 0 0 5 7
Nghost:    1037.15 ave 1347 max 708 min
Histogram: 24 0 0 0 0 0 0 19 5 12
Neighs:    0 ave 0 max 0 min
Histogram: 60 0 0 0 0 0 0 0 0 0
FullNghs:  13525 ave 46770 max 4393 min
Histogram: 48 0 0 0 0 0 0 0 1 11

Total # of neighbors = 811498
Ave neighs/atom = 120.472
Neighbor list builds = 6140
Dangerous builds = 0

write_data		${DIR}/data.eq-${NAME}-${TEMP}
write_data		run_6/data.eq-${NAME}-${TEMP}
write_data		run_6/data.eq-het_freeze_6-${TEMP}
write_data		run_6/data.eq-het_freeze_6-225
undump          1

reset_timestep  0

unfix           2
unfix           3
unfix           4


################################################
#######         Run Simulation         #########
################################################

log				${DIR}/log.run_${NAME}
log				run_6/log.run_${NAME}
log				run_6/log.run_het_freeze_6
