LAMMPS data file via write_data, version 16 Mar 2018, timestep = 100000

6750 atoms
2 atom types

0.0000000000000000e+00 4.9219999999999999e+01 xlo xhi
0.0000000000000000e+00 4.9019635930410494e+01 ylo yhi
3.0557821846558397e-01 5.9756421781535153e+01 zlo zhi

Masses

1 18.015
2 12.01

Atoms # atomic

5453 1 1.5385042608738866e+00 4.1581892704826267e+00 4.1265190698036349e+00 0 1 0
3210 1 3.2690297286319918e+00 4.2281738395633512e+00 1.8527984713303975e+00 1 1 1
4869 1 9.9202184849045527e-01 6.5277251298589416e+00 1.3143861742411119e+01 2 -1 1
5085 1 1.0476135220633161e+01 3.9855401320328929e+00 1.3414256606658522e+01 1 0 1
5635 1 7.9212301070722280e+00 3.0489598820106592e+00 4.5436459895865919e+00 2 1 1
490 1 4.5042109809149267e+00 1.4966499375074060e+00 1.5393608536202816e+00 0 1 1
1504 1 7.6325506542456480e+00 2.1885454791675557e-01 4.1286813842901111e+00 1 0 1
4854 1 1.1199806734007998e+01 1.2122025884384263e+01 3.1056897355975117e+00 0 -1 1
239 1 1.6873637277018980e+00 1.6223673205690377e+00 4.0582489976066425e+00 1 0 0
5088 1 4.3329002936749390e+00 6.7544573465883904e+00 2.1898953973613167e+00 2 0 1
4780 1 6.3438174014230091e+00 6.1682856740211012e+00 4.0530823435357481e+00 0 -1 1
299 1 8.8657989078837822e+00 6.6181036897943413e+00 4.0008242680482677e+00 0 0 0
3052 1 7.4787742796012218e+00 1.1046234091298070e+01 1.5070013510095700e+01 -1 1 1
1820 1 1.0774673168690466e+01 3.1875204847707339e+00 1.4399930518898638e+00 1 1 0
5051 1 8.5386052357097366e+00 9.6256666827342063e-01 1.6124973605539970e+00 1 1 0
1572 1 9.4808750851233248e-01 6.4812302501047647e-01 7.3835768481111392e+00 1 2 1
3337 1 2.0873722769747540e+00 1.0025903549923305e+01 7.9590797575390448e-01 0 0 0
419 1 3.5843906471085138e+00 9.3532512855485095e+00 4.7944403764595860e+00 2 1 0
3443 1 1.9623360505454481e+00 8.2657575368436991e+00 2.6696094236930743e+00 1 0 0
3022 1 1.0003223055845778e+01 9.1292914022949248e+00 3.6942036132963114e+00 1 1 1
5656 1 7.4808581244527952e+00 1.0334146355398936e+01 3.2198294855875451e+00 0 0 1
2201 1 5.9682613345001050e+00 8.9815253177041825e+00 5.1428824518396894e+00 -1 0 1
3392 1 9.3304373810546561e+00 5.4643921588031343e+00 1.5476095308746893e+00 -1 0 1
6580 1 5.6820175296254085e+00 2.4116680666331209e+00 6.0312233167715616e+00 0 0 1
364 1 5.9716035772517815e+00 8.0731560140541418e+00 1.1173662539101215e+01 1 0 0
228 1 1.1044551102396591e+00 2.9873728807176265e+00 1.0959165815841008e+01 0 0 1
2285 1 6.8642787088168697e+00 6.0232028067905174e+00 1.2707711745645138e+01 0 0 0
3092 1 6.9950188721579707e+00 2.0677805729417771e+00 8.5203002342767142e+00 0 0 1
5431 1 1.8741250718012628e+00 1.2511733116238028e-02 1.0267004340014731e+01 2 1 0
318 1 1.0652565451604476e+01 8.3031556007008032e+00 1.1776038972326623e+00 0 1 0
3012 1 1.0865404710291720e+01 3.3790763136052199e-01 8.4536494212157240e+00 2 1 1
416 1 9.8344355261929923e+00 2.9621000364490482e+00 8.5222618944851742e+00 -1 0 0
3963 1 9.2070987816218128e+00 4.6967071890743983e-01 1.1224174972632108e+01 1 1 1
1401 1 2.7540774109897743e+00 4.0641193087072347e+00 1.4002878714441300e+01 0 0 1
245 1 2.6156311292233858e+00 5.6793508707204534e+00 6.2059521771960426e+00 1 0 0
5550 1 6.7429473277425114e+00 9.9308466490108671e+00 8.0091197376788281e-01 0 1 0
3200 1 5.3192042284015937e+00 4.9855570531680105e+00 6.3039570974252666e+00 0 2 1
93 1 6.6141060565181906e+00 6.3048474792754110e+00 8.4898841018352691e+00 1 1 0
3264 1 6.3304443935886301e+00 3.9946960557167435e+00 1.0165071037183736e+01 0 0 1
5492 1 9.8752415443445614e+00 4.9589980255406356e+00 5.5971971634912112e+00 2 1 0
5316 1 9.2625133949558798e+00 5.5105894926505270e+00 8.1907724804839894e+00 0 0 0
5246 1 1.4707894983717451e+00 8.3857896992988419e+00 6.7938199296790884e+00 1 0 0
3434 1 4.0321475063325565e+00 1.1214115030576368e+01 7.8290057702129632e+00 1 -1 0
442 1 4.4371168238469483e-02 8.4799720407436361e+00 4.5148008005453066e+00 2 0 0
5243 1 6.5509582757327003e+00 9.4634000987465487e+00 7.5395800251570702e+00 0 1 0
6459 1 9.1740056948149480e+00 9.6827538577695318e+00 8.5559815171026834e+00 1 2 1
6535 1 8.1863715270121218e-01 9.7445405462491976e+00 1.3006602910212017e+01 0 1 0
4849 1 8.6850238305707406e-01 4.6918165803356739e+00 8.3451924595411366e+00 0 1 1
3112 1 9.8690079056107471e+00 1.1304106642104358e+01 5.9993972175842520e+00 0 0 1
4803 1 2.4574778679544278e+00 1.4712908185949429e+00 1.3977002289123051e+01 1 0 1
3077 1 6.5098682045254312e+00 1.8760768030884154e+00 1.3676907884663928e+01 1 0 1
3667 1 1.2006240056478406e+01 1.1675954316336160e+01 1.2020754456013737e+01 3 0 0
2995 1 1.1561380662223433e+01 3.1316439008297356e+00 1.0709350893810425e+01 -1 1 1
6602 1 2.0922165321665136e+00 6.5477089375321560e+00 1.0521740469385733e+01 1 1 0
597 1 8.4078114827013088e+00 9.0246693510472671e+00 1.1235404735394953e+01 1 -1 1
3580 1 3.6944861025470921e+00 4.4704176176936210e+00 1.1285033996435832e+01 0 1 0
86 1 6.5938555018958764e+00 3.8110819911775144e+00 2.1330940082673893e+00 0 1 0
5214 1 4.1824880429209204e+00 8.0549476751385995e+00 8.9312228629405990e+00 0 1 1
3493 1 1.1043178531264411e+01 7.2816400127294836e+00 9.6306126687319082e+00 0 -1 0
6590 1 8.3772266145387349e+00 3.0430935813424429e+00 1.1976166543674521e+01 1 0 1
530 1 9.1090889937467914e+00 6.1496948913067868e+00 1.4238777165872497e+01 2 1 0
2178 1 1.0693612600716241e+01 7.8128335166987037e+00 1.2372468252416599e+01 1 1 0
5391 1 2.4146300279412491e+00 1.0019033341820974e+01 1.0612109270502637e+01 1 1 0
3109 1 4.4549456735374910e+00 9.9116153297166907e+00 1.2823453973314731e+01 0 -1 1
5528 1 9.1143284628784826e+00 1.1426267272409573e+01 1.2187113264305909e+01 1 1 0
2110 1 3.4547128161556655e+00 6.1678053674195743e-01 6.0883805769633179e+00 1 -1 0
1948 1 1.1058769415167355e-01 1.1642499457099611e+01 1.2673001831003212e+00 2 0 0
3877 1 6.7201958562484532e-01 1.1588658491270669e+01 6.7394148603399646e+00 2 0 1
4775 1 5.5312314731572512e+00 4.2936343694676156e+00 1.4478383177696259e+01 0 2 1
118 1 2.8371683505769245e+00 1.1905359610939973e+01 5.0543331940665812e+00 1 0 1
1514 1 9.9522701256200019e+00 1.2231735235869925e+01 4.4451725909102424e-01 1 0 1
5537 1 1.2154933441260097e+01 8.3311096006823959e-03 1.4459294315214505e+01 2 1 0
4788 1 4.3497247343836172e+00 1.5712652263447453e+00 1.7716968565658608e+01 1 0 1
2083 1 1.2030883782191822e+01 5.9234425000626612e+00 2.0563383717122992e+01 0 1 0
751 2 8.6134999999999984e+00 9.2355835810918343e+00 2.6798935135702997e+01 0 0 0
2206 1 1.7723061837348593e+00 5.4925796890533105e+00 1.6084878201472264e+01 0 0 1
57 1 6.4853999730176355e+00 3.5855833397915999e+00 1.6813557883118715e+01 0 0 1
2256 1 4.7750377172246061e+00 5.3588426045432760e+00 1.9111758530874198e+01 0 1 1
3693 1 7.7766220382872771e+00 5.4157255791929304e-01 1.6335040071353124e+01 1 0 0
6445 1 7.4701643649539040e+00 5.4481598956318844e-01 1.9248713909674684e+01 1 1 1
4826 1 1.0305079780600222e+01 1.7030388006282513e+00 1.5663809589424069e+01 1 -1 1
6460 1 1.2209035243386625e+01 5.5890340929943862e+00 2.3301232766316119e+01 1 -1 0
3514 1 1.0537039865419361e+01 4.9180397939758382e+00 1.8036520419399658e+01 1 1 1
798 2 1.1074500000000002e+01 9.2355835810918343e+00 2.6798935135702997e+01 0 0 0
6415 1 1.6762032382964469e+00 8.3275809491996160e+00 1.6515350384715369e+01 1 -1 0
2309 1 2.5097879558957659e+00 3.8762238443826225e+00 1.8150401023786358e+01 0 2 1
2133 1 1.9663517483238764e+00 8.8157292235935394e+00 1.9334957210868794e+01 0 -1 0
2251 1 5.5807015305251690e+00 8.4006566102813007e+00 1.8083256287760566e+01 0 0 1
5155 1 1.1067634527298901e+01 1.8961625026802809e+00 1.8161305128589657e+01 0 -1 0
5303 1 8.4503336235304456e+00 6.3025079452601718e+00 1.6890743655948810e+01 3 1 0
1796 1 9.0554181094528747e+00 9.0778746381410294e+00 1.7573643675429881e+01 0 1 0
6383 1 3.0100335609246573e+00 1.1377294800969883e+01 1.9496467507717782e+01 0 0 1
5478 1 3.3034353168383657e-01 7.5454419025305652e+00 2.4597178570325831e+01 1 1 0
5218 1 4.2562498366760222e+00 9.8029139845777920e+00 1.5685244843514498e+01 1 -1 0
3557 1 6.6512752033951568e+00 8.1172612836169353e+00 1.5316561914882673e+01 0 -1 0
841 2 1.2304999999999998e+01 1.1366872099805333e+01 2.6798935135702997e+01 0 0 0
1313 1 2.3272462494700275e+00 3.0858700090865354e-01 1.6886772788731072e+01 0 0 1
3958 1 8.9044641118626089e-02 1.2171337846566713e+01 2.4476237297095164e+01 1 0 1
1914 1 1.4306445763056694e+00 2.9830100941253401e+00 2.4623034943572364e+01 2 0 0
5505 1 2.8497463408892476e+00 1.5053796639205681e+00 2.2249279617205943e+01 1 0 0
3642 1 4.5478799639015541e+00 1.8200574970573653e+00 2.4218311860437762e+01 0 1 1
794 2 9.8440000000000012e+00 1.1366872099805333e+01 2.6798935135702997e+01 0 0 0
98 1 9.4038403553376071e+00 2.3961404583135955e+00 2.0325349783145942e+01 1 1 0
3633 1 8.7639071290816624e+00 1.1853727831275085e+00 2.2917970734700013e+01 1 -1 0
3571 1 1.7552430393828673e+00 5.8127216963606134e+00 2.1056447690523456e+01 1 0 1
5413 1 1.8359118537647279e+00 5.5565971512088685e+00 2.4090964975494416e+01 0 1 0
19 1 4.3688443015370524e+00 6.1540175413073763e+00 2.3699676695280999e+01 1 1 1
302 1 4.1165093875912877e+00 7.6043747711400300e+00 2.1021340061813270e+01 1 0 0
4748 1 8.2605426143076102e+00 3.8396469296699332e+00 2.4199311277212963e+01 1 0 1
2246 1 5.9078190011238689e+00 3.9689682064963958e+00 2.3482816504923697e+01 1 -1 0
3243 1 6.5975580526867619e+00 3.6163714757975067e+00 2.0842346391394369e+01 0 0 1
702 2 4.9220000000000006e+00 1.1366872099805333e+01 2.6798935135702997e+01 0 0 0
792 2 8.6134999999999984e+00 1.0656442593567498e+01 2.6798935135702997e+01 0 0 0
3075 1 9.5426961869591853e+00 6.1508366926958393e+00 2.3661262922628808e+01 -1 0 1
4813 1 9.0152964493554997e+00 5.7798118143098245e+00 2.0775387374712647e+01 1 1 1
796 2 9.8440000000000012e+00 8.5251540748539956e+00 2.6798935135702997e+01 0 0 0
5338 1 1.4488454078053992e+00 1.0053887844964191e+01 2.3851290765078524e+01 1 1 0
5167 1 5.3376901870572011e+00 1.0439400992163687e+01 2.1135866714400429e+01 0 1 1
6465 1 4.3646611575627219e+00 1.0575331906004418e+01 2.4399469464319395e+01 1 -1 1
6335 1 5.8363979926317295e+00 8.2828721042855147e+00 2.4743351038463690e+01 -1 1 1
4855 1 8.4493735831455492e+00 8.5082065124447279e+00 2.4077131639691419e+01 1 1 1
2152 1 1.0216813736191451e+01 1.0661168537631683e+01 2.4729761131997474e+01 1 0 0
2195 1 7.7844588957649732e+00 8.0427977240068085e+00 2.0150566439371836e+01 0 0 0
839 2 1.1074500000000002e+01 1.0656442593567498e+01 2.6798935135702997e+01 0 0 0
3426 1 5.1379915960450671e+00 4.2793711004397611e-01 2.0580230104947013e+01 1 0 0
2174 1 9.6358314035635839e+00 9.6588086525083003e+00 2.1430956334387322e+01 0 1 0
618 2 0.0000000000000000e+00 2.8417180249513345e+00 2.6798935135702997e+01 0 0 0
620 2 0.0000000000000000e+00 0.0000000000000000e+00 2.6798935135702997e+01 0 0 0
622 2 1.2305000000000001e+00 7.1042950623783474e-01 2.6798935135702997e+01 0 0 0
629 2 1.2305000000000001e+00 2.1312885187134998e+00 2.6798935135702997e+01 0 0 0
631 2 2.4610000000000003e+00 2.8417180249513345e+00 2.6798935135702997e+01 0 0 0
633 2 2.4610000000000003e+00 0.0000000000000000e+00 2.6798935135702997e+01 0 0 0
635 2 3.6915000000000004e+00 7.1042950623783474e-01 2.6798935135702997e+01 0 0 0
650 2 3.6914999999999996e+00 2.1312885187134998e+00 2.6798935135702997e+01 0 0 0
652 2 4.9220000000000006e+00 2.8417180249513332e+00 2.6798935135702997e+01 0 0 0
654 2 4.9220000000000006e+00 0.0000000000000000e+00 2.6798935135702997e+01 0 0 0
656 2 6.1524999999999999e+00 7.1042950623783407e-01 2.6798935135702997e+01 0 0 0
679 2 6.1524999999999999e+00 2.1312885187134989e+00 2.6798935135702997e+01 0 0 0
681 2 7.3829999999999991e+00 2.8417180249513345e+00 2.6798935135702997e+01 0 0 0
683 2 7.3829999999999991e+00 0.0000000000000000e+00 2.6798935135702997e+01 0 0 0
685 2 8.6134999999999984e+00 7.1042950623783407e-01 2.6798935135702997e+01 0 0 0
716 2 8.6134999999999984e+00 2.1312885187135002e+00 2.6798935135702997e+01 0 0 0
718 2 9.8440000000000012e+00 2.8417180249513332e+00 2.6798935135702997e+01 0 0 0
720 2 9.8440000000000012e+00 0.0000000000000000e+00 2.6798935135702997e+01 0 0 0
722 2 1.1074500000000002e+01 7.1042950623783330e-01 2.6798935135702997e+01 0 0 0
761 2 1.1074500000000002e+01 2.1312885187135002e+00 2.6798935135702997e+01 0 0 0
623 2 0.0000000000000000e+00 7.1042950623783341e+00 2.6798935135702997e+01 0 0 0
625 2 0.0000000000000000e+00 4.2625770374269996e+00 2.6798935135702997e+01 0 0 0
627 2 1.2305000000000001e+00 4.9730065436648339e+00 2.6798935135702997e+01 0 0 0
642 2 1.2305000000000001e+00 6.3938655561404980e+00 2.6798935135702997e+01 0 0 0
644 2 2.4610000000000003e+00 7.1042950623783341e+00 2.6798935135702997e+01 0 0 0
646 2 2.4610000000000003e+00 4.2625770374269996e+00 2.6798935135702997e+01 0 0 0
648 2 3.6914999999999996e+00 4.9730065436648339e+00 2.6798935135702997e+01 0 0 0
671 2 3.6914999999999996e+00 6.3938655561404980e+00 2.6798935135702997e+01 0 0 0
673 2 4.9220000000000006e+00 7.1042950623783341e+00 2.6798935135702997e+01 0 0 0
675 2 4.9220000000000006e+00 4.2625770374269978e+00 2.6798935135702997e+01 0 0 0
677 2 6.1524999999999999e+00 4.9730065436648339e+00 2.6798935135702997e+01 0 0 0
708 2 6.1524999999999999e+00 6.3938655561404980e+00 2.6798935135702997e+01 0 0 0
710 2 7.3830000000000009e+00 7.1042950623783341e+00 2.6798935135702997e+01 0 0 0
712 2 7.3829999999999991e+00 4.2625770374269996e+00 2.6798935135702997e+01 0 0 0
714 2 8.6135000000000002e+00 4.9730065436648339e+00 2.6798935135702997e+01 0 0 0
753 2 8.6135000000000002e+00 6.3938655561404980e+00 2.6798935135702997e+01 0 0 0
755 2 9.8440000000000012e+00 7.1042950623783341e+00 2.6798935135702997e+01 0 0 0
757 2 9.8440000000000012e+00 4.2625770374270004e+00 2.6798935135702997e+01 0 0 0
759 2 1.1074500000000002e+01 4.9730065436648339e+00 2.6798935135702997e+01 0 0 0
800 2 1.1074500000000002e+01 6.3938655561404980e+00 2.6798935135702997e+01 0 0 0
636 2 0.0000000000000000e+00 1.1366872099805333e+01 2.6798935135702997e+01 0 0 0
638 2 0.0000000000000000e+00 8.5251540748539991e+00 2.6798935135702997e+01 0 0 0
640 2 1.2305000000000001e+00 9.2355835810918343e+00 2.6798935135702997e+01 0 0 0
663 2 1.2305000000000001e+00 1.0656442593567498e+01 2.6798935135702997e+01 0 0 0
665 2 2.4610000000000003e+00 1.1366872099805333e+01 2.6798935135702997e+01 0 0 0
667 2 2.4610000000000003e+00 8.5251540748539991e+00 2.6798935135702997e+01 0 0 0
669 2 3.6915000000000004e+00 9.2355835810918343e+00 2.6798935135702997e+01 0 0 0
700 2 3.6914999999999996e+00 1.0656442593567499e+01 2.6798935135702997e+01 0 0 0
749 2 7.3830000000000009e+00 8.5251540748539991e+00 2.6798935135702997e+01 0 0 0
747 2 7.3829999999999991e+00 1.1366872099805333e+01 2.6798935135702997e+01 0 0 0
745 2 6.1524999999999999e+00 1.0656442593567499e+01 2.6798935135702997e+01 0 0 0
704 2 4.9220000000000006e+00 8.5251540748539991e+00 2.6798935135702997e+01 0 0 0
706 2 6.1524999999999999e+00 9.2355835810918343e+00 2.6798935135702997e+01 0 0 0
2100 1 1.1065124507685502e+00 3.0984667946736426e+00 2.0358106002498083e+01 2 1 0
6634 1 5.0269194801949411e+00 1.1758021803898986e+01 1.7430753930645142e+01 1 1 0
3718 1 6.3590813734455152e+00 8.8995190709947412e-03 2.3285513687908026e+01 0 1 0
2317 1 1.5533464660249827e-01 1.0762985210379770e+00 1.8517879297208758e+01 1 0 0
5558 1 1.1912208593111686e+01 8.2241681144378145e+00 1.7447835280708457e+01 0 -1 1
1709 1 6.4151222060047530e-02 9.7964099240188549e+00 2.1267024170269622e+01 0 0 1
619 2 0.0000000000000000e+00 1.4208590124756650e+00 3.0031000000000486e+01 0 0 0
621 2 0.0000000000000000e+00 0.0000000000000000e+00 3.0031000000000486e+01 0 0 0
628 2 1.2305000000000001e+00 3.5521475311891644e+00 3.0031000000000486e+01 0 0 0
630 2 1.2305000000000001e+00 2.1312885187134998e+00 3.0031000000000486e+01 0 0 0
632 2 2.4610000000000003e+00 1.4208590124756650e+00 3.0031000000000486e+01 0 0 0
634 2 2.4610000000000003e+00 0.0000000000000000e+00 3.0031000000000486e+01 0 0 0
649 2 3.6914999999999996e+00 3.5521475311891644e+00 3.0031000000000486e+01 0 0 0
651 2 3.6914999999999996e+00 2.1312885187134998e+00 3.0031000000000486e+01 0 0 0
947 2 0.0000000000000000e+00 2.8417180249513345e+00 3.3263064864303033e+01 0 0 0
948 2 0.0000000000000000e+00 0.0000000000000000e+00 3.3263064864303033e+01 0 0 0
949 2 1.2305000000000001e+00 7.1042950623783474e-01 3.3263064864303033e+01 0 0 0
953 2 1.2305000000000001e+00 2.1312885187134998e+00 3.3263064864303033e+01 0 0 0
954 2 2.4610000000000003e+00 2.8417180249513345e+00 3.3263064864303033e+01 0 0 0
955 2 2.4610000000000003e+00 0.0000000000000000e+00 3.3263064864303033e+01 0 0 0
956 2 3.6915000000000004e+00 7.1042950623783474e-01 3.3263064864303033e+01 0 0 0
964 2 3.6914999999999996e+00 2.1312885187134998e+00 3.3263064864303033e+01 0 0 0
653 2 4.9220000000000006e+00 1.4208590124756650e+00 3.0031000000000486e+01 0 0 0
655 2 4.9220000000000006e+00 0.0000000000000000e+00 3.0031000000000486e+01 0 0 0
678 2 6.1524999999999999e+00 3.5521475311891644e+00 3.0031000000000486e+01 0 0 0
680 2 6.1524999999999999e+00 2.1312885187134989e+00 3.0031000000000486e+01 0 0 0
682 2 7.3829999999999991e+00 1.4208590124756659e+00 3.0031000000000486e+01 0 0 0
684 2 7.3829999999999991e+00 0.0000000000000000e+00 3.0031000000000486e+01 0 0 0
965 2 4.9220000000000006e+00 2.8417180249513332e+00 3.3263064864303033e+01 0 0 0
966 2 4.9220000000000006e+00 0.0000000000000000e+00 3.3263064864303033e+01 0 0 0
967 2 6.1524999999999999e+00 7.1042950623783407e-01 3.3263064864303033e+01 0 0 0
979 2 6.1524999999999999e+00 2.1312885187134989e+00 3.3263064864303033e+01 0 0 0
980 2 7.3829999999999991e+00 2.8417180249513345e+00 3.3263064864303033e+01 0 0 0
981 2 7.3829999999999991e+00 0.0000000000000000e+00 3.3263064864303033e+01 0 0 0
715 2 8.6134999999999984e+00 3.5521475311891657e+00 3.0031000000000486e+01 0 0 0
717 2 8.6134999999999984e+00 2.1312885187135002e+00 3.0031000000000486e+01 0 0 0
719 2 9.8440000000000012e+00 1.4208590124756659e+00 3.0031000000000486e+01 0 0 0
721 2 9.8440000000000012e+00 0.0000000000000000e+00 3.0031000000000486e+01 0 0 0
760 2 1.1074500000000002e+01 3.5521475311891644e+00 3.0031000000000486e+01 0 0 0
762 2 1.1074500000000002e+01 2.1312885187135002e+00 3.0031000000000486e+01 0 0 0
982 2 8.6134999999999984e+00 7.1042950623783407e-01 3.3263064864303033e+01 0 0 0
998 2 8.6134999999999984e+00 2.1312885187135002e+00 3.3263064864303033e+01 0 0 0
999 2 9.8440000000000012e+00 2.8417180249513332e+00 3.3263064864303033e+01 0 0 0
1000 2 9.8440000000000012e+00 0.0000000000000000e+00 3.3263064864303033e+01 0 0 0
1001 2 1.1074500000000002e+01 7.1042950623783330e-01 3.3263064864303033e+01 0 0 0
1021 2 1.1074500000000002e+01 2.1312885187135002e+00 3.3263064864303033e+01 0 0 0
624 2 0.0000000000000000e+00 5.6834360499026637e+00 3.0031000000000486e+01 0 0 0
626 2 0.0000000000000000e+00 4.2625770374269996e+00 3.0031000000000486e+01 0 0 0
641 2 1.2305000000000001e+00 7.8147245686161639e+00 3.0031000000000486e+01 0 0 0
643 2 1.2305000000000001e+00 6.3938655561404980e+00 3.0031000000000486e+01 0 0 0
645 2 2.4610000000000003e+00 5.6834360499026637e+00 3.0031000000000486e+01 0 0 0
647 2 2.4610000000000003e+00 4.2625770374269996e+00 3.0031000000000486e+01 0 0 0
670 2 3.6914999999999996e+00 7.8147245686161639e+00 3.0031000000000486e+01 0 0 0
672 2 3.6914999999999996e+00 6.3938655561404980e+00 3.0031000000000486e+01 0 0 0
950 2 0.0000000000000000e+00 7.1042950623783341e+00 3.3263064864303033e+01 0 0 0
951 2 0.0000000000000000e+00 4.2625770374269996e+00 3.3263064864303033e+01 0 0 0
952 2 1.2305000000000001e+00 4.9730065436648339e+00 3.3263064864303033e+01 0 0 0
960 2 1.2305000000000001e+00 6.3938655561404980e+00 3.3263064864303033e+01 0 0 0
961 2 2.4610000000000003e+00 7.1042950623783341e+00 3.3263064864303033e+01 0 0 0
962 2 2.4610000000000003e+00 4.2625770374269996e+00 3.3263064864303033e+01 0 0 0
963 2 3.6914999999999996e+00 4.9730065436648339e+00 3.3263064864303033e+01 0 0 0
975 2 3.6914999999999996e+00 6.3938655561404980e+00 3.3263064864303033e+01 0 0 0
674 2 4.9220000000000006e+00 5.6834360499026637e+00 3.0031000000000486e+01 0 0 0
676 2 4.9220000000000006e+00 4.2625770374269978e+00 3.0031000000000486e+01 0 0 0
707 2 6.1524999999999999e+00 7.8147245686161639e+00 3.0031000000000486e+01 0 0 0
709 2 6.1524999999999999e+00 6.3938655561404980e+00 3.0031000000000486e+01 0 0 0
711 2 7.3829999999999991e+00 5.6834360499026637e+00 3.0031000000000486e+01 0 0 0
713 2 7.3829999999999991e+00 4.2625770374269996e+00 3.0031000000000486e+01 0 0 0
976 2 4.9220000000000006e+00 7.1042950623783341e+00 3.3263064864303033e+01 0 0 0
977 2 4.9220000000000006e+00 4.2625770374269978e+00 3.3263064864303033e+01 0 0 0
978 2 6.1524999999999999e+00 4.9730065436648339e+00 3.3263064864303033e+01 0 0 0
994 2 6.1524999999999999e+00 6.3938655561404980e+00 3.3263064864303033e+01 0 0 0
995 2 7.3830000000000009e+00 7.1042950623783341e+00 3.3263064864303033e+01 0 0 0
996 2 7.3829999999999991e+00 4.2625770374269996e+00 3.3263064864303033e+01 0 0 0
752 2 8.6135000000000002e+00 7.8147245686161639e+00 3.0031000000000486e+01 0 0 0
754 2 8.6135000000000002e+00 6.3938655561404980e+00 3.0031000000000486e+01 0 0 0
756 2 9.8440000000000012e+00 5.6834360499026637e+00 3.0031000000000486e+01 0 0 0
758 2 9.8440000000000012e+00 4.2625770374270004e+00 3.0031000000000486e+01 0 0 0
799 2 1.1074500000000002e+01 7.8147245686161639e+00 3.0031000000000486e+01 0 0 0
801 2 1.1074500000000002e+01 6.3938655561404980e+00 3.0031000000000486e+01 0 0 0
997 2 8.6135000000000002e+00 4.9730065436648339e+00 3.3263064864303033e+01 0 0 0
1017 2 8.6135000000000002e+00 6.3938655561404980e+00 3.3263064864303033e+01 0 0 0
1018 2 9.8440000000000012e+00 7.1042950623783341e+00 3.3263064864303033e+01 0 0 0
1019 2 9.8440000000000012e+00 4.2625770374270004e+00 3.3263064864303033e+01 0 0 0
1020 2 1.1074500000000002e+01 4.9730065436648339e+00 3.3263064864303033e+01 0 0 0
1041 2 1.1074500000000002e+01 6.3938655561404980e+00 3.3263064864303033e+01 0 0 0
637 2 0.0000000000000000e+00 9.9460130873296642e+00 3.0031000000000486e+01 0 0 0
639 2 0.0000000000000000e+00 8.5251540748539991e+00 3.0031000000000486e+01 0 0 0
662 2 1.2305000000000001e+00 1.2077301606043163e+01 3.0031000000000486e+01 0 0 0
664 2 1.2305000000000001e+00 1.0656442593567498e+01 3.0031000000000486e+01 0 0 0
666 2 2.4610000000000003e+00 9.9460130873296642e+00 3.0031000000000486e+01 0 0 0
668 2 2.4610000000000003e+00 8.5251540748539991e+00 3.0031000000000486e+01 0 0 0
699 2 3.6914999999999996e+00 1.2077301606043163e+01 3.0031000000000486e+01 0 0 0
701 2 3.6914999999999996e+00 1.0656442593567499e+01 3.0031000000000486e+01 0 0 0
957 2 0.0000000000000000e+00 1.1366872099805333e+01 3.3263064864303033e+01 0 0 0
958 2 0.0000000000000000e+00 8.5251540748539991e+00 3.3263064864303033e+01 0 0 0
959 2 1.2305000000000001e+00 9.2355835810918343e+00 3.3263064864303033e+01 0 0 0
971 2 1.2305000000000001e+00 1.0656442593567498e+01 3.3263064864303033e+01 0 0 0
972 2 2.4610000000000003e+00 1.1366872099805333e+01 3.3263064864303033e+01 0 0 0
973 2 2.4610000000000003e+00 8.5251540748539991e+00 3.3263064864303033e+01 0 0 0
974 2 3.6915000000000004e+00 9.2355835810918343e+00 3.3263064864303033e+01 0 0 0
990 2 3.6914999999999996e+00 1.0656442593567499e+01 3.3263064864303033e+01 0 0 0
703 2 4.9220000000000006e+00 9.9460130873296642e+00 3.0031000000000486e+01 0 0 0
705 2 4.9220000000000006e+00 8.5251540748539991e+00 3.0031000000000486e+01 0 0 0
744 2 6.1524999999999999e+00 1.2077301606043163e+01 3.0031000000000486e+01 0 0 0
746 2 6.1524999999999999e+00 1.0656442593567499e+01 3.0031000000000486e+01 0 0 0
748 2 7.3830000000000009e+00 9.9460130873296642e+00 3.0031000000000486e+01 0 0 0
750 2 7.3830000000000009e+00 8.5251540748539991e+00 3.0031000000000486e+01 0 0 0
991 2 4.9220000000000006e+00 1.1366872099805333e+01 3.3263064864303033e+01 0 0 0
992 2 4.9220000000000006e+00 8.5251540748539991e+00 3.3263064864303033e+01 0 0 0
993 2 6.1524999999999999e+00 9.2355835810918343e+00 3.3263064864303033e+01 0 0 0
1013 2 6.1524999999999999e+00 1.0656442593567499e+01 3.3263064864303033e+01 0 0 0
1014 2 7.3829999999999991e+00 1.1366872099805333e+01 3.3263064864303033e+01 0 0 0
1015 2 7.3830000000000009e+00 8.5251540748539991e+00 3.3263064864303033e+01 0 0 0
791 2 8.6135000000000002e+00 1.2077301606043163e+01 3.0031000000000486e+01 0 0 0
793 2 8.6134999999999984e+00 1.0656442593567498e+01 3.0031000000000486e+01 0 0 0
795 2 9.8440000000000012e+00 9.9460130873296642e+00 3.0031000000000486e+01 0 0 0
797 2 9.8440000000000012e+00 8.5251540748539956e+00 3.0031000000000486e+01 0 0 0
838 2 1.1074500000000002e+01 1.2077301606043163e+01 3.0031000000000486e+01 0 0 0
840 2 1.1074500000000002e+01 1.0656442593567498e+01 3.0031000000000486e+01 0 0 0
1016 2 8.6134999999999984e+00 9.2355835810918343e+00 3.3263064864303033e+01 0 0 0
1037 2 8.6134999999999984e+00 1.0656442593567498e+01 3.3263064864303033e+01 0 0 0
1038 2 9.8440000000000012e+00 1.1366872099805333e+01 3.3263064864303033e+01 0 0 0
1039 2 9.8440000000000012e+00 8.5251540748539956e+00 3.3263064864303033e+01 0 0 0
1040 2 1.1074500000000002e+01 9.2355835810918343e+00 3.3263064864303033e+01 0 0 0
1061 2 1.1074500000000002e+01 1.0656442593567498e+01 3.3263064864303033e+01 0 0 0
1062 2 1.2304999999999998e+01 1.1366872099805333e+01 3.3263064864303033e+01 0 0 0
5672 1 3.1342950156595180e+00 2.0522018335217092e+00 3.5886226098735591e+01 1 1 0
1954 1 7.5534722834162062e+00 1.7451676172917092e+00 3.5725233550174117e+01 2 2 -1
5651 1 6.9021520999359289e+00 1.6437237001176872e+00 4.1601659826692796e+01 1 -1 0
5273 1 5.2421503954645692e+00 6.2771170913666929e-01 3.6798686184567522e+01 2 2 -1
4858 1 1.1267754331172707e+01 3.1403697597440745e+00 3.5558458918876362e+01 -1 0 0
3025 1 9.8332079098207803e+00 1.0317273647124823e+00 3.6525071973548961e+01 -1 1 0
5371 1 1.8134007022160197e+00 6.1369465913467183e+00 3.8244792010192860e+01 1 1 -1
2122 1 3.6808228085070684e+00 4.2957390715219255e+00 3.7552061674418610e+01 1 0 -1
417 1 1.3109754379550815e+00 9.2683585182668971e+00 3.6730935067743452e+01 0 1 -1
138 1 8.1443452166154966e+00 3.4546145938742394e+00 3.9156718901898707e+01 0 0 -1
3098 1 7.5890558776750163e+00 4.2564193235456820e+00 3.6629660007429564e+01 0 1 0
125 1 5.5233764620705887e+00 6.0940095043391374e+00 3.6844191804491913e+01 1 0 -1
1432 1 1.0719480559180786e+01 5.0055827486086608e+00 3.9553526743063017e+01 1 1 0
23 1 1.0090643020975973e+01 5.3060468574252226e+00 3.6588175329745091e+01 1 1 0
375 1 9.8519536355375426e+00 7.9367822582459917e+00 3.9327247714078368e+01 0 1 -1
6519 1 2.2680510418947466e+00 8.5672922031936825e+00 3.9265397860306422e+01 1 1 -1
1668 1 3.7843579270237853e+00 9.0989351653130435e-01 4.4848607883345593e+01 1 0 0
331 1 1.1503517748492602e+00 4.0000759299448534e+00 4.0554142115920911e+01 0 0 -1
3894 1 6.5960905894420776e+00 9.7653110157223573e+00 3.6653732765667677e+01 1 1 -1
2242 1 6.8132001748625441e+00 7.7557144864860197e+00 3.8212704377622522e+01 0 -2 0
1403 1 9.9328537754408721e+00 1.1726953888169089e+00 3.9142923454071344e+01 0 0 0
1675 1 1.0567121645266001e+01 8.2091999556232942e+00 3.6552513082038395e+01 0 -1 0
4946 1 8.9156823463022441e+00 1.0020919479718659e+01 3.5320635932131317e+01 1 2 0
435 1 1.7418652477719536e+00 8.8494761029650277e+00 4.4533313871697864e+01 0 0 -1
6511 1 4.9252288530076149e-01 8.7930147695211360e+00 4.1289322699010818e+01 -1 1 0
263 1 5.0517401823869879e+00 6.3297992492810973e-01 3.9306780825936841e+01 0 1 -1
166 1 1.0559699261207651e+01 7.2134363038559757e+00 4.3032321606119950e+01 0 0 -1
5532 1 1.1246263086281171e+01 4.4565482425490401e+00 4.2148808573558867e+01 0 0 -1
2098 1 4.9433172002787917e-01 1.4097157006087357e+00 3.6848174975565257e+01 1 1 -1
1429 1 6.3940187686800369e+00 1.2237736926021091e+01 3.8012640700759938e+01 -1 1 0
3506 1 8.6377436724354446e+00 3.9884448587023753e+00 4.2625095251194786e+01 0 0 -1
5317 1 5.7526578741683287e-01 1.2573759258385757e+00 3.9649459896124753e+01 1 2 -1
4953 1 6.8114185472405859e+00 5.3451097818582092e+00 4.0735880189454434e+01 1 0 -1
5042 1 4.3985690553458543e+00 1.2092380893881719e+01 4.3381766291939513e+01 0 0 -1
5434 1 7.8128344380513743e+00 8.1892795707104842e+00 4.1631562184688185e+01 0 0 -1
1375 1 3.4599658068102150e+00 3.7154839036285816e+00 4.4681280941303989e+01 0 0 0
1497 1 3.2668566907167693e+00 4.8874885274695785e+00 4.2124229734419345e+01 0 1 0
607 1 4.5825766319545824e+00 3.4086969806102827e+00 3.9927910699562716e+01 0 -1 -1
2170 1 6.3286884199319111e+00 8.5280590369175275e+00 4.3910523317203726e+01 0 0 -1
2002 1 1.7379118937306612e+00 1.1291976499208152e+01 4.2791291679823068e+01 0 0 -1
5260 1 5.4607324689032382e+00 1.1688684065856068e+01 4.0846375860072115e+01 1 1 0
3305 1 3.5989490078046678e+00 1.0571470151522393e+01 3.6055908521817116e+01 0 0 0
5387 1 4.9876952051231758e+00 8.8443041280947021e+00 4.0172853361186661e+01 1 1 -1
5168 1 3.7307192779617613e+00 8.1221844423988774e+00 4.2455419622550409e+01 2 1 0
536 1 8.0315397465915002e+00 1.0988368119811931e+01 4.1018952536117681e+01 0 0 -1
3141 1 2.3367867349255311e+00 9.6112121015577512e-01 4.7097383278351884e+01 0 1 0
1924 1 9.1020042375566828e+00 1.1745124453809227e+01 4.8813022259508202e+01 1 0 -1
5410 1 4.8078774084902900e+00 9.7607626210825715e-01 4.8502168647998147e+01 0 -1 -1
5057 1 8.8864921697736161e+00 6.9639202590038538e+00 4.5296810756111192e+01 1 0 0
4805 1 1.0748705412104000e+01 8.6458898249182958e-01 4.6593911135077654e+01 0 0 0
1654 1 4.5838085152643435e+00 1.2063671169304905e+01 4.6037225527601272e+01 1 0 0
3108 1 5.8545987314209240e+00 4.4495636657289879e+00 4.5980767071506492e+01 -1 -1 0
5341 1 2.1628157060988329e+00 6.4985110872325604e+00 4.8102574096769338e+01 1 0 -1
6569 1 8.3968182903132806e+00 9.6551297673992120e-01 4.7925774147909536e+01 1 -1 0
3600 1 3.5430252214110949e+00 9.0396536519497737e+00 4.6467769589071509e+01 0 0 -1
5144 1 5.9899768671959377e+00 3.5209261142702521e+00 4.8464359784313174e+01 2 0 -1
5438 1 6.7683675571023656e+00 8.2567170080656123e+00 4.8162100042415062e+01 1 0 -1