LAMMPS data file via write_data, version 16 Mar 2018, timestep = 6000000

6768 atoms
2 atom types

0.0000000000000000e+00 4.9219999999999999e+01 xlo xhi
0.0000000000000000e+00 4.9019635930410494e+01 ylo yhi
-8.8321809274088992e-01 6.0945218092746629e+01 zlo zhi

Masses

1 18.015
2 12.01

Atoms # atomic

6722 1 2.3623654203254953e+00 1.2739132488562546e+00 2.1613011955741457e+00 2 0 1
3127 1 2.0818690088939737e+00 1.2764764977209044e+00 -5.2985993287559685e-01 1 0 1
4708 1 6.5143400204958120e+00 2.4362460300042987e+00 2.3352505329586766e+00 1 0 1
5236 1 4.1449199419141971e+00 3.1423955927960265e+00 3.2906456618287949e+00 -1 -2 0
1875 1 6.4909513036468685e+00 2.8738208004574219e+00 -3.5916853642995872e-01 -1 -1 0
5489 1 1.1244935780646236e+01 3.5136454075150625e+00 2.2514447407101956e+00 -2 0 0
4867 1 1.0887985301121704e+01 3.5744853692199898e+00 -5.1489647214883671e-01 0 -2 1
3875 1 3.0002616323758957e+00 5.7267509022319523e+00 -5.5977304349135593e-01 1 2 0
6475 1 3.3480275932980943e+00 5.6472576873563902e+00 2.1788400744858771e+00 -2 -1 1
179 1 1.0348030567278856e+00 6.4901643280795440e+00 3.3851930219645805e+00 1 0 0
3567 1 7.8027282007482057e+00 6.8526562404836184e+00 2.6595701734222899e+00 2 1 0
5330 1 4.6803797514056820e+00 1.0360069581279316e+01 -2.3322995417610981e-01 -1 0 0
172 1 5.1587924262112912e+00 7.5728409762165212e+00 3.2355000002849277e+00 -1 1 0
3981 1 7.9878775695333670e-01 5.2845934417659794e+00 9.1060325172692576e+00 1 1 1
3046 1 8.6028639515494287e+00 4.1490896442842233e+00 3.0494765675414763e+00 -1 0 1
3885 1 5.3318608406988206e+00 2.3360172600844109e+01 6.3299027493246678e+00 3 -1 1
4879 1 1.9831273195387435e+00 1.0982412350691499e+01 3.2024773599456635e+00 0 3 1
6491 1 1.1741493252133996e+01 7.8179447560380266e+00 -7.3871278177518340e-01 1 -2 1
1499 1 4.5152824238992437e+00 9.9520248002789042e+00 2.2524811852704874e+00 1 -3 1
99 1 8.8967327638322420e+00 1.1470683063131146e+01 2.3376872274749796e+00 -3 0 0
3330 1 6.3876029077065635e+00 1.2105183385861347e+01 2.7178232860205953e+00 -1 2 1
5641 1 5.3231523572565864e+00 2.0470225064275898e+01 9.8571554217577528e+00 0 1 0
5461 1 7.9643189618463008e+00 1.3760807332480244e+01 -8.2120944766644333e-01 -1 3 0
306 1 2.3985909122925489e-01 2.7250492755447060e+00 9.8973328450226035e+00 -1 -1 1
3098 1 1.2918917439285853e+00 1.3319003006667430e+01 2.0476254513819505e+00 -2 0 1
1849 1 3.0192600002029959e+00 1.4918446423723820e+01 3.3703785044508825e+00 1 2 0
5520 1 5.6456672283732772e+00 1.4497643107543386e+01 2.3036830933393571e+00 1 0 1
4974 1 5.3435472657934664e+00 1.4482602212733054e+01 -3.6434965044677892e-01 2 0 0
311 1 8.6130689332915420e+00 1.1145704373759127e+01 -3.4275476368404412e-01 0 -1 0
116 1 9.9855785074509331e+00 1.5935757036825297e+01 2.4658943836217282e+00 1 2 0
249 1 2.5440531695650699e+00 1.7555573127056743e+01 -2.1224266409402870e-01 2 0 0
4889 1 2.2284738035375993e+00 1.7543275066398529e+01 2.5728895102505209e+00 0 0 1
6713 1 3.8611384874149812e+00 1.9242774369405318e+01 3.4481179465554304e+00 0 0 0
3367 1 6.5527784553082178e+00 1.8757210378032127e+01 2.6931213259916795e+00 -1 -4 1
1926 1 6.4485156417354093e+00 1.8696051746814316e+01 -8.9377090253552449e-02 0 -1 1
1415 1 1.1054871092917454e+01 1.9862616314861619e+01 -2.5069916046036478e-01 0 1 1
2275 1 1.1155116650209207e+01 2.0154001174996377e+01 2.6714477163127004e+00 2 0 0
5600 1 1.1742730398980704e+01 1.7660876827775940e+01 3.4644858280419113e+00 1 2 1
2035 1 3.2086045360604580e+00 2.2007825258107605e+01 2.5050187667940462e+00 1 1 0
3768 1 3.3806220115891015e+00 2.2081922836930609e+01 -1.4659704796943385e-01 1 1 0
4967 1 7.6086863014486976e+00 2.3180238504126052e+01 2.7366922213716549e+00 -1 1 1
4729 1 7.4039866080841685e+00 2.3061796369036941e+01 6.9908688981504041e-02 0 0 1
4732 1 1.0654595148513477e+00 2.1961581797715965e+01 8.6208651488585542e+00 2 -1 1
3902 1 8.0278829731172028e+00 2.2712773232994770e+01 6.8033264156142934e+00 0 1 1
1768 1 1.2127332063884383e+01 8.3706601439098822e+00 6.9128853735413243e+00 0 1 0
12 1 2.2775681398461018e+00 1.0608718645788069e+00 6.4458467048549242e+00 0 1 1
6434 1 4.1502630368682905e+00 3.3854426156427921e+00 5.8774810035904901e+00 1 2 1
5503 1 6.3620085888886981e+00 2.1809798693597275e+00 6.4845528484198498e+00 2 0 0
3117 1 1.1841854312121336e+01 1.0370921827758599e+00 3.0582017670754960e+00 1 0 1
283 1 1.1966943215218851e+01 9.7758923380881946e-01 5.6900447717166491e+00 -1 2 0
3784 1 1.0987137519019564e+01 3.5386338573552054e+00 6.9890392659251708e+00 1 1 0
6675 1 1.0247903299996894e+00 6.4397538339365914e+00 6.5172952614370763e+00 -1 -1 1
6417 1 3.7832925565380542e+00 5.7688021854195339e+00 6.7733545274735514e+00 -1 -1 0
3297 1 5.5240989645419925e+00 7.5618450810435149e+00 5.7538897354354317e+00 1 -1 0
1707 1 7.9479241124971534e+00 6.6833470767191452e+00 6.6109924553107762e+00 1 2 1
2058 1 8.5227644762720089e+00 4.0150352535737390e+00 6.0079102558527593e+00 0 0 0
4739 1 7.7683009493601096e+00 6.8253686857506555e+00 -1.3085711327573424e-01 -1 0 1
5112 1 1.9292392287259612e+00 1.0912886401961668e+01 5.7495949862644720e+00 -2 0 0
4727 1 8.3478043071616437e+00 2.3793735374059683e+01 9.1990501644096661e+00 2 1 1
6601 1 4.3370226901645861e+00 1.0303310615110071e+01 6.5767478177182275e+00 -2 0 1
4988 1 6.3345559848795858e+00 1.2266459526470573e+01 5.7620572800812537e+00 0 1 1
3421 1 9.3741089649389195e+00 8.9837431749051913e+00 3.3044978653748922e+00 2 0 0
3263 1 9.5562253750602135e+00 8.7809282729620417e+00 5.8558264792451080e+00 2 1 1
6623 1 8.9839997620362411e+00 1.1386506254495844e+01 6.8635203295721565e+00 0 -2 1
4789 1 2.8942408658406111e+00 1.4870032431692932e+01 6.1916936870010968e+00 0 2 1
3942 1 1.0733615367748270e+00 1.2855765819996270e+01 7.1145042783441639e+00 3 0 0
4992 1 5.5625136388454113e+00 1.4461946944389984e+01 7.2065098685194418e+00 -1 0 1
4899 1 7.3724028817038434e+00 1.6244358661980822e+01 3.5677586727656472e+00 1 0 1
2075 1 1.0558683635216125e+01 1.3188373839996467e+01 3.2823577663222121e+00 2 3 0
2178 1 1.0657323147855077e+01 1.3436340885069542e+01 5.9625695162569485e+00 -1 1 0
6740 1 9.8523705867821949e+00 1.5967320432046249e+01 6.6212891947847501e+00 1 0 1
3282 1 1.5642655549660238e+00 1.6959454480304526e+01 6.6764839990399425e+00 2 0 0
4895 1 7.6686153410902378e+00 2.1502922444359616e+01 1.0389005358105273e+01 -1 2 1
4995 1 7.0148678136952656e+00 1.6566256004051017e+01 6.4023676453203144e+00 1 0 1
1614 1 3.4990414898800175e+00 1.8939954873576198e+01 6.1004016214169594e+00 1 -1 0
2321 1 6.3318698462308802e+00 1.8884998975776959e+01 7.3571419373136688e+00 1 1 0
6394 1 1.1049064606523091e+01 1.8306152015314954e+01 5.9172121014931385e+00 -2 2 0
3092 1 8.6845465327796987e+00 2.0176190721891533e+01 6.3247697288390379e+00 1 -1 1
6459 1 2.8158121261380931e+00 2.1812672624836278e+01 6.1558203488712930e+00 1 1 1
6455 1 7.8129590706361951e-01 2.2440746645510409e+01 3.6015361551146370e+00 -1 2 1
3041 1 3.4856491697918908e+00 2.2506986100054156e+01 9.9088743164230966e+00 1 0 1
6355 1 8.6127732167447348e+00 2.0588380112330675e+01 3.5746064022462187e+00 2 -3 1
3674 1 5.2545038275061264e+00 2.3586755111220768e+01 3.7909838619609380e+00 2 -1 0
5625 1 8.5986491407832055e+00 1.7371148171982590e+01 1.0543875787818564e+01 1 1 1
3865 1 1.9077934276042106e+00 6.8812555279976240e-01 9.0196060132965208e+00 1 -1 0
6598 1 4.2453853979184064e+00 3.5665081738932913e-01 1.0015852529243615e+01 1 0 1
3123 1 5.9783084509546738e+00 1.9309255695982164e+00 8.9327986365767860e+00 2 1 1
5256 1 8.5035007438047625e+00 1.3161662571539723e+00 1.0473942699159222e+01 1 -1 0
1618 1 9.7808341751001553e+00 3.5950797927844946e+00 9.6658636581751907e+00 0 1 0
3969 1 1.8099062787063031e-01 8.9839096313955977e+00 -2.0873118762295428e-01 -1 1 1
3384 1 3.5795943509837778e+00 6.0221800814184707e+00 9.5697681568516479e+00 2 0 0
3516 1 5.6336901804371724e+00 4.1855997523561008e+00 1.0319404397964844e+01 1 2 0
1644 1 7.9795762081847137e+00 5.1934568319963246e+00 1.0555786448195340e+01 0 -1 0
2062 1 8.3503675645319575e+00 7.6942274763236096e+00 9.2323185474363800e+00 2 0 0
141 1 2.2072521299130532e+00 1.0259415596134794e+01 1.0312204040772986e+01 1 2 0
3776 1 4.0666395466044420e+00 8.8772921709213115e+00 9.0995934726358847e+00 0 2 0
6674 1 6.6171643660974233e+00 9.5449717917962413e+00 9.9633525877283713e+00 1 1 0
3899 1 7.5138753168261170e+00 1.2251612630447731e+01 9.5858451880349484e+00 0 0 0
33 1 1.0722105813489668e+01 8.2941488515482735e+00 1.0234733502371803e+01 -2 3 0
5397 1 1.1293603448159555e+01 1.0954839869141264e+01 8.7459999998854556e+00 1 2 0
251 1 5.9618898739699100e-01 1.4903579636516479e+01 1.0206463508294538e+01 1 -2 0
5390 1 2.8400897756411800e+00 1.2902280431021927e+01 9.5046519420454647e+00 2 0 0
3153 1 5.4264987913724019e+00 1.3949223482921276e+01 1.0153154333153633e+01 1 1 1
257 1 6.0799355557242860e+00 1.6798285113161242e+01 9.8089951363211920e+00 -1 -1 0
2215 1 9.9120589145241098e+00 1.3177399894315354e+01 1.0046258813644123e+01 1 -1 1
4986 1 1.0379471632118143e+01 1.5735911039104378e+01 9.1795041298284676e+00 2 1 1
2222 1 9.8498565870276913e+00 1.5572482730360308e+01 -1.2644899162924605e-01 1 1 0
5541 1 2.0921931680104473e+00 1.6961547566626617e+01 9.4230890949399253e+00 -1 1 0
3271 1 4.1149956060092530e+00 1.8093257961805087e+01 1.0901520004471449e+01 0 -1 1
1862 1 9.3999278901939700e+00 1.9690257509521675e+01 9.0504089169750408e+00 -1 -1 0
3474 1 9.8877082747582667e-02 8.7832458684940686e+00 6.3643270466238464e+00 0 -2 0
3910 1 1.1423121367796054e+00 1.3443054643926409e+01 -7.2267138137877374e-01 1 -2 1
3270 1 1.1795290048797259e+01 8.0910138222501331e+00 2.2132871050640324e+00 -3 2 0
314 1 1.1813700429670970e+01 2.0905014626663299e+01 1.0132248185878057e+01 1 -1 0
3968 1 1.1817699848126596e+01 2.4301331510259054e+01 -2.5725889107286859e-01 1 -1 1
5106 1 1.2480373619134875e-01 1.8952194021641379e+01 9.4713739197158713e+00 0 3 0
5091 1 1.2252801424993002e+01 4.2369755417785591e+00 1.0251113914115455e+01 2 1 1
6365 1 1.0229070621480707e-01 8.9165487563554606e+00 2.7929540874253016e+00 0 2 1
1407 1 1.1779873915904671e+01 2.4423393995852567e+01 2.2387805441451709e+00 2 -3 1
31 1 7.4175009792857356e+00 1.9217539037654774e-02 2.8297561058664207e+00 1 1 1
263 1 8.8345779492243626e+00 1.8276572680100891e+01 -8.8108804810657659e-01 0 2 0
3409 1 1.5301158153452790e+00 1.2411636945000810e+00 1.3546934694227950e+01 0 0 0
513 1 4.1620496261570255e+00 1.8326709665910483e+00 1.2719028054347721e+01 0 0 1
323 1 8.1300024658380678e+00 1.1216263745131356e+00 1.3148105015334810e+01 1 3 0
1855 1 9.3051270046487957e+00 3.3759472032493281e+00 1.4006307267719794e+01 0 -1 0
3339 1 4.2883377156477014e+00 1.6744763745883451e+00 2.3536378565698282e+01 3 2 1
492 1 3.2082352786804109e+00 6.2272336742476391e+00 1.2583568396888511e+01 1 0 1
3605 1 7.6742795430898025e-01 5.4096274884393223e+00 1.3137294837318683e+01 3 1 0
2072 1 5.0230601155067554e+00 4.3224498881244040e+00 1.3635749291089660e+01 0 0 0
1481 1 7.6446559582823470e+00 5.2668371970493402e+00 1.3334923045304730e+01 0 0 0
5286 1 8.4820453563986185e+00 7.8655840249333311e+00 1.3720087792196153e+01 1 1 0
6366 1 2.0334926088414131e+00 1.0306592505072468e+01 1.2904778011667387e+01 1 -1 1
5183 1 4.1948620667467607e+00 8.7825985265954518e+00 1.3570310667109119e+01 2 -1 0
1416 1 6.4997432534044304e+00 9.7981294606942360e+00 1.2535715840809651e+01 -1 1 1
5168 1 7.5669493988044696e+00 1.2131115287081798e+01 1.3924173385522133e+01 1 0 0
453 1 1.0966682023860209e+01 8.5642067247169322e+00 1.2915591242702160e+01 2 0 0
28 1 1.1486390914335153e+01 1.1137736768075950e+01 1.3626623240146445e+01 3 -2 0
3173 1 3.0458248265923236e+00 1.2906298240605061e+01 1.3824304692226058e+01 1 1 1
3254 1 1.1548288010499885e+00 1.4761270741715888e+01 1.2831499733001646e+01 1 1 1
1806 1 5.6872132202645309e+00 1.3840969015492490e+01 1.2896123974995859e+01 2 0 0
6712 1 6.3410528238721398e+00 1.6335395964730623e+01 1.3845595189590863e+01 -1 0 0
4816 1 9.8866669425391720e+00 1.3124407369397430e+01 1.2793289611117709e+01 0 1 1
3454 1 1.0671280889052497e+01 1.5368416864369763e+01 1.4005504188278557e+01 -1 1 1
5579 1 1.3645217684908140e+00 1.7405111762544689e+01 1.3979740351395961e+01 0 1 0
6438 1 4.1258307259380462e+00 1.8124592020712960e+01 1.3816036143263391e+01 1 1 1
3267 1 8.7886608111447657e+00 1.7302154890678775e+01 1.3380201574225623e+01 1 -1 1
4856 1 9.4468322754743159e+00 1.9666319740024829e+01 1.4125430020451958e+01 -1 0 1
1613 1 3.1982992993169828e+00 2.2524366616776245e+01 1.2638825851413316e+01 0 0 1
1721 1 6.0636148546952140e-01 2.2012518707953991e+01 1.3200188978766782e+01 1 -2 0
6451 1 4.9236781501133775e+00 2.0699079177857602e+01 1.3401527808941371e+01 1 0 1
511 1 7.6774860143151971e+00 2.1311769632125472e+01 1.3235038462132470e+01 -2 -2 1
1494 1 7.8871765750362126e+00 2.4094218664622524e+01 1.3681984375681767e+01 1 1 1
615 1 1.5514053909247782e+00 1.1961073582566126e+00 1.6212085027325990e+01 0 0 1
1554 1 2.5044569375198851e+00 3.6699893829481205e+00 1.6930097507633814e+01 1 2 1
3513 1 7.0585615422688797e+00 2.8092833525353185e+00 1.7203184930949639e+01 0 2 0
1369 1 9.6534158870463393e+00 3.6386962340345748e+00 1.6630252700977987e+01 2 2 0
3539 1 1.1266039401213380e+01 1.7884934978157998e+00 1.7527329203148089e+01 1 1 0
3104 1 1.6355063454111203e+00 7.5089114197929181e+00 1.7212234938576611e+01 2 0 1
5207 1 5.5081835426786696e-01 5.4445845529394328e+00 1.5999376431394730e+01 1 -1 0
3051 1 4.9765363774026197e+00 4.1121894512015000e+00 1.6185227415187359e+01 1 1 1
1750 1 6.0088732795470774e+00 6.5074177255322052e+00 1.6954099581297736e+01 0 1 0
5038 1 8.6870196297068798e+00 7.7060202379739851e+00 1.6533064188500699e+01 2 1 1
3085 1 1.0499774555529340e+01 6.0543435093345401e+00 1.7063925152401488e+01 -1 2 1
6522 1 1.0056650822030996e+01 6.0413901153198282e+00 1.9754362035402309e+01 1 2 1
610 1 1.1975985772758211e+01 4.3495306592103740e+00 2.3633337159942531e+01 3 0 0
1600 1 4.0686671872160449e+00 8.3820446568220657e+00 1.6295759138225915e+01 2 0 1
2196 1 1.5075916935200548e+00 2.4315526849880193e+01 2.0117865517223194e+01 0 0 1
3274 1 4.7133410027076117e+00 1.1073402649651786e+01 1.7232899781022084e+01 1 -1 0
1998 1 7.1970579920276556e+00 1.2024347870414413e+01 1.6760804691599859e+01 0 -1 0
2345 1 4.5194028124225767e+00 1.1122444964562728e+01 1.9786006312500149e+01 1 0 0
6516 1 9.2258604993123488e+00 1.0314270803379699e+01 1.7345450563965855e+01 2 -2 1
1520 1 1.1675691182767663e+01 1.1323991839675701e+01 1.6248057274058052e+01 2 1 1
1813 1 9.2635919380304834e+00 1.0535022381747876e+01 1.9934107463061331e+01 1 0 0
5331 1 2.5228715007602056e+00 1.2589385063341986e+01 1.6264847457341265e+01 -1 -1 0
3434 1 3.6291211170224482e+00 1.5018884136467467e+01 1.7154652587404769e+01 1 -1 1
6436 1 3.6877018598633908e+00 1.5577012590305113e+01 1.9835013002674351e+01 0 -2 1
5170 1 8.1988053343369494e+00 1.4680403950487630e+01 1.7706341765761827e+01 1 0 1
1439 1 6.1136285418296437e+00 1.6124462495323343e+01 1.6586668781038412e+01 -1 0 1
5107 1 1.0597057513299720e+01 1.5459520183402935e+01 1.6797517249397256e+01 -1 0 1
3763 1 1.9329631176093467e+00 1.7109286392837557e+01 1.6694484866420549e+01 1 -2 0
6558 1 2.4525213269362052e+00 2.0218797979066242e+01 1.6893711394416993e+01 0 0 1
2246 1 2.5066383431420847e+00 1.9894934068354310e+01 1.9568527489976102e+01 1 3 0
5513 1 6.8886350406453021e+00 1.8926715842508099e+01 1.6926462992054585e+01 2 0 0
4881 1 6.9715046625528956e+00 1.9086035240355468e+01 1.9572609196539112e+01 1 1 1
1486 1 1.1125096872695591e+01 1.7984542864719874e+01 1.7520099914318870e+01 -2 2 1
4707 1 9.3572835801393328e+00 1.9771009232098955e+01 1.6780222742727204e+01 1 -1 1
5564 1 4.9077980633493390e-01 2.1811867308494840e+01 1.6089265797231267e+01 0 1 0
1500 1 3.1656070983361206e+00 2.2352601068397728e+01 2.3287079045004297e+01 4 0 0
3568 1 1.3969916122108881e+00 2.4119014071824491e+01 1.7351816971358136e+01 2 1 0
4725 1 5.1712296184614184e+00 2.1217083231965084e+01 1.6105465295962073e+01 0 1 1
4762 1 6.0331413726930467e+00 2.3618528482274979e+01 1.7507614599442128e+01 1 0 1
1754 1 8.4417316287960418e+00 2.4191443128712780e+01 1.6337648201541576e+01 -1 1 0
3292 1 5.7883767709374085e+00 2.3628244414777878e+01 1.9973140604034288e+01 1 -1 0
3337 1 1.0077930678670533e+01 2.2611337984582544e+01 1.9828849672595808e+01 0 1 1
3164 1 1.0348480529697618e+01 2.2491418326246190e+01 1.7211460134985622e+01 1 -1 1
2176 1 2.6289492476945648e+00 3.0843699042222106e+00 1.9756386414094024e+01 3 0 0
2142 1 3.5889988747194903e+00 1.5932266978268514e+01 2.3844982343096909e+01 1 1 0
1446 1 6.8490702761680531e+00 2.5135837026114576e+00 1.9923583822840214e+01 3 -2 1
1910 1 4.4035585364671546e+00 1.6813549870478979e+00 2.0613707476397401e+01 1 1 0
6518 1 1.1907850367031884e+01 4.1403357625801531e+00 2.0676456674310518e+01 1 1 1
2140 1 7.9904883326079643e+00 2.1634263344233922e+01 2.3418209098284024e+01 1 1 1
5076 1 8.7183207934396574e+00 6.5396706375564440e-01 2.0846210312358476e+01 0 1 0
6737 1 1.1232475636242400e+01 1.3806046354642909e+00 2.0205401423773438e+01 0 3 0
6561 1 5.9696929408949879e+00 6.2591887465387644e-02 1.6318914992769699e+01 0 1 1
1652 1 2.8602930946808209e+00 6.1810476571341875e+00 2.3604226960745997e+01 0 1 1
3237 1 1.5340745458143052e+00 7.6151479064691143e+00 1.9925325873154765e+01 -1 1 0
6644 1 3.2596088527962377e+00 5.9751138714312644e+00 2.0749262680521262e+01 1 1 0
1413 1 3.4088897880954190e+00 2.2413258025232548e+01 2.0533992296793517e+01 0 2 1
558 1 5.9444906927023942e+00 7.0643338671364999e+00 1.9689791059009586e+01 -1 1 1
5370 1 7.6635589481093662e+00 5.1384763288987942e+00 2.0847288522009475e+01 0 1 0
1877 1 7.5231388943573769e+00 5.2911190522400213e+00 2.3520991724491413e+01 0 0 0
2167 1 1.2013140838576971e+01 2.0795346520498867e+01 2.0766773130689071e+01 -2 1 0
5238 1 2.8783843123380198e-01 1.2344512127440012e+01 1.9999454248508034e+01 3 0 0
6636 1 1.7336824911432041e+00 1.0390859611136525e+01 2.3447669155613909e+01 0 -1 1
6521 1 1.9899014704389171e+00 1.0468203700558579e+01 2.0630763839729909e+01 2 0 1
440 1 1.1646322954007623e+01 2.0835215037141992e+01 1.2956881252411941e+01 3 -1 0
2322 1 6.6839528173097973e+00 9.7475844928425239e+00 2.0352225232113156e+01 0 0 1
14 1 8.9016211653259294e+00 9.5717018110755547e-01 2.3537586329707292e+01 -1 0 0
2173 1 1.0839740939243553e+01 8.1914980690886132e+00 2.0824235858449320e+01 1 -2 0
2025 1 1.3205157603157798e+00 1.4982048523094583e+01 2.0551214394965854e+01 2 -1 0
17 1 1.1190258598844836e+00 1.4592197903912096e+01 2.3233880393139469e+01 0 0 0
5216 1 5.4167907722120940e+00 1.3770382390024276e+01 2.3536812570870016e+01 0 -3 0
2256 1 7.8596894682898375e+00 1.4782519097158982e+01 2.0359387973061366e+01 2 2 1
3079 1 5.2330231558559683e+00 1.3741168110887875e+01 2.0827721508619874e+01 -1 0 1
3372 1 9.8105178628061172e+00 1.2836069723392107e+01 2.1024028009921661e+01 -2 -3 1
5198 1 8.6831380849005964e+00 1.7198658844099452e+01 2.3480158253549106e+01 3 3 0
207 1 7.6418506562571213e+00 2.1712559555939201e+01 2.0711885530810203e+01 1 1 0
1863 1 4.4351113761894627e+00 1.8433012652250611e+01 2.3030689642655510e+01 -3 1 0
5003 1 4.2314816639405315e+00 1.7982178314732490e+01 2.0456072032839813e+01 0 2 1
2198 1 1.8894740237727964e-01 1.1700043300719404e+01 1.7286609972939843e+01 -1 3 0
6428 1 1.2279430837519948e+01 1.3616898231845825e+01 2.0560987663910009e+01 1 0 1
1420 1 1.0856347777896703e+01 1.8150341300006037e+01 2.0211672947659711e+01 2 2 1
3940 1 8.4413734667002789e+00 1.7463928035849364e+01 2.0883563434462214e+01 1 0 1
1506 1 6.6738911562794394e+00 9.5223990527923821e+00 2.3230161993141188e+01 -1 2 1
195 1 1.0963574643054251e+01 7.9474904597953770e+00 2.3678161919061008e+01 1 0 0
4965 1 7.8732192027221659e+00 1.4489375595866292e+01 2.3838682187820893e+01 1 2 1
3588 1 6.0142715008656467e+00 9.6757656890382668e-03 1.3614897178362195e+01 -3 2 0
602 1 9.2478860004382586e+00 1.0214473793099431e+01 2.3681365262186493e+01 1 0 0
2094 1 1.1428235790003303e+01 1.8126978294498951e+01 2.3788312492053191e+01 -2 0 0
2009 1 1.1920554256401587e+01 4.1211347798967859e+00 1.3012654276850114e+01 0 2 0
5491 1 5.7485787818022773e+00 2.3166635169156184e+01 2.3246074112929982e+01 2 -1 0
4778 1 1.1399486822571587e+01 1.6459533920644720e+00 2.3463779310050455e+01 2 0 1
6596 1 1.3624264697192245e-02 2.9652186943914844e+00 1.2532917753871484e+01 -1 -1 1
2108 1 6.9841899496532012e+00 2.5807578521016614e+00 2.3685104470227657e+01 2 -1 0
623 2 0.0000000000000000e+00 2.8417180249513345e+00 2.6728486684410129e+01 0 0 0
625 2 0.0000000000000000e+00 0.0000000000000000e+00 2.6728486684410129e+01 0 0 0
627 2 1.2305000000000001e+00 7.1042950623783474e-01 2.6728486684410129e+01 0 0 0
634 2 1.2305000000000001e+00 2.1312885187134998e+00 2.6728486684410129e+01 0 0 0
636 2 2.4610000000000003e+00 2.8417180249513345e+00 2.6728486684410129e+01 0 0 0
638 2 2.4610000000000003e+00 0.0000000000000000e+00 2.6728486684410129e+01 0 0 0
640 2 3.6915000000000004e+00 7.1042950623783474e-01 2.6728486684410129e+01 0 0 0
655 2 3.6914999999999996e+00 2.1312885187134998e+00 2.6728486684410129e+01 0 0 0
5690 1 9.8230583673191010e+00 5.5767092963522877e+00 2.4529876628569465e+01 1 0 1
657 2 4.9220000000000006e+00 2.8417180249513332e+00 2.6728486684410129e+01 0 0 0
659 2 4.9220000000000006e+00 0.0000000000000000e+00 2.6728486684410129e+01 0 0 0
661 2 6.1524999999999999e+00 7.1042950623783407e-01 2.6728486684410129e+01 0 0 0
684 2 6.1524999999999999e+00 2.1312885187134989e+00 2.6728486684410129e+01 0 0 0
686 2 7.3829999999999991e+00 2.8417180249513345e+00 2.6728486684410129e+01 0 0 0
688 2 7.3829999999999991e+00 0.0000000000000000e+00 2.6728486684410129e+01 0 0 0
3371 1 4.3024549557654268e+00 1.1142802638576111e+01 2.4221325349588426e+01 -2 1 1
690 2 8.6134999999999984e+00 7.1042950623783407e-01 2.6728486684410129e+01 0 0 0
721 2 8.6134999999999984e+00 2.1312885187135002e+00 2.6728486684410129e+01 0 0 0
723 2 9.8440000000000012e+00 2.8417180249513332e+00 2.6728486684410129e+01 0 0 0
725 2 9.8440000000000012e+00 0.0000000000000000e+00 2.6728486684410129e+01 0 0 0
727 2 1.1074500000000002e+01 7.1042950623783330e-01 2.6728486684410129e+01 0 0 0
766 2 1.1074500000000002e+01 2.1312885187135002e+00 2.6728486684410129e+01 0 0 0
628 2 0.0000000000000000e+00 7.1042950623783341e+00 2.6728486684410129e+01 0 0 0
630 2 0.0000000000000000e+00 4.2625770374269996e+00 2.6728486684410129e+01 0 0 0
632 2 1.2305000000000001e+00 4.9730065436648339e+00 2.6728486684410129e+01 0 0 0
647 2 1.2305000000000001e+00 6.3938655561404980e+00 2.6728486684410129e+01 0 0 0
649 2 2.4610000000000003e+00 7.1042950623783341e+00 2.6728486684410129e+01 0 0 0
651 2 2.4610000000000003e+00 4.2625770374269996e+00 2.6728486684410129e+01 0 0 0
653 2 3.6914999999999996e+00 4.9730065436648339e+00 2.6728486684410129e+01 0 0 0
676 2 3.6914999999999996e+00 6.3938655561404980e+00 2.6728486684410129e+01 0 0 0
678 2 4.9220000000000006e+00 7.1042950623783341e+00 2.6728486684410129e+01 0 0 0
680 2 4.9220000000000006e+00 4.2625770374269978e+00 2.6728486684410129e+01 0 0 0
682 2 6.1524999999999999e+00 4.9730065436648339e+00 2.6728486684410129e+01 0 0 0
713 2 6.1524999999999999e+00 6.3938655561404980e+00 2.6728486684410129e+01 0 0 0
715 2 7.3830000000000009e+00 7.1042950623783341e+00 2.6728486684410129e+01 0 0 0
717 2 7.3829999999999991e+00 4.2625770374269996e+00 2.6728486684410129e+01 0 0 0
719 2 8.6135000000000002e+00 4.9730065436648339e+00 2.6728486684410129e+01 0 0 0
758 2 8.6135000000000002e+00 6.3938655561404980e+00 2.6728486684410129e+01 0 0 0
760 2 9.8440000000000012e+00 7.1042950623783341e+00 2.6728486684410129e+01 0 0 0
762 2 9.8440000000000012e+00 4.2625770374270004e+00 2.6728486684410129e+01 0 0 0
764 2 1.1074500000000002e+01 4.9730065436648339e+00 2.6728486684410129e+01 0 0 0
805 2 1.1074500000000002e+01 6.3938655561404980e+00 2.6728486684410129e+01 0 0 0
3215 1 4.5840609816151312e-01 1.2344382948843013e+01 2.4437210668241594e+01 1 1 0
5483 1 2.5159179067619664e+00 1.9768354219554372e+01 2.4283389460006227e+01 0 2 0
641 2 0.0000000000000000e+00 1.1366872099805333e+01 2.6728486684410129e+01 0 0 0
643 2 0.0000000000000000e+00 8.5251540748539991e+00 2.6728486684410129e+01 0 0 0
645 2 1.2305000000000001e+00 9.2355835810918343e+00 2.6728486684410129e+01 0 0 0
668 2 1.2305000000000001e+00 1.0656442593567498e+01 2.6728486684410129e+01 0 0 0
670 2 2.4610000000000003e+00 1.1366872099805333e+01 2.6728486684410129e+01 0 0 0
672 2 2.4610000000000003e+00 8.5251540748539991e+00 2.6728486684410129e+01 0 0 0
674 2 3.6915000000000004e+00 9.2355835810918343e+00 2.6728486684410129e+01 0 0 0
705 2 3.6914999999999996e+00 1.0656442593567499e+01 2.6728486684410129e+01 0 0 0
1095 2 1.1074500000000002e+01 2.2023314693372832e+01 3.3333513315592015e+01 0 0 0
707 2 4.9220000000000006e+00 1.1366872099805333e+01 2.6728486684410129e+01 0 0 0
709 2 4.9220000000000006e+00 8.5251540748539991e+00 2.6728486684410129e+01 0 0 0
711 2 6.1524999999999999e+00 9.2355835810918343e+00 2.6728486684410129e+01 0 0 0
750 2 6.1524999999999999e+00 1.0656442593567499e+01 2.6728486684410129e+01 0 0 0
752 2 7.3829999999999991e+00 1.1366872099805333e+01 2.6728486684410129e+01 0 0 0
754 2 7.3830000000000009e+00 8.5251540748539991e+00 2.6728486684410129e+01 0 0 0
3661 1 1.1643503668422515e+00 2.4209571688795926e+01 2.4077656101283655e+01 -2 -1 0
1076 2 7.3830000000000009e+00 2.4154603212086336e+01 3.3333513315592015e+01 0 0 0
756 2 8.6134999999999984e+00 9.2355835810918343e+00 2.6728486684410129e+01 0 0 0
797 2 8.6134999999999984e+00 1.0656442593567498e+01 2.6728486684410129e+01 0 0 0
799 2 9.8440000000000012e+00 1.1366872099805333e+01 2.6728486684410129e+01 0 0 0
801 2 9.8440000000000012e+00 8.5251540748539956e+00 2.6728486684410129e+01 0 0 0
803 2 1.1074500000000002e+01 9.2355835810918343e+00 2.6728486684410129e+01 0 0 0
844 2 1.1074500000000002e+01 1.0656442593567498e+01 2.6728486684410129e+01 0 0 0
846 2 1.2304999999999998e+01 1.1366872099805333e+01 2.6728486684410129e+01 0 0 0
662 2 0.0000000000000000e+00 1.5629449137232333e+01 2.6728486684410129e+01 0 0 0
664 2 0.0000000000000000e+00 1.2787731112280996e+01 2.6728486684410129e+01 0 0 0
666 2 1.2305000000000001e+00 1.3498160618518829e+01 2.6728486684410129e+01 0 0 0
697 2 1.2305000000000001e+00 1.4919019630994494e+01 2.6728486684410129e+01 0 0 0
699 2 2.4610000000000003e+00 1.5629449137232328e+01 2.6728486684410129e+01 0 0 0
701 2 2.4610000000000003e+00 1.2787731112280996e+01 2.6728486684410129e+01 0 0 0
703 2 3.6915000000000004e+00 1.3498160618518829e+01 2.6728486684410129e+01 0 0 0
742 2 3.6915000000000004e+00 1.4919019630994494e+01 2.6728486684410129e+01 0 0 0
1055 2 4.9220000000000006e+00 2.4154603212086325e+01 3.3333513315592015e+01 0 0 0
744 2 4.9220000000000006e+00 1.5629449137232333e+01 2.6728486684410129e+01 0 0 0
746 2 4.9220000000000006e+00 1.2787731112280996e+01 2.6728486684410129e+01 0 0 0
748 2 6.1524999999999990e+00 1.3498160618518829e+01 2.6728486684410129e+01 0 0 0
789 2 6.1524999999999990e+00 1.4919019630994494e+01 2.6728486684410129e+01 0 0 0
791 2 7.3829999999999991e+00 1.5629449137232333e+01 2.6728486684410129e+01 0 0 0
793 2 7.3829999999999991e+00 1.2787731112280996e+01 2.6728486684410129e+01 0 0 0
6648 1 1.5070345413075887e+00 1.0319711458303619e+01 3.6098287893497627e+01 1 1 0
1093 2 9.8440000000000012e+00 2.4154603212086336e+01 3.3333513315592015e+01 0 0 0
795 2 8.6135000000000002e+00 1.3498160618518835e+01 2.6728486684410129e+01 0 0 0
836 2 8.6135000000000002e+00 1.4919019630994494e+01 2.6728486684410129e+01 0 0 0
838 2 9.8440000000000012e+00 1.5629449137232328e+01 2.6728486684410129e+01 0 0 0
840 2 9.8440000000000012e+00 1.2787731112280996e+01 2.6728486684410129e+01 0 0 0
842 2 1.1074500000000002e+01 1.3498160618518829e+01 2.6728486684410129e+01 0 0 0
878 2 1.1074500000000002e+01 1.4919019630994494e+01 2.6728486684410129e+01 0 0 0
691 2 0.0000000000000000e+00 1.9892026174659328e+01 2.6728486684410129e+01 0 0 0
693 2 0.0000000000000000e+00 1.7050308149707998e+01 2.6728486684410129e+01 0 0 0
695 2 1.2305000000000001e+00 1.7760737655945832e+01 2.6728486684410129e+01 0 0 0
734 2 1.2305000000000001e+00 1.9181596668421495e+01 2.6728486684410129e+01 0 0 0
736 2 2.4610000000000003e+00 1.9892026174659328e+01 2.6728486684410129e+01 0 0 0
738 2 2.4610000000000003e+00 1.7050308149707998e+01 2.6728486684410129e+01 0 0 0
740 2 3.6914999999999996e+00 1.7760737655945832e+01 2.6728486684410129e+01 0 0 0
781 2 3.6914999999999996e+00 1.9181596668421495e+01 2.6728486684410129e+01 0 0 0
3505 1 9.8859512944617300e+00 1.2748500860257176e+01 2.4061510288363316e+01 2 1 1
1092 2 8.6134999999999984e+00 2.3444173705848499e+01 3.3333513315592015e+01 0 0 0
783 2 4.9220000000000006e+00 1.9892026174659328e+01 2.6728486684410129e+01 0 0 0
785 2 4.9220000000000006e+00 1.7050308149707998e+01 2.6728486684410129e+01 0 0 0
787 2 6.1524999999999999e+00 1.7760737655945832e+01 2.6728486684410129e+01 0 0 0
828 2 6.1524999999999999e+00 1.9181596668421495e+01 2.6728486684410129e+01 0 0 0
830 2 7.3829999999999991e+00 1.9892026174659328e+01 2.6728486684410129e+01 0 0 0
832 2 7.3830000000000009e+00 1.7050308149707998e+01 2.6728486684410129e+01 0 0 0
1078 2 8.6135000000000002e+00 2.2023314693372832e+01 3.3333513315592015e+01 0 0 0
834 2 8.6134999999999984e+00 1.7760737655945832e+01 2.6728486684410129e+01 0 0 0
870 2 8.6135000000000002e+00 1.9181596668421495e+01 2.6728486684410129e+01 0 0 0
872 2 9.8440000000000012e+00 1.9892026174659335e+01 2.6728486684410129e+01 0 0 0
874 2 9.8440000000000012e+00 1.7050308149707998e+01 2.6728486684410129e+01 0 0 0
876 2 1.1074500000000002e+01 1.7760737655945835e+01 2.6728486684410129e+01 0 0 0
904 2 1.1074500000000002e+01 1.9181596668421495e+01 2.6728486684410129e+01 0 0 0
908 2 1.2304999999999998e+01 1.7050308149707998e+01 2.6728486684410129e+01 0 0 0
728 2 0.0000000000000000e+00 2.4154603212086325e+01 2.6728486684410129e+01 0 0 0
730 2 0.0000000000000000e+00 2.1312885187134999e+01 2.6728486684410129e+01 0 0 0
732 2 1.2304999999999993e+00 2.2023314693372832e+01 2.6728486684410129e+01 0 0 0