LAMMPS data file via write_data, version 16 Mar 2018, timestep = 100000

6768 atoms
2 atom types

0.0000000000000000e+00 4.9219999999999999e+01 xlo xhi
0.0000000000000000e+00 4.9019635930410494e+01 ylo yhi
-1.5029700363479748e-01 6.0212297003635761e+01 zlo zhi

Masses

1 18.015
2 12.01

Atoms # atomic

103 1 3.6982694846709268e+00 1.8779073563147999e+00 2.1755542834623918e+00 1 -1 0
3570 1 3.2194336460934980e-01 4.0565266496612447e+00 2.4850285962646583e+00 0 1 0
5309 1 2.8460287716623189e+00 4.0143093654064383e+00 3.5328934508933694e+00 -2 1 0
1825 1 1.8850889946047369e+00 1.6252569959213501e+00 9.6106752188205774e-02 1 1 0
5409 1 4.8608864620817371e-02 1.1861609162593778e+00 2.3913795945446541e+00 3 -2 0
6606 1 1.0744997682817235e+01 3.4995309247532860e+00 2.2962858729496975e+00 -1 1 1
3302 1 8.2425038939980393e+00 3.9958164580635742e+00 3.5423909032798142e+00 0 0 0
3355 1 1.1018387087029888e+01 7.1660693566511258e-01 2.9138252020759112e+00 1 1 1
1378 1 2.9906589556806904e+00 7.6721930738918385e+00 2.2075060199771506e+00 0 0 1
3720 1 6.4113264360235422e-01 5.5671668583090721e+00 -1.4383752537091729e-01 1 0 0
5487 1 6.3703722830968657e+00 4.4891896006388432e+00 1.8735496844191166e+00 0 0 0
3928 1 4.8216390551456927e+00 6.0637694320622986e+00 3.1355017720282854e+00 -1 0 1
34 1 7.4666698941984713e+00 7.0301881583911712e+00 4.7227349817950526e-01 1 0 0
1714 1 9.4655025818275522e+00 4.7633477964827540e+00 1.5301566090667806e-01 1 -1 1
2128 1 1.1855619903142699e+01 7.6758035622641829e+00 3.2249734890341628e+00 1 0 0
5481 1 7.7441420332180746e+00 9.3778085846002650e+00 1.6451222467908604e+00 0 -1 0
2027 1 5.0598382825387667e+00 1.0214920144719446e+01 2.2483811164031486e+00 0 0 0
471 1 9.1922823046993525e+00 8.4585795617217840e+00 3.8389788447218787e+00 1 3 0
1890 1 8.4989983017332804e+00 1.1315070040182793e+01 1.8530325684806004e-02 1 1 0
3295 1 1.1332128542865978e+00 1.3570106968664057e+01 2.8505284741753201e+00 1 1 1
265 1 2.4891368764850976e+00 1.5374835255659384e+01 1.7147084301126020e-01 0 1 0
5022 1 6.8082708476200446e+00 1.5679817394188868e+01 2.2425312191588045e+00 0 0 1
2072 1 6.8987319535205662e+00 1.3429573891166111e+01 5.6940673765395589e-01 0 0 0
3418 1 4.4789032337175438e+00 1.3100838950546438e+01 1.1072779217210913e+00 2 -1 0
4814 1 1.0820030202121384e+01 1.3198261402212179e+01 2.2601006291537682e+00 1 -1 1
100 1 9.0528129423552404e+00 1.4560005272282940e+01 3.6126657711394552e+00 1 2 0
3313 1 2.6679469063259043e+00 1.6456881747231321e+01 2.5611217087872395e+00 1 0 1
5617 1 3.8779407408863844e+00 1.8799418564648558e+01 1.9189147034744525e+00 0 1 0
2009 1 1.7118690646444179e-01 1.7932038201063254e+01 2.9680810375142022e+00 -1 1 0
6466 1 5.2872825151646543e+00 2.0197403658448852e+01 3.7064448082298709e+00 0 1 1
5657 1 7.9147034979062694e+00 1.9556582107064145e+01 3.1636674264180566e+00 0 0 1
3404 1 8.3511261116276145e+00 1.7718847531990345e+01 4.7342838007237931e-01 0 -2 1
5248 1 9.9488267076680241e+00 1.9977877517142691e+01 5.6916318140049726e-01 0 -1 0
3131 1 1.1418244467396352e+01 1.9967369948262167e+01 3.2503168394548587e+00 0 1 1
1807 1 8.8195615928788029e-01 2.3303679488616044e+01 2.8141312046143203e+00 0 1 0
6506 1 3.9544692993029273e+00 2.2308103935235803e+01 3.4353941466391409e+00 1 0 1
466 1 1.8976344547378672e+00 2.0841399604176672e+01 1.1229950558681725e+00 0 0 1
5411 1 8.1151812744080409e+00 2.3688872111850870e+01 1.4334630442347673e+00 0 1 1
191 1 5.4051626268917197e+00 2.3382123388691223e+01 1.4966733888797472e+00 1 0 1
6381 1 9.2703389311722635e+00 2.2316061763646537e+01 3.5257365949542487e+00 1 0 1
3627 1 1.1449025730342891e+01 2.3709301869465921e+01 2.5414459653376866e+00 0 0 0
5340 1 3.4369905327015480e+00 4.1426010196896318e-01 5.5152145354380391e+00 0 1 0
5476 1 2.7013884383990550e+00 3.9473533805897101e+00 6.2733835294532465e+00 2 0 0
3784 1 1.5146022795366108e+00 1.4519074228043902e+00 7.3224667714867619e+00 0 1 0
4947 1 5.7515158491436207e+00 1.4431739860468031e+00 6.3733863423897557e+00 0 0 1
3546 1 5.1487306619333673e+00 3.8428542805114194e+00 7.3153638855183400e+00 0 -1 1
3841 1 1.0034562908934006e+01 2.2669807101805119e+00 6.9241905703166440e+00 0 1 0
3693 1 8.2200713977127915e+00 1.8421840826185958e+00 5.1040599948278311e+00 2 0 0
3516 1 1.2121231071151627e+01 4.7470228466071673e-01 6.9927771465379553e+00 1 1 0
513 1 1.7860841505566429e+00 6.2910794274200095e+00 7.4234447535012471e+00 0 -1 1
1805 1 1.2866889924888625e-01 7.7826530388375952e+00 5.5474008716559409e+00 1 0 0
3129 1 5.6531708024976224e+00 5.8641439513342144e+00 5.8055100410412415e+00 0 1 1
6601 1 4.2338419653185193e+00 8.0244717646807420e+00 6.9090985485553551e+00 0 0 1
567 1 1.0569066271661562e+01 4.8115889690513454e+00 6.4085251878820655e+00 0 1 1
1860 1 8.2131676481449958e+00 6.5184846608366911e+00 5.3066541339765667e+00 -1 -1 0
6376 1 2.1953398003607076e+00 9.2653129889439398e+00 4.7453702359513654e+00 1 0 1
3060 1 2.5511690429567562e+00 1.2111274817216547e+01 4.8221606970539508e+00 -1 -1 1
6744 1 5.5754996934565080e+00 1.0318102163585316e+01 5.4038973981860572e+00 1 0 1
290 1 1.1539215065901184e+01 1.1375696406887123e+01 5.9895826634297737e+00 -1 -1 0
1404 1 9.0900002078891315e+00 1.0159436518950208e+01 6.1170813877164276e+00 0 0 1
3275 1 2.7146453346530754e+00 1.2554267284909709e+01 7.4378272414597539e+00 0 1 1
6519 1 3.4169528948207817e+00 1.5522315027276678e+01 7.2730303730072556e+00 0 0 1
1522 1 5.0427727597953487e+00 1.3084743189093391e+01 4.1369272813421514e+00 1 0 0
4772 1 7.7506582660310750e+00 1.2842624634874918e+01 5.1813509490352105e+00 1 0 1
74 1 4.2093741182115583e+00 1.5547205580749743e+01 4.7096484672891368e+00 0 0 1
5576 1 6.7011413615605449e+00 1.6215042670029895e+01 5.8337957693628466e+00 1 0 1
6676 1 8.1874944704754835e+00 1.4689254834550447e+01 7.6132890063239067e+00 1 0 1
162 1 1.1418674418566104e+01 1.4394769350498031e+01 5.7166558227974162e+00 1 0 0
3284 1 3.4629208252187511e+00 1.9770487847106644e+01 5.9236985349546174e+00 0 0 1
5547 1 1.1493383196921847e+00 1.8503081772997760e+01 5.5085118282018231e+00 0 0 0
448 1 1.0002423434518031e+00 1.6353922715035250e+01 7.4475588907493568e+00 1 0 0
43 1 6.1086615541082683e+00 1.8619983005008741e+01 6.9581404249141228e+00 0 -1 0
3255 1 8.4984091499209722e+00 1.7434127990054705e+01 4.5400399062749175e+00 1 0 1
1342 1 1.0325818513724004e+01 1.8922618738509261e+01 6.6081840355866195e+00 -1 -2 1
468 1 1.1732012715891054e+01 1.7191831831715476e+01 4.2886563103848410e+00 1 0 0
3648 1 1.0393260577648572e-01 2.3120679422649932e+01 5.2802404315700562e+00 2 0 0
3047 1 3.2961605772491569e+00 2.1899654097705895e+01 7.7038051705683257e+00 0 0 1
2101 1 2.6977404898832087e+00 2.3982765868323074e+01 5.9160509861098403e+00 0 2 0
3253 1 5.9365865527147346e+00 2.3762840819226668e+01 5.2095832423578994e+00 0 0 1
3200 1 7.9743743013049038e+00 2.0501806791162071e+01 7.6717431084181404e+00 1 0 0
2339 1 8.1282997200269218e+00 2.2874299799179607e+01 6.2179173870334727e+00 -1 0 1
2159 1 2.8593272274712040e+00 3.3301184411756037e+00 9.7410716543399865e+00 -1 0 0
5485 1 4.0394515144431349e+00 7.7857761390459834e-01 1.0752298437448134e+01 0 1 1
5404 1 7.2646655906568141e+00 3.4892405315516145e-01 8.7170444991375593e+00 1 1 0
3472 1 6.2596038790572957e+00 3.4507137747160574e+00 9.9934905239539376e+00 -1 1 1
1640 1 1.0817428482897194e+01 4.9011176072572787e-01 1.0827328142648827e+01 0 1 0
1401 1 9.2359217322080518e+00 2.1456561263339888e+00 9.2724251183824880e+00 0 1 1
1483 1 2.6290778061630551e+00 6.6999490280843244e+00 9.8865187490221373e+00 0 1 1
3467 1 5.0035865915968758e+00 5.8408300910689368e+00 1.0750295927862640e+01 1 0 1
3590 1 5.9533701465924675e+00 7.8842143143882479e+00 9.2109587606096337e+00 1 0 0
3815 1 1.1123269411127380e+01 4.8345488212708068e+00 9.1724920369002181e+00 0 0 0
4801 1 8.9157580654701523e+00 4.7739213783791596e+00 1.0730551458951831e+01 -1 2 1
1533 1 8.4540839828305678e+00 7.1093079016467797e+00 8.3012049084509822e+00 0 1 1
6612 1 2.7758647239595802e+00 9.5231767430692518e+00 9.7763372866259068e+00 0 0 1
384 1 4.8495746758905751e+00 1.1647700794427863e+01 8.2264801672092602e+00 0 0 1
3726 1 4.4153512627404874e+00 1.0345973021234620e+01 1.1610123571716139e+01 0 1 0
5273 1 7.0800062993493400e+00 1.0256913401904386e+01 1.0630227923509299e+01 1 0 0
1536 1 1.1154177896654431e+01 9.2370419270282422e+00 1.0580319079671535e+01 -1 1 1
2271 1 9.2703242857183916e+00 9.6667082627522163e+00 8.9912550265429783e+00 1 0 0
3715 1 1.3632487761641980e+00 1.3452827535233702e+01 1.1921728794589995e+01 1 1 0
5608 1 5.6734790425161030e-01 1.2803367823690268e+01 9.1924694399284945e+00 2 1 0
5652 1 4.5146453890098464e+00 1.5073591403648301e+01 1.0099384419693552e+01 0 0 1
5619 1 6.8818245098856643e+00 1.3320837779891642e+01 9.9239982952505290e+00 0 0 0
1383 1 1.1183731964006043e+01 1.2821279988652606e+01 9.9847305970259956e+00 0 0 1
5420 1 1.0643229506967860e+01 1.4736596251326915e+01 8.0822149832919283e+00 0 0 0
5410 1 7.7896616602713753e-01 1.7534805425982167e+01 9.8230864952991634e+00 1 1 1
110 1 2.2418607390355705e+00 1.9566075494864943e+01 1.0682391317473721e+01 1 0 0
2154 1 5.1248065708513613e+00 1.9211488759595696e+01 1.0610954988368533e+01 0 1 0
258 1 6.2142974078703297e+00 1.7235281193626442e+01 9.4962543271373470e+00 0 1 0
337 1 9.5311551511543211e+00 2.0387493583172482e+01 9.8821357034918833e+00 -1 1 0
3993 1 8.6271419137474670e+00 1.7444935565183524e+01 1.0887696508272084e+01 0 0 1
535 1 1.0813519729059848e+01 1.7294158411397252e+01 8.8668310415846445e+00 0 -1 1
6413 1 1.5123694493601205e+00 2.1913648602367100e+01 9.4927901869685023e+00 0 0 0
5325 1 2.5693105155238820e+00 2.4209331715110309e+01 1.0665257437755944e+01 1 1 0
6599 1 6.3613632490249739e+00 2.4446985177994804e+01 8.1601233126706951e+00 -2 1 0
48 1 5.6138081337649259e+00 2.1628144887916964e+01 9.1599636493500025e+00 0 0 1
1392 1 7.8993589310895800e+00 2.3878650367626602e+01 1.0494797335691830e+01 1 -1 1
5459 1 1.0291070141046292e+01 2.3882215511216430e+01 8.0234313486827862e+00 1 0 0
6550 1 1.1598333011232917e+01 2.1535526778452272e+01 8.3231876656951140e+00 0 -1 1
146 1 1.4056403610474539e+00 1.3112086865900446e-01 1.5701972722369586e+01 1 0 0
17 1 5.4538094794540939e+00 2.4541631972249496e+00 1.2525395509371227e+01 0 0 0
3363 1 7.8487049959790660e+00 2.5094471075931595e+00 1.4107085028241331e+01 0 2 0
3960 1 9.8395718775493748e+00 7.5055331432287475e-01 1.3736655351600380e+01 0 0 1
2129 1 1.2299443697861756e+01 1.8214248843653666e+00 1.4258239806892323e+01 0 0 1
3753 1 1.3540034469512845e+00 7.1010790011892571e+00 1.2518411487884318e+01 0 1 0
3128 1 3.7040608439026803e+00 4.1399323786741062e+00 1.3789667988526478e+01 0 1 0
6595 1 1.9251721099112018e-01 7.1664099606677656e+00 1.5022128256668310e+01 0 0 1
411 1 1.7500044404516841e+00 4.4017782654623723e+00 1.2113311772486250e+01 0 0 0
1575 1 7.6470713139894722e+00 6.4105975835377622e+00 1.4703849802345207e+01 1 0 1
2108 1 5.2433434544601596e+00 6.3186863612388544e+00 1.3257136727895642e+01 0 0 0
5306 1 9.1701217961742536e+00 4.7937458020674901e+00 1.3158178723751018e+01 1 2 1
5535 1 1.1961376676216648e+01 5.3065657442430663e+00 1.3635574734185491e+01 2 2 0
3210 1 3.4788019860910611e+00 8.7424932837597478e+00 1.3611135141907264e+01 1 1 0
216 1 8.9462649569501429e-01 1.0681664879778472e+01 1.4501781161875893e+01 0 0 0
3201 1 2.3405266071657671e+00 1.2220658138709826e+01 1.5930700856682286e+01 -1 0 1
3308 1 7.1443806268205323e+00 8.8686137904383759e+00 1.5319810474531204e+01 1 1 0
3108 1 8.3260332436720468e+00 1.0005491433570331e+01 1.3086303357305555e+01 -1 0 1
6556 1 1.1220943971004576e+01 1.1997052183772075e+01 1.4119291569900197e+01 0 1 1
6442 1 1.0774408440827854e+01 9.4677788723808423e+00 1.3169003884636171e+01 0 0 1
3354 1 4.7515494752856752e-01 1.5989043997682471e+01 1.2096744012084484e+01 1 0 0
6517 1 4.0851852436842000e+00 1.2944688176194507e+01 1.2083384753001111e+01 1 0 1
5408 1 4.7894331210117427e+00 1.3353560300416300e+01 1.4867385549920741e+01 2 1 0
6534 1 5.2579251132220870e+00 1.5940295640047470e+01 1.5289272626124406e+01 0 1 1
1346 1 7.5360738910692291e+00 1.2679682469407011e+01 1.4239399275010225e+01 0 0 1
3141 1 7.6205680968069318e+00 1.4647239300511451e+01 1.2412946068956749e+01 1 0 1
6631 1 1.0651391228818710e+01 1.4186293140033545e+01 1.2217361686419062e+01 2 1 1
5048 1 1.7030460929622566e+00 2.0236974411198034e+01 1.3643523224274256e+01 0 1 1
3137 1 1.9137185454068513e+00 1.7626206803157075e+01 1.4024445253617097e+01 1 0 1
79 1 6.9334017455531498e+00 1.7184360512561994e+01 1.3738414045506961e+01 0 0 1
5438 1 6.3327563114283603e+00 1.9860956682203160e+01 1.2818447326727428e+01 1 -1 0
325 1 8.9537846073069876e+00 1.8208315537077926e+01 1.5168340866861062e+01 1 0 0
2007 1 1.1058177961153733e+01 2.0303641561990819e+01 1.3069824905244241e+01 1 0 1
339 1 1.0831142787019305e+01 1.7518705526980014e+01 1.2591756684127827e+01 0 0 0
1961 1 1.1793905411780100e+01 2.0219816280882718e+01 1.5869545844927963e+01 -1 1 0
330 1 4.1550035932141842e+00 2.3750092168005473e+01 1.2792427378608471e+01 0 0 0
2252 1 4.4171913174133044e+00 2.1347014996136807e+01 1.3717006019288940e+01 -1 1 1
3619 1 8.5655937467481174e+00 2.1477928531983853e+01 1.2223977103038781e+01 0 2 0
5648 1 8.7591139503604900e+00 2.2357893978815163e+01 1.5023771241004301e+01 0 -1 1
1989 1 1.1094515437083658e+01 2.2892066962914988e+01 1.5677184178953462e+01 1 0 0
1781 1 3.4360811597356986e+00 1.5784260868776454e+00 1.7172863165768721e+01 -2 1 0
4973 1 3.2066794388864666e+00 1.8716544173705152e+00 1.9869258184981103e+01 0 1 1
3751 1 8.0121602919401838e+00 2.2303176837058323e+00 1.7317068351697795e+01 1 0 0
3698 1 7.0707336296741765e+00 3.9231316504966687e+00 1.9637715506458587e+01 2 0 0
2195 1 6.0298012989289811e+00 6.0536555379312607e-01 1.6179256706195428e+01 0 0 0
3279 1 1.0814561840709612e+01 3.0400707657569992e+00 1.7691429868944205e+01 1 0 1
2121 1 1.2251496015572513e+01 6.0763194383254693e-01 1.6702723102268937e+01 0 2 0
607 1 3.2516354201491522e+00 4.1128405071371388e+00 1.6259594077358766e+01 0 -1 1
3245 1 6.0229400297766500e-01 4.7687620575849277e+00 1.6449221061541586e+01 0 1 1
2247 1 4.2653453968843857e+00 6.3050296849103331e+00 1.7427388191256217e+01 0 1 1
5552 1 6.9487039446364127e+00 5.5247783974925584e+00 1.7329470251215568e+01 0 1 0
1739 1 8.7690865616947988e+00 7.7044587086759373e+00 1.7865381156880737e+01 1 1 0
5432 1 1.0238389022311145e+00 9.2951558184005840e+00 1.9583587003742640e+01 2 2 1
5213 1 3.4061166912212935e+00 1.0483258105408252e+01 1.9590772942127774e+01 1 -1 1
4901 1 3.9774992356930015e+00 1.0837938226949486e+01 1.7295161151435391e+01 1 1 0
3743 1 4.4644355498023387e+00 8.5553024806309299e+00 1.6265794083813777e+01 -1 1 0
3571 1 1.1164064034603328e+01 1.0950682437480856e+01 1.8626143475202426e+01 1 1 0
1473 1 1.1257248085302498e+01 8.2941801444348187e+00 1.7315606860192432e+01 1 0 1
2270 1 8.2826481650773367e+00 1.0703951145496896e+01 1.8007657754188525e+01 0 0 1
307 1 3.9703777983702571e-01 1.3670098562853173e+01 1.6936802018664590e+01 2 -1 0
1912 1 1.9609991383825600e+00 1.5689254406199174e+01 1.8186125519375004e+01 0 0 0
1745 1 6.2565211627491415e+00 1.2699479479126573e+01 1.7690027836646209e+01 0 1 1
500 1 7.1970057136886556e+00 1.5700903059947819e+01 1.7628257786829199e+01 -1 1 0
1836 1 9.6875810463839489e+00 1.6009090241722774e+01 1.6661907297246088e+01 0 1 0
6661 1 9.1994836521228045e+00 1.3253303464381935e+01 1.6161421939258886e+01 0 -1 1
2183 1 1.3633241312379571e+00 1.9948430224754350e+01 1.8192593056484718e+01 -2 0 0
3146 1 3.3898013428147751e+00 1.7298492448702085e+01 1.6598850266299838e+01 0 2 1
70 1 4.0469934460992176e+00 1.9565784825507297e+01 1.7825402551371813e+01 0 0 0
3087 1 6.5167083006127715e+00 1.8089587766438001e+01 1.8565205413150846e+01 0 0 1
3385 1 7.4792319943626815e+00 2.0278727990884263e+01 1.6589648465980609e+01 0 -2 0
5299 1 1.1203929770565141e+01 1.6723121930670363e+01 1.9177976023557122e+01 1 2 0
5004 1 1.0256767336318864e+01 1.9074706905751007e+01 1.8119546543592886e+01 1 0 1
3251 1 3.2154041215487292e+00 2.4081756163158250e+01 1.7691239038382307e+01 0 -1 0
3282 1 5.2853628579885426e+00 2.1134058435486523e+01 1.6159897689491086e+01 1 0 0
5646 1 6.1525071567730603e+00 2.3487650505656081e+01 1.9764177993804175e+01 1 0 0
2163 1 5.6136034270356303e+00 2.3570410436955299e+01 1.6927470191328840e+01 1 0 0
3033 1 1.1366549552400317e+01 2.4289345111250395e+01 1.7873437631898227e+01 0 1 1
5668 1 5.6181157856359698e-01 1.6493155093016758e+00 2.1057401145627775e+01 0 0 1
5338 1 7.4069865128909127e+00 7.9837105427627919e-01 2.0524651681256042e+01 1 2 0
2020 1 4.6217567995681961e+00 3.6636848414983287e+00 2.0823682568259404e+01 1 1 0
299 1 4.4943923289396199e+00 3.6359315001466346e+00 2.3437659587930153e+01 -1 1 0
2216 1 8.1917594513492116e+00 1.5595920649224280e+00 2.3321062047366560e+01 0 2 0
3532 1 1.1618413576303704e+01 3.8504938901827983e+00 2.0238540129949865e+01 1 1 1
3951 1 1.1961065099495006e+01 3.3178951110092161e+00 2.3663502377383388e+01 0 1 1
121 1 9.0898659118343019e+00 4.0764844475158375e+00 2.3949588900096956e+01 0 1 0
4779 1 1.3458986472237426e+00 6.8383565225121075e+00 2.3718420807887114e+01 0 1 1
3422 1 1.4440259652661440e+00 6.5080905064881227e+00 2.0934012243760151e+01 1 2 0
4706 1 3.9517226088055937e+00 6.0150276298126233e+00 1.9997899719163780e+01 0 0 1
5631 1 1.9323486418805484e+00 4.2313265327282448e+00 2.3948422337937394e+01 0 1 0
1502 1 9.2942235986359680e+00 4.4653094797346675e+00 2.1383289867997750e+01 0 1 1
1519 1 9.6635429873969052e+00 7.3616502847506569e+00 2.0635238652222650e+01 -1 1 1
1971 1 9.7675783117430157e+00 7.3768206246656947e+00 2.3838130602803336e+01 1 1 0
1944 1 3.3373119557737665e+00 8.6989016818796880e+00 2.3386169018544802e+01 1 2 0
20 1 7.6185465927810406e-02 1.2089751630940343e+01 2.3402823161858489e+01 0 0 0
1334 1 2.7479152604917498e+00 1.1390116630928786e+01 2.3639685933903543e+01 -2 0 1
1953 1 1.6252780981749027e-01 1.1673293749332800e+01 2.0782663719325694e+01 1 0 0
4727 1 4.5448630320508370e+00 8.7752379264592264e+00 2.0918967248467105e+01 1 0 1
5155 1 7.3083695467902192e+00 8.9715706922426790e+00 2.0848397218542960e+01 0 1 0
6638 1 1.1453841504778465e+01 9.6513752363962997e+00 2.0835853305442836e+01 0 1 1
3220 1 8.5785007861815625e+00 1.1922114384509753e+01 2.1066036246748656e+01 1 0 0
3468 1 1.1991121843726516e+01 9.5734666485729019e+00 2.3729031122836712e+01 2 0 0
1479 1 8.2575731114706894e+00 9.4884576506888898e+00 2.3719632460766185e+01 0 0 1
3086 1 8.2604221320287969e+00 1.2198776144917904e+01 2.3812322092329634e+01 0 1 1
3498 1 2.3271404963846312e+00 1.5413953700187518e+01 2.3747127486700588e+01 0 -1 0
6447 1 3.9262602715904991e+00 1.2443664592922721e+01 2.1154804966507989e+01 0 0 1
6630 1 3.1452580846368536e+00 1.5487037412273382e+01 2.0933452367843351e+01 1 1 1
1920 1 5.9185800657893575e+00 1.6251612654161569e+01 2.0874527408760116e+01 0 2 0
323 1 6.4070175575939778e+00 1.3570457743551701e+01 2.0143969213979606e+01 1 2 0
6418 1 6.1814492465364070e+00 1.3757512418225483e+01 2.3367253248399098e+01 1 0 1
495 1 1.1281824499429320e+01 1.3092378039826174e+01 2.1377373450452566e+01 -1 0 1
6706 1 9.5744201023909259e+00 1.5261594979962863e+01 2.0366625114093331e+01 0 0 1
5356 1 1.0850669322920382e+01 1.3773824917711265e+01 2.3929076419022405e+01 0 1 0
5103 1 3.8089982482330492e-01 1.7738607211245476e+01 2.3134849351040394e+01 1 -1 0
5349 1 3.9724955862688658e+00 1.8646414527890350e+01 2.0980288284213387e+01 1 0 0
3043 1 8.9649961617799467e-01 1.8463337093774712e+01 2.0562737178642983e+01 0 1 1
5440 1 8.0627305808254004e+00 1.9839600155506893e+01 2.0318445035433573e+01 0 0 1
1598 1 4.7432173651980118e+00 1.8783666882027966e+01 2.3883083873484004e+01 1 0 1
57 1 6.3972059173946834e+00 1.6592226341599424e+01 2.3595382774457153e+01 2 -1 0
1547 1 8.9821738751777502e+00 1.7168277603875055e+01 2.2609898976530864e+01 1 0 1
5085 1 1.0917253250064745e+01 1.9819595513239101e+01 2.3670862981600418e+01 1 0 1
5350 1 8.2645525063266430e+00 2.0100402481992436e+01 2.3290009045261044e+01 1 0 0
3745 1 6.8183676455708253e-01 2.2156345939517983e+01 2.0477224267791041e+01 1 1 0
6688 1 2.7642970871820487e+00 2.3805796322071490e+01 2.0664044603596643e+01 1 0 0
220 1 3.8111236305311382e+00 2.3920395093605631e+01 2.3667165796995612e+01 2 0 0
6624 1 1.7766154449146905e+00 2.1898832716445572e+01 2.3712066526834310e+01 1 0 0
1543 1 5.3425073787118329e+00 2.1035687737349946e+01 2.0536189333517711e+01 -1 0 0
456 1 5.7232269355878120e+00 2.1213430232963418e+01 2.3704219071317681e+01 0 -1 0
2246 1 1.0913656651931884e+01 2.1566842483866381e+01 1.9995227873265023e+01 0 2 0
248 1 9.0212431229032539e+00 2.3601731324893482e+01 2.0474574662477526e+01 1 -1 0
4886 1 9.0061279693431207e+00 2.2850218574273509e+01 2.3197539066000921e+01 0 -1 1
2123 1 1.2198914558145276e+01 2.2154183214537955e+01 2.3891616257828275e+01 0 1 0
623 2 0.0000000000000000e+00 2.8417180249513345e+00 2.6806783397226262e+01 0 0 0
625 2 0.0000000000000000e+00 0.0000000000000000e+00 2.6806783397226262e+01 0 0 0
627 2 1.2305000000000001e+00 7.1042950623783474e-01 2.6806783397226262e+01 0 0 0
634 2 1.2305000000000001e+00 2.1312885187134998e+00 2.6806783397226262e+01 0 0 0
636 2 2.4610000000000003e+00 2.8417180249513345e+00 2.6806783397226262e+01 0 0 0
638 2 2.4610000000000003e+00 0.0000000000000000e+00 2.6806783397226262e+01 0 0 0
640 2 3.6915000000000004e+00 7.1042950623783474e-01 2.6806783397226262e+01 0 0 0
655 2 3.6914999999999996e+00 2.1312885187134998e+00 2.6806783397226262e+01 0 0 0
657 2 4.9220000000000006e+00 2.8417180249513332e+00 2.6806783397226262e+01 0 0 0
659 2 4.9220000000000006e+00 0.0000000000000000e+00 2.6806783397226262e+01 0 0 0
661 2 6.1524999999999999e+00 7.1042950623783407e-01 2.6806783397226262e+01 0 0 0
684 2 6.1524999999999999e+00 2.1312885187134989e+00 2.6806783397226262e+01 0 0 0
686 2 7.3829999999999991e+00 2.8417180249513345e+00 2.6806783397226262e+01 0 0 0
688 2 7.3829999999999991e+00 0.0000000000000000e+00 2.6806783397226262e+01 0 0 0
3927 1 5.9738474398642305e+00 1.6039439079566769e+00 2.4346272716875689e+01 1 2 0
690 2 8.6134999999999984e+00 7.1042950623783407e-01 2.6806783397226262e+01 0 0 0
721 2 8.6134999999999984e+00 2.1312885187135002e+00 2.6806783397226262e+01 0 0 0
723 2 9.8440000000000012e+00 2.8417180249513332e+00 2.6806783397226262e+01 0 0 0
725 2 9.8440000000000012e+00 0.0000000000000000e+00 2.6806783397226262e+01 0 0 0
727 2 1.1074500000000002e+01 7.1042950623783330e-01 2.6806783397226262e+01 0 0 0
766 2 1.1074500000000002e+01 2.1312885187135002e+00 2.6806783397226262e+01 0 0 0
628 2 0.0000000000000000e+00 7.1042950623783341e+00 2.6806783397226262e+01 0 0 0
630 2 0.0000000000000000e+00 4.2625770374269996e+00 2.6806783397226262e+01 0 0 0
632 2 1.2305000000000001e+00 4.9730065436648339e+00 2.6806783397226262e+01 0 0 0
647 2 1.2305000000000001e+00 6.3938655561404980e+00 2.6806783397226262e+01 0 0 0
649 2 2.4610000000000003e+00 7.1042950623783341e+00 2.6806783397226262e+01 0 0 0
651 2 2.4610000000000003e+00 4.2625770374269996e+00 2.6806783397226262e+01 0 0 0
653 2 3.6914999999999996e+00 4.9730065436648339e+00 2.6806783397226262e+01 0 0 0
676 2 3.6914999999999996e+00 6.3938655561404980e+00 2.6806783397226262e+01 0 0 0
678 2 4.9220000000000006e+00 7.1042950623783341e+00 2.6806783397226262e+01 0 0 0
680 2 4.9220000000000006e+00 4.2625770374269978e+00 2.6806783397226262e+01 0 0 0
682 2 6.1524999999999999e+00 4.9730065436648339e+00 2.6806783397226262e+01 0 0 0
713 2 6.1524999999999999e+00 6.3938655561404980e+00 2.6806783397226262e+01 0 0 0
715 2 7.3830000000000009e+00 7.1042950623783341e+00 2.6806783397226262e+01 0 0 0
717 2 7.3829999999999991e+00 4.2625770374269996e+00 2.6806783397226262e+01 0 0 0
249 1 6.5106092014787240e+00 5.5404753913672833e+00 2.4361937442164358e+01 2 0 0
719 2 8.6135000000000002e+00 4.9730065436648339e+00 2.6806783397226262e+01 0 0 0
758 2 8.6135000000000002e+00 6.3938655561404980e+00 2.6806783397226262e+01 0 0 0
760 2 9.8440000000000012e+00 7.1042950623783341e+00 2.6806783397226262e+01 0 0 0
762 2 9.8440000000000012e+00 4.2625770374270004e+00 2.6806783397226262e+01 0 0 0
764 2 1.1074500000000002e+01 4.9730065436648339e+00 2.6806783397226262e+01 0 0 0
805 2 1.1074500000000002e+01 6.3938655561404980e+00 2.6806783397226262e+01 0 0 0
641 2 0.0000000000000000e+00 1.1366872099805333e+01 2.6806783397226262e+01 0 0 0
643 2 0.0000000000000000e+00 8.5251540748539991e+00 2.6806783397226262e+01 0 0 0
645 2 1.2305000000000001e+00 9.2355835810918343e+00 2.6806783397226262e+01 0 0 0
668 2 1.2305000000000001e+00 1.0656442593567498e+01 2.6806783397226262e+01 0 0 0
670 2 2.4610000000000003e+00 1.1366872099805333e+01 2.6806783397226262e+01 0 0 0
672 2 2.4610000000000003e+00 8.5251540748539991e+00 2.6806783397226262e+01 0 0 0
674 2 3.6915000000000004e+00 9.2355835810918343e+00 2.6806783397226262e+01 0 0 0
705 2 3.6914999999999996e+00 1.0656442593567499e+01 2.6806783397226262e+01 0 0 0
707 2 4.9220000000000006e+00 1.1366872099805333e+01 2.6806783397226262e+01 0 0 0
709 2 4.9220000000000006e+00 8.5251540748539991e+00 2.6806783397226262e+01 0 0 0
711 2 6.1524999999999999e+00 9.2355835810918343e+00 2.6806783397226262e+01 0 0 0
750 2 6.1524999999999999e+00 1.0656442593567499e+01 2.6806783397226262e+01 0 0 0
752 2 7.3829999999999991e+00 1.1366872099805333e+01 2.6806783397226262e+01 0 0 0
754 2 7.3830000000000009e+00 8.5251540748539991e+00 2.6806783397226262e+01 0 0 0
487 1 5.8269054000956952e+00 8.2700059410675575e+00 2.4231707597186137e+01 -1 0 1
756 2 8.6134999999999984e+00 9.2355835810918343e+00 2.6806783397226262e+01 0 0 0
797 2 8.6134999999999984e+00 1.0656442593567498e+01 2.6806783397226262e+01 0 0 0
799 2 9.8440000000000012e+00 1.1366872099805333e+01 2.6806783397226262e+01 0 0 0
801 2 9.8440000000000012e+00 8.5251540748539956e+00 2.6806783397226262e+01 0 0 0
803 2 1.1074500000000002e+01 9.2355835810918343e+00 2.6806783397226262e+01 0 0 0
844 2 1.1074500000000002e+01 1.0656442593567498e+01 2.6806783397226262e+01 0 0 0
846 2 1.2304999999999998e+01 1.1366872099805333e+01 2.6806783397226262e+01 0 0 0
4834 1 4.0284740990796557e+00 1.3310429169048572e+01 2.4865617558428379e+01 0 0 1
662 2 0.0000000000000000e+00 1.5629449137232333e+01 2.6806783397226262e+01 0 0 0
664 2 0.0000000000000000e+00 1.2787731112280996e+01 2.6806783397226262e+01 0 0 0
666 2 1.2305000000000001e+00 1.3498160618518829e+01 2.6806783397226262e+01 0 0 0
697 2 1.2305000000000001e+00 1.4919019630994494e+01 2.6806783397226262e+01 0 0 0
699 2 2.4610000000000003e+00 1.5629449137232328e+01 2.6806783397226262e+01 0 0 0
701 2 2.4610000000000003e+00 1.2787731112280996e+01 2.6806783397226262e+01 0 0 0
703 2 3.6915000000000004e+00 1.3498160618518829e+01 2.6806783397226262e+01 0 0 0
742 2 3.6915000000000004e+00 1.4919019630994494e+01 2.6806783397226262e+01 0 0 0
744 2 4.9220000000000006e+00 1.5629449137232333e+01 2.6806783397226262e+01 0 0 0
746 2 4.9220000000000006e+00 1.2787731112280996e+01 2.6806783397226262e+01 0 0 0
748 2 6.1524999999999990e+00 1.3498160618518829e+01 2.6806783397226262e+01 0 0 0
789 2 6.1524999999999990e+00 1.4919019630994494e+01 2.6806783397226262e+01 0 0 0
791 2 7.3829999999999991e+00 1.5629449137232333e+01 2.6806783397226262e+01 0 0 0
793 2 7.3829999999999991e+00 1.2787731112280996e+01 2.6806783397226262e+01 0 0 0
795 2 8.6135000000000002e+00 1.3498160618518835e+01 2.6806783397226262e+01 0 0 0
836 2 8.6135000000000002e+00 1.4919019630994494e+01 2.6806783397226262e+01 0 0 0
838 2 9.8440000000000012e+00 1.5629449137232328e+01 2.6806783397226262e+01 0 0 0
840 2 9.8440000000000012e+00 1.2787731112280996e+01 2.6806783397226262e+01 0 0 0
842 2 1.1074500000000002e+01 1.3498160618518829e+01 2.6806783397226262e+01 0 0 0
878 2 1.1074500000000002e+01 1.4919019630994494e+01 2.6806783397226262e+01 0 0 0
470 1 2.1070730931127049e+00 1.9025279622733024e+01 2.4382006864264568e+01 0 -1 0
691 2 0.0000000000000000e+00 1.9892026174659328e+01 2.6806783397226262e+01 0 0 0
693 2 0.0000000000000000e+00 1.7050308149707998e+01 2.6806783397226262e+01 0 0 0
695 2 1.2305000000000001e+00 1.7760737655945832e+01 2.6806783397226262e+01 0 0 0
734 2 1.2305000000000001e+00 1.9181596668421495e+01 2.6806783397226262e+01 0 0 0
736 2 2.4610000000000003e+00 1.9892026174659328e+01 2.6806783397226262e+01 0 0 0
738 2 2.4610000000000003e+00 1.7050308149707998e+01 2.6806783397226262e+01 0 0 0
740 2 3.6914999999999996e+00 1.7760737655945832e+01 2.6806783397226262e+01 0 0 0
781 2 3.6914999999999996e+00 1.9181596668421495e+01 2.6806783397226262e+01 0 0 0
783 2 4.9220000000000006e+00 1.9892026174659328e+01 2.6806783397226262e+01 0 0 0
785 2 4.9220000000000006e+00 1.7050308149707998e+01 2.6806783397226262e+01 0 0 0
787 2 6.1524999999999999e+00 1.7760737655945832e+01 2.6806783397226262e+01 0 0 0
828 2 6.1524999999999999e+00 1.9181596668421495e+01 2.6806783397226262e+01 0 0 0
830 2 7.3829999999999991e+00 1.9892026174659328e+01 2.6806783397226262e+01 0 0 0
832 2 7.3830000000000009e+00 1.7050308149707998e+01 2.6806783397226262e+01 0 0 0
4860 1 1.1280063648179476e+01 1.6340146514516540e+01 2.4096474264221520e+01 1 0 1
834 2 8.6134999999999984e+00 1.7760737655945832e+01 2.6806783397226262e+01 0 0 0
870 2 8.6135000000000002e+00 1.9181596668421495e+01 2.6806783397226262e+01 0 0 0
872 2 9.8440000000000012e+00 1.9892026174659335e+01 2.6806783397226262e+01 0 0 0
874 2 9.8440000000000012e+00 1.7050308149707998e+01 2.6806783397226262e+01 0 0 0
876 2 1.1074500000000002e+01 1.7760737655945835e+01 2.6806783397226262e+01 0 0 0
904 2 1.1074500000000002e+01 1.9181596668421495e+01 2.6806783397226262e+01 0 0 0
908 2 1.2304999999999998e+01 1.7050308149707998e+01 2.6806783397226262e+01 0 0 0
728 2 0.0000000000000000e+00 2.4154603212086325e+01 2.6806783397226262e+01 0 0 0
730 2 0.0000000000000000e+00 2.1312885187134999e+01 2.6806783397226262e+01 0 0 0
732 2 1.2304999999999993e+00 2.2023314693372832e+01 2.6806783397226262e+01 0 0 0
773 2 1.2304999999999993e+00 2.3444173705848499e+01 2.6806783397226262e+01 0 0 0
775 2 2.4610000000000003e+00 2.4154603212086325e+01 2.6806783397226262e+01 0 0 0