
# Create simulation box and atoms

read_data data.graphite_substrate_1000
  orthogonal box = (0 0 -1.03859) to (49.22 49.0196 61.1006)
  4 by 2 by 5 MPI processor grid
  reading atoms ...
  6768 atoms
  reading velocities ...
  6768 velocities
group water type 1
4008 atoms in group water
group graphite type 2
2760 atoms in group graphite

# Define potential

pair_style sw
pair_coeff * * mWC.sw mW C
Reading potential file mWC.sw with DATE: 2019-02-27


# Fix graphite atoms in place

fix 5 graphite setforce 0.0 0.0 0.0
velocity graphite set 0.0 0.0 0.0


# Equilibration of molecular water

# Add velocity/set timestep

velocity	    water create ${TEMP} ${SEED} rot yes dist gaussian
velocity	    water create 225 ${SEED} rot yes dist gaussian
velocity	    water create 225 8460 rot yes dist gaussian
timestep	    5.0

# Define output

compute			1 water msd
compute			3 water temp
thermo	    	50
thermo_style	custom step temp press vol etotal ke pe c_1[4] c_3

# Neighbor lists

neigh_modify    delay 0 every 1 check yes

# Set fixes

fix             1 water momentum 10 linear 1 1 1 rescale
fix             2 water nve
fix             3 water temp/csvr ${TEMP} ${TEMP} 500.0 ${SEED}
fix             3 water temp/csvr 225 ${TEMP} 500.0 ${SEED}
fix             3 water temp/csvr 225 225 500.0 ${SEED}
fix             3 water temp/csvr 225 225 500.0 8460
fix             4 water press/berendsen z ${PRES} ${PRES} 1000.0 modulus 20000
fix             4 water press/berendsen z -1000 ${PRES} 1000.0 modulus 20000
fix             4 water press/berendsen z -1000 -1000 1000.0 modulus 20000

# Run 0.5 ns equilibration

dump		    1 all atom 2000 ${DIR}/eq.${NAME}-${TEMP}.dump
dump		    1 all atom 2000 run_10/eq.${NAME}-${TEMP}.dump
dump		    1 all atom 2000 run_10/eq.het_freeze_10-${TEMP}.dump
dump		    1 all atom 2000 run_10/eq.het_freeze_10-225.dump

reset_timestep  0

run	            100000
Neighbor list info ...
  update every 1 steps, delay 0 steps, check yes
  max neighbors/atom: 2000, page size: 100000
  master list distance cutoff = 7.76
  ghost atom cutoff = 7.76
  binsize = 3.88, bins = 13 13 17
  1 neighbor lists, perpetual/occasional/extra = 1 0 0
  (1) pair sw, perpetual
      attributes: full, newton on
      pair build: full/bin/atomonly
      stencil: full/bin/3d
      bin: standard
Per MPI rank memory allocation (min/avg/max) = 4.107 | 4.219 | 4.543 Mbytes
Step Temp Press Volume TotEng KinEng PotEng c_1[4] c_3 
       0    133.23112   -1309.3276    149926.08   -35971.017    2687.4238   -38658.441            0          225 
      50    176.67634   -1734.5105    149521.02   -36357.553    3563.7634   -39921.316   0.84508301    298.37005 
     100    166.71156   -1894.5258    149077.79   -36800.664    3362.7624   -40163.426    1.8937346    281.54158 
     150    162.67757   -1709.4626    148736.31   -37144.791    3281.3923   -40426.183    2.7141092      274.729 
     200    161.43173   -1946.3209    148392.26   -37454.455    3256.2624   -40710.717    3.4333693    272.62504 
     250    156.72534   -1676.3735     147971.6   -37674.646     3161.329   -40835.975    4.1555875    264.67691 
     300    151.42085    -1653.576    147561.77   -37925.343    3054.3314   -40979.674    4.8441934    255.71871 
     350    149.34075   -1520.4847    147380.51   -38110.342    3012.3734   -41122.716    5.3312137    252.20585 
     400    146.58414   -1671.6045     147076.1   -38311.016    2956.7694   -41267.786    5.8639578     247.5505 
     450    142.35068   -1604.4335    146781.58   -38497.281    2871.3758   -41368.656    6.4932199    240.40107 
     500    141.43715   -1526.1666    146557.68   -38597.537    2852.9487   -41450.486    7.0108931    238.85829 
     550    143.76069   -1560.9719    146327.49   -38680.633    2899.8172    -41580.45    7.4614185    242.78228 
     600    142.71064   -1445.9019    146098.29   -38733.976    2878.6365   -41612.613    7.9371592    241.00896 
     650    140.98284   -1439.0593    145952.31   -38817.212    2843.7848   -41660.997    8.3679651    238.09105 
     700    141.24747    -1217.487    145832.33   -38854.981    2849.1227   -41704.104    8.7836268    238.53796 
     750    139.89748    -1343.264    145762.94   -38938.415    2821.8919   -41760.307    9.1699498    236.25812 
     800     138.4452    -1396.697    145682.56   -39020.319    2792.5977   -41812.917    9.4969006     233.8055 
     850    137.12578   -1187.9879    145580.45   -39071.508    2765.9835   -41837.492    9.9057861    231.57728 
     900    139.26091    -1020.228    145601.74   -39043.416    2809.0515   -41852.467    10.100932    235.18307 
     950    138.73819   -1253.2464    145583.77   -39076.891    2798.5077   -41875.399     10.35016    234.30031 
    1000    138.30719   -1390.0896    145551.47   -39148.453     2789.814   -41938.267     10.64789    233.57245 
    1050    134.82447   -1281.1223    145488.94   -39274.914    2719.5634   -41994.478    10.933162    227.69083 
    1100    135.28153   -1203.9608    145438.88   -39329.992    2728.7829   -42058.775    11.278286    228.46272 
    1150    136.15627   -1165.9205    145373.71   -39302.457    2746.4274   -42048.884    11.579158    229.93997 
    1200    136.32444   -1171.1176    145334.25   -39341.936    2749.8195   -42091.756    11.829315    230.22397 
    1250    136.43722   -1159.9178    145330.46   -39416.882    2752.0946   -42168.976    12.108139    230.41445 
    1300    133.47919    -1178.736    145317.24   -39391.019    2692.4277   -42083.447    12.316535    225.41894 
    1350    135.67288   -1221.0247    145221.65   -39432.795    2736.6769   -42169.472    12.659832    229.12363 
    1400    133.38527   -1132.6557    145240.77   -39449.747    2690.5332   -42140.281    12.931464    225.26032 
    1450    135.10512   -1239.3916    145280.82   -39455.277    2725.2246   -42180.502    13.073561    228.16481 
    1500    137.90756   -1201.1338    145237.58   -39487.234    2781.7529   -42268.987    13.308098    232.89754 
    1550    136.98912   -1183.3494    145305.62     -39490.2    2763.2269   -42253.427    13.550117    231.34649 
    1600    135.11902   -1220.8619    145287.05    -39529.67     2725.505   -42255.174    13.899161    228.18828 
    1650    135.45224   -1404.8821    145247.49   -39565.117    2732.2263   -42297.343    14.087078    228.75101 
    1700    134.49475   -1154.3365    145221.16     -39588.3    2712.9127   -42301.213    14.273352    227.13401 
    1750    134.11728   -1233.2686    145235.04   -39611.246    2705.2987   -42316.544    14.452282    226.49655 
    1800    135.10978   -1312.8676    145264.22   -39601.848    2725.3185   -42327.167     14.61397    228.17267 
    1850    131.48712   -1265.5512    145211.28   -39625.543    2652.2454   -42277.788    14.924069    222.05475 
    1900    132.77525   -1096.3692    145180.01   -39555.832    2678.2284    -42234.06    15.178852    224.23013 
    1950    137.20649   -1032.3777    145162.11   -39533.472    2767.6115   -42301.083    15.398459    231.71358 
    2000    136.70568   -1133.4108    145242.48   -39540.375    2757.5096   -42297.884    15.632525    230.86782 
    2050    132.35002   -1047.2604    145345.67   -39568.656     2669.651   -42238.307    15.796735      223.512 
    2100    133.28364   -1063.7158    145466.51    -39586.59    2688.4831   -42275.073    15.959039    225.08869 
    2150    137.11141   -1261.6898    145550.58   -39569.361    2765.6936   -42335.054    16.120269    231.55301 
    2200    134.40763   -1259.9065    145581.24   -39575.911    2711.1554   -42287.066    16.326893    226.98689 
    2250    136.49989   -1136.0656    145561.37   -39556.208    2753.3586   -42309.567    16.474903    230.52028 
    2300    134.77328   -1108.7971    145622.97   -39588.853    2718.5309   -42307.384     16.60183    227.60438 
    2350    134.19781   -1269.0273    145674.57   -39629.265    2706.9231   -42336.188     16.93437    226.63254 
    2400    134.64985   -1247.3611    145690.31   -39605.452    2716.0412   -42321.493    17.103723    227.39594 
    2450    135.16424    -1302.381    145762.01   -39661.134    2726.4169   -42387.551    17.318024    228.26463 
    2500    131.83324   -1235.4942    145782.07   -39638.392    2659.2269   -42297.619    17.491879    222.63926 
    2550    132.76414   -1390.2981    145753.74   -39678.748    2678.0043   -42356.752     17.59265    224.21136 
    2600    129.02845   -1359.3757    145757.16   -39737.998     2602.651   -42340.649     17.66285    217.90254 
    2650    131.23722     -1231.95    145783.46   -39747.177    2647.2046   -42394.382    17.928101    221.63271 
    2700    130.41012   -1054.0436     145804.9   -39737.431    2630.5209   -42367.952    18.081145     220.2359 
    2750    131.62424   -944.39246    145965.65    -39706.93    2655.0113   -42361.941    18.211005    222.28631 
    2800     132.7008   -1301.3655    145988.38   -39726.125    2676.7267   -42402.852    18.292633     224.1044 
    2850    131.14475   -1089.7775    146025.52   -39702.631    2645.3394    -42347.97    18.377806    221.47655 
    2900    132.19978   -1246.4478    146099.05   -39686.865    2666.6206   -42353.486    18.591759    223.25828 
    2950    134.91149   -1179.3985    146092.79   -39691.183    2721.3187   -42412.502    18.734505    227.83779 
    3000     132.9779   -1073.3197    146028.44   -39704.858    2682.3161   -42387.174     18.81975    224.57237 
    3050     132.0398   -1244.9836    145997.05   -39724.802    2663.3934   -42388.196     19.03184     222.9881 
    3100    132.10309   -1233.7505    145904.98   -39697.523    2664.6701   -42362.193    19.246909    223.09498 
    3150    132.88778   -1302.1286    145740.04   -39726.096    2680.4982   -42406.594    19.500457    224.42017 
    3200    133.14426   -1024.5356    145603.59   -39725.618    2685.6717    -42411.29    19.822993    224.85331 
    3250    133.92976   -1088.8984    145526.14   -39679.117    2701.5161   -42380.633    19.988055    226.17985 
    3300    135.49553   -1108.3411    145540.42   -39648.593    2733.0995   -42381.693    20.189092    228.82412 
    3350    135.76649   -1083.7508    145570.11   -39655.584    2738.5651   -42394.149     20.26277    229.28172 
    3400    132.08745   -1105.7984    145467.41   -39747.451    2664.3546   -42411.806    20.468511    223.06857 
    3450    132.98702   -941.87196     145436.9   -39785.135       2682.5   -42467.635     20.61823    224.58776 
    3500     134.4505   -1055.7246    145433.58   -39753.769      2712.02   -42465.789    20.725363    227.05927 
    3550    135.45601   -1206.9642    145397.18   -39759.074    2732.3023   -42491.376    20.828395    228.75737 
    3600    133.35878   -903.63502     145422.6   -39764.159    2689.9989   -42454.158    20.917906    225.21559 
    3650    135.33399   -1117.9613    145459.08    -39755.44     2729.841   -42485.281    21.172077    228.55131 
    3700     134.5394   -1155.9441    145462.11   -39781.226    2713.8134   -42495.039    21.474383    227.20942 
    3750    133.81564   -1239.5857    145430.77   -39741.998    2699.2143   -42441.212    21.570175    225.98714 
    3800    133.85939   -1058.1282    145488.94   -39752.927    2700.0967   -42453.024    21.729405    226.06101 
    3850     135.9936   -1083.0532    145616.45   -39716.046    2743.1461   -42459.193    21.719438    229.66526 
    3900    134.48522    -1255.153     145634.1   -39722.583    2712.7204   -42435.304    21.814458    227.11791 
    3950    130.78592   -927.61587    145574.65   -39831.635    2638.1013   -42469.737    21.872267    220.87056 
    4000    134.14454   -1122.5918     145677.3   -39814.566    2705.8485   -42520.414     22.12019    226.54257 
    4050    132.98523   -1032.1332    145737.51   -39784.264    2682.4639   -42466.728    22.263823    224.58474 
    4100    135.82236   -1044.0535    145714.03   -39786.157    2739.6921   -42525.849    22.275468    229.37607 
    4150    134.74067   -1130.4162    145732.27   -39767.852    2717.8731   -42485.725    22.376442    227.54931 
    4200    134.15891   -1188.3914    145696.67   -39795.516    2706.1383   -42501.654     22.53218    226.56684 
    4250    134.37237   -1022.9306    145702.95   -39801.843    2710.4442   -42512.287    22.680139    226.92734 
    4300    130.48327   -1160.3636    145687.66   -39784.427    2631.9966   -42416.424    22.715518    220.35945 
    4350    132.19449   -1199.5608    145705.36   -39818.271    2666.5138   -42484.785    22.797226    223.24934 
    4400    130.82004   -1085.6701    145694.75   -39836.431    2638.7896    -42475.22     22.82442    220.92818 
    4450    132.75843   -1259.8918    145679.13   -39789.262    2677.8891   -42467.151    23.007015    224.20172 
    4500    132.97429    -1267.436    145574.07   -39813.284    2682.2432   -42495.527    23.304583    224.56626 
    4550    131.53327   -1187.0635     145547.8    -39846.61    2653.1763   -42499.787    23.439003    222.13268 
    4600    133.19588   -1243.2029    145525.09    -39794.06    2686.7129   -42480.773    23.606543    224.94048 
    4650    134.76731   -1050.5432    145564.69   -39774.936    2718.4106   -42493.347    23.692784    227.59431 
    4700    133.06997   -1175.3258    145572.63   -39770.522    2684.1732   -42454.695    23.735951    224.72785 
    4750    135.71545   -1118.4107    145586.19   -39739.452    2737.5355   -42476.988     23.94773    229.19552 
    4800    133.79384   -1096.8471     145618.5   -39725.642    2698.7744   -42424.417    24.075799    225.95031 
    4850    134.59627   -1219.3162       145593   -39783.864    2714.9603   -42498.824     24.37937    227.30545 
    4900    132.79345   -1139.1799    145629.74   -39806.843    2678.5954   -42485.438    24.614312    224.26086 
    4950     133.4475   -1088.8461    145603.06   -39859.805    2691.7885   -42551.594    24.921237    225.36542 
    5000    136.17308   -1078.6483    145563.05   -39828.852    2746.7665   -42575.618    24.910645    229.96837 
    5050    131.78284   -1229.7925    145567.19   -39842.977    2658.2104   -42501.188    24.958544    222.55416 
    5100    131.56212   -1086.7315    145567.67   -39859.233    2653.7581   -42512.991    25.142066    222.18139 
    5150    134.11523    -973.9228     145645.7   -39813.999    2705.2573   -42519.256    25.281747    226.49307 
    5200    135.70813   -1036.4182    145639.75   -39777.687    2737.3879   -42515.075    25.520938    229.18316 
    5250    133.87729   -1056.5217    145581.32   -39796.834    2700.4577   -42497.292    25.665446    226.09124 
    5300    133.15646   -1245.9294    145628.26   -39799.276    2685.9179   -42485.194    25.857028    224.87392 
    5350    134.19795   -1080.9307    145654.72   -39776.144    2706.9258    -42483.07    25.992112    226.63277 
    5400     133.9698   -1089.5672    145678.15    -39813.48    2702.3238   -42515.804    26.228297    226.24748 
    5450     132.7231   -1171.0043    145688.87   -39806.525    2677.1764   -42483.702    26.394552    224.14205 
    5500    136.23632   -1152.7388    145702.74   -39761.545    2748.0422   -42509.587    26.556636    230.07517 
    5550     134.1474   -1031.7684    145672.84   -39742.654    2705.9063    -42448.56    26.829603    226.54741 
    5600     134.1713   -1284.5696    145628.48   -39786.804    2706.3883   -42493.192    26.907113    226.58777 
    5650    132.93509   -1162.0902    145525.44   -39756.984    2681.4525   -42438.436    27.053275    224.50006 
    5700    136.13885   -1168.8002    145501.71   -39729.602    2746.0761   -42475.678     27.07993    229.91056 
    5750    135.34605   -1172.7174    145466.61   -39734.856    2730.0844   -42464.941    27.362974    228.57168 
    5800    133.43464   -1090.7323    145491.29    -39775.89    2691.5289   -42467.419     27.58688    225.34369 
    5850    131.90541   -1190.7412    145459.29   -39828.313    2660.6827   -42488.996    27.703244    222.76114 
    5900    132.61693   -1212.0283    145408.76   -39852.827     2675.035   -42527.862    27.850315    223.96276 
    5950    132.01174   -1069.2124     145439.7   -39804.011    2662.8275   -42466.839    28.056374    222.94071 
    6000     133.2463   -1326.2314    145474.76    -39801.19      2687.73    -42488.92    28.264411    225.02563 
    6050    133.01183   -1217.1187    145467.62   -39800.836    2683.0004   -42483.836    28.490757    224.62966 
    6100    135.14488   -1220.7033    145451.64   -39749.569    2726.0264   -42475.596    28.549748    228.23194 
    6150    132.46979   -1269.9031    145468.71   -39736.709    2672.0669   -42408.776    28.576416    223.71427 
    6200    133.95814   -1158.3462    145405.44   -39727.851    2702.0886    -42429.94    28.664249    226.22779 
    6250    133.08688    -950.7334    145421.73   -39735.961    2684.5143   -42420.476    28.734688    224.75641 
    6300    132.37818   -1291.4076     145349.6   -39792.539     2670.219   -42462.758    28.900581    223.55956 
    6350     132.4118   -1145.9766    145341.46   -39828.225    2670.8973   -42499.122    29.186469    223.61634 
    6400    132.13645   -1177.9933    145245.63   -39846.035     2665.343   -42511.378    29.299148    223.15132 
    6450    133.02845   -1046.2969    145222.83   -39767.994    2683.3356    -42451.33    29.650832    224.65772 
    6500    133.21801   -1121.2458     145188.1   -39772.782    2687.1593   -42459.942    29.841237    224.97785 
    6550    133.35356   -956.62926    145237.13   -39764.911    2689.8935   -42454.805    29.936581    225.20677 
    6600     133.9255   -1107.8312    145268.01   -39788.894    2701.4301   -42490.324    29.998313    226.17265 
    6650    131.28076   -1254.5036    145178.21     -39848.6    2648.0828   -42496.683    30.319627    221.70624 
    6700    132.45021   -1301.0281    145105.06   -39816.821     2671.672   -42488.493    30.649467    223.68121 
    6750    133.58805   -1054.7703    145094.86   -39783.634    2694.6235   -42478.257    30.884241    225.60278 
    6800    130.86143   -1137.9011    145124.53   -39790.923    2639.6244   -42430.547    31.065356    220.99807 
    6850    131.15823   -1085.8374    145169.15   -39803.874    2645.6112   -42449.485    31.220294    221.49931 
    6900    134.23872   -1113.1197    145247.74    -39825.73    2707.7483   -42533.479    31.458456    226.70163 
    6950    132.25083   -1097.8953    145290.35   -39805.764    2667.6502   -42473.414    31.745003    223.34449 
    7000    135.52756    -1055.864    145350.91   -39756.512    2733.7456   -42490.257    31.849123    228.87821 
    7050    134.05137   -1057.7286    145412.92   -39777.963    2703.9691   -42481.932    32.038564    226.38522 
    7100    133.94066   -1125.7979    145419.84   -39771.605     2701.736   -42473.341    32.358438    226.19826 
    7150    135.37041   -1011.6243    145460.24   -39777.387    2730.5756   -42507.963     32.51408    228.61281 
    7200    134.66258   -973.49124    145503.33   -39812.644     2716.298   -42528.942    32.701756    227.41744 
    7250     134.2333   -1111.7718     145512.7    -39835.12    2707.6389   -42542.759    32.777195    226.69247 
    7300    134.65474   -1188.1878    145522.63   -39841.471    2716.1399   -42557.611    32.874424     227.4042 
    7350    133.65826    -984.8635    145478.21   -39833.671    2696.0398   -42529.711    33.126833    225.72136 
    7400    131.27022   -1147.0567    145533.22   -39860.588    2647.8702   -42508.458    33.047929    221.68844 
    7450    129.41826     -1023.74    145501.36   -39869.776     2610.514    -42480.29    33.247878    218.56086 
    7500    136.04504   -976.90112    145649.36   -39856.339    2744.1838   -42600.523     33.24375    229.75213 
    7550    134.56421   -847.42327    145712.28   -39867.919    2714.3138   -42582.233      33.2103    227.25132 
    7600    133.98044   -1004.6808    145749.32   -39851.113    2702.5385   -42553.652    33.332058    226.26545 
    7650    132.27757   -992.14618    145705.31     -39854.6    2668.1896    -42522.79    33.566547    223.38965 
    7700    133.78447   -1204.1874    145625.37   -39873.059    2698.5855   -42571.644    33.682211    225.93449 
    7750    133.18656   -1204.2328       145512   -39873.847     2686.525   -42560.372    33.872106    224.92475 
    7800    133.65206   -1144.5947     145452.8   -39869.029    2695.9145   -42564.943     34.13674    225.71087 
    7850    133.19971   -1192.6483    145393.27   -39868.318    2686.7903   -42555.108    34.392558    224.94696 
    7900    131.11664   -957.75994    145400.94   -39839.483    2644.7723   -42484.255    34.402885    221.42907 
    7950     134.5376   -1161.1514    145401.73   -39812.512    2713.7771   -42526.289    34.629328    227.20638 
    8000    132.89975   -1158.9837    145433.59   -39806.386    2680.7396   -42487.126    34.808934    224.44037 
    8050    132.49525   -1102.6193    145362.31   -39888.463    2672.5804   -42561.043    34.850981    223.75726 
    8100    131.42864   -1164.7413    145392.03   -39907.603    2651.0658   -42558.668    35.056439    221.95599 
    8150    132.96257   -925.55409    145416.97   -39887.848    2682.0069   -42569.855    35.176632    224.54647 
    8200    131.31366   -996.87429    145446.38   -39788.513    2648.7465    -42437.26    35.469183    221.76181 
    8250    135.97629   -960.76032     145546.3   -39830.166    2742.7971   -42572.963    35.575854    229.63603 
    8300    133.94247   -1257.9435    145634.64   -39793.141    2701.7726   -42494.913    35.704309    226.20133 
    8350    136.53124   -1230.7117    145650.31   -39753.314    2753.9909   -42507.305    35.615948    230.57322 
    8400     130.9212   -1236.6719    145631.97    -39813.43    2640.8301    -42454.26    35.869878    221.09902 
    8450    130.64739   -1150.6104    145652.92    -39805.08     2635.307   -42440.387    36.163667    220.63661 
    8500    136.98058   -1234.6527    145586.35   -39788.664    2763.0548   -42551.719    36.424571    231.33207 
    8550    132.14433   -1136.9325    145627.31   -39752.552     2665.502   -42418.054    36.769008    223.16463 
    8600    134.05443    -1196.366    145629.98    -39752.73    2704.0309   -42456.761    37.034841     226.3904 
    8650    135.99546   -1079.2761    145694.42   -39726.197    2743.1837   -42469.381    37.160146     229.6684 
    8700    135.83198   -1083.2034    145711.48   -39716.726     2739.886   -42456.612    37.384037    229.39231 
    8750      137.486   -1210.5019    145649.75   -39697.209    2773.2495   -42470.458    37.512782    232.18561 
    8800    134.92459   -1211.5789    145674.68   -39725.134    2721.5831   -42446.717    37.708898    227.85993 
    8850    137.61897   -1153.3751    145700.03   -39694.566    2775.9318   -42470.497    37.999092    232.41018 
    8900    134.16356   -1180.1781    145764.82   -39770.525    2706.2322   -42476.757    38.087884     226.5747 
    8950    133.72924   -1150.3357    145758.67   -39817.025    2697.4715   -42514.497    38.234733    225.84122 
    9000    135.24217   -1023.7929    145809.42   -39804.536    2727.9889   -42532.524     38.09513    228.39624 
    9050    136.34841   -1086.1999    145769.36   -39781.261    2750.3032   -42531.565    38.101967    230.26447 
    9100    135.16679   -1065.9959    145793.74   -39739.307    2726.4685   -42465.775    38.361926    228.26895 
    9150    133.56311   -1265.5492    145788.25   -39787.616    2694.1205   -42481.736    38.546988    225.56067 
    9200    133.89447   -1040.5239     145776.7   -39778.398    2700.8044   -42479.202      38.7543    226.12027 
    9250     135.0934     -1165.23    145805.82   -39783.381    2724.9882   -42508.369    38.806369    228.14501 
    9300    134.72318   -1190.3639    145780.99   -39795.266    2717.5204   -42512.786    38.742153    227.51978 
    9350    134.50785    -1197.837    145793.51   -39768.545    2713.1769   -42481.722    38.791046    227.15613 
    9400    133.65698   -1032.0553    145834.74   -39767.731     2696.014   -42463.745    38.845181     225.7192 
    9450    135.62769   -1169.6427    145904.92   -39736.994    2735.7654   -42472.759    38.698834    229.04731 
    9500    131.25479   -1011.6928    145934.21   -39786.496    2647.5589   -42434.055    38.761434    221.66237 
    9550    133.66533   -1044.6793    145915.26   -39801.524    2696.1824   -42497.706     38.90924    225.73329 
    9600    132.80503   -1273.4072    145884.91   -39750.594     2678.829   -42429.423    39.211875    224.28041 
    9650    134.89533   -1244.4791    145861.63   -39681.659    2720.9929   -42402.652    39.285523    227.81051 
    9700    132.96457   -1057.8439    145829.88   -39700.502    2682.0472   -42382.549    39.684846    224.54985 
    9750    134.90289   -1262.5898    145833.38   -39703.899    2721.1453   -42425.045    39.970245    227.82328 
    9800    133.81871   -978.44051    145805.05   -39737.737    2699.2761   -42437.014    40.160641    225.99232 
    9850    134.08858   -1004.5185    145786.28   -39738.757    2704.7197   -42443.477    40.306881    226.44807 
    9900    131.82097   -1314.6672    145726.23   -39796.482    2658.9795   -42455.462    40.468866    222.61855 
    9950    134.89381   -1211.7009    145638.92   -39791.742    2720.9621   -42512.704    40.746808    227.80794 
   10000    132.58445     -1158.36     145559.3   -39781.215    2674.3798   -42455.595    41.053756    223.90791 
   10050    132.58845   -1092.5754    145468.79   -39767.874    2674.4605   -42442.335    41.395892    223.91467 
   10100    134.56567   -1038.2137    145447.47    -39714.09    2714.3431   -42428.433    41.329243    227.25377 
   10150    132.67224   -1062.3816    145454.42   -39709.209    2676.1505   -42385.359    41.615279    224.05616 
   10200    134.51676      -1102.1     145443.5    -39710.62    2713.3567   -42423.977    41.716252    227.17118 
   10250    134.16123   -1152.2761    145460.02   -39771.677    2706.1852   -42477.862    41.939256    226.57077 
   10300    135.02121   -985.64096    145455.39   -39807.315     2723.532   -42530.847     42.17162     228.0231 
   10350    135.39039   -1089.6004    145499.33   -39762.378    2730.9788   -42493.357    42.444665    228.64656 
   10400    136.59649   -1220.8883     145518.6   -39782.209    2755.3072   -42537.516    42.709869    230.68342 
   10450    134.24923   -1173.1464    145452.75   -39777.532    2707.9602   -42485.492     42.92787    226.71937 
   10500    133.62579   -1230.3449    145342.14   -39771.772    2695.3847   -42467.156    43.252318    225.66651 
   10550    131.48414   -1102.0797    145242.31   -39771.674    2652.1852    -42423.86    43.536754     222.0497 
   10600    133.86264   -1205.5426    145226.34   -39775.169    2700.1623   -42475.331    43.678035    226.06651 
   10650     131.5794   -869.10404    145258.91    -39784.23    2654.1068   -42438.337    43.834738    222.21059 
   10700    136.59904   -954.69883    145343.26   -39736.709    2755.3585   -42492.067    44.151648    230.68771 
   10750    133.66406   -1176.5502    145361.56   -39788.078    2696.1566   -42484.235    44.253381    225.73114 
   10800    134.33984   -1339.1467     145394.2   -39761.112     2709.788     -42470.9    44.520515    226.87241 
   10850    130.40424   -1337.8496    145407.18    -39819.28    2630.4024   -42449.683    44.812465    220.22597 
   10900    132.81767   -1086.0826    145398.61    -39789.87    2679.0841   -42468.954    45.047929    224.30177 
   10950    132.95982   -1195.5319    145441.44   -39776.926    2681.9514   -42458.878    45.098001    224.54183 
   11000    134.07905   -1267.8695    145479.88   -39783.933    2704.5276   -42488.461     45.15832    226.43198 
   11050    131.88139   -1337.3191    145470.94   -39751.335    2660.1983   -42411.533    45.274328    222.72059 
   11100    133.92868    -1288.963    145434.91   -39743.217    2701.4943   -42444.711    45.273087    226.17803 
   11150    136.60684   -1027.4741    145490.53   -39755.965    2755.5158    -42511.48    45.263115    230.70089 
   11200    135.81934    -1216.685    145479.66   -39728.272    2739.6312   -42467.903    45.315607    229.37098 
   11250    131.42774    -1212.155    145456.09   -39766.163    2651.0476    -42417.21    45.571864    221.95446 
   11300     132.0435    -1307.498    145454.51   -39830.055    2663.4681   -42493.523    45.730661    222.99435 
   11350    134.18303   -1232.2664     145431.2   -39788.105    2706.6248    -42494.73    46.063391    226.60757 
   11400    133.13507   -1103.8741    145372.93   -39819.049    2685.4864   -42504.535    46.191817    224.83779 
   11450    133.24382   -1092.7571    145435.12   -39792.064      2687.68   -42479.744    46.255159    225.02145 
   11500    133.57358    -1115.614    145445.12   -39805.294    2694.3316   -42499.626    46.357366    225.57834 
   11550    130.44919   -1030.2508    145481.32   -39861.087    2631.3091   -42492.396    46.502061    220.30189 
   11600    133.10278   -1046.7938    145478.87   -39857.718     2684.835   -42542.553    46.690919    224.78325 
   11650    132.67401    -1359.674    145494.77   -39869.161    2676.1862   -42545.347    46.913277    224.05915 
   11700    132.77093   -1279.2202    145420.19   -39835.323    2678.1413   -42513.465    47.054721    224.22284 
   11750    131.08023   -1158.3345    145420.21   -39858.155    2644.0378   -42502.193     47.06219    221.36758 
   11800    134.40549    -1053.768    145511.43   -39842.503    2711.1123   -42553.615    47.224715    226.98327 
   11850    133.77595   -1060.3691    145544.72   -39865.648    2698.4135   -42564.062    47.297287     225.9201 
   11900    135.68852   -896.51542    145551.29   -39825.385    2736.9924   -42562.377    47.246339    229.15005 
   11950    133.35475    -1191.945    145578.24    -39849.85    2689.9176   -42539.767    47.347601    225.20879 
   12000    131.98714   -901.16198    145593.96   -39857.713    2662.3312   -42520.044    47.551619    222.89916 
   12050    132.92412   -956.25624    145656.19   -39875.347    2681.2313   -42556.578    47.758106    224.48154 
   12100    132.66268   -999.12378    145735.15   -39870.579    2675.9577   -42546.536    47.857739    224.04002 
   12150    132.69903   -857.85307    145870.74   -39847.705     2676.691   -42524.396    47.951379    224.10141 
   12200    134.18772   -1016.1761    145999.32   -39850.262    2706.7195   -42556.981    47.891205     226.6155 
   12250    136.23409   -1126.4704    146072.71   -39817.804    2747.9971   -42565.801    48.039948    230.07139 
   12300      133.523   -1299.5165    146051.56   -39853.137    2693.3114   -42546.448    48.250627    225.49293 
   12350    134.71941   -1194.0116     146038.6   -39832.704    2717.4444   -42550.149    48.450005    227.51342 
   12400    136.09391   -1183.4547    146070.07   -39819.372    2745.1696   -42564.542    48.512094    229.83467 
   12450    134.92641   -1157.6013    146176.46   -39777.925    2721.6198   -42499.545    48.806476      227.863 
   12500    136.55747   -1156.1375    146184.91   -39780.363      2754.52   -42534.883    49.030803    230.61752 
   12550    133.66193   -1104.4478     146215.5   -39808.511    2696.1138   -42504.625    49.323828    225.72755 
   12600    134.66023     -1134.97    146223.09   -39801.206    2716.2505   -42517.457    49.458882    227.41347 
   12650    137.95727   -1129.0482     146249.3   -39769.702    2782.7556   -42552.458    49.517757    232.98149 
   12700     135.5478   -1230.5836    146249.14   -39766.336    2734.1539    -42500.49    49.685584    228.91239 
   12750    134.03226   -1079.5141    146245.31   -39794.617    2703.5838   -42498.201      50.0315    226.35296 
   12800    134.29593   -1277.1365    146170.12   -39823.429    2708.9023   -42532.331    50.221323    226.79825 
   12850     135.1301   -1154.7195    146196.06   -39835.204    2725.7284   -42560.933    50.392194    228.20699 
   12900    132.35748   -1102.2233    146242.06   -39863.205    2669.8015   -42533.006    50.647983     223.5246 
   12950    133.68549   -1104.4365    146299.97   -39838.881    2696.5889    -42535.47    50.869144    225.76733 
   13000    133.76466   -1116.9831    146309.07   -39803.248     2698.186   -42501.434    50.994042    225.90104 
   13050     132.4749   -1017.8524    146337.03   -39850.779      2672.17   -42522.949     50.99918     223.7229 
   13100    136.26258   -1360.0489    146322.32   -39816.514    2748.5718   -42565.086    51.217102    230.11951 
   13150    135.78419   -1174.2958     146255.1   -39849.516     2738.922   -42588.438    51.319626     229.3116 
   13200    134.30242   -1194.7736    146239.88   -39780.635    2709.0332   -42489.669    51.415359    226.80921 
   13250    135.93466    -1188.356     146237.8   -39761.436    2741.9573   -42503.394    51.509552    229.56572 
   13300    138.43411   -1267.3763    146173.52   -39771.226    2792.3741     -42563.6    51.817393    233.78679 
   13350    133.09165   -1364.8794    146043.45   -39827.368    2684.6105   -42511.979    52.062981    224.76446 
   13400    133.57686   -1262.0326    145960.01   -39849.317    2694.3978   -42543.715    52.113642    225.58388 
   13450    132.54294   -1057.7634    145912.26   -39856.752    2673.5424   -42530.295    52.154096     223.8378 
   13500    134.12037   -1125.0088    145943.67   -39879.416    2705.3609   -42584.777    52.193318    226.50175 
   13550    135.00585    -1173.972    145903.94   -39925.784     2723.222   -42649.006    52.294973    227.99715 
   13600    131.98918   -1132.1166    145785.18   -39949.525    2662.3725   -42611.897    52.580672    222.90262 
   13650     130.2603     -1103.64    145736.35   -39947.947    2627.4989   -42575.446    52.657166    219.98289 
   13700    131.35955   -1047.4663    145817.39   -39951.321     2649.672   -42600.993    52.582348     221.8393 
   13750     131.0811   -953.65232    145881.46   -39934.426    2644.0555   -42578.482    52.505879    221.36906 
   13800    133.67053   -1112.0274    145894.82   -39903.548    2696.2872   -42599.835    52.747813    225.74207 
   13850    132.39324   -1159.3384    145900.23   -39930.857    2670.5227    -42601.38    52.900186    223.58499 
   13900    131.88876   -1377.9542    145868.75   -39921.435    2660.3468   -42581.782    53.114348    222.73303 
   13950    132.20769   -1100.6826     145826.4   -39885.753      2666.78   -42552.533    53.525909    223.27163 
   14000    133.12854   -1160.0308    145845.48   -39885.778    2685.3546   -42571.132    53.603411    224.82675 
   14050    133.51925   -1224.0686    145853.51   -39881.742    2693.2356   -42574.978    53.838347    225.48659 
   14100    136.80287   -1183.8661    145769.03   -39888.766    2759.4701   -42648.236    54.035693    231.03195 
   14150    134.59556   -1102.6072    145784.55   -39861.728    2714.9461   -42576.674    54.212685    227.30426 
   14200    132.09356   -1287.3706    145847.06   -39856.085    2664.4778   -42520.563    54.369312    223.07888 
   14250    134.89451   -1068.0969    145873.35   -39810.746    2720.9762   -42531.722    54.483027    227.80911 
   14300    131.15655   -1079.6968    145934.56   -39868.638    2645.5774   -42514.215    54.647426    221.49648 
   14350    134.40761   -1056.5533    146067.64   -39899.016    2711.1549   -42610.171    54.876776    226.98684 
   14400    133.08469   -897.51175    146161.89   -39849.779    2684.4702   -42534.249    55.056774    224.75271 
   14450    134.63197   -1091.3325    146291.68   -39779.429    2715.6804    -42495.11    55.603169    227.36574 
   14500    136.23313   -884.09028    146364.84   -39744.406    2747.9778   -42492.383    55.874039    230.06978 
   14550    136.55137   -1056.8819    146435.12   -39726.019     2754.397   -42480.416    56.043244    230.60722 
   14600    136.03395   -1109.8287    146434.19   -39750.754      2743.96   -42494.714    56.343861     229.7334 
   14650     134.8982    -1046.444    146515.26   -39777.135    2721.0506   -42498.185    56.568026    227.81535 
   14700    131.60677   -946.60189    146623.02   -39813.544    2654.6588   -42468.203    56.805856     222.2568 
   14750    134.42305   -1136.5854    146747.11   -39815.245    2711.4663   -42526.711    57.039662    227.01291 
   14800    134.48646   -1198.8773    146743.77   -39799.456    2712.7455   -42512.201    57.052133    227.12002 
   14850    132.07804    -1257.423    146756.18   -39847.852    2664.1648   -42512.017    57.031284    223.05268 
   14900    134.14333   -1286.0994    146623.23   -39826.124    2705.8241   -42531.948    57.052805    226.54054 
   14950    136.28322   -1259.4367     146625.5    -39840.55    2748.9882   -42589.538    57.079243    230.15437 
   15000    133.22641   -1256.3795     146582.8   -39836.751    2687.3289    -42524.08      57.0484    224.99205 
   15050    131.79105   -1204.8726    146572.47   -39826.096    2658.3759   -42484.472    57.161534    222.56801 
   15100    134.35514   -1249.4201    146575.64   -39838.583    2710.0966   -42548.679    57.235046    226.89824 
   15150    133.01854   -1240.9575    146566.78   -39836.983    2683.1358   -42520.119    57.407287      224.641 
   15200    132.43929   -1184.0604    146557.65    -39841.21    2671.4518   -42512.662    57.460498    223.66277 
   15250     136.1731   -1253.7258    146484.63   -39872.498    2746.7669   -42619.265    57.477155     229.9684 
   15300    132.30795   -1092.6505    146426.76    -39865.14    2668.8025   -42533.943    57.787565    223.44096 
   15350    134.40813   -1251.7048    146381.47   -39851.557    2711.1654   -42562.722    57.983247    226.98772 
   15400     132.6461    -1223.223    146391.17   -39876.378    2675.6233   -42552.002    58.203189    224.01202 
   15450    130.87562   -1114.7578     146362.1   -39911.058    2639.9106   -42550.969    58.570797    221.02204 
   15500    134.64486   -1147.3243    146395.93   -39956.397    2715.9405   -42672.338    58.529022    227.38751 
   15550    134.14852   -1088.5356    146405.88   -39935.093    2705.9288   -42641.022    58.704248     226.5493 
   15600    133.38663   -1225.3262    146357.35   -39885.272    2690.5606   -42575.832     58.82551    225.26262 
   15650    132.67418   -1055.7887    146267.69   -39822.645    2676.1897   -42498.834    58.878916    224.05944 
   15700    135.64701   -1076.5597    146249.93   -39818.321     2736.155   -42554.476    59.019747    229.07993 
   15750    131.73958   -1035.0175    146333.85   -39848.723    2657.3378    -42506.06    59.024455     222.4811 
   15800    133.95443   -1057.9665     146430.8   -39851.889    2702.0139   -42553.903    59.146483    226.22153 
   15850    133.76854   -1168.1901    146515.07   -39874.467    2698.2641   -42572.731    59.357397    225.90758 
   15900    133.46845   -912.04861    146579.93   -39872.372    2692.2109   -42564.583    59.420629    225.40079 
   15950    132.29125   -1329.0605    146665.87   -39893.206    2668.4654   -42561.672    59.558443    223.41274 
   16000    133.36726   -1251.7978    146597.79   -39901.981    2690.1698   -42592.151    59.803125    225.22991 
   16050     131.0593   -1297.3448    146622.58   -39886.441    2643.6157   -42530.056    59.940952    221.33224 
   16100    132.08184   -1438.5294     146618.7    -39925.06    2664.2415   -42589.301    60.045602     223.0591 
   16150    132.15612   -1301.0559    146640.96    -39884.39    2665.7398    -42550.13     60.13749    223.18454 
   16200    133.90156   -1204.9359    146625.62   -39855.816    2700.9473   -42556.763    60.362316    226.13223 
   16250    131.83731   -1278.3785    146653.48   -39894.938    2659.3091   -42554.247     60.50795    222.64614 
   16300    133.00205   -1148.5711    146642.42   -39944.993    2682.8032   -42627.796     60.61164    224.61315 
   16350     132.9144   -1402.6919     146634.9   -39954.104    2681.0351   -42635.139    60.448964    224.46512 
   16400    132.70037   -1280.0097    146597.43   -39928.741    2676.7179   -42605.458    60.744336    224.10366 
   16450    131.00903    -1265.139    146567.66   -39934.308    2642.6017   -42576.909    60.793473    221.24734 
   16500    135.30801   -1396.1638    146549.19   -39876.434     2729.317   -42605.751    60.880586    228.50743 
   16550     131.6818   -1142.9846    146561.73   -39893.069    2656.1723   -42549.242    61.091551    222.38352 
   16600    132.09306   -973.05488    146661.88   -39880.721    2664.4678   -42545.189    61.123342    223.07804 
   16650    131.79235   -1153.4189    146736.76   -39893.979    2658.4021   -42552.381    61.236491    222.57021 
   16700    131.25283   -1196.1789     146710.1   -39924.975    2647.5193   -42572.494    61.224525    221.65906 
   16750    131.87899    -1254.551    146646.24   -39901.071    2660.1498   -42561.221    61.181621    222.71653 
   16800     131.4777    -1208.415    146577.67   -39931.302    2652.0552   -42583.358    61.596504    222.03883 
   16850    131.59799   -1311.8153    146556.25    -39953.68    2654.4818   -42608.162    61.660571    222.24198 
   16900    131.40181    -1304.415    146517.15   -40006.238    2650.5245   -42656.763     61.90909    221.91067 
   16950    134.25255   -1205.8513    146495.04   -39972.302    2708.0273   -42680.329    62.186942    226.72499 
   17000    133.34588   -1336.3894    146452.85   -39962.126    2689.7386   -42651.864    62.426345     225.1938 
   17050    134.67893   -1231.2572    146474.21   -39968.988    2716.6277   -42685.615    62.438826    227.44505 
   17100    130.53547   -1211.3725     146414.2   -39971.863    2633.0494   -42604.913    62.431234    220.44759 
   17150    132.10031   -1294.4132     146352.6   -39958.964    2664.6141   -42623.578    62.763615     223.0903 
   17200    132.71698    -1256.365    146321.87   -39913.933     2677.053   -42590.986     62.91787    224.13172 
   17250    133.17954     -1143.48    146288.61    -39908.17    2686.3834   -42594.553    62.985069    224.91289 
   17300    133.37195   -1287.4541    146171.89     -39935.7    2690.2644   -42625.964    63.197725    225.23783 
   17350    134.24714    -1329.808    146109.06   -39967.335    2707.9181   -42675.254      63.4894    226.71585 
   17400    132.42582   -1217.4989    146069.98   -39971.273      2671.18   -42642.453    63.611443    223.64001 
   17450    133.39637   -1356.8379    145985.94   -39931.293    2690.7572    -42622.05    63.905257    225.27908 
   17500    134.74485   -1235.0154       145944   -39909.328    2717.9575   -42627.286     63.79249    227.55638 
   17550    134.57732   -1161.9323    145929.74   -39888.784    2714.5781   -42603.363    63.783282    227.27345 
   17600    134.53745   -1210.2438    145856.06   -39841.232    2713.7739   -42555.006    63.920547    227.20612 
   17650    133.87807   -1117.1173    145890.54   -39867.453    2700.4734   -42567.927    64.134019    226.09256 
   17700    134.94148    -1042.243    145931.94    -39870.11    2721.9238   -42592.034    64.211443    227.88845 
   17750    133.65231   -1127.0783    145957.56   -39925.895    2695.9197   -42621.815    64.273168     225.7113 
   17800    129.61707   -941.24909    146004.17   -39986.219    2614.5244   -42600.744    64.547081    218.89662 
   17850     129.2624    -1111.099    145995.17   -40018.543    2607.3701   -42625.913    64.840004    218.29764 
   17900     129.4395   -1271.8729    146038.21   -40011.056    2610.9425   -42621.998    64.874176    218.59673 
   17950    129.22257   -1050.9055    146016.47   -40025.345    2606.5668   -42631.911    64.954145    218.23038 
   18000    129.71861   -1127.5237    146055.14   -40019.248    2616.5725    -42635.82    65.009064    219.06809 
   18050    132.99511   -1283.1873    146020.02   -39974.984    2682.6632   -42657.647    64.940547    224.60142 
   18100    134.33188   -1146.7358    146047.81   -39942.801    2709.6274   -42652.428    64.841495    226.85895 
   18150    132.05039   -1280.1051    146069.22   -39926.616    2663.6072   -42590.223    65.072625    223.00599 
   18200    133.52383   -1123.2545     146130.5   -39917.779     2693.328   -42611.107    65.067757    225.49432 
   18250    133.27171   -1238.8462    146169.67   -39887.251    2688.2425   -42575.493    65.226923    225.06854 
   18300    133.62614   -1205.2696    146169.99   -39880.167    2695.3917   -42575.559    65.145293     225.6671 
   18350    131.58101   -1305.3697    146137.33   -39884.443    2654.1393   -42538.583    65.298704    222.21331 
   18400    133.04265   -1087.4037    146127.92   -39862.602    2683.6222   -42546.224    65.381329    224.68172 
   18450    133.51771   -1217.5705    146071.63   -39853.187    2693.2047   -42546.392    65.424959      225.484 
   18500    133.76929   -1272.0299    146078.48   -39876.442    2698.2792   -42574.721     65.64193    225.90885 
   18550    130.34898   -1121.3493    146059.77   -39920.122    2629.2878    -42549.41    65.806572    220.13266 
   18600    131.04024   -1264.6362    146048.85   -39898.386    2643.2311   -42541.617    66.077337    221.30004 
   18650    135.72937   -1099.0086    146118.99   -39854.051    2737.8163   -42591.867    66.116485    229.21903 
   18700    134.84451   -1119.9018    146132.22   -39889.852    2719.9678    -42609.82    66.203849    227.72469 
   18750      132.308   -1257.9478    146131.26   -39877.834    2668.8033   -42546.638    66.342137    223.44103 
   18800    133.00401   -1165.4003    146057.37   -39865.207    2682.8428    -42548.05    66.571155    224.61646 
   18850    132.21005   -1161.5397    146067.97   -39857.569    2666.8276   -42524.397    66.718369    223.27561 
   18900     132.8081   -1136.2171    146016.97   -39869.997     2678.891   -42548.888    66.865298     224.2856 
   18950    130.86644    -957.5521    145999.19   -39857.445    2639.7254    -42497.17    67.042782    221.00653 
   19000    132.57441   -999.30075    146067.29   -39804.908    2674.1772   -42479.085    67.059111    223.89095 
   19050    134.42921   -1037.9382    146058.36   -39824.239    2711.5906   -42535.829    67.238529    227.02332 
   19100    132.19316   -1086.4845    146039.68   -39796.319     2666.487   -42462.806    67.291244     223.2471 
   19150    134.38152   -970.34168    146113.66   -39777.629    2710.6286   -42488.258    67.272122    226.94278 
   19200    133.92822    -1034.273    146193.86   -39768.058     2701.485   -42469.543    67.475171    226.17725 
   19250    134.63646   -1037.5613    146271.87   -39735.811    2715.7711   -42451.582    67.644307    227.37333 
   19300    130.48843   -1284.8213    146239.21   -39804.377    2632.1006   -42436.478    67.775263    220.36815 
   19350    131.98244   -1216.2084    146282.03   -39839.023    2662.2366   -42501.259    67.948891    222.89124 
   19400    130.62209   -1215.4586    146247.36   -39819.639    2634.7967   -42454.436    68.118728    220.59389 
   19450    133.49438   -1103.4473     146224.2   -39862.631    2692.7341   -42555.365     68.16315    225.44459 
   19500    133.95758   -1098.9244    146188.95   -39837.846    2702.0773   -42539.923    68.401912    226.22684 
   19550    135.27461   -1085.7258    146225.47    -39834.66    2728.6432   -42563.304    68.630162    228.45103 
   19600     134.4836   -1124.2821    146243.76   -39827.328    2712.6878   -42540.016    68.854406    227.11518 
   19650    132.77454   -1187.3133    146151.13   -39811.639     2678.214   -42489.853     68.96568    224.22893 
   19700     134.8146   -1215.1971    146117.11    -39817.95    2719.3643   -42537.315    69.310291    227.67416 
   19750    134.40613   -1183.6385    146074.98     -39844.4     2711.125   -42555.525    69.311214    226.98434 
   19800    132.96715   -1017.5217     146089.3   -39878.274    2682.0993   -42560.373    69.398608    224.55421 
   19850    133.74596   -1220.7771    146099.61   -39827.736    2697.8086   -42525.545    69.553743    225.86945 
   19900    136.97657   -1293.1476    146080.81   -39819.312    2762.9738   -42582.286    69.530373    231.32529 
   19950    134.81251   -1055.8596    146076.09   -39807.259    2719.3222   -42526.581    69.790542    227.67064 
   20000    134.25102   -1124.6611    146120.92   -39819.325    2707.9963   -42527.322    69.841445    226.72239 
   20050    133.19921   -1172.3556    146157.32   -39831.245    2686.7801   -42518.025    70.090524    224.94611 
   20100    134.67613   -1130.2036     146193.7   -39819.552    2716.5713   -42536.123    70.287938    227.44032 
   20150    133.67853   -1113.4423    146164.22   -39812.776    2696.4487   -42509.225    70.302426    225.75559 
   20200    134.51296   -1200.8206    146104.39   -39839.662    2713.2799   -42552.942    70.242457    227.16476 
   20250     134.1593   -1135.2432    146032.78   -39856.212    2706.1463   -42562.358    70.780226    226.56751 
   20300    131.91294   -1223.9274    146022.74   -39873.692    2660.8346   -42534.526    71.054947    222.77386 
   20350    130.83651   -1265.7593    145916.57   -39830.025    2639.1218   -42469.147    71.274765      220.956 
   20400    134.29795   -1325.7474    145847.46   -39817.921     2708.943   -42526.864    71.431525    226.80165 
   20450     133.5753    -979.7661    145760.09   -39784.377    2694.3662   -42478.743    71.655875    225.58124 
   20500    134.73927    -1062.012    145786.57   -39774.792    2717.8449   -42492.637    71.623983    227.54695 
   20550    134.99771    -1079.078    145838.89   -39778.884     2723.058   -42501.942    71.741916    227.98341 
   20600     132.4683   -1209.1975    145824.21   -39755.205    2672.0369   -42427.242    71.958258    223.71176 
   20650    133.18192   -1233.1037    145745.98   -39759.168    2686.4314   -42445.599     71.92171    224.91692 
   20700    134.19056    -1137.531    145693.02   -39799.431    2706.7768   -42506.208    72.203678     226.6203 
   20750    134.23835   -1115.6811    145647.88   -39834.432    2707.7408   -42542.173    72.603574    226.70101 
   20800    133.55796   -1009.5325    145770.13   -39808.392    2694.0165   -42502.409    72.702093    225.55196 
   20850    133.67112   -1191.1616    145731.71   -39791.229    2696.2991   -42487.528    72.955289    225.74306 
   20900    132.94964   -1129.6917    145754.25   -39776.359    2681.7459   -42458.105    73.321722    224.52463 
   20950    137.08464   -1192.5891    145832.38   -39759.732    2765.1538   -42524.886    73.329535    231.50781 
   21000    134.68292   -1352.4184    145794.61   -39725.861    2716.7082    -42442.57    73.286103    227.45179 
   21050    134.56546   -1374.9203    145717.41    -39688.83    2714.3389   -42403.169    73.435256    227.25342 
   21100    133.58695   -1400.2807     145658.1    -39723.81    2694.6014   -42418.412    73.656224    225.60093 
   21150    135.05128    -1179.988    145621.43   -39720.666    2724.1386   -42444.805     74.05115    228.07388 
   21200    135.89112   -1090.9817    145619.01   -39714.287    2741.0791   -42455.366    74.249669     229.4922 
   21250    133.76831   -1384.4431     145573.5   -39733.186    2698.2595   -42431.445    74.447591     225.9072 
   21300    132.96342   -1257.3405    145519.06   -39811.757    2682.0239   -42493.781    74.737476     224.5479 
   21350    133.36295   -1185.6794    145462.48   -39860.872     2690.083   -42550.955    75.130289    225.22264 
   21400    130.77297   -1296.7055    145445.01   -39838.583    2637.8401   -42476.423    75.570202    220.84869 
   21450    132.09632   -1160.0358    145397.52   -39861.345    2664.5336   -42525.878    75.710594    223.08355 
   21500     134.7295   -1122.4535    145445.48   -39856.247    2717.6479   -42573.894    76.098094    227.53046 
   21550     132.6353   -1260.2396    145486.53   -39857.962    2675.4054   -42533.368    76.277036    223.99378 
   21600     131.5231   -1219.8702    145485.34   -39840.106    2652.9711   -42493.077    76.349846     222.1155 
   21650    135.44707   -1133.6571    145528.04   -39844.853     2732.122   -42576.975     76.44229    228.74228 
   21700    131.93503   -905.55226    145561.96   -39852.022    2661.2802   -42513.302    76.517021    222.81117 
   21750    132.69179   -963.67713    145686.62   -39805.212    2676.5449   -42481.757    76.504537    224.08918 
   21800     135.5469   -1133.4561    145735.69   -39788.438    2734.1358   -42522.573    76.522516    228.91088 
   21850    137.34025   -1151.6477    145800.58   -39739.602    2770.3097   -42509.912    76.891111    231.93948 
   21900    133.41061   -1054.9489    145840.18   -39751.672    2691.0443   -42442.717    77.256608    225.30312 
   21950    136.05073   -1215.3729    145767.79   -39795.048    2744.2986   -42539.347    77.423853    229.76175 
   22000     132.6464   -984.95432    145770.79   -39763.484    2675.6293   -42439.113    77.694283    224.01252 
   22050    133.74488    -1186.141    145783.63   -39777.467    2697.7869   -42475.254    78.024201    225.86763 
   22100    132.13565   -931.13792    145824.81   -39789.889    2665.3268   -42455.215    78.139074    223.14997 
   22150    132.93415   -1060.5143    145874.71   -39804.941    2681.4336   -42486.375    78.147065    224.49848 
   22200     133.5925   -980.99896    145867.29   -39785.401    2694.7132   -42480.114      78.2806    225.61029 
   22250    135.76634   -1221.6644    145926.13   -39757.404    2738.5621   -42495.966    78.703016    229.28147 
   22300    132.98089   -1184.2525    145856.67   -39839.854    2682.3764    -42522.23    78.900708    224.57742 
   22350    133.55103   -1099.4788    145846.88   -39779.499    2693.8767   -42473.375    79.132405    225.54026 
   22400    136.17995   -988.38731    145865.82   -39735.267     2746.905   -42482.172    79.569098    229.97996 
   22450    135.49423   -1240.7079    145874.12   -39730.673    2733.0732   -42463.746    79.912453    228.82192 
   22500     136.4287   -1178.2968     145874.3   -39718.222    2751.9227   -42470.145    80.159475    230.40006 
   22550     132.5771   -1052.3189    145830.08   -39760.777    2674.2314   -42435.008    80.430358    223.89549 
   22600    133.64867   -1287.8157    145766.84   -39831.613    2695.8461   -42527.459    80.634469    225.70515 
   22650    135.27388   -1052.4296    145693.42   -39776.358    2728.6285   -42504.986    80.682448    228.44979 
   22700    134.61061   -985.56977    145784.93   -39744.365    2715.2497   -42459.615    80.946206    227.32968 
   22750    136.04618   -1105.6907    145780.56   -39728.465    2744.2068   -42472.672    81.201612    229.75406 
   22800     136.6204   -1025.5688    145784.49   -39692.779    2755.7894   -42448.568    81.199837    230.72379 
   22850    138.60649   -958.12892    145851.24   -39742.303    2795.8511   -42538.155     80.99156    234.07789 
   22900    135.46483   -1010.2643    145989.52    -39732.91    2732.4802    -42465.39     81.10755    228.77227 
   22950    135.98494   -1088.4359    145958.04   -39721.357    2742.9714   -42464.329    81.281217    229.65063 
   23000    134.07991   -1042.8636    145937.73   -39818.296    2704.5449    -42522.84    81.649922    226.43343 
   23050     133.5145   -1393.2114    145946.57   -39833.345      2693.14   -42526.485    81.900327    225.47857 
   23100    132.30803   -1227.6126    145962.98   -39831.984     2668.804   -42500.788    81.991591    223.44109 
   23150    135.02132   -1198.4643    145949.21   -39808.467    2723.5341   -42532.001     82.18368    228.02328 
   23200    134.24809   -1272.2504    145986.73    -39851.32    2707.9373   -42559.257    82.421278    226.71746 
   23250     135.1046   -1189.2108    145993.55   -39830.061    2725.2141   -42555.275    82.633536    228.16392 
   23300    132.85761   -1278.6504    146021.45   -39832.671    2679.8896   -42512.561    82.680329    224.36921 
   23350    132.73315   -1256.7155    145886.66   -39793.221    2677.3791     -42470.6      82.9518    224.15902 
   23400     133.5224    -1224.307    145919.86     -39761.9    2693.2993   -42455.199    83.048604    225.49192 
   23450    135.69136   -1304.4651     145883.7     -39782.6    2737.0496    -42519.65    83.069735    229.15483 
   23500    133.31692   -1109.2897    145841.41   -39793.914    2689.1544   -42483.068    83.266997    225.14489 
   23550    134.71986   -1262.7713    145738.63   -39829.265    2717.4534   -42546.718    83.382295    227.51418 
   23600    129.89991   -1239.5609    145707.18   -39858.596    2620.2295   -42478.825    83.617014    219.37427 
   23650    131.79997   -1175.4785    145652.74   -39854.362     2658.556   -42512.918    83.834401    222.58309 
   23700    129.99602    -1278.552    145693.71   -39894.695    2622.1681   -42516.864    83.799067    219.53657 
   23750    132.44087   -1035.6219    145704.72    -39890.95    2671.4836   -42562.434    84.015811    223.66543 
   23800    133.55403   -1054.5958    145772.05   -39875.232    2693.9372   -42569.169    84.306883    225.54532 
   23850    133.18473   -1029.6332    145841.18   -39814.601     2686.488   -42501.089    84.553204    224.92165 
   23900    135.67257   -1259.9836    145845.41   -39832.433    2736.6707   -42569.104    84.762449    229.12311 
   23950    133.61646   -1187.2991    145741.97   -39866.393    2695.1966    -42561.59    84.805376    225.65076 
   24000     133.7098   -1157.9821    145758.81   -39834.959    2697.0794   -42532.038    84.888492     225.8084 
   24050    136.12526   -1188.2379    145893.49   -39847.733    2745.8019   -42593.535    84.925722    229.88761 
   24100    133.60689   -1305.3316    145908.92   -39875.362    2695.0034   -42570.365    85.035937    225.63459 
   24150    137.00494    -1239.068     145883.6   -39833.416     2763.546   -42596.962     85.32892     231.3732 
   24200    131.92654   -1386.3979    145884.42   -39861.543     2661.109   -42522.652    85.392267    222.79684 
   24250    133.17807   -1257.3476     145815.9   -39864.899    2686.3537   -42551.253    85.398081    224.91041 
   24300    130.85339   -1264.4711     145733.1   -39894.678    2639.4623   -42534.141    85.485982     220.9845 
   24350    131.60807   -1160.4597    145813.73   -39870.212    2654.6849   -42524.897    85.346587    222.25899 
   24400    133.17897   -1280.8104     145815.4   -39875.456    2686.3719   -42561.828    85.464566    224.91193 
   24450    131.76223   -1137.0993    145801.72     -39906.6    2657.7946   -42564.395    85.374548    222.51935 
   24500    132.26819   -1291.1967    145880.62   -39895.122    2668.0004   -42563.122    85.549282    223.37381 
   24550    134.89442   -1337.0781    145862.45   -39875.876    2720.9745   -42596.851    85.764292    227.80897 
   24600    133.63146    -1377.598    145826.87    -39878.26    2695.4991   -42573.759    86.083333    225.67609 
   24650    132.95929   -1160.7053    145810.64   -39929.168    2681.9407   -42611.109    86.020172    224.54094 
   24700     134.0175   -886.00916    145909.22   -39901.484    2703.2861    -42604.77    86.099947    226.32804 
   24750     134.2961   -1252.4607     145988.2   -39960.672    2708.9057   -42669.578    86.339763    226.79854 
   24800    133.27653   -1163.3028    145926.16   -39956.287    2688.3397   -42644.627    86.496005    225.07668 
   24850    132.81684    -1082.091    145966.48    -39979.93    2679.0674   -42658.998    86.328633    224.30037 
   24900    132.50727   -1164.1185    145946.28   -39964.239    2672.8228   -42637.062    86.478577    223.77756 
   24950    132.77932   -1241.3093     145872.8   -39996.296    2678.3106   -42674.607    86.780501    224.23701 
   25000    132.51182   -1195.4905    145804.63   -39970.755    2672.9148    -42643.67    87.079066    223.78525 
   25050     132.7002   -1210.5107    145820.82   -39999.573    2676.7146   -42676.288    87.069806    224.10339 
   25100    132.89394    -1087.159    145836.24   -39952.033    2680.6225   -42632.655    87.370656    224.43057 
   25150    135.47331   -1188.6853    145938.11   -39918.716    2732.6512   -42651.367     87.44442    228.78659 
   25200    133.05734    -1227.923    145902.31   -39950.123    2683.9185   -42634.042    87.604485    224.70653 
   25250    136.35308    -1156.234     145951.2   -39933.353    2750.3972   -42683.751    87.480676    230.27234 
   25300    131.64386   -1186.0361    145937.42   -39921.662     2655.407   -42577.069    87.349168    222.31944 
   25350    132.71962   -1102.5557    145911.75    -39910.39    2677.1062   -42587.496    87.221562    224.13617 
   25400    133.84277   -1078.8733    145959.64   -39932.983    2699.7614   -42632.744    87.119171    226.03295 
   25450    135.71123   -1209.7802    146061.11   -39920.371    2737.4504   -42657.822    87.132712    229.18839 
   25500    133.56099   -1116.5051    146128.45   -39920.039    2694.0776   -42614.116     87.29873    225.55708 
   25550    135.69268   -1151.0365    146135.09   -39885.415    2737.0763   -42622.491    87.337769    229.15707 
   25600    131.67675   -1271.1645    146174.98   -39934.885    2656.0704   -42590.955    87.454369    222.37499 
   25650    134.63597   -1187.2968    146092.54   -39893.171    2715.7613   -42608.933     87.63085    227.37251 
   25700    133.74049   -1166.3152    146006.17   -39923.422    2697.6983   -42621.121    87.780389    225.86021 
   25750    134.19308   -973.25463    146038.12   -39914.776    2706.8276   -42621.603    87.912436    226.62455 
   25800    134.86321   -1204.2405    146045.21   -39913.827    2720.3449   -42634.172    87.983749    227.75626 
   25850    132.95415   -1124.5313    146073.25    -39901.99    2681.8369   -42583.827    88.116296    224.53225 
   25900    133.43026   -1219.9464    146059.92   -39926.586    2691.4407   -42618.027    88.073633    225.33631 
   25950    134.17145   -1247.6865    145990.54   -39927.235    2706.3913   -42633.626    88.191822    226.58802 
   26000    132.63037   -1216.2616     145916.7   -39971.529     2675.306   -42646.835    88.230851    223.98545 
   26050    132.47899   -1367.3503    145835.57   -39971.228    2672.2524   -42643.481    88.183871     223.7298 
   26100    131.12965    -1424.783    145759.16   -39964.411    2645.0347   -42609.446    88.088022    221.45105 
   26150    135.02294   -1338.9007    145640.39   -39929.283    2723.5668    -42652.85    88.460464    228.02601 
   26200    135.37644    -1219.196    145552.03   -39919.213    2730.6972    -42649.91    88.560118    228.62299 
   26250    132.23972   -1206.2656    145503.34   -39905.463    2667.4262   -42572.889    88.766356    223.32573 
   26300    132.79735   -1266.3342    145425.51   -39954.646    2678.6742   -42633.321    89.099089    224.26746 
   26350    134.21632    -1218.337    145418.22   -40014.192    2707.2963   -42721.488    88.989084    226.66379 
   26400     130.9007   -1119.7754    145499.79    -40036.46    2640.4165   -42676.876     89.05906     221.0644 
   26450    131.78884   -1304.5886    145585.51    -39984.04    2658.3314   -42642.371    89.129287    222.56429 
   26500     131.3018   -1263.7591    145562.43   -40020.368    2648.5073   -42668.876    89.184583    221.74178 
   26550    130.89955   -1210.8868    145598.57   -40040.788    2640.3933   -42681.181     89.34416    221.06245 
   26600    130.97613   -1363.5206    145598.07   -40015.848    2641.9381   -42657.786    89.572026    221.19178 
   26650    129.66449   -1179.1892    145576.98   -40048.662    2615.4808   -42664.143    89.831612    218.97669 
   26700     129.8933   -1284.1874     145508.6   -40073.469    2620.0961   -42693.565    89.951974     219.3631 
   26750    129.65953   -1160.0857     145539.6   -40046.451    2615.3807   -42661.832    89.927294    218.96831 
   26800    129.12108   -1344.0587    145528.24   -40111.998    2604.5196   -42716.517    90.179432    218.05899 
   26850    130.61449   -1095.2308    145541.17   -40050.234    2634.6435   -42684.877    90.287407    220.58105 
   26900    132.41603   -1102.0936    145604.36   -39989.026    2670.9825   -42660.008    90.407893    223.62348 
   26950     130.0749   -1186.0726    145593.68   -40007.252    2623.7593   -42631.012     90.41486     219.6698 
   27000    131.45387   -1019.3658    145638.34   -40003.293    2651.5747   -42654.868    90.619309    221.99859 
   27050    131.76129   -1249.7645       145684   -39978.963    2657.7757   -42636.738    90.751745    222.51776 
   27100    133.44126    -1117.948    145712.54   -39985.992    2691.6625   -42677.654    91.015996    225.35488 
   27150    133.49599   -1169.2592    145739.58   -39939.982    2692.7664   -42632.748    90.899261     225.4473 
   27200    133.22944   -964.17608    145768.06   -39956.746    2687.3899   -42644.136    90.914362    224.99716 
   27250     132.2464   -1163.3965    145814.01   -39965.118    2667.5608   -42632.679    91.232571    223.33701 
   27300    133.15592   -1191.5077    145891.06   -39959.516    2685.9069   -42645.423    91.369466      224.873 
   27350    131.74922   -1200.2213    145798.83   -39977.211    2657.5321   -42634.743     91.49309    222.49737 
   27400    133.57157   -1071.8752     145864.8   -39997.209    2694.2911     -42691.5      91.6859    225.57495 
   27450      134.174   -1093.8472    145945.92   -39964.753    2706.4428   -42671.196     91.88579    226.59233 
   27500    135.31642   -1177.4154    145962.05   -39940.861    2729.4866   -42670.348    92.116737    228.52163 
   27550    133.26324   -1148.0758    145942.18   -39918.342    2688.0717   -42606.414    92.439244    225.05424 
   27600    132.83905   -1000.3344    146003.81   -39919.829    2679.5154   -42599.344    92.576948    224.33788 
   27650    135.69634   -1096.8593    145958.54   -39885.045    2737.1501   -42622.195    92.860668    229.16325 
   27700    132.76964   -1018.3341     145903.8   -39888.383    2678.1153   -42566.498    92.900859    224.22066 
   27750    134.55346   -974.47657    146083.26     -39905.4    2714.0969   -42619.497    92.889716    227.23315 
   27800    133.69668   -1369.4163    146153.53   -39879.431    2696.8146   -42576.245     93.06063    225.78623 
   27850    135.28297      -1141.3    146285.11   -39879.035    2728.8119   -42607.847    93.130082    228.46514 
   27900    132.24054   -1283.7666    146403.61   -39888.475    2667.4427   -42555.918    93.004297    223.32711 
   27950     133.0449   -1257.4664    146379.94     -39912.8    2683.6675   -42596.468    93.141677    224.68551 
   28000    134.15278   -1436.9614    146323.95   -39896.942    2706.0148   -42602.957    93.175106     226.5565 
   28050    133.79218   -1241.8349    146294.85   -39867.285     2698.741   -42566.026    93.114289    225.94752 
   28100    136.41796   -1185.4946    146313.89   -39879.407    2751.7059   -42631.113    93.276943    230.38191 
   28150    133.80976   -1169.0963    146314.72   -39901.609    2699.0956   -42600.705    93.470629     225.9772 
   28200    133.76592   -1295.0299    146329.27   -39887.427    2698.2112   -42585.638    93.653751    225.90316 
   28250    132.76252   -1261.2797     146272.2   -39876.505    2677.9715   -42554.476    94.142437    224.20862 
   28300     133.9813   -1372.3949     146143.1   -39874.894    2702.5558   -42577.449    94.316129     226.2669 
   28350    134.32856   -1143.9484    145993.78   -39860.686    2709.5604   -42570.246    94.404681    226.85335 
   28400    134.83256   -1170.7929    145946.47   -39890.818    2719.7267   -42610.545    94.476336    227.70451 
   28450    132.82529   -1277.7531    145985.16   -39902.281    2679.2377   -42581.519    94.526008    224.31463 
   28500    134.09771   -1030.3694    146097.53    -39866.72    2704.9039   -42571.623    94.697772    226.46349 
   28550    132.25915   -1141.6942    146103.23   -39893.789    2667.8181   -42561.607    95.146364    223.35855 
   28600    133.44164   -1017.8797    146116.17    -39844.86    2691.6703    -42536.53    95.322404    225.35553 
   28650    135.61511   -1290.0502    146137.92   -39830.132    2735.5116   -42565.643    95.435961    229.02607 
   28700    135.67308   -988.97273    146137.44   -39843.758    2736.6809   -42580.439    95.784161    229.12397 
   28750    137.67743   -1142.4828    146139.36   -39877.103    2777.1109   -42654.214    95.590152     232.5089 
   28800     133.8413   -1210.5366    146203.63   -39935.342    2699.7318   -42635.074    95.723074    226.03046 
   28850     132.2512   -1108.4448    146277.26   -39982.432    2667.6576   -42650.089    95.804538    223.34511 
   28900     131.9586   -1040.1439    146342.52   -39945.654    2661.7557    -42607.41    95.575273    222.85098 
   28950    135.18954   -1076.4144    146509.37   -39945.482    2726.9273    -42672.41    95.826769    228.30736 
   29000    131.55016   -1079.6297    146610.34   -39941.343    2653.5169    -42594.86    95.979057     222.1612 
   29050    133.37238   -934.78711    146716.25   -39923.016    2690.2733   -42613.289    96.106975    225.23856 
   29100     131.9382    -1267.307    146782.82   -39942.368    2661.3441   -42603.713    96.372811    222.81652 
   29150    134.04262   -1285.6147    146691.43   -39916.342    2703.7927   -42620.135    96.640056    226.37046 
   29200    132.91778    -1211.416    146635.18   -39896.037    2681.1033   -42577.141    96.641936    224.47083 
   29250    130.56428   -1166.5756    146630.13   -39919.942    2633.6306   -42553.573    96.651115    220.49625 
   29300    134.19773   -1230.9683    146667.49   -39905.044    2706.9214   -42611.966    96.582925    226.63241 
   29350    135.78117   -1016.8562    146686.01   -39923.715    2738.8613   -42662.576    96.753704    229.30651 
   29400    132.96527   -1218.5671    146616.17   -39986.523    2682.0612   -42668.584    96.821537    224.55103 
   29450    131.99237   -1105.9187    146521.16   -39971.279    2662.4368   -42633.716    97.053499    222.90801 
   29500    132.93388   -1296.6764    146532.73   -39995.216    2681.4281   -42676.644    97.175401    224.49802 
   29550    133.23286   -1126.0763       146512   -39999.003     2687.459   -42686.462    97.548193    225.00294 
   29600    133.73887   -1336.5428    146484.85   -39987.485    2697.6657   -42685.151    97.565813    225.85748 
   29650    133.92119    -1275.996    146450.21   -40015.634    2701.3433   -42716.977    97.476936    226.16539 
   29700    132.80478   -1232.1926    146446.17    -40011.53    2678.8241   -42690.354    97.832636       224.28 
   29750    135.17181   -1122.5992       146431   -39972.072    2726.5698   -42698.641    97.950142    228.27743 
   29800     133.2798    -1394.088    146407.14   -39975.708    2688.4057   -42664.114    97.982497     225.0822 
   29850    134.39219   -1162.3733    146341.93    -39946.02    2710.8439   -42656.864    98.266889    226.96081 
   29900    135.52259   -1225.7623    146389.57   -39938.849    2733.6453   -42672.495    98.374489    228.86981 
   29950    130.57286     -1397.22    146320.25   -39993.811    2633.8036   -42627.615    98.458996    220.51074 
   30000    133.58715   -1217.2209    146258.14   -39986.748    2694.6053   -42681.354    98.457418    225.60126 
   30050    133.16687   -1169.6839    146206.54   -40008.912    2686.1277    -42695.04    98.690766    224.89149 
   30100    134.90858   -1174.1769    146231.52   -39968.943    2721.2601   -42690.203    98.857972    227.83289 
   30150    135.79216   -1129.4778    146228.72   -39924.567    2739.0829    -42663.65     98.97222    229.32507 
   30200    134.56703   -1187.8435    146320.63   -39898.069    2714.3707    -42612.44    99.216274    227.25608 
   30250    137.89086   -1279.5059    146409.64   -39874.448     2781.416   -42655.864    99.327554    232.86933 
   30300    133.58654   -1155.3829    146399.57   -39935.938     2694.593   -42630.531    99.493427    225.60022 
   30350    132.26184   -1251.2591     146360.9   -39921.147    2667.8723   -42589.019    99.560643    223.36308 
   30400    132.71334    -1184.526    146323.49   -39938.524    2676.9797   -42615.503    99.446679    224.12558 
   30450    132.64017   -1258.7339    146328.52   -39921.877    2675.5036   -42597.381    99.636289      224.002 
   30500    133.27074   -1186.1099    146274.32   -39929.949    2688.2229   -42618.172    99.846073     225.0669 
   30550    131.81658   -1287.1324    146208.88   -39945.956    2658.8909   -42604.847    99.882949    222.61113 
   30600    129.88278   -1450.4658    146193.21   -39955.825    2619.8839   -42575.709    100.03783    219.34534 
   30650    131.89556   -1246.5431    146175.83    -39919.92     2660.484   -42580.404    100.07155    222.74451 
   30700    132.51434   -1129.7447    146239.05   -39883.453    2672.9655   -42556.419    100.02177    223.78951 
   30750    131.19542   -1216.9557    146269.03   -39966.459    2646.3614   -42612.821    100.03302    221.56212 
   30800    130.78289   -1174.0898    146246.13   -39958.661    2638.0402   -42596.702    100.18969    220.86544 
   30850    131.55545   -1061.7469     146208.5   -39958.303    2653.6235   -42611.926    100.40526    222.17013 
   30900    134.29388   -1244.9999    146179.22   -39952.057    2708.8609   -42660.918    100.60314    226.79478 
   30950     131.7416   -1231.7983    146160.27   -39969.149    2657.3784   -42626.527    100.64831     222.4845 
   31000    134.93826   -932.06439    146210.49   -39928.213    2721.8587   -42650.072    100.67736      227.883 
   31050    134.46047   -1200.2524    146191.18   -39911.752    2712.2211   -42623.973    100.85399    227.07611 
   31100    131.70315   -1079.5082    146193.12   -39906.199     2656.603   -42562.802    101.05888    222.41958 
   31150    133.27793   -1313.7554    146175.83   -39972.677     2688.368   -42661.045    101.35971    225.07905 
   31200    132.45363   -1179.2757    146167.62   -39968.968    2671.7409   -42640.709    101.34318    223.68698 
   31250    133.53063    -1230.126    146163.55   -39937.021    2693.4653   -42630.486      101.387    225.50581 
   31300    134.67241   -1188.2327    146156.66   -39929.478    2716.4962   -42645.974    101.70435    227.43404 
   31350    134.49146     -1074.28    146207.38   -39912.317    2712.8462   -42625.163     101.9576    227.12845 
   31400     132.3916   -1067.6296    146224.32   -39912.363    2670.4898   -42582.853    102.04685    223.58223 
   31450    133.04178    -1265.491    146200.37   -39869.259    2683.6046   -42552.864    102.08251    224.68024 
   31500    134.42517     -1295.47    146138.11   -39848.087    2711.5091   -42559.596    102.23295     227.0165 
   31550    135.47118   -1101.6445    146153.14   -39808.985    2732.6084   -42541.593    102.49875      228.783 
   31600     135.9884   -918.13351    146171.44   -39837.887    2743.0413   -42580.928    102.51093    229.65648 
   31650    137.32169   -1107.6922    146203.27   -39815.395    2769.9353    -42585.33    102.65511    231.90814 
   31700    136.34583   -1053.8877    146252.92   -39814.255     2750.251   -42564.506    102.99257     230.2601 
   31750    132.94168   -1063.5671    146241.25   -39821.431    2681.5854   -42503.016    102.88455    224.51118 
   31800    135.80244   -1289.1035    146197.82   -39852.988    2739.2903   -42592.278    103.02464    229.34243 
   31850    133.73334   -1344.2985    146135.73   -39885.808    2697.5542   -42583.362    103.31043    225.84815 
   31900    133.44118   -1102.7403    146182.88   -39865.691     2691.661   -42557.352    103.59871    225.35475 
   31950    133.41637   -1234.3496    146284.51   -39893.544    2691.1606   -42584.705    103.60529    225.31285 
   32000    134.21142   -1246.6426    146270.43     -39858.3    2707.1976   -42565.497    103.85285    226.65553 
   32050    135.68413   -1138.3905    146250.52   -39830.299    2736.9037   -42567.203    103.90652    229.14262 
   32100    133.18097   -1280.8603    146246.17       -39865    2686.4122   -42551.412    104.32952     224.9153 
   32150    136.18989   -1196.4034     146197.9   -39796.791    2747.1057   -42543.896     104.3709    229.99676 
   32200     134.9009   -1319.2145    146138.86   -39856.519    2721.1052   -42577.624     104.4234    227.81992 
   32250     134.7422   -1384.7491    146033.74   -39818.897    2717.9041   -42536.801    104.59306    227.55191 
   32300    132.53803   -1162.5595    146020.48   -39875.129    2673.4434   -42548.573    104.91208    223.82951 
   32350    132.29185   -1218.8588    146027.17   -39861.704    2668.4776   -42530.181     104.8991    223.41376 
   32400    131.69493   -1293.5256    145962.24    -39870.42     2656.437   -42526.857    105.16696    222.40568 
   32450    133.83726   -1181.9354    145933.55   -39853.588    2699.6502   -42553.238    105.31941    226.02363 
   32500    131.00725   -1243.3381    145916.82   -39820.372    2642.5658   -42462.938    105.06804    221.24434 
   32550    133.21957   -1309.0462    145878.16   -39842.597    2687.1909   -42529.788    105.28191     224.9805 
   32600    134.31633   -1148.2801    145813.17   -39833.056    2709.3137    -42542.37    105.43861     226.8327 
   32650    133.69581   -1244.2182    145874.47   -39855.336     2696.797   -42552.133    105.82645    225.78476 
   32700    134.49814   -1115.2218    145893.31   -39782.838     2712.981   -42495.818    106.03281    227.13973 
   32750    132.58214   -1099.3092    145880.64   -39831.387     2674.333    -42505.72    106.24204      223.904 
   32800    133.99405   -1025.5916    146009.96   -39853.344     2702.813   -42556.157    106.45646    226.28843 
   32850     132.1676    -1131.813    146058.07   -39836.503    2665.9714   -42502.475    106.66096    223.20393 
   32900    131.82817   -1233.0386    146099.91   -39880.462    2659.1246   -42539.586    106.79009    222.63069 
   32950    132.71592   -1180.0035    146042.94   -39884.701    2677.0316   -42561.733    106.89899    224.12993 
   33000    132.80101    -1127.251    146071.26   -39880.826     2678.748   -42559.574     106.9805    224.27363 
   33050    131.75567   -1002.6659    146141.95   -39914.066    2657.6622   -42571.728     107.1509    222.50826 
   33100      134.891   -1219.9837    146146.51   -39849.431    2720.9054   -42570.337     107.2784    227.80319 
   33150    132.88064   -1393.4836    146105.38   -39846.188    2680.3542   -42526.542    107.10351    224.40811 
   33200     132.5633   -1102.8515    146020.34   -39863.581     2673.953   -42537.534    107.46671    223.87218 
   33250    131.11392   -1270.8219    145911.84    -39902.14    2644.7175   -42546.858     107.5469    221.42448 
   33300     131.8952   -1578.3272    145759.27   -39913.105    2660.4767   -42573.582    107.63474    222.74389 
   33350    129.73755    -1243.185    145639.92   -39937.581    2616.9546   -42554.536    107.98568    219.10008 
   33400    134.49571    -1072.941    145623.08   -39906.191    2712.9319   -42619.123    108.44439    227.13562 
   33450    130.13295   -1163.3875    145567.96   -39943.538    2624.9302   -42568.468    108.59858    219.76783 
   33500    130.07312   -1103.7212    145526.78   -39987.575    2623.7233   -42611.298    109.03389    219.66678 
   33550    131.75163   -1174.7636    145560.82   -39896.665    2657.5808   -42554.246    109.24375    222.50144 
   33600    132.75001   -1335.1166    145489.82   -39917.432    2677.7192   -42595.151    109.57574     224.1875 
   33650    132.64923   -1065.6742     145431.3   -39843.727    2675.6864   -42519.414    109.61412     224.0173 
   33700    133.68776   -1031.0802    145458.23   -39866.534    2696.6347   -42563.169    109.75219    225.77117 
   33750    132.32127   -1131.4273    145510.76   -39851.929     2669.071       -42521    109.98063    223.46344 
   33800    135.73249   -1342.8615    145563.01   -39805.563    2737.8793   -42543.442    110.00803     229.2243 
   33850    134.60563   -1352.4434       145497   -39784.916    2715.1491   -42500.065     110.0792    227.32126 
   33900    134.37182   -1099.3842    145601.73   -39741.775     2710.433   -42452.208    110.07255     226.9264 
   33950    134.57988   -1233.9703    145607.37   -39815.369    2714.6298   -42529.999    110.06285    227.27777 
[...]
   92000    136.21873   -1219.0923     146064.2    -39794.42    2747.6872   -42542.107    264.72666    230.04545 
   92050    133.94766   -1280.9749    145964.76   -39829.906    2701.8772   -42531.783    264.66614    226.21008 
   92100    135.81763   -1149.4924    145926.41    -39791.35    2739.5966   -42530.947    264.78949    229.36808 
   92150    136.79561   -1208.4113    145981.14   -39788.718    2759.3237   -42548.042    264.80339     231.0197 
   92200     132.6513   -1154.6812    146013.62   -39825.298    2675.7281   -42501.026    264.81289     224.0208 
   92250    131.83988   -1023.9098    146047.02   -39847.778    2659.3609   -42507.139    264.87673    222.65048 
   92300    131.98084   -1235.4947    146102.07   -39891.544    2662.2042   -42553.748    265.02263    222.88853 
   92350    133.68438    -1155.333    146041.45   -39891.093    2696.5666    -42587.66    265.03857    225.76546 
   92400    134.97115   -1145.4484    145906.67   -39873.832    2722.5221   -42596.354    264.82255    227.93855 
   92450    135.11614   -820.93497     145918.1   -39880.679    2725.4467   -42606.126    264.83207     228.1834 
   92500    131.60371   -1067.8701    145948.38   -39888.625    2654.5971   -42543.223    264.98001    222.25164 
   92550    135.36552   -1024.9406     145946.1   -39912.881    2730.4771   -42643.358    265.08519    228.60456 
   92600    133.01245   -1099.9498    146016.14   -39944.612     2683.013   -42627.625    265.56613    224.63071 
   92650    131.31875   -1222.1351    145916.52   -39953.311     2648.849    -42602.16    265.74489    221.77039 
   92700    132.59645   -1068.9458     145845.5   -39958.602    2674.6217   -42633.223    266.07586    223.92816 
   92750    132.82281   -1183.6493    145865.24   -39984.036    2679.1877   -42663.224    266.43129    224.31045 
   92800    132.08896   -993.28732    145987.48   -39989.815    2664.3852     -42654.2    266.05708    223.07113 
   92850    132.99981   -1201.7762    146005.94   -39968.711    2682.7581   -42651.469    266.51863    224.60937 
   92900    133.04923   -1162.8796    146039.01   -39962.451    2683.7548   -42646.205    266.88735    224.69282 
   92950    133.50337   -1185.1313    145976.93   -39957.368    2692.9153   -42650.283    267.32048    225.45977 
   93000    133.99805   -952.66698    146095.07   -39960.203    2702.8936   -42663.097    267.74775    226.29518 
   93050    133.10067   -1239.7321    146107.17    -39954.66    2684.7925   -42639.452    268.01048    224.77969 
   93100    131.72323   -1081.1557     146105.7   -39950.804     2657.008   -42607.812    267.90824    222.45349 
   93150    130.49927   -1142.1362    146078.79   -39966.244    2632.3192   -42598.563    267.47561    220.38646 
   93200    132.83098   -1340.8932    146021.43   -39958.158    2679.3526   -42637.511    267.67327    224.32425 
   93250    133.88928   -1328.0924    145998.28    -39913.41    2700.6997    -42614.11    267.71671     226.1115 
   93300    134.49966    -1207.088    145988.15   -39954.829    2713.0118    -42667.84    267.63167    227.14231 
   93350    132.62625   -1183.9009    146042.09     -39961.4    2675.2229   -42636.623     267.8063     223.9785 
   93400    131.93226   -1207.7456       146073   -39999.827    2661.2243   -42661.051    267.83687    222.80649 
   93450     132.6161   -1309.3501    146099.52   -39979.158    2675.0181   -42654.176    268.46004    223.96136 
   93500    131.17153   -1276.0296    146108.48   -39991.056    2645.8795   -42636.935    268.80383    221.52177 
   93550    131.64356   -1153.4317    146091.73   -40026.254    2655.4008   -42681.655    268.53897    222.31893 
   93600     131.6397   -1105.2258    146132.19   -39988.183     2655.323   -42643.506    268.71375    222.31241 
   93650    130.39492   -1117.5755    146093.91   -40040.232    2630.2144   -42670.446    268.72035    220.21024 
   93700    130.71123   -1244.0436    146135.27   -40039.025    2636.5948    -42675.62     268.6762    220.74443 
   93750    132.76789   -1219.1321    146180.95   -40004.837    2678.0798   -42682.917    268.74934    224.21769 
   93800    131.44011   -1117.9498     146297.6   -39965.729    2651.2971   -42617.026     268.8248    221.97535 
   93850    136.18626   -1061.0399    146320.45   -39919.166    2747.0324   -42666.199    268.55534    229.99063 
   93900    132.15527   -1255.5581    146362.62   -39964.927    2665.7228    -42630.65    268.40983    223.18312 
   93950    131.06774   -1288.7187    146327.27   -39990.744     2643.786    -42634.53    268.59576     221.3465 
   94000    133.33637   -1336.4683    146259.79   -39951.528    2689.5469   -42641.075    268.55865    225.17775 
   94050     136.7818   -1163.7693    146213.89   -39927.294     2759.045   -42686.339     268.7586    230.99636 
   94100    133.54036   -1115.7463    146206.41   -39974.914    2693.6616   -42668.575    269.28893    225.52225 
   94150    130.87787   -1266.8619    146113.57   -40041.226    2639.9559   -42681.182    268.97918    221.02583 
   94200    130.60602   -1191.8411    146068.68   -40082.707    2634.4725    -42717.18    268.65907    220.56674 
   94250    133.62668   -1131.5625    146096.26    -40046.06    2695.4028   -42741.463    268.73771    225.66802 
   94300    135.12533   -1326.3726     146095.7   -40028.376    2725.6322   -42754.008    269.18643    228.19893 
   94350    133.75111   -1212.2845    146024.23    -39972.33    2697.9126   -42670.242    269.44555    225.87815 
   94400    131.69691   -1391.0825    145990.57   -39990.108     2656.477   -42646.585    269.60518    222.40903 
   94450     130.5447   -1407.4527    145984.58   -40012.233    2633.2356   -42645.469    270.01164    220.46319 
   94500    134.16534   -1115.9625    145958.05   -39983.335    2706.2682   -42689.603    270.39282    226.57771 
   94550    134.17734   -1136.1369    145928.76   -39917.699    2706.5102   -42624.209    270.36439    226.59797 
   94600    136.00358   -1170.6515    145883.16   -39900.693    2743.3475    -42644.04    270.41856    229.68212 
   94650    136.77185   -1075.2631    145881.75   -39912.144    2758.8443   -42670.988    270.58595    230.97956 
   94700    135.03858   -1147.1232    145921.71   -39913.247    2723.8824   -42637.129    270.65798    228.05243 
   94750    133.23904   -1329.8088    145899.22   -39937.604    2687.5835   -42625.188    271.28836    225.01337 
   94800    132.17879   -1018.0136    145816.53   -39989.027    2666.1972   -42655.224    270.90411    223.22284 
   94850    133.79931   -1183.3622    145807.14   -40011.538    2698.8848   -42710.423    271.01383    225.95955 
   94900    133.12848   -1142.4953    145733.76   -39996.247    2685.3534     -42681.6    271.25042    224.82666 
   94950     131.9552   -1246.1398    145666.48   -40001.759     2661.687   -42663.446     271.2209    222.84523 
   95000    130.59521   -1093.2748     145609.2   -39958.773    2634.2546   -42593.027    270.92371    220.54849 
   95050    134.52539   -986.88305    145650.02   -39934.261    2713.5306   -42647.792    270.97963    227.18575 
   95100    134.05366   -965.67386    145671.86   -39952.829    2704.0154   -42656.845     270.7853     226.3891 
   95150    132.10388   -1006.2793    145642.82   -40002.829     2664.686   -42667.515    271.18845    223.09631 
   95200    133.80608   -1158.2882    145622.68   -39974.073    2699.0214   -42673.095    271.33878    225.97099 
   95250    136.94106   -1117.8404    145553.13   -39903.409    2762.2576   -42665.667    271.32156    231.26533 
   95300    135.73078   -1223.5942    145421.87   -39905.621    2737.8448   -42643.466    271.50463    229.22141 
   95350    137.53821   -1005.9624    145420.02   -39857.255    2774.3027   -42631.558    271.55515    232.27379 
   95400    136.65956   -1085.4576    145498.98   -39906.653    2756.5794   -42663.232    271.40018    230.78993 
   95450    133.40816   -1088.4695    145539.62   -39922.883     2690.995   -42613.878    271.46236    225.29899 
   95500    132.30194   -842.32197    145605.55   -39955.384    2668.6812   -42624.065    271.47823     223.4308 
   95550    132.32728   -935.58976    145749.89   -39952.125    2669.1923   -42621.317    271.85811     223.4736 
   95600     133.0871   -1171.7281     145747.8   -39945.372    2684.5187   -42629.891     272.2686    224.75677 
   95650    136.69683   -1067.1187    145758.69   -39908.378    2757.3311   -42665.709    272.49672    230.85287 
   95700    134.43396   -1271.8649    145733.52   -39955.621    2711.6865   -42667.308    272.74146    227.03135 
   95750    135.76587   -1081.2222    145712.42   -39946.775    2738.5526   -42685.328    272.90343    229.28067 
   95800    133.68406   -1148.3972    145795.64   -39926.025      2696.56   -42622.585    272.97794    225.76491 
   95850    135.52999   -977.79898    145805.45    -39901.86    2733.7945   -42635.655    273.35803    228.88231 
   95900    136.04815    -1152.059    145761.89   -39957.141    2744.2464   -42701.387    273.57942    229.75737 
   95950    134.12991   -1167.3369    145721.89   -39929.273    2705.5533   -42634.826    273.77542    226.51786 
   96000    131.21138   -1414.0187    145622.97   -39935.173    2646.6833   -42581.856    273.81747    221.58907 
   96050    131.07503   -1229.2245    145551.38    -39959.78     2643.933   -42603.713    273.84954     221.3588 
   96100     130.3742   -967.68088    145538.33   -39985.363    2629.7965    -42615.16    274.06856    220.17525 
   96150    132.55373   -1084.7281     145569.3   -39991.174      2673.76   -42664.934    273.99104    223.85602 
   96200    131.49334   -1039.2635    145564.74    -39932.29    2652.3708   -42584.661    274.15886    222.06525 
   96250    132.87223   -1091.3599    145589.96   -39857.328    2680.1845   -42537.513    274.56236     224.3939 
   96300    135.40072   -1386.7695    145575.21   -39823.509    2731.1871   -42554.696    274.86987    228.66401 
   96350    133.66437   -1162.0636    145603.92    -39798.66    2696.1629   -42494.823    274.80078    225.73166 
   96400    133.75554   -1089.5398     145612.1   -39839.859    2698.0019   -42537.861    275.20186    225.88563 
   96450    133.76655   -1094.5617    145659.06   -39840.314    2698.2241   -42538.538    275.38896    225.90423 
   96500    131.46891   -1078.3237    145639.14   -39885.577    2651.8781   -42537.455    275.28252    222.02399 
   96550    132.73629   -1095.4224    145666.38   -39911.505    2677.4425   -42588.948    275.24557    224.16433 
   96600    131.62022   -1221.1571    145595.64   -39937.535    2654.9301   -42592.465     275.5968    222.27952 
   96650    134.13597    -1084.556    145523.34   -39928.694    2705.6755   -42634.369     275.3284    226.52809 
   96700    130.47811   -1124.6678    145449.14   -39968.085    2631.8925   -42599.978    275.27177    220.35073 
   96750     129.4673   -1148.3432    145439.36   -40004.706    2611.5032   -42616.209    276.06325    218.64367 
   96800    133.13513   -1093.1799    145401.87   -40030.316    2685.4875   -42715.803     275.9814    224.83789 
   96850    130.58478   -1097.9211    145427.21   -39999.842     2634.044   -42633.886    275.59518    220.53086 
   96900    134.09251   -1226.4045    145377.94   -39946.859     2704.799   -42651.658    276.03559    226.45471 
   96950    130.42916   -1253.4821    145328.73     -40004.8     2630.905   -42635.705    276.32132    220.26806 
   97000     130.4458   -1084.4669    145346.06   -40004.963    2631.2407   -42636.203    276.18808    220.29616 
   97050    130.87254   -1211.7673     145322.3   -39961.569    2639.8486   -42601.417    276.29714    221.01685 
   97100    132.21182   -1026.5519    145325.64   -39942.301    2666.8634   -42609.164    276.68491    223.27861 
   97150    134.29204   -990.48311    145325.77   -39906.557    2708.8237   -42615.381    276.40358    226.79167 
   97200    133.43598   -1051.2546    145357.83   -39874.933    2691.5561   -42566.489    276.55867    225.34597 
   97250    131.24682   -1001.8148    145416.15   -39953.941    2647.3981   -42601.339    276.61095    221.64892 
   97300    134.44291   -967.27288    145394.33   -39947.894     2711.867   -42659.761    277.08534    227.04646 
   97350    133.80744   -1196.5117    145420.13   -39863.053    2699.0488   -42562.102    277.19861    225.97328 
   97400    133.98458   -1095.4927    145427.69   -39902.091    2702.6219   -42604.713    277.82919    226.27244 
   97450    132.30882   -1109.5947    145445.27   -39985.251    2668.8199   -42654.071    278.12609    223.44242 
   97500    132.03471   -1165.3364    145473.99   -40044.172    2663.2907   -42707.463    277.83798     222.9795 
   97550    132.97113   -1237.0939    145513.99   -40008.395    2682.1796   -42690.574    277.95378    224.56093 
   97600     131.8601   -1043.8628    145489.28   -40008.564    2659.7688   -42668.333    277.80576    222.68463 
   97650    133.50404   -1126.6379    145549.28   -39954.455    2692.9289   -42647.384    277.94091    225.46091 
   97700    131.05074   -1248.9453    145559.99   -39985.389    2643.4431   -42628.832    278.19655    221.31779 
   97750    134.05759    -1042.808    145528.34   -39946.901    2704.0947   -42650.996    278.01123    226.39574 
   97800    131.09657   -1092.9017    145482.31    -39937.88    2644.3675   -42582.247    278.06175    221.39518 
   97850    133.87258   -1074.4177    145462.03   -40014.858    2700.3628   -42715.221     278.1422    226.08329 
   97900    128.59844   -993.71458    145451.63   -40052.207    2593.9774   -42646.184    278.53875    217.17636 
   97950    131.70349   -859.56626     145509.5    -39993.29    2656.6098     -42649.9    278.55038    222.42015 
   98000    134.98118   -1102.7116    145600.57    -39979.87    2722.7245   -42702.595    279.18626    227.95549 
   98050    132.33102   -1143.5826    145507.11   -39944.367    2669.2677   -42613.635    279.32079    223.47991 
   98100    133.96961   -1107.4368     145511.1   -39928.198    2702.3199   -42630.518    279.25594    226.24715 
   98150    133.01441   -877.87425    145583.28   -39957.518    2683.0525    -42640.57    279.64867    224.63401 
   98200    132.52843   -1248.6192    145707.92   -39957.969    2673.2497   -42631.219    279.92837     223.8133 
   98250    131.05725   -1067.6441    145706.17   -39986.811    2643.5744   -42630.385    279.90143    221.32878 
   98300     131.9671    -1352.456    145680.95   -40011.657    2661.9271   -42673.584     280.1199    222.86533 
   98350    129.31541   -1197.9296    145691.75   -39975.268    2608.4395   -42583.707    279.87074    218.38717 
   98400    129.16938   -1202.6343    145684.67   -39953.405    2605.4939   -42558.899    280.25812    218.14056 
   98450    136.45029   -1122.5596    145682.93    -39871.06    2752.3582   -42623.418    280.18259    230.43652 
   98500    132.91744   -1017.4967    145714.99   -39895.702    2681.0965   -42576.799    280.33944    224.47026 
   98550    131.76571    -1152.518    145791.82    -39916.08    2657.8648   -42573.945     280.9039    222.52522 
   98600    135.56014   -1129.8742    145734.23   -39912.643    2734.4028   -42647.046    281.29078    228.93323 
   98650      132.298   -1380.5518    145698.39   -39933.355    2668.6017   -42601.957     281.2152    223.42415 
   98700    133.26705   -1045.2159    145714.32    -39886.62    2688.1486   -42574.768    281.13953    225.06068 
   98750    134.04555   -1215.9069    145702.73   -39918.026    2703.8518   -42621.878    281.41207     226.3754 
   98800    130.88708   -1179.8943    145694.41   -39924.336    2640.1419   -42564.478     281.5028     221.0414 
   98850    130.58158   -1057.1403    145675.55   -39926.507    2633.9796   -42560.487    281.86929    220.52547 
   98900    131.60406   -1109.3742    145575.81   -39964.964    2654.6041   -42619.568    281.64706    222.25222 
   98950    131.53603   -1108.9683    145460.59   -39972.115    2653.2318   -42625.346    281.67694    222.13733 
   99000    135.25772     -1006.71    145455.76   -39944.018    2728.3027   -42672.321    281.30684    228.42251 
   99050    134.72177   -1097.6782    145421.99   -39941.369    2717.4918    -42658.86    281.36259    227.51739 
   99100    133.01698   -1098.0911    145456.59   -39972.137    2683.1043   -42655.241    281.88147    224.63836 
   99150    130.89201   -982.79014    145444.22   -39960.002    2640.2414   -42600.243    282.15409    221.04973 
   99200     132.0993   -1025.6963    145471.41   -39941.578    2664.5937   -42606.172      281.925    223.08859 
   99250    129.15076   -1112.4693    145523.14   -40012.036    2605.1183   -42617.154    282.03859    218.10911 
   99300    132.85749   -1078.7469    145509.16   -39989.021    2679.8873   -42668.909    282.42594    224.36902 
   99350    132.38181   -1078.1641    145500.43   -39936.615    2670.2923   -42606.907    282.30321    223.56569 
   99400    131.02717   -1011.1548    145461.78   -39917.282    2642.9676    -42560.25     282.3215    221.27798 
   99450    131.73109    -1177.084    145528.34   -39947.984    2657.1665    -42605.15    282.48176    222.46676 
   99500    132.99718   -1224.8208    145457.14   -39944.058    2682.7049   -42626.763    282.87369    224.60491 
   99550    131.22915   -1454.3847     145447.3   -39994.751    2647.0418   -42641.792    282.97622    221.61908 
   99600    127.66023   -1194.8585    145370.34   -39995.289    2575.0527   -42570.341    283.25514    215.59191 
   99650    130.31689   -1408.0404    145345.09   -40019.696    2628.6404   -42648.336     283.5502    220.07846 
   99700    132.17619   -1021.9736    145298.49   -40056.467    2666.1446   -42722.611    283.49713    223.21843 
   99750    130.67081    -996.3456    145373.65    -40057.51    2635.7794    -42693.29     283.9941    220.67616 
   99800    128.81013   -1222.4996    145423.83   -40045.095    2598.2474   -42643.342    283.84206    217.53386 
   99850    130.95097   -1097.1544    145449.58   -40025.505    2641.4306   -42666.936    283.15556    221.14929 
   99900    131.40495    -996.5458    145502.88   -39995.789    2650.5879   -42646.377    283.21629    221.91598 
   99950    129.98749   -920.51099    145594.08   -39959.135    2621.9962   -42581.131    283.41698    219.52218 
  100000    133.89354   -1084.7338    145639.64   -39912.838    2700.7855   -42613.623    283.65666    226.11868 
Loop time of 318.93 on 40 procs for 100000 steps with 6768 atoms

Performance: 135.453 ns/day, 0.177 hours/ns, 313.548 timesteps/s
99.6% CPU use with 40 MPI tasks x no OpenMP threads

MPI task timing breakdown:
Section |  min time  |  avg time  |  max time  |%varavg| %total
---------------------------------------------------------------
Pair    | 49.521     | 133.95     | 257.04     | 639.0 | 42.00
Neigh   | 1.9348     | 4.0709     | 11.209     | 165.6 |  1.28
Comm    | 36.232     | 120.77     | 151.96     | 338.7 | 37.87
Output  | 0.17219    | 0.17838    | 0.27717    |   3.8 |  0.06
Modify  | 8.3754     | 58.557     | 129.2      | 739.2 | 18.36
Other   |            | 1.403      |            |       |  0.44

Nlocal:    169.2 ave 383 max 113 min
Histogram: 32 0 0 0 0 0 0 0 2 6
Nghost:    1271.67 ave 1621 max 855 min
Histogram: 16 0 0 0 0 0 0 0 16 8
Neighs:    0 ave 0 max 0 min
Histogram: 40 0 0 0 0 0 0 0 0 0
FullNghs:  19969 ave 69425 max 7029 min
Histogram: 32 0 0 0 0 0 0 0 0 8

Total # of neighbors = 798762
Ave neighs/atom = 118.02
Neighbor list builds = 6133
Dangerous builds = 0

write_data		${DIR}/data.eq-${NAME}-${TEMP}
write_data		run_10/data.eq-${NAME}-${TEMP}
write_data		run_10/data.eq-het_freeze_10-${TEMP}
write_data		run_10/data.eq-het_freeze_10-225
undump          1

reset_timestep  0

unfix           2
unfix           3
unfix           4


################################################
#######         Run Simulation         #########
################################################

log				${DIR}/log.run_${NAME}
log				run_10/log.run_${NAME}
log				run_10/log.run_het_freeze_10
