LAMMPS data file via write_data, version 16 Mar 2018, timestep = 6000000

6489 atoms
2 atom types

0.0000000000000000e+00 4.9219999999999999e+01 xlo xhi
0.0000000000000000e+00 4.9019635930410494e+01 ylo yhi
6.3164105779529578e-01 5.9430358942204407e+01 zlo zhi

Masses

1 18.015
2 12.01

Atoms # atomic

1498 1 1.3212753413982732e+00 2.3450778331618771e+00 1.6873470927411467e+00 -1 1 1
3577 1 3.7243609924804684e+00 3.1631222915933530e+00 2.9843317316021105e+00 -1 1 0
3437 1 3.7262687214859840e+00 3.3189504020836762e+00 5.5359440436573895e+00 0 0 0
5057 1 5.9701566435233611e+00 1.9724473748273910e+00 1.7470959096544962e+00 1 -1 0
3054 1 8.4364947656368177e+00 2.8318382717082735e+00 2.8560750253180367e+00 1 2 1
1487 1 8.1653696194538732e+00 2.8719878369744682e+00 5.7154748956452357e+00 -1 2 1
4635 1 1.4125787963369407e+00 6.9757107820143469e+00 2.9976580495481362e+00 1 -1 1
1333 1 3.7609779689988247e+00 5.9474188195708004e+00 2.2084089062745882e+00 -2 1 1
6337 1 1.6553806705821992e+00 7.1387668210881650e+00 5.5574290280422156e+00 0 2 1
3292 1 6.2548785285338715e+00 7.0911509676586491e+00 2.7615762014618785e+00 1 -2 0
3136 1 8.5170593280203235e+00 5.5076631758583545e+00 1.9198052868121085e+00 -1 -1 1
1756 1 6.3881668127139424e+00 6.9716703023120514e+00 5.5012334552415201e+00 1 -2 0
4802 1 1.8443381714616953e+00 9.3842997120498577e+00 1.9053708862852139e+00 1 1 0
2029 1 4.0240666388253610e+00 1.0964713108659382e+01 2.6367834000069106e+00 3 3 0
3164 1 6.3697354746884667e+00 9.7132845403849686e+00 2.1353221552817825e+00 3 -1 0
4683 1 8.7490256602456036e+00 1.0560119784231478e+01 3.0274186492772377e+00 0 -1 1
3031 1 1.9374211499348821e+00 1.4678046504301014e+01 2.6005660085401869e+00 0 2 1
2864 1 4.2247940094600667e+00 1.3615437033294713e+01 1.8449615683935152e+00 0 0 1
6374 1 6.5438220758415211e+00 1.4765416303148221e+01 2.4534788025034153e+00 2 1 0
3109 1 8.8830236977361565e+00 1.3100570518080499e+01 1.8185777519700130e+00 1 1 1
1823 1 6.6029664076348276e+00 1.4520509092551086e+01 5.4468842750801629e+00 0 2 1
5172 1 2.3870550611100518e+00 1.4132126543418938e+01 1.0265026331702684e+01 2 -2 0
171 1 3.9764554988620182e-01 4.7124710731592204e-02 8.9804213974359079e+00 0 0 1
5035 1 3.8883506473998559e+00 5.7336812278259408e-01 6.2732983173467076e+00 0 -1 0
1890 1 9.3249288753367221e+00 5.3667386415796781e-01 8.8612905305663485e+00 -1 4 0
3247 1 8.6023176013900624e+00 1.6110007831560761e+01 6.5830729726298260e+00 -1 -2 0
1761 1 6.2543339590767069e+00 3.7296035520231334e+00 9.2925434453001152e+00 0 0 0
317 1 3.8512165977765314e+00 2.7035182368107602e+00 1.0152985897959940e+01 1 -2 0
2979 1 8.9288370306504685e+00 1.5468674191268468e+01 9.6421720123636057e+00 2 1 1
5249 1 1.6856653199865606e+00 4.0139102488503884e+00 9.3916765007824150e+00 1 -2 0
1983 1 1.5119181433581488e+00 4.5668402366565006e+00 6.6456231790297569e+00 -1 -1 0
1839 1 4.0357978993388688e+00 7.9774478743477069e+00 8.9824507860279130e+00 1 3 0
2155 1 8.6666926997849583e+00 2.9023244021477015e+00 1.0182115784996851e+01 -2 1 1
4561 1 6.1582925015497292e+00 4.4028415782009018e+00 6.5938500749876967e+00 2 1 0
1624 1 8.4719893440988816e+00 7.7420594486220811e+00 9.0515772132406074e+00 3 3 0
3442 1 8.8372810730841245e+00 7.6300652897378765e+00 6.5295455005087826e+00 -1 2 0
1775 1 6.2296572922043465e+00 6.6211790154018395e+00 1.0017644680715605e+01 -1 1 1
1527 1 4.4553064434557550e+00 1.1031841427179094e+01 5.3918460834923367e+00 1 1 0
1631 1 4.2253250917348346e+00 8.3762725843120780e+00 6.2800209328492196e+00 0 1 1
5373 1 2.0553169581351507e+00 1.1826029009182651e+01 6.2776638431733502e+00 1 -1 1
2161 1 2.1232834024821190e+00 1.1738776382089826e+01 9.0368989225466496e+00 1 1 1
411 1 3.1416103247777216e+00 3.5647868022585261e-01 8.8811943723611915e+00 0 1 0
3052 1 8.8219324170056073e+00 1.0418533670807689e+01 5.8943567426844687e+00 1 0 1
4698 1 6.8187287724089805e+00 1.2018695990923259e+01 6.5876495762402767e+00 -2 4 1
1602 1 6.4351763814888692e+00 1.1402479018383685e+01 9.3622326265010312e+00 2 0 0
2943 1 8.5001133391253401e+00 1.7630257445849848e-01 6.4369379573687411e+00 2 0 1
1647 1 1.6864992295373438e+00 1.4537227625541517e+01 5.4413541711388920e+00 -1 -1 1
4753 1 4.4980537261348355e+00 1.5320098242948809e+01 9.1222183129298404e+00 2 -1 1
1529 1 4.1954492999167350e+00 1.5576275098502821e+01 6.4328787252684840e+00 -2 1 1
478 1 1.8820809986638247e+00 6.5608402390602647e+00 1.0287830762817975e+01 0 2 1
1894 1 8.7569540982518408e+00 1.0023892855963712e+01 1.0340583566332841e+01 3 -1 0
3157 1 1.4015130656565222e-01 1.0258190290416019e+01 1.0359533328504469e+01 -1 -3 1
5008 1 4.2700745401918159e+00 2.2099503547076171e+00 1.2937279468029677e+01 3 -1 0
3485 1 1.8621562918071544e+00 3.2774408216556689e-01 1.6241614316153182e+01 -2 -3 0
3320 1 1.6065728983743357e+00 6.0638714856351483e-01 1.3285390194080920e+01 0 0 0
1679 1 8.5371457834524609e+00 1.9854206199281896e+00 1.2635505191265187e+01 1 2 0
1483 1 2.0001784484064093e+00 6.2571118423487944e+00 1.2993097647511817e+01 -2 1 1
1916 1 4.2132185187818978e+00 4.8877812096878444e+00 1.3874879965487484e+01 0 0 0
3304 1 8.4150347419780740e+00 4.6758927330044964e+00 1.4058542018271947e+01 0 2 1
2193 1 6.3735601263826478e+00 6.3601014927363924e+00 1.2885704928861314e+01 -1 -1 1
2888 1 1.8267012663750668e+00 8.6404742110867137e+00 1.4141932175238070e+01 -2 2 1
6156 1 4.1753459777814159e+00 9.9198771092148679e+00 1.3320857251048855e+01 -2 -1 1
4880 1 6.5752600612791516e+00 8.7818397888347768e+00 1.4085111112580954e+01 3 -1 0
1910 1 8.8731871913597864e+00 1.0448121429648744e+01 1.2854171778259637e+01 -1 0 0
94 1 4.3709754660613482e+00 1.2823230758508135e+01 1.4061753597256915e+01 2 -1 0
5327 1 1.8951862971202145e+00 1.3901237233253962e+01 1.3203409036336469e+01 2 1 0
1427 1 8.6862061180260959e+00 1.2713483242294012e+01 1.4067411987985604e+01 -1 0 1
1736 1 6.5236955123999092e+00 1.4120670669854247e+01 1.3239879049430092e+01 1 0 1
1429 1 1.8078069525824862e+00 2.7567960813602848e+00 2.0135899399420182e+01 2 2 1
3631 1 1.8293278806679090e+00 2.9049249542628028e+00 1.7426944179999833e+01 2 2 1
6179 1 6.3132660684004058e+00 2.7473153426386148e+00 1.7106393743941258e+01 2 0 1
142 1 6.1943637326861118e+00 1.0740346698175643e-01 1.6402370135752022e+01 -2 2 0
3162 1 6.4174680423184016e+00 2.0408669738163862e-01 1.3693548334201887e+01 3 -1 0
3378 1 4.1324057992829673e+00 4.2600527929906402e+00 1.6392106535103139e+01 -2 0 1
1944 1 4.0539546171150160e+00 6.9599689646377243e+00 1.7527061435999951e+01 1 -1 0
2883 1 3.9379014281346540e+00 1.5152257300251957e+01 1.7501513519807570e+01 1 -1 1
1460 1 8.6032574151001047e+00 4.5394368367354767e+00 1.6876445200984914e+01 -1 -1 1
5086 1 8.5771904998379469e+00 6.9559437553273549e+00 1.7790505468963232e+01 -1 2 0
1414 1 4.1216536201125420e+00 1.2580284563321495e+01 1.6883485411865010e+01 -1 0 1
3033 1 8.5637500549729761e+00 1.5285616863076811e+01 1.7780387247318611e+01 0 -1 1
6422 1 1.9606822474077712e+00 8.6399562662440754e+00 1.6824824387588897e+01 1 1 1
347 1 1.6779418142068567e+00 1.1468246498741479e+01 1.7334157194019443e+01 -1 -1 0
3173 1 6.5664962905416413e+00 8.8634545655633250e+00 1.6931875794698225e+01 1 1 1
4892 1 6.4083722932697817e+00 1.1412659655069502e+01 1.7827711347619033e+01 1 0 0
150 1 6.2700266167055716e+00 2.5340045871008865e+00 1.9863360642199357e+01 -2 3 0
51 1 8.5212021317203703e+00 1.2539471654402279e+01 1.6982676345600307e+01 1 0 1
3151 1 2.1678570580289871e+00 1.1364578872536478e+01 1.9923169761253263e+01 1 -2 1
3121 1 4.0946917659081148e+00 1.5041739062106135e+01 2.0229053822055324e+01 1 1 0
5145 1 4.2938983834099513e+00 6.6348115455837009e+00 2.0218517009690512e+01 2 1 0
1395 1 6.8304784293863259e+00 1.4033418568205979e+01 1.0509357928907708e+01 1 0 0
2861 1 4.3299698569461764e+00 1.0337532945024712e+01 1.0483131972097610e+01 4 0 1
4573 1 1.9360149250062024e+00 2.4478643738853298e+00 2.3944716835647295e+01 1 0 0
1320 1 4.2102283886582788e+00 1.2414104270340645e+00 2.3324864227160415e+01 -1 0 1
1296 1 4.1206712136265535e+00 1.1569359530932284e+00 2.0658553123084499e+01 -2 1 0
740 2 7.3829999999999991e+00 1.5629449137232333e+01 2.6719688478935684e+01 0 0 0
3036 1 6.3007625576933490e+00 2.5078890986980529e+00 2.4022533059748369e+01 -1 -2 0
1419 1 8.7274666536318897e+00 1.2375113048690327e+00 2.3221830302419882e+01 1 1 1
3563 1 8.7817308851260378e+00 1.1745322673848857e+00 2.0490132004057404e+01 1 0 0
3134 1 2.0952947564481770e+00 5.1470448972334308e+00 2.1182744568669957e+01 2 0 0
5369 1 1.9294505944115277e+00 4.9778852534439402e+00 2.3827681211786739e+01 1 3 1
2110 1 4.0752338195948532e+00 6.5660554796216646e+00 2.4144755205028325e+01 0 3 1
6185 1 6.6181230302359113e+00 5.1236201903740799e+00 2.0916422310956573e+01 1 -2 1
4489 1 6.3697336968855875e+00 5.1636324848831059e+00 2.3704635052204207e+01 2 0 0
331 1 8.4642030578407059e+00 6.7686458195757693e+00 2.3792178830220259e+01 0 0 0
1831 1 4.1065647726074097e+00 9.4696302252725157e+00 2.0947619174308748e+01 1 1 0
2060 1 1.8057303840284034e+00 1.1123762910199105e+01 2.4547031521965700e+01 0 0 0
1578 1 4.1321991996305760e+00 9.5548945073184512e+00 2.3545115122573357e+01 1 -1 0
2933 1 6.4330802175538153e+00 1.1070012904447838e+01 2.3867261789009063e+01 1 0 1
3167 1 8.7736550329644754e+00 9.7070619711679988e+00 2.4122555804140504e+01 1 0 1
9 1 9.0766834691632976e+00 9.5504509382951586e+00 2.1382357444143377e+01 1 1 1
4509 1 1.8000476529533578e+00 1.4014367835681210e+01 2.0789395997249265e+01 -1 1 1
6193 1 1.7773936540381807e+00 1.3742102476964018e+01 2.3569822822724831e+01 -1 1 1
4554 1 3.9877673929724988e+00 1.5056858239792776e+01 2.3999362475706892e+01 2 -1 0
1993 1 9.0153356172993906e+00 1.5053839910985200e+01 2.4318757871910744e+01 0 1 0
1876 1 6.5670276348634138e+00 1.3709021547534368e+01 2.3971034897169506e+01 1 0 0
1760 1 6.4361864121826642e+00 1.3660328950116796e+01 2.0913789478026892e+01 -1 -1 1
572 2 0.0000000000000000e+00 2.8417180249513345e+00 2.6719688478935684e+01 0 0 0
574 2 0.0000000000000000e+00 0.0000000000000000e+00 2.6719688478935684e+01 0 0 0
576 2 1.2305000000000001e+00 7.1042950623783474e-01 2.6719688478935684e+01 0 0 0
583 2 1.2305000000000001e+00 2.1312885187134998e+00 2.6719688478935684e+01 0 0 0
585 2 2.4610000000000003e+00 2.8417180249513345e+00 2.6719688478935684e+01 0 0 0
587 2 2.4610000000000003e+00 0.0000000000000000e+00 2.6719688478935684e+01 0 0 0
589 2 3.6915000000000004e+00 7.1042950623783474e-01 2.6719688478935684e+01 0 0 0
604 2 3.6914999999999996e+00 2.1312885187134998e+00 2.6719688478935684e+01 0 0 0
606 2 4.9220000000000006e+00 2.8417180249513332e+00 2.6719688478935684e+01 0 0 0
608 2 4.9220000000000006e+00 0.0000000000000000e+00 2.6719688478935684e+01 0 0 0
610 2 6.1524999999999999e+00 7.1042950623783407e-01 2.6719688478935684e+01 0 0 0
633 2 6.1524999999999999e+00 2.1312885187134989e+00 2.6719688478935684e+01 0 0 0
635 2 7.3829999999999991e+00 2.8417180249513345e+00 2.6719688478935684e+01 0 0 0
637 2 7.3829999999999991e+00 0.0000000000000000e+00 2.6719688478935684e+01 0 0 0
639 2 8.6134999999999984e+00 7.1042950623783407e-01 2.6719688478935684e+01 0 0 0
670 2 8.6134999999999984e+00 2.1312885187135002e+00 2.6719688478935684e+01 0 0 0
579 2 0.0000000000000000e+00 4.2625770374269996e+00 2.6719688478935684e+01 0 0 0
581 2 1.2305000000000001e+00 4.9730065436648339e+00 2.6719688478935684e+01 0 0 0
596 2 1.2305000000000001e+00 6.3938655561404980e+00 2.6719688478935684e+01 0 0 0
600 2 2.4610000000000003e+00 4.2625770374269996e+00 2.6719688478935684e+01 0 0 0
602 2 3.6914999999999996e+00 4.9730065436648339e+00 2.6719688478935684e+01 0 0 0
625 2 3.6914999999999996e+00 6.3938655561404980e+00 2.6719688478935684e+01 0 0 0
577 2 0.0000000000000000e+00 7.1042950623783341e+00 2.6719688478935684e+01 0 0 0
598 2 2.4610000000000003e+00 7.1042950623783341e+00 2.6719688478935684e+01 0 0 0
629 2 4.9220000000000006e+00 4.2625770374269978e+00 2.6719688478935684e+01 0 0 0
631 2 6.1524999999999999e+00 4.9730065436648339e+00 2.6719688478935684e+01 0 0 0
662 2 6.1524999999999999e+00 6.3938655561404980e+00 2.6719688478935684e+01 0 0 0
666 2 7.3829999999999991e+00 4.2625770374269996e+00 2.6719688478935684e+01 0 0 0
668 2 8.6135000000000002e+00 4.9730065436648339e+00 2.6719688478935684e+01 0 0 0
707 2 8.6135000000000002e+00 6.3938655561404980e+00 2.6719688478935684e+01 0 0 0
627 2 4.9220000000000006e+00 7.1042950623783341e+00 2.6719688478935684e+01 0 0 0
664 2 7.3830000000000009e+00 7.1042950623783341e+00 2.6719688478935684e+01 0 0 0
592 2 0.0000000000000000e+00 8.5251540748539991e+00 2.6719688478935684e+01 0 0 0
594 2 1.2305000000000001e+00 9.2355835810918343e+00 2.6719688478935684e+01 0 0 0
621 2 2.4610000000000003e+00 8.5251540748539991e+00 2.6719688478935684e+01 0 0 0
623 2 3.6915000000000004e+00 9.2355835810918343e+00 2.6719688478935684e+01 0 0 0
590 2 0.0000000000000000e+00 1.1366872099805333e+01 2.6719688478935684e+01 0 0 0
617 2 1.2305000000000001e+00 1.0656442593567498e+01 2.6719688478935684e+01 0 0 0
619 2 2.4610000000000003e+00 1.1366872099805333e+01 2.6719688478935684e+01 0 0 0
654 2 3.6914999999999996e+00 1.0656442593567499e+01 2.6719688478935684e+01 0 0 0
658 2 4.9220000000000006e+00 8.5251540748539991e+00 2.6719688478935684e+01 0 0 0
660 2 6.1524999999999999e+00 9.2355835810918343e+00 2.6719688478935684e+01 0 0 0
703 2 7.3830000000000009e+00 8.5251540748539991e+00 2.6719688478935684e+01 0 0 0
705 2 8.6134999999999984e+00 9.2355835810918343e+00 2.6719688478935684e+01 0 0 0
656 2 4.9220000000000006e+00 1.1366872099805333e+01 2.6719688478935684e+01 0 0 0
699 2 6.1524999999999999e+00 1.0656442593567499e+01 2.6719688478935684e+01 0 0 0
701 2 7.3829999999999991e+00 1.1366872099805333e+01 2.6719688478935684e+01 0 0 0
746 2 8.6134999999999984e+00 1.0656442593567498e+01 2.6719688478935684e+01 0 0 0
652 2 3.6915000000000004e+00 1.3498160618518829e+01 2.6719688478935684e+01 0 0 0
691 2 3.6915000000000004e+00 1.4919019630994494e+01 2.6719688478935684e+01 0 0 0
646 2 1.2305000000000001e+00 1.4919019630994494e+01 2.6719688478935684e+01 0 0 0
648 2 2.4610000000000003e+00 1.5629449137232328e+01 2.6719688478935684e+01 0 0 0
611 2 0.0000000000000000e+00 1.5629449137232333e+01 2.6719688478935684e+01 0 0 0
615 2 1.2305000000000001e+00 1.3498160618518829e+01 2.6719688478935684e+01 0 0 0
613 2 0.0000000000000000e+00 1.2787731112280996e+01 2.6719688478935684e+01 0 0 0
650 2 2.4610000000000003e+00 1.2787731112280996e+01 2.6719688478935684e+01 0 0 0
695 2 4.9220000000000006e+00 1.2787731112280996e+01 2.6719688478935684e+01 0 0 0
697 2 6.1524999999999990e+00 1.3498160618518829e+01 2.6719688478935684e+01 0 0 0
693 2 4.9220000000000006e+00 1.5629449137232333e+01 2.6719688478935684e+01 0 0 0
742 2 7.3829999999999991e+00 1.2787731112280996e+01 2.6719688478935684e+01 0 0 0
738 2 6.1524999999999990e+00 1.4919019630994494e+01 2.6719688478935684e+01 0 0 0
785 2 8.6135000000000002e+00 1.4919019630994494e+01 2.6719688478935684e+01 0 0 0
744 2 8.6135000000000002e+00 1.3498160618518835e+01 2.6719688478935684e+01 0 0 0
6465 1 8.7373579253784932e+00 6.7899339223975916e+00 2.0394510916694824e+01 2 3 1
2139 1 8.7718625552791991e+00 1.5248770283843154e+01 2.0758489693980305e+01 2 0 1
4999 1 6.6137883671907511e+00 1.0896811976674313e+01 2.0659859489349184e+01 2 -2 0
573 2 0.0000000000000000e+00 1.4208590124756650e+00 3.0031000000000272e+01 0 0 0
575 2 0.0000000000000000e+00 0.0000000000000000e+00 3.0031000000000272e+01 0 0 0
584 2 1.2305000000000001e+00 2.1312885187134998e+00 3.0031000000000272e+01 0 0 0
586 2 2.4610000000000003e+00 1.4208590124756650e+00 3.0031000000000272e+01 0 0 0
588 2 2.4610000000000003e+00 0.0000000000000000e+00 3.0031000000000272e+01 0 0 0
605 2 3.6914999999999996e+00 2.1312885187134998e+00 3.0031000000000272e+01 0 0 0
582 2 1.2305000000000001e+00 3.5521475311891644e+00 3.0031000000000272e+01 0 0 0
603 2 3.6914999999999996e+00 3.5521475311891644e+00 3.0031000000000272e+01 0 0 0
901 2 0.0000000000000000e+00 2.8417180249513345e+00 3.3342311521021657e+01 0 0 0
902 2 0.0000000000000000e+00 0.0000000000000000e+00 3.3342311521021657e+01 0 0 0
903 2 1.2305000000000001e+00 7.1042950623783474e-01 3.3342311521021657e+01 0 0 0
907 2 1.2305000000000001e+00 2.1312885187134998e+00 3.3342311521021657e+01 0 0 0
908 2 2.4610000000000003e+00 2.8417180249513345e+00 3.3342311521021657e+01 0 0 0
909 2 2.4610000000000003e+00 0.0000000000000000e+00 3.3342311521021657e+01 0 0 0
910 2 3.6915000000000004e+00 7.1042950623783474e-01 3.3342311521021657e+01 0 0 0
918 2 3.6914999999999996e+00 2.1312885187134998e+00 3.3342311521021657e+01 0 0 0
607 2 4.9220000000000006e+00 1.4208590124756650e+00 3.0031000000000272e+01 0 0 0
609 2 4.9220000000000006e+00 0.0000000000000000e+00 3.0031000000000272e+01 0 0 0
634 2 6.1524999999999999e+00 2.1312885187134989e+00 3.0031000000000272e+01 0 0 0
636 2 7.3829999999999991e+00 1.4208590124756659e+00 3.0031000000000272e+01 0 0 0
638 2 7.3829999999999991e+00 0.0000000000000000e+00 3.0031000000000272e+01 0 0 0
671 2 8.6134999999999984e+00 2.1312885187135002e+00 3.0031000000000272e+01 0 0 0
632 2 6.1524999999999999e+00 3.5521475311891644e+00 3.0031000000000272e+01 0 0 0
669 2 8.6134999999999984e+00 3.5521475311891657e+00 3.0031000000000272e+01 0 0 0
919 2 4.9220000000000006e+00 2.8417180249513332e+00 3.3342311521021657e+01 0 0 0
920 2 4.9220000000000006e+00 0.0000000000000000e+00 3.3342311521021657e+01 0 0 0
921 2 6.1524999999999999e+00 7.1042950623783407e-01 3.3342311521021657e+01 0 0 0
933 2 6.1524999999999999e+00 2.1312885187134989e+00 3.3342311521021657e+01 0 0 0
934 2 7.3829999999999991e+00 2.8417180249513345e+00 3.3342311521021657e+01 0 0 0
935 2 7.3829999999999991e+00 0.0000000000000000e+00 3.3342311521021657e+01 0 0 0
936 2 8.6134999999999984e+00 7.1042950623783407e-01 3.3342311521021657e+01 0 0 0
952 2 8.6134999999999984e+00 2.1312885187135002e+00 3.3342311521021657e+01 0 0 0
578 2 0.0000000000000000e+00 5.6834360499026637e+00 3.0031000000000272e+01 0 0 0
580 2 0.0000000000000000e+00 4.2625770374269996e+00 3.0031000000000272e+01 0 0 0
597 2 1.2305000000000001e+00 6.3938655561404980e+00 3.0031000000000272e+01 0 0 0
599 2 2.4610000000000003e+00 5.6834360499026637e+00 3.0031000000000272e+01 0 0 0
601 2 2.4610000000000003e+00 4.2625770374269996e+00 3.0031000000000272e+01 0 0 0
626 2 3.6914999999999996e+00 6.3938655561404980e+00 3.0031000000000272e+01 0 0 0
595 2 1.2305000000000001e+00 7.8147245686161639e+00 3.0031000000000272e+01 0 0 0
624 2 3.6914999999999996e+00 7.8147245686161639e+00 3.0031000000000272e+01 0 0 0
905 2 0.0000000000000000e+00 4.2625770374269996e+00 3.3342311521021657e+01 0 0 0
906 2 1.2305000000000001e+00 4.9730065436648339e+00 3.3342311521021657e+01 0 0 0
914 2 1.2305000000000001e+00 6.3938655561404980e+00 3.3342311521021657e+01 0 0 0
916 2 2.4610000000000003e+00 4.2625770374269996e+00 3.3342311521021657e+01 0 0 0
917 2 3.6914999999999996e+00 4.9730065436648339e+00 3.3342311521021657e+01 0 0 0
929 2 3.6914999999999996e+00 6.3938655561404980e+00 3.3342311521021657e+01 0 0 0
904 2 0.0000000000000000e+00 7.1042950623783341e+00 3.3342311521021657e+01 0 0 0
915 2 2.4610000000000003e+00 7.1042950623783341e+00 3.3342311521021657e+01 0 0 0
628 2 4.9220000000000006e+00 5.6834360499026637e+00 3.0031000000000272e+01 0 0 0
630 2 4.9220000000000006e+00 4.2625770374269978e+00 3.0031000000000272e+01 0 0 0
663 2 6.1524999999999999e+00 6.3938655561404980e+00 3.0031000000000272e+01 0 0 0
665 2 7.3829999999999991e+00 5.6834360499026637e+00 3.0031000000000272e+01 0 0 0
667 2 7.3829999999999991e+00 4.2625770374269996e+00 3.0031000000000272e+01 0 0 0
708 2 8.6135000000000002e+00 6.3938655561404980e+00 3.0031000000000272e+01 0 0 0
661 2 6.1524999999999999e+00 7.8147245686161639e+00 3.0031000000000272e+01 0 0 0
706 2 8.6135000000000002e+00 7.8147245686161639e+00 3.0031000000000272e+01 0 0 0
931 2 4.9220000000000006e+00 4.2625770374269978e+00 3.3342311521021657e+01 0 0 0
932 2 6.1524999999999999e+00 4.9730065436648339e+00 3.3342311521021657e+01 0 0 0
948 2 6.1524999999999999e+00 6.3938655561404980e+00 3.3342311521021657e+01 0 0 0
950 2 7.3829999999999991e+00 4.2625770374269996e+00 3.3342311521021657e+01 0 0 0
951 2 8.6135000000000002e+00 4.9730065436648339e+00 3.3342311521021657e+01 0 0 0
971 2 8.6135000000000002e+00 6.3938655561404980e+00 3.3342311521021657e+01 0 0 0
930 2 4.9220000000000006e+00 7.1042950623783341e+00 3.3342311521021657e+01 0 0 0
949 2 7.3830000000000009e+00 7.1042950623783341e+00 3.3342311521021657e+01 0 0 0
591 2 0.0000000000000000e+00 9.9460130873296642e+00 3.0031000000000272e+01 0 0 0
593 2 0.0000000000000000e+00 8.5251540748539991e+00 3.0031000000000272e+01 0 0 0
620 2 2.4610000000000003e+00 9.9460130873296642e+00 3.0031000000000272e+01 0 0 0
622 2 2.4610000000000003e+00 8.5251540748539991e+00 3.0031000000000272e+01 0 0 0
616 2 1.2305000000000001e+00 1.2077301606043163e+01 3.0031000000000272e+01 0 0 0
618 2 1.2305000000000001e+00 1.0656442593567498e+01 3.0031000000000272e+01 0 0 0
653 2 3.6914999999999996e+00 1.2077301606043163e+01 3.0031000000000272e+01 0 0 0
655 2 3.6914999999999996e+00 1.0656442593567499e+01 3.0031000000000272e+01 0 0 0
912 2 0.0000000000000000e+00 8.5251540748539991e+00 3.3342311521021657e+01 0 0 0
913 2 1.2305000000000001e+00 9.2355835810918343e+00 3.3342311521021657e+01 0 0 0
927 2 2.4610000000000003e+00 8.5251540748539991e+00 3.3342311521021657e+01 0 0 0
928 2 3.6915000000000004e+00 9.2355835810918343e+00 3.3342311521021657e+01 0 0 0
911 2 0.0000000000000000e+00 1.1366872099805333e+01 3.3342311521021657e+01 0 0 0
925 2 1.2305000000000001e+00 1.0656442593567498e+01 3.3342311521021657e+01 0 0 0
926 2 2.4610000000000003e+00 1.1366872099805333e+01 3.3342311521021657e+01 0 0 0
944 2 3.6914999999999996e+00 1.0656442593567499e+01 3.3342311521021657e+01 0 0 0
657 2 4.9220000000000006e+00 9.9460130873296642e+00 3.0031000000000272e+01 0 0 0
659 2 4.9220000000000006e+00 8.5251540748539991e+00 3.0031000000000272e+01 0 0 0
702 2 7.3830000000000009e+00 9.9460130873296642e+00 3.0031000000000272e+01 0 0 0
704 2 7.3830000000000009e+00 8.5251540748539991e+00 3.0031000000000272e+01 0 0 0
698 2 6.1524999999999999e+00 1.2077301606043163e+01 3.0031000000000272e+01 0 0 0
700 2 6.1524999999999999e+00 1.0656442593567499e+01 3.0031000000000272e+01 0 0 0
745 2 8.6135000000000002e+00 1.2077301606043163e+01 3.0031000000000272e+01 0 0 0
747 2 8.6134999999999984e+00 1.0656442593567498e+01 3.0031000000000272e+01 0 0 0
946 2 4.9220000000000006e+00 8.5251540748539991e+00 3.3342311521021657e+01 0 0 0
947 2 6.1524999999999999e+00 9.2355835810918343e+00 3.3342311521021657e+01 0 0 0
969 2 7.3830000000000009e+00 8.5251540748539991e+00 3.3342311521021657e+01 0 0 0
970 2 8.6134999999999984e+00 9.2355835810918343e+00 3.3342311521021657e+01 0 0 0
945 2 4.9220000000000006e+00 1.1366872099805333e+01 3.3342311521021657e+01 0 0 0
967 2 6.1524999999999999e+00 1.0656442593567499e+01 3.3342311521021657e+01 0 0 0
968 2 7.3829999999999991e+00 1.1366872099805333e+01 3.3342311521021657e+01 0 0 0
991 2 8.6134999999999984e+00 1.0656442593567498e+01 3.3342311521021657e+01 0 0 0
614 2 0.0000000000000000e+00 1.2787731112280996e+01 3.0031000000000272e+01 0 0 0
651 2 2.4610000000000003e+00 1.2787731112280996e+01 3.0031000000000272e+01 0 0 0
612 2 0.0000000000000000e+00 1.4208590124756663e+01 3.0031000000000272e+01 0 0 0
647 2 1.2305000000000001e+00 1.4919019630994494e+01 3.0031000000000272e+01 0 0 0
649 2 2.4610000000000003e+00 1.4208590124756663e+01 3.0031000000000272e+01 0 0 0
692 2 3.6915000000000004e+00 1.4919019630994494e+01 3.0031000000000272e+01 0 0 0
923 2 0.0000000000000000e+00 1.2787731112280996e+01 3.3342311521021657e+01 0 0 0
924 2 1.2305000000000001e+00 1.3498160618518829e+01 3.3342311521021657e+01 0 0 0
942 2 2.4610000000000003e+00 1.2787731112280996e+01 3.3342311521021657e+01 0 0 0
943 2 3.6915000000000004e+00 1.3498160618518829e+01 3.3342311521021657e+01 0 0 0
922 2 0.0000000000000000e+00 1.5629449137232333e+01 3.3342311521021657e+01 0 0 0
940 2 1.2305000000000001e+00 1.4919019630994494e+01 3.3342311521021657e+01 0 0 0
941 2 2.4610000000000003e+00 1.5629449137232328e+01 3.3342311521021657e+01 0 0 0
963 2 3.6915000000000004e+00 1.4919019630994494e+01 3.3342311521021657e+01 0 0 0
696 2 4.9220000000000006e+00 1.2787731112280996e+01 3.0031000000000272e+01 0 0 0
743 2 7.3829999999999991e+00 1.2787731112280996e+01 3.0031000000000272e+01 0 0 0
694 2 4.9220000000000006e+00 1.4208590124756663e+01 3.0031000000000272e+01 0 0 0
739 2 6.1524999999999990e+00 1.4919019630994494e+01 3.0031000000000272e+01 0 0 0
741 2 7.3830000000000009e+00 1.4208590124756663e+01 3.0031000000000272e+01 0 0 0
786 2 8.6135000000000002e+00 1.4919019630994494e+01 3.0031000000000272e+01 0 0 0
965 2 4.9220000000000006e+00 1.2787731112280996e+01 3.3342311521021657e+01 0 0 0
966 2 6.1524999999999990e+00 1.3498160618518829e+01 3.3342311521021657e+01 0 0 0
989 2 7.3829999999999991e+00 1.2787731112280996e+01 3.3342311521021657e+01 0 0 0
990 2 8.6135000000000002e+00 1.3498160618518835e+01 3.3342311521021657e+01 0 0 0
964 2 4.9220000000000006e+00 1.5629449137232333e+01 3.3342311521021657e+01 0 0 0
987 2 6.1524999999999990e+00 1.4919019630994494e+01 3.3342311521021657e+01 0 0 0
988 2 7.3829999999999991e+00 1.5629449137232333e+01 3.3342311521021657e+01 0 0 0
1011 2 8.6135000000000002e+00 1.4919019630994494e+01 3.3342311521021657e+01 0 0 0
1604 1 3.8802932017894922e+00 2.2537733374239628e+00 3.6248728933358834e+01 -2 2 -1
4710 1 1.8162919469494350e+00 3.8428034394672208e+00 3.5436272723501517e+01 2 2 0
6367 1 3.8981441051802825e+00 1.9314077658929600e+00 3.8862823912944293e+01 2 2 0
6292 1 8.3948374165054798e+00 1.1482898717086746e+01 3.8696681348384772e+01 1 0 -1
3100 1 6.5658815510493369e+00 3.5646987135794284e+00 3.5986581745548690e+01 1 -1 0
4993 1 8.8260730318166019e+00 1.7356494583068454e+00 3.9064419101848017e+01 1 2 -1
5393 1 5.6852739365646343e+00 1.0192585082694830e+01 3.9256917997233558e+01 1 3 -1
3381 1 8.8832051685095781e+00 1.7360713384164053e+00 3.6320570787147190e+01 1 2 -1
4742 1 2.3821389361978196e+00 6.3989193295109317e+00 3.6366220482584936e+01 2 2 0
5315 1 2.2788721980439668e+00 6.2451947936437886e+00 3.9304063740114486e+01 -2 2 -1
3184 1 3.4552407460495900e+00 1.4728396347608367e+01 3.8845767021466060e+01 0 0 -1
4694 1 2.7354908058301863e-01 7.9433527665128976e+00 3.5919228290377191e+01 -1 0 0
6260 1 6.3936068307458100e+00 2.9861625830046283e+00 3.9145919807474854e+01 1 1 0
237 1 4.8934249114956918e+00 7.8208352923507691e+00 3.5809872175796443e+01 0 -1 -1
5149 1 4.8892624764975059e+00 7.4715589442849248e+00 3.8759066413910006e+01 0 2 -1
3386 1 7.1309836783541920e+00 5.8345122743308817e+00 3.8745702862804151e+01 2 2 -1
4560 1 7.2414473850023739e+00 6.2438859287213573e+00 3.5946126208739443e+01 -3 -2 0
1946 1 8.2819780552560402e+00 1.3991476779086298e+01 3.6665969731573554e+01 0 -1 0
5379 1 6.3653484146623174e-01 1.0565122885644707e+01 3.6731580223558481e+01 -1 1 0
5119 1 6.2915271212068480e-01 1.0531224799562469e+01 3.9419655302458651e+01 -2 -1 -1
333 1 3.1064438085113548e+00 1.2007247733044439e+01 3.6558744321092135e+01 0 0 -1
1785 1 3.3586611051627382e+00 1.2045270144003778e+01 3.9512232258663914e+01 1 1 0
1368 1 6.1846715830266765e+00 1.6034888960196088e+01 3.6066518560607065e+01 0 -1 0
564 1 7.9856111194823205e+00 1.1345739179191574e+01 3.5622686148271114e+01 1 1 -1
4700 1 5.5309510605286549e+00 1.0515114384403534e+01 3.6453580340322148e+01 0 2 0
5194 1 9.7766806751956139e+00 7.4604764587538508e+00 3.5941572096130429e+01 0 0 0
107 1 3.7470041891762511e+00 1.4793935769965515e+01 3.5991139239800091e+01 1 0 -1
2863 1 6.0550318202325473e+00 1.5956291599774250e+01 3.9124435146530843e+01 -1 1 -1
2001 1 8.3008576560671958e+00 1.4264268696020867e+01 3.9515257629258343e+01 2 2 -1
4906 1 1.8834751569092405e+00 3.3817019478272634e+00 3.9769479967631000e+01 0 2 -1
1931 1 1.5460978926350262e+00 2.7447444036981103e+00 4.2350191853575012e+01 2 2 -1
6152 1 4.2619108189332451e+00 3.4344325195196364e+00 4.3402889363621000e+01 1 0 0
4756 1 1.3962468173142113e+00 1.9935127887738005e-02 4.2977747075156330e+01 -2 1 0
292 1 6.4907487025230850e+00 2.4452476304864348e+00 4.2039457022668273e+01 2 0 -1
176 1 8.6892618772316030e+00 3.9173279686898850e+00 4.3048546413817945e+01 -1 1 -1
4894 1 3.8493333711288424e+00 5.5497475932152387e+00 4.1965851614359806e+01 2 -1 0
5275 1 2.4052212932776205e+00 7.4635545089483344e+00 4.3540263540081398e+01 -3 1 -1
351 1 3.6758505820992959e+00 1.3151375265218869e+01 4.6909561031507579e+01 0 -1 -1
1641 1 1.1968022135448697e+00 1.4222090156868749e+01 4.5926491702977160e+01 1 2 0
42 1 8.1024258552663575e+00 6.0510215050507732e+00 4.1353027435899520e+01 1 -2 0
2872 1 6.0203247468397585e+00 7.1675106973928724e+00 4.2891709629892489e+01 -1 0 0
4780 1 3.7860505961512176e+00 9.9922354632541115e+00 4.3858403102564495e+01 0 0 0
6399 1 5.9314163632821639e+00 9.8839596897544908e+00 4.2109815802626102e+01 -1 0 0
193 1 8.2731270055677690e+00 1.0619078124451011e+01 4.3510316575298674e+01 0 -1 0
2984 1 3.0852793031916268e+00 1.2504941347394247e+01 4.2404581204479626e+01 -1 0 0
5348 1 8.8084175538734133e-01 1.3937878802395639e+01 4.3226169938549276e+01 0 0 -1
3360 1 7.9948288159634204e+00 1.3152415834882413e+01 4.2218110181119300e+01 1 0 0
3698 1 5.4741797156650396e+00 1.3695286238657726e+01 4.3193948686283647e+01 0 2 -1
5441 1 5.9101370502855577e+00 1.4124580558025249e+01 4.5872962499625046e+01 4 -2 0
4765 1 1.4244830082238977e+00 2.6425280666089037e+00 4.6582952490312337e+01 1 -3 0
3119 1 4.0109003683952977e+00 3.1928745754715520e+00 4.6024031995797174e+01 0 0 0
3560 1 1.4051653558565238e+00 2.1733200193443540e+00 4.9497578705301336e+01 1 1 -1
3276 1 8.2551839776525391e+00 3.5869939018667698e+00 4.5760112489552924e+01 -1 0 0
4875 1 6.3768557651886306e+00 2.0137278001973828e+00 4.6853850702557324e+01 -1 -1 -1
6190 1 9.1368913654485070e-04 4.8501007787868575e+00 4.5744488321659389e+01 4 2 0
6438 1 8.4214534280766404e+00 1.3202890646197817e+01 4.6979143587781692e+01 -1 1 0
100 1 4.1892174338867045e+00 5.7874337047882438e+00 4.6714917597162113e+01 -1 1 0