
# Create simulation box and atoms

read_data data.ML_graphite_m500atm_240K
  orthogonal box = (0 0 2.16312) to (49.22 49.0196 57.8989)
  5 by 3 by 6 MPI processor grid
  reading atoms ...
  6489 atoms
  reading velocities ...
  6489 velocities
group water type 1
3729 atoms in group water
group graphite type 2
2760 atoms in group graphite

# Define potential

pair_style sw
pair_coeff * * MLC_e.sw mW C


# Fix graphite atoms in place

fix 5 graphite setforce 0.0 0.0 0.0
velocity graphite set 0.0 0.0 0.0


# Equilibration of molecular water

# Add velocity/set timestep

velocity	    water create ${TEMP} ${SEED} rot yes dist gaussian
velocity	    water create 240 ${SEED} rot yes dist gaussian
velocity	    water create 240 31809 rot yes dist gaussian
timestep	    5.0

# Define output

compute			1 water msd
compute			3 water temp
thermo	    	50
thermo_style	custom step temp press vol etotal ke pe c_1[4] c_3

# Neighbor lists

neigh_modify    delay 0 every 1 check yes

# Set fixes

fix             1 water momentum 10 linear 1 1 1 rescale
fix             2 water nve
fix             3 water temp/csvr ${TEMP} ${TEMP} 500.0 ${SEED}
fix             3 water temp/csvr 240 ${TEMP} 500.0 ${SEED}
fix             3 water temp/csvr 240 240 500.0 ${SEED}
fix             3 water temp/csvr 240 240 500.0 31809
fix             4 water press/berendsen z ${PRES} ${PRES} 1000.0 modulus 20000
fix             4 water press/berendsen z -500 ${PRES} 1000.0 modulus 20000
fix             4 water press/berendsen z -500 -500 1000.0 modulus 20000

# Run 0.5 ns equilibration

dump		    1 all atom 2000 ${DIR}/eq.${NAME}-${TEMP}.dump
dump		    1 all atom 2000 run_8/eq.${NAME}-${TEMP}.dump
dump		    1 all atom 2000 run_8/eq.het_freeze_8-${TEMP}.dump
dump		    1 all atom 2000 run_8/eq.het_freeze_8-240.dump

reset_timestep  0

run	            100000
Neighbor list info ...
  update every 1 steps, delay 0 steps, check yes
  max neighbors/atom: 2000, page size: 100000
  master list distance cutoff = 6.67472
  ghost atom cutoff = 6.67472
  binsize = 3.33736, bins = 15 15 17
  1 neighbor lists, perpetual/occasional/extra = 1 0 0
  (1) pair sw, perpetual
      attributes: full, newton on
      pair build: full/bin/atomonly
      stencil: full/bin/3d
      bin: standard
Per MPI rank memory allocation (min/avg/max) = 4.071 | 4.223 | 4.502 Mbytes
Step Temp Press Volume TotEng KinEng PotEng c_1[4] c_3 
       0    137.90382   -585.46729    134476.24   -35583.071    2666.9904   -38250.061            0          240 
      50    138.29199   -512.53813    134587.45   -35642.267    2674.4974   -38316.765   0.49912209    240.67555 
     100    140.28745   -688.72883    134650.66   -35598.021    2713.0884   -38311.109   0.79979129    244.14832 
     150    137.24508    -538.8699    134689.97   -35659.264    2654.2507   -38313.515    1.0252295    238.85357 
     200    136.72367   -825.74472    134589.48   -35651.313    2644.1668    -38295.48    1.2343069    237.94613 
     250    137.41099   -697.35992    134560.88   -35626.379    2657.4592   -38283.838    1.4708862     239.1423 
     300    139.73349   -924.63357    134574.85   -35630.665    2702.3752    -38333.04    1.6416605    243.18425 
     350    140.19215   -661.34484    134566.53   -35623.154    2711.2455     -38334.4    1.8985589    243.98248 
     400    136.58602   -613.94318     134611.1   -35655.893    2641.5047   -38297.398    2.1342032    237.70657 
     450    140.48309   -675.66315    134638.75   -35628.454     2716.872   -38345.326    2.3308221     244.4888 
     500    139.88031   -559.29514    134677.19   -35662.374    2705.2147   -38367.589      2.46823    243.43978 
     550    139.02283   -872.09137    134738.83   -35627.243    2688.6313   -38315.875    2.6551433    241.94745 
     600    141.47433   -882.56386    134791.12   -35600.849    2736.0421   -38336.891     2.804451    246.21391 
     650    140.43911   -753.83164    134730.78   -35603.047    2716.0215   -38319.069    3.0089251    244.41227 
     700    139.07665   -827.73657    134721.12   -35632.788    2689.6723   -38322.461    3.1622185    242.04113 
     750    139.18796   -662.75171    134677.44   -35633.898     2691.825   -38325.723    3.3026087    242.23484 
     800     140.2718   -797.13126    134614.47   -35635.568    2712.7858   -38348.354    3.3942825    244.12109 
     850     138.9277   -685.38697    134583.52   -35632.279    2686.7917   -38319.071     3.567724    241.78191 
     900     136.9831    -533.3316    134631.35   -35645.604     2649.184   -38294.788    3.7300064    238.39762 
     950    136.03786   -838.73747    134609.21   -35644.083    2630.9036   -38274.986     3.865145    236.75259 
    1000    138.43953   -810.14997    134547.05   -35626.735    2677.3508   -38304.086    4.0256266    240.93232 
    1050    139.58808     -917.014    134506.83   -35612.803     2699.563   -38312.366    4.1184721    242.93118 
    1100    139.22944   -583.42164    134476.57   -35584.866    2692.6272   -38277.493    4.3511821    242.30703 
    1150    138.78857   -799.70907    134548.43   -35610.896     2684.101   -38294.997    4.5498171    241.53977 
    1200    140.77636   -587.24612    134582.34   -35591.702    2722.5438   -38314.245    4.7076615     244.9992 
    1250     140.0892   -492.32532    134627.58   -35589.559    2709.2544   -38298.814    4.8738249     243.8033 
    1300     137.1464   -712.77521    134622.78   -35569.519    2652.3423   -38221.861    5.0617981    238.68183 
    1350    139.62555   -543.47633    134616.45   -35562.088    2700.2877   -38262.376    5.2622934     242.9964 
    1400     138.7001   -619.09122     134726.9   -35543.763      2682.39   -38226.153    5.3976096     241.3858 
    1450      137.308    -599.9088    134703.08   -35582.514    2655.4675   -38237.981    5.5584382    238.96307 
    1500    140.00552   -607.34246    134757.29   -35560.379    2707.6362   -38268.016    5.7011649    243.65768 
    1550    140.63324   -769.70026    134738.58   -35517.618     2719.776   -38237.394    5.8782332    244.75013 
    1600    139.29338   -776.29056    134730.47   -35579.694    2693.8637   -38273.558    6.0293109    242.41831 
    1650    138.87538   -778.07371    134749.05   -35607.967    2685.7798   -38293.747    6.2404837    241.69084 
    1700    137.62504   -835.87875    134693.53   -35585.648    2661.5988   -38247.247    6.4302319    239.51482 
    1750    139.66837   -635.93876    134769.71   -35606.651    2701.1158   -38307.767    6.6568478    243.07092 
    1800    137.52149   -648.04229    134829.97   -35670.571    2659.5962   -38330.167    6.8307899     239.3346 
    1850    137.50721   -653.34799    134879.47   -35648.003      2659.32   -38307.323    7.0058028    239.30975 
    1900    136.72041   -772.60705    134830.39   -35678.007    2644.1039   -38322.111    7.1582538    237.94046 
    1950    137.65125   -661.87687    134794.37   -35721.592    2662.1058   -38383.698    7.3520519    239.56044 
    2000    135.97392   -606.87608    134775.14   -35748.991     2629.667   -38378.658    7.5324234    236.64131 
    2050    138.06003   -237.00374    134755.42   -35726.996    2670.0113   -38397.007    7.6814773    240.27185 
    2100    135.04649   -642.01251    134792.37   -35699.648    2611.7311   -38311.379    7.9005442    235.02727 
    2150    138.79181    -463.6481    134864.35   -35689.927    2684.1635    -38374.09    8.0118791     241.5454 
    2200    140.71773   -697.05351    134991.86   -35668.425    2721.4098   -38389.835    8.2177456    244.89716 
    2250    135.88218   -611.19625    135042.84   -35709.776    2627.8928   -38337.669    8.3416413    236.48164 
    2300    140.37753   -608.83071    135031.63   -35632.634    2714.8307   -38347.465     8.542872    244.30511 
    2350    139.38058   -669.05831    134960.34   -35637.752    2695.5501   -38333.302    8.6288187    242.57006 
    2400    141.98965   -501.62154    135075.17   -35623.884    2746.0082   -38369.892    8.8335791    247.11075 
    2450     138.2326   -477.39117    135155.48   -35647.159    2673.3488   -38320.508    9.0617426    240.57219 
    2500    140.79365   -503.31767     135209.6   -35631.976    2722.8781   -38354.854    9.3148209    245.02929 
    2550    139.56328   -630.45572    135217.33   -35609.278    2699.0835   -38308.362    9.4953317    242.88803 
    2600    141.53288   -592.06676    135301.72    -35599.84    2737.1745   -38337.014    9.7619546     246.3158 
    2650    143.05489   -523.67496    135368.03   -35644.348    2766.6095   -38410.958    10.011399    248.96463 
    2700    138.70911   -789.35075    135425.68   -35653.308    2682.5642   -38335.872    10.249393    241.40148 
    2750    140.55685   -560.20496    135400.63   -35613.663    2718.2986   -38331.962    10.399567    244.61718 
    2800    139.99567   -996.39798    135377.46   -35627.342    2707.4456   -38334.788    10.611107    243.64053 
    2850     139.6276   -517.76424    135329.72   -35602.562    2700.3273   -38302.889    10.730782    242.99996 
    2900     138.8958   -651.95172    135336.01   -35638.222    2686.1747   -38324.397    10.954288    241.72638 
    2950     137.4676   -794.61358     135388.8   -35629.525    2658.5541   -38288.079    11.157263    239.24083 
    3000    138.29294    -790.5385    135398.35   -35607.359    2674.5157   -38281.875    11.342595     240.6772 
    3050    140.89973     -694.044    135415.04   -35554.124    2724.9297   -38279.054    11.404647    245.21391 
    3100    138.91063   -962.06802    135430.94   -35548.439    2686.4615     -38234.9    11.451739    241.75219 
    3150    138.66644   -1132.3618    135291.67   -35617.966    2681.7391   -38299.705    11.558324    241.32722 
    3200    137.06077   -891.22646    135240.22   -35632.736    2650.6861   -38283.422    11.647436    238.53279 
    3250     138.6808   -678.24216    135238.97   -35654.533    2682.0168    -38336.55     11.69914    241.35221 
    3300    136.69659   -620.49074    135249.99   -35625.006    2643.6431   -38268.649     11.83385      237.899 
    3350    136.48213   -783.80894    135287.63   -35697.874    2639.4955    -38337.37     11.92818    237.52576 
    3400    136.52305   -761.48065    135264.77   -35708.217    2640.2869   -38348.504    12.165416    237.59698 
    3450    138.24117   -836.94404    135300.44   -35690.424    2673.5146   -38363.939    12.377876    240.58711 
    3500    138.55669   -853.14102    135279.34   -35627.683    2679.6165     -38307.3    12.529331    241.13621 
    3550    138.95581   -688.84684    135283.05   -35716.907    2687.3354   -38404.242     12.65309    241.83083 
    3600    136.39222   -623.14793    135309.96   -35717.262    2637.7568   -38355.019     12.80121     237.3693 
    3650    136.87523   -639.36383    135370.18   -35726.288    2647.0979   -38373.386    12.999454    238.20989 
    3700    140.91512   -734.86671    135412.34   -35646.225    2725.2274   -38371.453    13.216179     245.2407 
    3750    136.44111   -683.82346    135458.58   -35721.137    2638.7022   -38359.839    13.294067    237.45438 
    3800    139.30442   -553.48997    135533.34   -35713.701    2694.0772   -38407.778    13.441064    242.43752 
    3850    140.22569   -962.87619    135536.54   -35745.319    2711.8941   -38457.213    13.603836    244.04085 
    3900    138.30329   -884.25037    135532.35   -35735.329    2674.7159   -38410.045    13.840241    240.69521 
    3950    137.14573   -786.72245    135442.09   -35725.691    2652.3293    -38378.02    13.991635    238.68066 
    4000    138.07025   -672.13522    135503.24   -35738.209     2670.209   -38408.418    14.090046    240.28965 
    4050    136.90526   -495.74963    135559.34   -35750.922    2647.6786     -38398.6    14.203377    238.26215 
    4100    138.74695   -503.25817    135639.28   -35754.782     2683.296   -38438.078    14.381832    241.46733 
    4150    134.44357   -668.37723    135686.01   -35766.869    2600.0708    -38366.94    14.618463    233.97797 
    4200    135.43777   -553.31086    135805.97   -35734.455    2619.2982   -38353.753    14.849805    235.70823 
    4250    136.49007   -830.26876    135818.61    -35759.91    2639.6492   -38399.559    15.038051    237.53959 
    4300    133.26337    -663.5579    135842.69   -35752.513    2577.2463   -38329.759    15.164098    231.92402 
    4350    138.50598   -524.33237    135856.99   -35772.872    2678.6357   -38451.508    15.392835    241.04796 
    4400    137.27364   -943.79248    135754.09   -35732.309    2654.8029   -38387.112    15.579445    238.90326 
    4450    139.30737   -902.67482    135716.91   -35783.827    2694.1344   -38477.962    15.741807    242.44266 
    4500    137.27278   -668.50684    135602.58   -35760.018    2654.7863   -38414.804     15.91214    238.90176 
    4550     138.1032   -720.08719    135594.45   -35748.102    2670.8463   -38418.949    16.140226    240.34699 
    4600    137.90887   -583.14752    135567.82   -35723.255     2667.088   -38390.343    16.261576    240.00879 
    4650    137.88749   -819.28988    135566.86   -35746.543    2666.6745   -38413.217    16.526334    239.97157 
    4700    135.88775   -804.93243     135473.1   -35802.005    2628.0005   -38430.006    16.604538    236.49134 
    4750    138.81837   -665.81628    135502.39    -35804.65    2684.6772   -38489.327     16.72768    241.59162 
    4800    136.95469   -754.54494    135560.49   -35782.572    2648.6346   -38431.206    16.821153    238.34818 
    4850    139.10162   -913.50276    135569.21   -35754.289    2690.1551   -38444.444    16.971162    242.08458 
    4900     137.7681   -673.39428    135618.97   -35781.416    2664.3656   -38445.781    17.143526     239.7638 
    4950     134.7491   -402.06199    135632.58   -35809.495    2605.9797   -38415.474    17.333431    234.50971 
    5000    137.03761   -562.34949    135702.67   -35799.059    2650.2383   -38449.297    17.521995     238.4925 
    5050    136.62776   -998.44982     135627.8   -35814.667    2642.3119   -38456.979    17.634821    237.77921 
    5100    140.13248   -761.18408    135570.09   -35730.594    2710.0915   -38440.686    17.854234    243.87864 
    5150    134.98556   -662.75743    135552.16   -35775.123    2610.5526   -38385.676    18.078585    234.92122 
    5200    138.58754   -344.49061    135529.59   -35722.045    2680.2132   -38402.259    18.028241    241.18991 
    5250    133.36159   -682.31831    135623.65   -35776.758    2579.1458   -38355.904    18.068007    232.09495 
    5300    136.60983   -536.86701     135666.2   -35729.779    2641.9652   -38371.745    18.258341    237.74801 
    5350      135.502   -669.37012    135765.58   -35761.724    2620.5404   -38382.265    18.403998    235.82001 
    5400    139.04953   -568.69312    135736.83   -35759.896    2689.1477   -38449.044    18.624867    241.99392 
    5450    136.81751    -621.0584    135820.15   -35775.032    2645.9817   -38421.013    18.773773    238.10945 
    5500    135.85469   -833.68838    135878.47   -35765.687    2627.3613   -38393.048     18.84444    236.43381 
    5550    137.98764   -874.34587    135777.01    -35756.27    2668.6114   -38424.881    19.017949    240.14588 
    5600    140.39252   -673.68346    135766.39   -35747.232    2715.1206   -38462.352    19.234101    244.33119 
    5650     137.3833   -474.77504    135690.03   -35739.391    2656.9238   -38396.315    19.306393    239.09412 
    5700    138.45064   -943.33541    135755.01    -35784.12    2677.5655   -38461.685    19.420238    240.95164 
    5750    134.35788   -524.50089    135756.46   -35796.747    2598.4136    -38395.16    19.562106    233.82884 
    5800    137.57518   -930.97589    135726.34    -35780.38    2660.6345   -38441.014     19.55183    239.42804 
    5850    137.38972   -933.72875    135730.49   -35727.952    2657.0479       -38385    19.620582    239.10529 
    5900    140.58645   -602.27488    135831.39    -35708.46    2718.8711   -38427.331    19.780261     244.6687 
    5950    134.23621   -884.78789    135840.57   -35804.761    2596.0606   -38400.821    19.945671    233.61709 
    6000    136.93255   -800.44953    135879.61   -35791.997    2648.2065   -38440.203    20.095474    238.30966 
    6050    135.67211   -722.97453    135850.54   -35781.273    2623.8301   -38405.104     20.24234    236.11605 
    6100    135.85526   -790.76165    135874.83   -35754.529    2627.3722   -38381.901    20.275617     236.4348 
    6150    139.18179   -785.12602    135806.03   -35662.077    2691.7055   -38353.783    20.405868    242.22409 
    6200    140.95928   -706.17728    135804.35   -35648.939    2726.0815   -38375.021    20.531511    245.31755 
    6250    140.05894   -823.29714     135718.6   -35637.364    2708.6693   -38346.033    20.738397    243.75065 
    6300    139.01068   -572.99188    135703.61   -35643.376    2688.3965   -38331.772    20.825078    241.92632 
    6350    138.99107   -548.63213    135722.88   -35650.217    2688.0172   -38338.234    20.975575    241.89218 
    6400    140.97787   -466.81987     135797.3   -35630.165    2726.4408   -38356.606    21.160684    245.34989 
    6450    143.48221   -679.22018    135897.89   -35576.139    2774.8736   -38351.013    21.364174    249.70831 
    6500    137.58324   -779.18173    135864.22    -35611.37    2660.7904   -38272.161    21.386112    239.44207 
    6550    138.79455   -643.32723    135849.34   -35618.069    2684.2166   -38302.286    21.445592    241.55017 
    6600    140.68077   -632.33926    135833.84     -35634.3    2720.6952   -38354.995    21.664083    244.83285 
    6650    136.46695   -878.48595    135731.85   -35677.144     2639.202   -38316.346    21.736851    237.49935 
    6700    136.44207   -821.15115    135685.81   -35650.352    2638.7208   -38289.072    21.887886    237.45605 
    6750    141.09027   -722.41836    135621.24   -35630.681    2728.6146   -38359.295    21.962542    245.54551 
    6800    138.33986   -797.68104    135612.39   -35632.416    2675.4231   -38307.839    22.212972    240.75886 
    6850    138.24265   -824.38942    135606.14   -35658.402    2673.5431   -38331.945    22.322419    240.58967 
    6900    141.35761    -832.5028    135560.99   -35654.196    2733.7849   -38387.981    22.558516    246.01078 
    6950    139.85897   -722.83897    135532.89   -35646.166    2704.8019   -38350.968    22.757307    243.40262 
    7000    136.32877   -554.01815    135519.32   -35688.157    2636.5296   -38324.686    22.720625    237.25886 
    7050    141.09686   -806.31171    135522.82   -35667.239    2728.7422   -38395.982     22.81745    245.55699 
    7100    141.01081   -874.08882    135556.79   -35691.102     2727.078    -38418.18    22.872191    245.40723 
    7150     138.1289   -691.12077    135521.55   -35744.915    2671.3432   -38416.258    23.092246    240.39171 
    7200     136.8267   -561.68084    135564.25   -35739.262    2646.1593   -38385.421    23.267855    238.12543 
    7250    137.88523   -876.27083    135714.67    -35748.13    2666.6308   -38414.761    23.376937    239.96765 
    7300    135.81056   -904.37691    135617.53   -35726.354    2626.5078   -38352.862     23.42177    236.35701 
    7350    140.17765   -645.12476    135562.47    -35687.72     2710.965   -38398.685    23.542303    243.95724 
    7400    136.28326    -852.0592    135520.75   -35696.396    2635.6495   -38332.045    23.625014    237.17967 
    7450    140.11381   -939.53941    135543.19   -35700.696    2709.7304   -38410.426    23.793916    243.84613 
    7500    136.67029    -1097.969    135534.24    -35730.96    2643.1345   -38374.095    23.975622    237.85324 
    7550    135.43656   -1026.0779    135483.17   -35779.775    2619.2748    -38399.05    24.062438    235.70612 
    7600    138.64166   -828.66512    135397.98   -35755.445    2681.2597   -38436.704    24.231317    241.28409 
    7650    138.50798   -565.64738    135431.91   -35695.673    2678.6744   -38374.347    24.309979    241.05144 
    7700    140.70633   -773.72806    135480.53   -35720.866    2721.1894   -38442.056    24.301568    244.87732 
    7750    139.26664   -853.79737    135480.14   -35751.236    2693.3465   -38444.582    24.321977    242.37177 
    7800     135.1446   -861.04778    135361.38   -35737.713    2613.6284   -38351.342    24.622649      235.198 
    7850    137.50619   -891.82228    135328.52   -35742.619    2659.3003   -38401.919    24.708901    239.30798 
    7900    135.36268   -947.13479    135231.66   -35788.008    2617.8459   -38405.854    24.747884    235.57754 
    7950    136.91436   -725.02332    135258.05   -35756.445    2647.8547   -38404.299    25.023005      238.278 
    8000    139.33146   -457.10885    135331.77   -35769.487    2694.6002   -38464.087    25.214536    242.48458 
    8050    136.21956    -558.9689    135422.59    -35734.64    2634.4176   -38369.058    25.359478    237.06881 
    8100    137.81332   -906.24585    135464.85   -35737.053    2665.2401   -38402.294    25.559389     239.8425 
    8150    137.60036   -774.04844    135507.04   -35725.851    2661.1216   -38386.972    25.736154    239.47188 
    8200    139.00893   -1095.8092    135484.75   -35715.224    2688.3626   -38403.586    25.879838    241.92327 
    8250    136.80697   -681.73611    135464.17   -35771.148    2645.7778   -38416.926    26.014957     238.0911 
    8300    135.83051   -947.74626    135422.66   -35780.961    2626.8935   -38407.855      26.0522    236.39172 
    8350    139.90822   -649.88195    135448.56   -35733.531    2705.7544   -38439.285    26.218158    243.48834 
    8400    136.47677   -704.77709    135427.45   -35701.356    2639.3919   -38340.748    26.381197    237.51644 
    8450    135.86549    -697.8313    135440.67   -35768.277    2627.5701   -38395.847    26.503626     236.4526 
    8500    134.76149    -603.0885    135514.95   -35752.964    2606.2192   -38359.184     26.72261    234.53126 
    8550    135.31031   -659.87676    135507.86   -35706.308    2616.8331   -38323.141    26.847788     235.4864 
    8600    134.72141   -804.55007    135473.25    -35680.35    2605.4442   -38285.795    27.033591    234.46151 
    8650    137.81159   -892.20794    135438.06   -35697.658    2665.2067   -38362.865    27.261391    239.83949 
    8700    138.02037   -565.61878    135425.34   -35679.971    2669.2443   -38349.215    27.362747    240.20283 
    8750    136.19432    -585.2296    135362.51   -35684.419    2633.9294   -38318.348    27.451758    237.02487 
    8800    138.01741   -679.31108    135380.35   -35738.695    2669.1871   -38407.882    27.448261    240.19768 
    8850    132.85971   -602.96033    135325.15   -35736.026    2569.4397   -38305.466    27.690971    231.22151 
    8900     138.2487   -649.44064    135289.02   -35682.982    2673.6601   -38356.642    27.921058     240.6002 
    8950    137.98896    -428.3086    135325.99   -35672.804    2668.6368   -38341.441     28.09863    240.14816 
    9000    138.64201   -558.51156    135346.73   -35674.879    2681.2665   -38356.146    28.253613    241.28469 
    9050    138.47014   -494.30798    135392.16   -35710.636    2677.9427   -38388.579    28.360606    240.98559 
    9100     137.7116   -509.11566    135423.25    -35755.99    2663.2728   -38419.263    28.508371    239.66546 
    9150    138.06694   -642.96584    135463.77   -35759.721    2670.1449   -38429.866    28.634678    240.28388 
    9200    137.65006   -822.03448    135430.85   -35700.565    2662.0828   -38362.648    28.882062    239.55837 
    9250    137.75378   -862.05949    135460.75   -35701.155    2664.0886   -38365.243    29.030999    239.73887 
    9300    135.62575   -901.51153    135502.03   -35699.384    2622.9337   -38322.318    29.189752    236.03538 
    9350    138.03389   -541.37655    135546.78   -35731.597    2669.5058   -38401.103    29.246184    240.22636 
    9400    138.96827   -609.96415    135642.62   -35690.701    2687.5763   -38378.277    29.498878     241.8525 
    9450    138.48911   -758.44367    135644.39   -35662.459    2678.3095   -38340.768    29.644883     241.0186 
    9500    137.65731   -701.21551    135583.46   -35698.397     2662.223    -38360.62    29.757474    239.57099 
    9550    139.51706   -743.03613    135643.47   -35719.608    2698.1896   -38417.798    29.857382    242.80759 
    9600    137.79769   -768.66259    135677.86   -35738.269    2664.9379   -38403.207    30.037716     239.8153 
    9650    136.87215   -855.50615    135648.46   -35800.952    2647.0384   -38447.991    30.230688    238.20454 
    9700    136.13762   -881.70993    135547.35   -35772.558     2632.833   -38405.391    30.473486    236.92621 
    9750    138.45808   -583.97185    135490.46   -35777.844    2677.7095   -38455.554    30.630032    240.96461 
    9800     135.5674   -776.86123    135502.14   -35792.459    2621.8051   -38414.264      30.8594    235.93382 
    9850    137.66692   -619.44477    135460.02   -35746.099    2662.4089   -38408.508     31.16387    239.58772 
    9900    139.10089    -749.8614    135504.36   -35681.334    2690.1411   -38371.475    31.316748    242.08331 
    9950    138.39477   -619.37167    135541.11   -35715.821     2676.485   -38392.306    31.443387    240.85441 
   10000    138.48764   -680.51217    135598.58   -35738.197    2678.2811   -38416.478    31.645126    241.01604 
   10050    140.17058   -731.35416    135660.67   -35713.818    2710.8283   -38424.646    31.690117    243.94493 
   10100    139.69777   -620.20418     135663.3    -35713.59    2701.6845   -38415.274    31.748515    243.12209 
   10150    135.25955   -992.63655    135649.92    -35752.36    2615.8514   -38368.211    31.755356    235.39806 
   10200    135.93011   -1004.3051    135528.97   -35722.217    2628.8198   -38351.037    31.717482    236.56506 
   10250    138.16222   -871.46394     135479.4    -35721.87    2671.9877   -38393.858    31.980403    240.44971 
   10300    139.77101   -929.25709     135432.8   -35730.272    2703.1009   -38433.373    32.131813    243.24955 
   10350     139.4323   -458.94327    135371.96   -35740.569    2696.5504   -38437.119    32.244973    242.66008 
   10400    139.19874   -844.65611    135407.78   -35712.503    2692.0335   -38404.537    32.315255    242.25361 
   10450    137.75118    -536.7168    135388.66   -35745.446    2664.0384   -38409.484    32.458673    239.73435 
   10500    138.68428   -612.32784    135429.84   -35743.322    2682.0841   -38425.406    32.369009    241.35827 
   10550    137.13896   -418.23999    135380.31   -35713.394    2652.1982   -38365.592    32.338424    238.66887 
   10600    137.39086   -699.04932    135380.68   -35795.093    2657.0699   -38452.163    32.441549    239.10727 
   10650    139.21787   -677.32463    135404.24   -35744.841    2692.4034   -38437.244    32.456236    242.28689 
   10700    135.81798   -862.10124    135433.16   -35754.156    2626.6512   -38380.807    32.502638    236.36991 
   10750    137.33888   -618.20024    135463.59   -35788.301    2656.0647   -38444.366    32.740049    239.01681 
   10800    137.10838   -806.41029    135521.61   -35796.962    2651.6069   -38448.569    32.871067    238.61566 
   10850     134.6985   -756.65611       135490   -35779.321    2605.0011   -38384.322    32.945262    234.42164 
   10900    136.18191   -464.28145    135458.34   -35764.269    2633.6895   -38397.958    33.016745    237.00329 
   10950     134.9953    -849.0392    135457.33   -35793.067     2610.741   -38403.808    33.133047    234.93818 
   11000    139.72129   -304.92555     135472.8   -35742.195    2702.1393   -38444.334    33.343609    243.16302 
   11050    137.77921   -590.66565    135606.38   -35721.298    2664.5804   -38385.879    33.500059    239.78313 
   11100     134.3831   -751.37766    135611.28   -35753.942    2598.9015   -38352.844    33.838948    233.87274 
   11150    140.45073   -764.92542     135599.1   -35771.397    2716.2463   -38487.644    34.165819    244.43249 
   11200    139.74942   -715.42352    135626.01   -35790.073    2702.6834   -38492.756    34.234579    243.21198 
   11250    135.60214   -770.67961    135602.01   -35840.794    2622.4769   -38463.271    34.594111    235.99428 
   11300    136.88096   -630.13646     135626.9   -35808.156    2647.2086   -38455.364    34.886939    238.21986 
   11350    136.61616   -645.01975    135711.06    -35812.03    2642.0876   -38454.118    35.025516    237.75903 
   11400    139.08561   -750.56117    135757.02   -35794.736    2689.8455   -38484.582    35.348461    242.05671 
   11450    137.24829   -578.42651    135731.45    -35798.41    2654.3127   -38452.722    35.539874    238.85915 
   11500    137.46508   -1006.2339    135727.37   -35766.201    2658.5054   -38424.707    35.879074    239.23644 
   11550    139.28394   -738.33033    135706.58   -35765.865    2693.6811   -38459.546    36.062527    242.40188 
   11600    135.67895   -898.12683     135631.4   -35809.545    2623.9624   -38433.507    36.316408    236.12795 
   11650    137.27714   -563.43091    135685.72   -35771.944    2654.8706   -38426.814    36.579992    238.90935 
   11700    136.16334   -853.39159    135714.51   -35768.308    2633.3302   -38401.638    36.759244    236.97096 
   11750    138.87679   -1041.7453    135598.19   -35681.396    2685.8071   -38367.204    36.876808     241.6933 
   11800    140.07483   -829.52428    135457.28     -35733.8    2708.9766   -38442.777    37.074451     243.7783 
   11850    138.69198   -864.85188    135457.22   -35764.551    2682.2329   -38446.784    37.206579    241.37166 
   11900    134.60469   -960.38429    135372.52   -35770.745    2603.1868   -38373.932    37.410394    234.25838 
   11950    136.97482   -629.02344    135406.87   -35764.901     2649.024   -38413.925    37.497063    238.38322 
   12000     136.6969   -958.76064     135413.4    -35727.76     2643.649   -38371.409    37.530509    237.89953 
   12050    136.12553   -660.59749    135426.38   -35762.121    2632.5991    -38394.72    37.748347    236.90516 
   12100    137.08566   -515.13595    135408.73   -35771.969    2651.1675   -38423.137    37.838673    238.57612 
   12150    135.92742   -710.23439    135429.45   -35763.505    2628.7678   -38392.273    38.088672    236.56039 
   12200     137.5352   -904.74077     135474.6   -35761.893    2659.8613   -38421.755    38.307051    239.35847 
   12250    134.57316   -689.28381    135410.14   -35773.049     2602.577   -38375.626    38.232008     234.2035 
   12300    139.37905   -748.40498    135419.05   -35760.826    2695.5206   -38456.346    38.183375    242.56741 
   12350    136.32156   -828.84844     135413.1    -35762.83    2636.3901    -38399.22    38.363667    237.24631 
   12400    134.89233   -877.57281    135338.85   -35819.111    2608.7495   -38427.861    38.452375    234.75896 
   12450    135.94942   -979.07952    135307.51   -35805.887    2629.1933    -38435.08    38.791578    236.59868 
   12500     136.1041   -876.84084    135252.75   -35769.743    2632.1846   -38401.928     38.91484    236.86787 
   12550    133.95466   -682.49289    135312.73   -35792.869    2590.6155   -38383.484    39.029165     233.1271 
   12600    135.78809   -661.05973    135293.17   -35832.065    2626.0731   -38458.138    39.126521    236.31789 
   12650    135.51512   -703.94755    135321.69   -35800.559     2620.794   -38421.353      39.2473    235.84283 
   12700    137.59361   -692.55345    135431.27   -35835.821    2660.9909   -38496.812    39.323804    239.46012 
   12750    136.71472   -733.17715    135474.98   -35854.126    2643.9937    -38498.12    39.673572    237.93055 
   12800    135.22415   -1002.0649    135463.49    -35855.48    2615.1669   -38470.647    39.942878    235.33645 
   12850    134.56922   -838.20538    135427.76   -35847.037    2602.5008   -38449.538    40.019894    234.19664 
   12900    134.18903     -821.494    135414.84   -35821.499    2595.1481   -38416.647    40.185481    233.53498 
   12950    132.82267   -807.09436    135302.16   -35831.851    2568.7235   -38400.574    40.297893    231.15705 
   13000    138.50624   -854.65015    135381.39   -35791.377    2678.6407   -38470.017    40.356044    241.04841 
   13050    135.17384   -700.66151    135424.74   -35822.918    2614.1938   -38437.112     40.44175    235.24889 
   13100    134.07828   -941.52982       135440   -35813.361    2593.0064   -38406.367    40.643937    233.34225 
   13150    136.53868    -909.6548     135395.8   -35749.109    2640.5893   -38389.698    40.948652    237.62419 
   13200    134.89848   -905.96777    135267.25   -35759.126    2608.8686   -38367.994    41.123265    234.76967 
   13250    140.03011   -748.14647    135211.63    -35635.89    2708.1118   -38344.002     41.22238    243.70048 
   13300    139.68361    -597.9579    135232.13   -35584.421    2701.4105   -38285.832    41.349575    243.09744 
   13350    138.31242   -988.06529    135199.64   -35613.814    2674.8925   -38288.706    41.485526     240.7111 
   13400    138.89282   -728.02086    135165.41   -35611.545    2686.1171   -38297.662      41.6933     241.7212 
   13450    137.64378   -405.23962    135192.87   -35656.687    2661.9613   -38318.648    41.734582    239.54744 
   13500    138.70535   -816.17938    135244.58   -35652.304    2682.4916   -38334.796    41.866657    241.39494 
   13550    140.28572   -610.12657       135281    -35616.65    2713.0551   -38329.705     41.96805    244.14533 
   13600    140.22003   -581.20691    135311.55   -35611.978    2711.7846   -38323.762    42.246674      244.031 
   13650     138.0016   -726.75913    135309.84   -35698.583    2668.8813   -38367.464    42.379748    240.17016 
   13700    134.17394   -722.78567    135289.71   -35710.755    2594.8563   -38305.611    42.442565    233.50872 
   13750    136.29865   -880.65575    135275.11   -35729.518    2635.9472   -38365.465      42.4666    237.20645 
   13800    137.65993   -703.86172     135258.7   -35716.055    2662.2735   -38378.328    42.466707    239.57554 
   13850    136.70649   -623.71115     135390.6   -35687.999    2643.8346   -38331.834    42.578522    237.91624 
   13900    138.00679   -699.45863    135520.57   -35701.061    2668.9817   -38370.042    42.791134     240.1792 
   13950    139.23084   -900.68943    135541.79   -35698.655    2692.6542   -38391.309    42.799954    242.30947 
   14000    136.84754    -757.8658    135527.11   -35702.624    2646.5623   -38349.186    43.003736     238.1617 
   14050    137.07154   -858.08165    135556.74   -35703.908    2650.8945   -38354.803     43.06538    238.55155 
   14100    137.31244   -1032.3476    135516.81   -35687.382    2655.5533   -38342.935    43.118755    238.97079 
   14150    138.31464   -722.61453    135467.48   -35707.765    2674.9354     -38382.7    43.181868    240.71497 
   14200    139.30333   -722.06885    135435.56   -35677.072    2694.0561   -38371.129    43.600125    242.43562 
   14250    138.04038   -511.14194    135452.92    -35659.96    2669.6314   -38329.591    43.813428    240.23766 
   14300    139.05362   -795.77629    135444.29   -35668.683     2689.227    -38357.91    44.362989    242.00105 
   14350    139.79375   -831.30919    135415.49   -35624.933    2703.5407   -38328.474    44.736674    243.28913 
   14400    140.79128   -720.36839    135395.23   -35646.924    2722.8324   -38369.756    44.940671    245.02518 
   14450    138.57733   -697.90154       135421   -35733.836    2680.0156   -38413.851    44.941756    241.17213 
   14500    136.41763   -727.61964    135438.06    -35708.34    2638.2482   -38346.589    44.990436    237.41352 
   14550    136.63818   -815.49117    135403.78   -35694.412    2642.5135   -38336.926    45.116674    237.79735 
   14600    136.28969   -800.67679    135402.42   -35710.497    2635.7738   -38346.271    45.330896    237.19085 
   14650    138.23131   -663.10445    135404.16   -35686.419    2673.3237   -38359.743    45.582491    240.56993 
   14700    138.02834   -722.85042    135381.93   -35707.741    2669.3985    -38377.14    45.974861    240.21671 
   14750    136.04805   -724.97026    135353.25   -35717.245    2631.1007   -38348.346    46.147485    236.77033 
   14800    139.30932   -697.81468    135379.22   -35736.905     2694.172   -38431.077    46.234876    242.44605 
   14850    139.99288   -643.80753    135382.13   -35744.256    2707.3916   -38451.648    46.398741    243.63567 
   14900    138.57796   -845.90959    135402.76   -35756.386    2680.0278   -38436.414    46.515423    241.17322 
   14950    136.82857   -933.54044    135355.33   -35777.755    2646.1955   -38423.951    46.679425    238.12869 
   15000    136.94226   -628.21759    135370.77   -35768.018    2648.3942   -38416.412    46.779399    238.32654 
   15050    134.25416    -863.9754    135391.45   -35774.504    2596.4078   -38370.912    46.983952    233.64834 
   15100    137.58064   -767.78189    135425.86   -35818.919    2660.7401   -38479.659    47.170959    239.43754 
   15150    135.55512   -788.09613    135352.55    -35808.98    2621.5676   -38430.547    47.091601    235.91244 
   15200    133.72754   -763.68374    135287.38   -35860.321    2586.2232   -38446.544    47.014127    232.73184 
   15250     134.9777   -684.64338     135216.2   -35845.868    2610.4007   -38456.268    47.288452    234.90755 
   15300     136.3843   -688.90255    135203.57   -35846.123    2637.6037   -38483.727    47.319604    237.35552 
   15350    135.56854   -582.36399    135244.45   -35838.658    2621.8272   -38460.485    47.528918    235.93581 
   15400    136.42107   -595.04459    135291.66   -35784.973    2638.3146   -38423.288    47.734562     237.4195 
   15450    137.50961   -460.51457    135375.23   -35829.308    2659.3664   -38488.674    47.803345    239.31393 
   15500    139.45666   -598.88283    135427.36   -35831.758    2697.0214   -38528.779    47.935915    242.70246 
   15550    134.11843   -970.21173    135419.15   -35885.541    2593.7828   -38479.324    47.860331    233.41212 
   15600    133.81024   -538.63641     135546.8   -35871.773    2587.8226   -38459.596    47.872945    232.87576 
   15650    137.41002   -750.54162    135627.45   -35827.755    2657.4405   -38485.195    47.969505    239.14061 
   15700     139.2866   -792.54853    135631.23   -35842.002    2693.7326   -38535.734    48.319998    242.40651 
   15750    137.27452   -684.40808    135643.85   -35752.589      2654.82   -38407.409     48.41578     238.9048 
   15800    139.79374   -701.82941    135690.96   -35680.059    2703.5405   -38383.599    48.635148    243.28911 
   15850    141.41132   -580.44682    135791.38   -35666.838    2734.8237   -38401.662    48.854278    246.10426 
   15900    141.13832     -1033.73     135859.8   -35642.806    2729.5439    -38372.35    49.035929    245.62914 
   15950    140.48758   -645.73464    135878.03   -35610.461    2716.9589    -38327.42     49.10383    244.49662 
   16000    138.47139   -976.03254    135897.85   -35660.405    2677.9669   -38338.372    49.390299    240.98777 
   16050    139.82312   -898.18368    135797.51   -35701.142    2704.1086   -38405.251    49.715122    243.34024 
   16100    140.11767   -790.00563     135870.9   -35653.627     2709.805   -38363.432    50.045635    243.85285 
   16150     138.7792   -748.29052    135821.74   -35693.322    2683.9197   -38377.242    50.357335    241.52345 
   16200    138.40307    -689.3955    135822.51   -35720.722    2676.6456   -38397.367     50.46975    240.86887 
   16250    137.59592   -719.65567    135790.47   -35730.803    2661.0357   -38391.838    50.655858    239.46415 
   16300    138.47415   -1227.6233    135648.86   -35700.253    2678.0202   -38378.273    50.678982    240.99257 
   16350     139.0099   -657.87714    135636.71   -35724.242    2688.3813   -38412.623    50.830368    241.92495 
   16400    138.26199   -792.82505    135656.15   -35668.055    2673.9172   -38341.972    50.858754    240.62334 
   16450    136.57297   -508.54142    135688.87   -35701.576    2641.2524   -38342.829    51.023242    237.68386 
   16500    139.06723   -699.26042    135624.11   -35687.351      2689.49   -38376.841    51.357355    242.02472 
   16550    140.82789   -551.19703    135637.12   -35648.182    2723.5404   -38371.722     51.56664    245.08889 
   16600    141.09629   -735.91927    135671.74   -35658.111    2728.7311   -38386.842    51.800307    245.55599 
   16650    140.52464   -494.69856     135775.3   -35717.355    2717.6757    -38435.03    51.853377    244.56113 
   16700    137.96529   -636.20842    135819.16   -35759.062    2668.1792   -38427.242    51.934098    240.10698 
   16750    138.82737    -760.4205    135748.53   -35761.512    2684.8514   -38446.363    51.952627     241.6073 
   16800    139.05752   -935.25101    135729.05   -35753.636    2689.3022   -38442.938    51.961149    242.00782 
   16850    137.53517   -772.00423    135660.15   -35754.731    2659.8607   -38414.592    52.057949    239.35841 
   16900    137.69267   -768.49809    135615.91   -35749.939    2662.9068   -38412.846    52.208085    239.63253 
   16950    137.04737   -771.98589    135601.21   -35703.896     2650.427   -38354.323    52.195441    238.50948 
   17000    138.86654   -725.57914    135618.65   -35710.194    2685.6088   -38395.803    52.342021    241.67546 
   17050    137.93588   -914.83278    135574.15   -35678.543    2667.6104   -38346.153    52.543542    240.05579 
   17100    141.48102   -763.68781    135523.98   -35681.618    2736.1715    -38417.79     52.88019    246.22555 
   17150    134.64943   -733.43136    135403.02   -35725.778     2604.052    -38329.83    52.986504    234.33624 
   17200    137.36835   -694.00579    135337.35    -35736.06    2656.6346   -38392.695    53.051438    239.06809 
   17250    138.86884   -790.09078    135231.27    -35750.95    2685.6533   -38436.604    53.041911    241.67946 
   17300    135.40042    -730.1184    135108.78   -35696.488    2618.5759   -38315.064     53.19988    235.64322 
   17350    136.32142   -759.55021    135102.31    -35707.75    2636.3876   -38344.138    53.401168    237.24608 
   17400    135.37008   -668.58021    135099.94   -35705.284    2617.9891   -38323.273    53.549322    235.59042 
   17450    136.93541   -783.23089    135025.77   -35746.019    2648.2618    -38394.28    53.482597    238.31463 
   17500    139.52888   -950.04793    134925.17   -35676.071    2698.4182   -38374.489    53.540154    242.82816 
   17550    139.14026   -902.96194    134844.28   -35692.639    2690.9025   -38383.541    53.701461    242.15183 
   17600    139.08512   -846.66103    134798.65   -35686.048    2689.8361   -38375.884    53.810026    242.05587 
   17650    140.03826    -779.3552    134703.87   -35681.294    2708.2694   -38389.563    54.228534    243.71466 
   17700    140.01288   -761.78658    134695.03   -35654.808    2707.7785   -38362.587    54.289202    243.67048 
   17750    138.35731   -626.34886    134717.51   -35648.324    2675.7606   -38324.084    54.718427    240.78922 
   17800    139.72844   -345.60146    134818.24   -35616.848    2702.2775   -38319.126    54.840669    243.17545 
   17850    139.50406   -484.03405    134905.08   -35628.146    2697.9381   -38326.085    55.080771    242.78496 
   17900    135.22794   -403.24364    134939.16   -35644.047    2615.2402   -38259.287    55.402529    235.34305 
   17950    139.88508   -754.79056    134923.62   -35670.586    2705.3069   -38375.893     55.87339    243.44807 
   18000    136.08769   -886.45226    134908.85   -35724.932    2631.8672   -38356.799    56.164781     236.8393 
   18050    135.79126   -791.06366    134835.02   -35725.044    2626.1345   -38351.178    56.279784    236.32342 
   18100    136.72595   -815.87751    134826.81   -35784.968    2644.2109   -38429.179    56.364741     237.9501 
   18150    139.08864   -748.09338    134730.57   -35754.541    2689.9042   -38444.445     56.67739    242.06199 
   18200    134.71707   -944.79336     134755.3   -35784.909    2605.3601   -38390.269    56.959529    234.45395 
   18250    137.19646    -724.0008    134690.71   -35752.834    2653.3102   -38406.145    57.030765    238.76894 
   18300    141.92691   -649.53287     134737.2   -35694.323    2744.7949   -38439.118    57.150884    247.00156 
   18350     136.4397   -692.11135     134663.5   -35716.507    2638.6749   -38355.182    57.273033    237.45192 
   18400    136.67966    -558.6198    134684.06   -35725.043    2643.3156   -38368.359    57.576724    237.86953 
   18450    139.35133   -569.72214    134673.82   -35702.039    2694.9845   -38397.024    57.682233    242.51916 
   18500    139.65469   -823.07036    134729.78   -35667.575    2700.8512   -38368.426    57.965005     243.0471 
   18550     139.6153   -677.04048    134647.44   -35668.819    2700.0895   -38368.908    58.251749    242.97856 
   18600    139.12854   -667.16026    134612.64   -35639.295    2690.6758   -38329.971    58.467287    242.13143 
   18650    139.08445   -733.94359    134614.39   -35662.669    2689.8231   -38352.492    58.501574    242.05469 
   18700    138.12962   -635.13224    134620.92   -35694.382    2671.3571   -38365.739    58.568959    240.39296 
   18750    136.87939   -864.34989    134658.41   -35712.936    2647.1784   -38360.114    58.840314    238.21714 
   18800    136.71279   -735.63277    134681.82   -35654.198    2643.9564   -38298.155    58.988278     237.9272 
   18850    138.55676   -733.08331    134685.37   -35623.011    2679.6178   -38302.629    59.223712    241.13633 
   18900    140.65884   -656.36596     134753.6   -35586.239    2720.2711    -38306.51    59.234221    244.79468 
   18950    139.65093   -726.98998    134774.16   -35609.844    2700.7786   -38310.623    59.526038    243.04057 
   19000    140.12173   -472.68937    134812.82   -35631.323    2709.8836   -38341.207     59.30702    243.85992 
   19050    137.12575   -458.12659    134928.66   -35690.313    2651.9428   -38342.256    59.223778    238.64588 
   19100     137.9765    -853.2953    134961.85   -35697.173    2668.3959   -38365.569     59.32442    240.12649 
   19150    138.19307   -738.18391    134997.74   -35731.979    2672.5843   -38404.563    59.407069    240.50339 
   19200    137.47697   -735.07049    134988.02   -35709.067    2658.7353   -38367.803    59.654557    239.25713 
   19250    137.80549    -624.8608    134993.36   -35716.147    2665.0886   -38381.236    59.682918    239.82886 
   19300    139.81266   -681.36772    134957.56   -35701.673    2703.9063    -38405.58    59.835076    243.32203 
   19350    138.05546    -857.2708    134951.02   -35766.054    2669.9229   -38435.977    60.252336    240.26389 
   19400    133.92549   -598.24194    135010.63   -35817.317    2590.0514   -38407.369    60.459765    233.07634 
   19450    136.15045   -630.00431    135059.89   -35799.531     2633.081   -38432.612    60.573868    236.94853 
   19500    134.28318   -616.81583     135071.2   -35795.685     2596.969   -38392.654     60.94475    233.69884 
   19550    135.34037   -677.39368    135165.12   -35752.315    2617.4145   -38369.729    61.111204    235.53871 
   19600    135.36764    -844.1972    135228.56   -35763.694    2617.9418   -38381.636    61.420162    235.58616 
   19650    137.31453   -1020.3303    135180.03   -35721.066    2655.5938    -38376.66    61.513402    238.97443 
   19700    137.51971   -759.49377    135214.54   -35706.477    2659.5618   -38366.039    61.684201    239.33151 
   19750    137.10179   -562.38631    135215.78    -35679.28    2651.4795   -38330.759    61.859172    238.60419 
   19800    137.72163     -778.606    135289.26   -35729.861    2663.4668   -38393.328    62.130048    239.68292 
   19850     137.8911   -565.58028    135300.81   -35738.795    2666.7444   -38405.539    62.305731    239.97787 
   19900    134.86983   -604.91213    135348.09   -35719.432    2608.3146   -38327.747    62.438561    234.71982 
   19950    136.74001   -595.49794    135383.29   -35736.584    2644.4827   -38381.067    62.563148    237.97456 
   20000    136.77426   -795.21756    135434.99   -35778.424    2645.1452   -38423.569    62.702853    238.03417 
   20050    138.22132   -685.33424    135425.89   -35790.885    2673.1306   -38464.016    62.883243    240.55255 
   20100    133.65597   -824.28582    135486.77   -35845.313     2584.839   -38430.152    63.044634    232.60728 
   20150    135.76311    -627.5107    135578.24   -35832.042    2625.5902   -38457.632    63.399852    236.27443 
   20200    137.53706   -946.07434    135699.54   -35797.769    2659.8974   -38457.666    63.419774    239.36171 
   20250    134.50908   -731.44362    135731.43   -35809.834    2601.3378   -38411.172    63.585837    234.09199 
   20300    139.14084   -908.21812    135750.31   -35715.135    2690.9137   -38406.049    63.858032    242.15284 
   20350    138.40762   -788.20516     135651.3   -35742.173    2676.7336   -38418.907    64.004898    240.87679 
   20400    138.48088   -619.79142    135593.66   -35767.195    2678.1503   -38445.345    64.122996    241.00427 
   20450     135.1206   -742.16802    135587.15   -35801.703    2613.1642   -38414.867    64.288392    235.15623 
   20500     137.7541   -519.87286    135661.02   -35790.653    2664.0949   -38454.748    64.514699    239.73944 
   20550    138.90656   -886.55605    135733.49   -35793.472    2686.3828   -38479.854    64.846508     241.7451 
   20600    136.11172    -765.4441    135727.44   -35763.585     2632.332   -38395.917    65.225195    236.88113 
   20650    137.20912   -629.84163    135703.61   -35779.919    2653.5553   -38433.474    65.238584    238.79099 
   20700    136.05019   -715.29496    135614.49    -35772.19     2631.142   -38403.332    65.265939    236.77404 
   20750    138.14138   -879.76237     135524.5   -35738.912    2671.5846   -38410.497    65.253739    240.41343 
   20800    138.43166   -842.98258    135481.27   -35740.602    2677.1985     -38417.8    65.294699    240.91862 
   20850    137.66878   -801.66154    135473.25   -35725.316    2662.4448   -38387.761    65.377757    239.59095 
   20900    139.64443    -786.6293    135445.16   -35761.171    2700.6529   -38461.824      65.5186    243.02926 
   20950    139.16571   -750.85959    135444.44    -35718.22    2691.3946   -38409.615     65.69296    242.19611 
   21000    135.59946   -751.43476     135513.8   -35728.431    2622.4252   -38350.857    65.712699    235.98962 
   21050    140.25154   -848.87696    135593.58   -35760.989     2712.394   -38473.383    65.949161    244.08583 
   21100    137.97423   -891.12998    135603.25   -35741.368     2668.352    -38409.72    65.985848    240.12253 
   21150    136.79072   -998.15705    135475.06    -35707.98    2645.4636   -38353.443    66.188679    238.06282 
   21200    139.03386   -765.17317    135403.46   -35717.283    2688.8447   -38406.128    66.408794    241.96665 
   21250    140.56392    -816.1752    135447.26   -35735.787    2718.4354   -38454.223    66.400433    244.62949 
   21300    138.06072   -1078.3881    135398.46   -35704.422    2670.0247   -38374.446    66.556313    240.27305 
   21350    138.43785   -704.69695    135374.81   -35690.093    2677.3182   -38367.411    66.759416    240.92939 
   21400    137.83275   -973.44388    135450.97   -35723.305    2665.6159   -38388.921    66.778885    239.87631 
   21450    138.38042   -883.61354    135399.93   -35716.219    2676.2075   -38392.427    66.874848    240.82944 
   21500     136.7923   -679.84986    135429.36   -35731.537     2645.494   -38377.031    67.074444    238.06556 
   21550     137.7872   -838.77152    135385.51   -35737.944     2664.735   -38402.679    67.173122    239.79704 
   21600    139.83398   -847.90037    135328.54   -35748.814    2704.3186   -38453.132     67.23653    243.35913 
   21650    135.74483   -807.87322    135340.34     -35813.7    2625.2366   -38438.936    67.564854    236.24261 
   21700    136.56248   -614.95291    135348.22   -35805.813    2641.0495   -38446.862    67.667223    237.66561 
   21750    135.59431   -758.56224    135358.35   -35813.042    2622.3255   -38435.367    67.579472    235.98065 
   21800    139.28688   -948.59185    135349.27   -35783.223    2693.7381   -38476.961      67.5493      242.407 
   21850    140.58365   -895.56856     135266.7   -35751.553    2718.8169    -38470.37    67.485843    244.66382 
   21900    140.37673   -693.79388    135191.25   -35773.482    2714.8151   -38488.298    67.821792    244.30371 
   21950    138.34115   -810.97148    135087.26   -35738.338     2675.448   -38413.786    68.025407    240.76109 
   22000    136.17532   -395.08977     135149.8   -35765.599     2633.562   -38399.161    68.222282    236.99181 
   22050    137.05896   -992.49206    135155.13   -35747.314    2650.6512   -38397.965    68.268648    238.52965 
   22100    137.01073    -667.5087       135130   -35761.023    2649.7183   -38410.741    68.491622    238.44571 
   22150    134.82152   -652.84821    135154.83   -35748.891    2607.3802   -38356.271    68.814765    234.63573 
   22200    140.96166   -1013.2411    135124.68   -35747.261    2726.1274   -38473.388    69.000033    245.32169 
   22250    137.83773   -676.09872    135072.92   -35777.611    2665.7121   -38443.323    69.082027    239.88497 
   22300    136.94424   -556.43784     135084.6   -35824.046    2648.4325   -38472.478    69.114988       238.33 
   22350     136.5833   -632.71313    135126.03   -35790.068    2641.4521    -38431.52     69.21969    237.70183 
   22400    137.37774   -779.71822    135020.18   -35797.892    2656.8162   -38454.709    69.430912    239.08443 
   22450    138.43081   -522.26317    134911.67   -35777.357     2677.182   -38454.539    69.259577    240.91714 
   22500    141.05754    -243.9727    134983.82   -35722.565    2727.9817   -38450.547    69.235103    245.48856 
   22550    138.28534   -504.42425    134981.95   -35726.839    2674.3688   -38401.208    69.323829    240.66398 
   22600    140.61618   -441.90837    135038.36     -35727.4    2719.4461   -38446.846    69.448469    244.72044 
   22650    135.85464   -457.69219     135049.5   -35748.148    2627.3601   -38375.509    69.761081    236.43371 
   22700    137.41418    -548.0574    135076.42   -35769.936    2657.5209   -38427.457    69.916989    239.14785 
   22750     137.9722   -491.42487    135167.41   -35764.312    2668.3128   -38432.625    69.796057      240.119 
   22800    139.97157   -586.39328    135219.62   -35748.018    2706.9795   -38454.997    69.955069    243.59858 
   22850    140.43146   -496.62243    135220.96   -35726.441    2715.8736   -38442.315    69.936204    244.39896 
   22900    137.30984   -695.21466    135227.02   -35701.586    2655.5031   -38357.089    69.846587    238.96627 
   22950    140.00846   -624.98302    135180.06   -35706.599     2707.693   -38414.292    70.045502    243.66279 
   23000    138.60806   -842.34201    135148.07   -35717.916    2680.6101   -38398.526    70.476492    241.22562 
   23050    141.29383    -493.1171    135124.43   -35741.224    2732.5514   -38473.775    70.638746    245.89977 
   23100    138.75569    -880.3028    135077.87    -35762.11     2683.465   -38445.575    70.890673    241.48254 
   23150    136.67123   -951.22744    134988.33     -35762.7    2643.1527   -38405.853    71.052974    237.85487 
   23200    136.35757   -746.13215    134939.32   -35719.492    2637.0866   -38356.579    71.212817    237.30899 
   23250    139.63158    -783.8088    134907.18   -35722.381    2700.4043   -38422.785    71.257855    243.00689 
   23300    134.41208    -446.0552    134856.95   -35757.785    2599.4619   -38357.247    71.190101    233.92318 
   23350    137.39493   -510.94926       135024   -35744.797    2657.1486   -38401.946    71.477394    239.11435 
   23400    136.99665   -551.64003    135028.42   -35773.323    2649.4461   -38422.769    71.606824    238.42121 
   23450    137.86528   -489.15427    135089.04   -35741.397     2666.245   -38407.642    71.699382    239.93292 
   23500    138.81442   -522.48057    135229.26   -35732.998    2684.6009   -38417.599     71.88422    241.58475 
   23550     135.7076   -528.12874    135311.01   -35804.239    2624.5165   -38428.755    72.133917    236.17782 
   23600    137.28769   -839.75602    135308.16   -35757.045    2655.0746    -38412.12    72.225374    238.92771 
   23650     140.8726   -398.55711    135285.72    -35752.07     2724.405   -38476.475    72.445088    245.16669 
   23700    135.35432   -711.90191    135263.83   -35706.566    2617.6843    -38324.25     72.65726    235.56299 
   23750    137.43126   -508.91967    135223.12   -35702.176    2657.8512   -38360.028    72.806175    239.17758 
   23800    137.97573   -540.21756    135220.46   -35696.845    2668.3811   -38365.226     72.97383    240.12515 
   23850    139.32448    -941.7996    135158.62   -35672.994    2694.4652    -38367.46    73.318038    242.47244 
   23900    139.59026   -1105.6273    135045.72    -35624.26    2699.6052   -38323.865    73.492682    242.93498 
   23950    142.50836   -761.12102    134958.38   -35624.327    2756.0399   -38380.366    73.422016    248.01348 
   24000    138.91071   -862.67035    134972.44   -35645.249    2686.4631   -38331.712    73.510839    241.75233 
   24050    139.81289   -790.86209    134974.16   -35661.843    2703.9108   -38365.754    73.853181    243.32244 
   24100    141.28692   -757.74505    134910.91   -35697.494    2732.4178   -38429.912     74.14907    245.88776 
   24150    139.86905   -703.86092     134959.6   -35701.783    2704.9969    -38406.78    74.499794    243.42017 
   24200    137.21789   -718.83409    135072.78   -35699.725    2653.7247    -38353.45    74.856302    238.80623 
   24250    138.42583   -804.96719    135036.89   -35707.266    2677.0857   -38384.351    75.143201    240.90847 
   24300    136.35823   -605.52223    135061.04   -35717.072    2637.0995   -38354.172    75.201037    237.31015 
   24350     138.2213   -879.46148    135017.89   -35705.969    2673.1303     -38379.1    75.425652    240.55253 
   24400    140.97753   -792.41558     134945.7   -35666.679    2726.4342   -38393.113    75.477966     245.3493 
   24450    136.45597   -686.97389    134915.87   -35656.301    2638.9895    -38295.29    75.670672    237.48023 
   24500    141.79681   -553.29875    134952.43   -35634.027    2742.2787   -38376.306    75.924782    246.77513 
   24550     140.0251   -604.28311    134975.77   -35669.827    2708.0148   -38377.842    75.816199    243.69175 
   24600    138.52961   -719.87513    134915.55   -35634.925    2679.0929   -38314.018    75.837594    241.08909 
   24650    139.85359   -565.77007    134894.73   -35633.735    2704.6979   -38338.433    76.011304    243.39327 
   24700    138.82751   -721.48581    134944.53   -35674.637     2684.854   -38359.491     76.40852    241.60753 
   24750    140.04976   -603.10872    134975.45   -35701.246    2708.4916   -38409.738     76.66787    243.73466 
   24800    137.43721   -817.29254    134968.56   -35677.359    2657.9663   -38335.326    76.815325    239.18794 
   24850    138.74064   -561.64456    134944.77   -35642.302     2683.174   -38325.476    77.296195    241.45635 
   24900    140.57896   -625.72384    135061.21   -35583.978    2718.7261   -38302.704    77.598483    244.65565 
   24950    142.20928    -694.5888    135088.98   -35591.331    2750.2557   -38341.587    78.028329    247.49297 
   25000    143.15247   -753.83444     135052.1   -35573.443    2768.4966    -38341.94    78.186677    249.13445 
   25050    138.65821   -785.79121    135006.64   -35631.288    2681.5798   -38312.868    78.180855    241.31289 
   25100    140.99135   -554.65234    135021.14   -35595.238    2726.7015   -38321.939    78.399505    245.37335 
   25150    140.87634   -720.74828    134969.77    -35591.45    2724.4774   -38315.928    78.482171     245.1732 
   25200    137.91986   -601.13053    134912.79   -35699.477    2667.3005   -38366.778    78.781538    240.02791 
   25250    137.69304   -733.69236    134928.75   -35664.919    2662.9139   -38327.833    79.017145    239.63316 
   25300    139.47419   -845.97635    134843.21   -35604.107    2697.3606   -38301.468    79.138746    242.73299 
   25350    136.21549   -847.54338    134784.46    -35621.32    2634.3389   -38255.659    79.305326    237.06173 
   25400    136.95883   -617.11988    134813.56   -35647.327    2648.7147   -38296.042    79.551447    238.35539 
   25450    139.20633   -828.13081    134886.29   -35615.464    2692.1802   -38307.645     79.61455    242.26681 
   25500    137.59365   -826.59565     134900.3    -35655.26    2660.9917   -38316.252     80.11146    239.46018 
   25550    139.16676   -422.99219     134908.9   -35648.323    2691.4149   -38339.737     80.25858    242.19794 
   25600     140.0924   -712.92371    135035.42   -35645.933    2709.3164    -38355.25    80.170396    243.80888 
   25650     139.2887   -653.21232    135123.24    -35646.88    2693.7731   -38340.653    80.630705    242.41016 
   25700    138.95161   -753.04622    135154.37   -35639.939    2687.2541   -38327.193    80.884884    241.82352 
   25750    139.91736   -713.34016    135073.18   -35629.968    2705.9312     -38335.9    80.866203    243.50425 
   25800    140.75174   -614.23645    135057.55   -35622.318    2722.0676   -38344.385    81.099104    244.95635 
   25850    137.49164   -425.09733    135180.23   -35685.048    2659.0189   -38344.066    81.193044    239.28266 
   25900    138.43767   -719.09478    135253.12   -35624.018    2677.3146   -38301.332    81.294281    240.92907 
   25950    137.56089   -489.85428    135392.59   -35684.907    2660.3582   -38345.265    81.358018    239.40318 
   26000    141.18274   -659.46333    135469.04   -35638.663     2730.403   -38369.066    81.580601    245.70645 
   26050    139.86092   -667.81436    135329.12   -35577.214    2704.8397   -38282.054     81.90131    243.40602 
   26100      139.899   -649.31623    135276.36    -35636.09     2705.576   -38341.666    82.031357    243.47229 
   26150    138.12475   -1037.1681    135374.66   -35686.028     2671.263   -38357.291    82.278607    240.38449 
   26200    138.29459   -775.79382    135337.15   -35708.097    2674.5476   -38382.645    82.407387    240.68007 
   26250    138.85562   -916.56453    135330.62    -35709.39    2685.3977   -38394.788    82.226016    241.65646 
   26300    137.77693   -653.95399    135188.45   -35706.882    2664.5364   -38371.419    82.420342    239.77917 
   26350    140.66484   -842.81187    135190.33   -35685.751     2720.387   -38406.138    82.598901    244.80511 
   26400    139.34242    -801.9937    135102.18   -35669.696    2694.8122   -38364.508    82.831827    242.50366 
   26450    140.64351   -691.75492     135123.3   -35716.776    2719.9746   -38436.751    83.006243      244.768 
   26500    137.54357   -910.24184     135182.8   -35764.433    2660.0232   -38424.456    83.184717    239.37303 
   26550    135.57279   -576.24907    135248.53   -35742.655    2621.9094   -38364.564    83.453004    235.94321 
   26600    138.19812     -616.367    135218.33    -35758.71    2672.6819   -38431.392    83.920624    240.51218 
   26650    136.89283    -667.7678    135250.11   -35737.707    2647.4383   -38385.146    83.988132    238.24053 
   26700    135.88351   -608.10637    135279.53   -35765.072    2627.9186   -38392.991    84.096802    236.48397 
   26750    138.27244   -807.28963    135270.41   -35711.441    2674.1192    -38385.56    84.309781    240.64152 
   26800    132.56454   -425.47585    135300.92    -35791.86    2563.7313   -38355.591    84.532729    230.70781 
   26850     139.9246   -833.44303    135359.91   -35708.576    2706.0713   -38414.647    84.762635    243.51685 
   26900    140.30421    -575.2875    135353.23   -35735.738    2713.4126   -38449.151       85.012    244.17749 
   26950    137.08244   -850.94636    135431.46   -35797.137    2651.1052   -38448.242    85.137345     238.5705 
   27000    136.20278   -454.34146    135422.91   -35789.279    2634.0931   -38423.372    84.965979     237.0396 
   27050    136.70353   -818.46758    135455.02   -35780.442    2643.7773   -38424.219    85.150846    237.91108 
   27100    135.58928   -716.55635    135492.55   -35789.475    2622.2283   -38411.703    84.969469     235.9719 
   27150    136.23037   -878.09762    135507.38   -35794.703    2634.6267    -38429.33    85.188804    237.08763 
   27200    135.58278   -561.84455    135422.55   -35809.222    2622.1026   -38431.324    85.567011    235.96059 
   27250    137.77712   -712.44935    135410.04   -35822.389      2664.54   -38486.929    85.767497     239.7795 
   27300    137.65541   -512.09013     135385.2   -35838.744    2662.1862   -38500.931    85.774486    239.56768 
   27350    138.29856   -326.06676    135463.92   -35761.184    2674.6243   -38435.808    85.837718    240.68697 
   27400    138.91741    -613.0921    135526.18   -35784.918    2686.5927   -38471.511    85.997313    241.76399 
   27450       139.28   -635.95499    135558.37    -35776.17     2693.605   -38469.775    86.427082    242.39503 
   27500    139.43046   -647.91124    135574.48   -35724.821    2696.5147   -38421.336    86.716335    242.65687 
   27550    136.90127   -714.59969     135574.8   -35756.811    2647.6016   -38404.412    86.638234    238.25522 
   27600    139.75971    -606.2484    135670.74   -35771.881    2702.8824   -38474.764    86.521884    243.22989 
   27650     139.6678   -870.57213    135691.69   -35775.382    2701.1048   -38476.487    86.774359    243.06992 
   27700    139.63889   -704.42082    135673.71   -35724.996    2700.5456   -38425.541    86.824239    243.01961 
   27750    140.90462    -632.1342    135687.82   -35740.948    2725.0242   -38465.973    86.993442    245.22241 
   27800    138.01583   -848.20262    135687.37   -35799.118    2669.1566   -38468.274    87.045465    240.19494 
   27850    137.07304   -673.34868    135666.87   -35810.768    2650.9235   -38461.691    87.407817    238.55415 
   27900    134.02867   -596.72315    135752.33   -35830.745    2592.0468   -38422.792     87.73526     233.2559 
   27950    137.34456   -599.18606    135764.87   -35852.206    2656.1746   -38508.381    87.941593     239.0267 
   28000    133.98658   -949.32739    135584.51   -35844.356    2591.2328   -38435.589    88.118793    233.18265 
   28050    138.48406    -796.7282    135493.99   -35810.233    2678.2118   -38488.445    88.264918    241.00981 
   28100    138.29221   -486.10578    135588.44   -35819.855    2674.5015   -38494.357    88.547841    240.67592 
   28150    135.54963   -667.19756    135643.07   -35807.499    2621.4616   -38428.961    88.914162    235.90291 
   28200    137.49985   -983.56242     135648.6   -35792.796    2659.1777   -38451.974    89.093695    239.29694 
   28250    139.54753   -781.91609    135617.15   -35771.169    2698.7788   -38469.948    89.307699    242.86062 
   28300    138.38176   -722.25355    135591.41    -35772.42    2676.2333   -38448.653    89.613634    240.83177 
   28350     138.8053   -643.59466    135705.07   -35780.359    2684.4246   -38464.784    89.607357    241.56889 
   28400    137.31241   -760.26416    135738.29   -35760.877    2655.5528    -38416.43    89.402514    238.97074 
   28450    138.52279   -526.81337    135764.32   -35807.889    2678.9608    -38486.85    89.151604    241.07721 
   28500    137.30445   -891.88619    135798.86   -35841.125    2655.3989   -38496.524    89.196156    238.95689 
   28550    134.64662   -729.17903       135842   -35893.602    2603.9977     -38497.6    89.326719    234.33134 
   28600    134.83881   -468.97908    135865.87   -35833.369    2607.7145   -38441.084     89.42174    234.66582 
   28650    137.89626   -699.86359    135896.72   -35832.395    2666.8441   -38499.239     89.41493    239.98683 
   28700    138.29139   -786.24578     135859.5   -35790.964    2674.4858    -38465.45    89.491398     240.6745 
   28750    137.67682   -406.29243    135931.78   -35759.006    2662.6002   -38421.606      89.7756    239.60494 
   28800    135.93929   -849.62176    135984.96   -35777.227    2628.9973   -38406.224    89.816745    236.58104 
   28850    137.25784   -641.23146       136088   -35777.307    2654.4975   -38431.805    90.040158    238.87577 
   28900    136.67797   -661.53599    136044.19   -35755.768    2643.2831   -38399.052    89.987494     237.8666 
   28950    132.77699   -970.80558    135973.95   -35826.638      2567.84   -38394.478    90.077034    231.07755 
   29000    139.61676   -933.99885    135815.58   -35765.818    2700.1178   -38465.935     89.97358    242.98111 
   29050    139.10157   -838.91944    135732.25    -35780.87    2690.1542   -38471.024    90.368073    242.08449 
   29100    136.95849   -499.36373    135717.31   -35809.533    2648.7081   -38458.241    90.580791    238.35479 
   29150    136.51628   -440.58013    135843.63   -35776.305     2640.156   -38416.461    90.878554     237.5852 
   29200    138.53764   -869.29614    135900.67   -35809.903    2679.2481   -38489.151    90.918261    241.10307 
   29250    137.53497   -713.86046    135810.44   -35785.268    2659.8569   -38445.124    90.955154    239.35806 
   29300     139.2405    -734.7139    135772.34   -35732.357     2692.841   -38425.198    91.128629    242.32627 
   29350    136.12504   -414.09246    135862.59   -35753.877    2632.5897   -38386.467    91.068807    236.90431 
   29400    139.04832   -711.10363    135898.15   -35713.302    2689.1243   -38402.427    91.234449    241.99181 
   29450    138.72937    -845.8284     135866.5   -35730.771    2682.9561   -38413.727    91.581943    241.43674 
   29500    137.45556   -840.75231    135815.42   -35779.313    2658.3212   -38437.634    91.804502    239.21987 
   29550    138.49505   -681.67165    135739.28   -35787.097    2678.4243   -38465.521    92.120511    241.02893 
   29600    137.58015   -564.88049    135690.19   -35748.319    2660.7307    -38409.05    91.906026     239.4367 
   29650    141.62788   -838.33154    135740.56   -35669.567    2739.0117   -38408.578    92.076701    246.48114 
   29700    140.98773   -813.33195    135645.02   -35682.774    2726.6315   -38409.405    92.200699    245.36705 
   29750    135.58308   -1055.8185    135642.42   -35693.756    2622.1083   -38315.864    92.166636    235.96111 
   29800    140.73115   -690.34859    135579.92   -35670.115    2721.6694   -38391.784    92.357613    244.92051 
   29850     139.4224   -715.18133    135550.46   -35713.061     2696.359    -38409.42    92.560083    242.64285 
   29900    139.78816   -745.75898     135591.2   -35701.064    2703.4324   -38404.496    92.863532    243.27939 
   29950    139.75542   -579.02468    135684.23   -35707.235    2702.7993   -38410.035    93.128086    243.22242 
   30000     137.5037   -566.63618     135794.5   -35712.925    2659.2522   -38372.177     93.39889    239.30365 
   30050    138.87632    -697.0991    135850.55   -35695.154    2685.7981   -38380.952    93.491334    241.69249 
   30100    137.04693   -800.70828    135841.34   -35696.852    2650.4185    -38347.27    93.521232    238.50871 
   30150    139.48138   -742.92851    135893.55   -35703.525    2697.4996   -38401.025    93.577234     242.7455 
   30200    136.16742   -646.70762    135867.23   -35757.445    2633.4092   -38390.854    93.979977    236.97806 
   30250    136.53608   -865.01967    135857.44   -35749.643     2640.539   -38390.182    93.921172    237.61967 
   30300    137.45769   -869.02731    135779.16   -35775.883    2658.3624   -38434.245     93.85679    239.22357 
   30350    139.71623   -970.08737    135672.03   -35750.068    2702.0414    -38452.11    93.763166    243.15421 
   30400    140.02967   -573.40579    135630.48   -35683.533    2708.1033   -38391.636    93.938261    243.69971 
   30450    139.76577   -728.63853    135554.01   -35678.665    2702.9996   -38381.664    93.906225    243.24043 
   30500    139.49189   -863.07664    135554.99   -35715.031    2697.7028   -38412.734    94.322936    242.76378 
   30550    138.37157   -938.46538    135587.52    -35732.61    2676.0364   -38408.647    94.854368    240.81405 
   30600    140.03017   -691.81384     135525.9   -35726.778    2708.1128    -38434.89    94.809518    243.70057 
   30650    139.69491   -1105.5559    135495.56   -35730.922    2701.6291   -38432.551    94.689916    243.11711 
   30700    135.31897   -929.22117    135421.38   -35769.861    2617.0007   -38386.862    94.881629    235.50147 
   30750    133.72237   -959.99925    135378.73   -35833.044    2586.1232   -38419.167     94.89318    232.72284 
   30800    137.11357   -848.21769     135369.6   -35813.321    2651.7073   -38465.028    95.023372    238.62469 
   30850    137.44761   -683.02238    135315.08   -35777.993    2658.1675    -38436.16    94.950115    239.20604 
   30900    139.17884   -617.56317    135355.28   -35771.143    2691.6485   -38462.792    94.951707    242.21896 
   30950    136.77083   -819.30911    135338.58   -35752.073    2645.0788   -38397.152    95.033194     238.0282 
   31000     136.1285   -810.48629    135360.96   -35762.952    2632.6565   -38395.609    94.969506    236.91033 
   31050    134.94037   -969.17788    135320.74   -35775.847    2609.6787   -38385.526    95.069037    234.84258 
   31100    139.91748   -677.86269    135280.62       -35716    2705.9336   -38421.933    95.061418    243.50446 
   31150    136.67414   -867.63391    135182.61    -35744.61    2643.2089   -38387.819    94.926022    237.85993 
   31200    138.17554   -870.90956    135180.87   -35731.751    2672.2453   -38403.997    95.107701    240.47289 
   31250    138.02862   -864.61047    135184.43   -35736.409    2669.4039   -38405.813    95.152084    240.21719 
   31300    135.75488   -812.38257    135097.15   -35759.812    2625.4308   -38385.242     95.34446    236.26009 
   31350    135.41089   -615.03525    135002.48     -35771.8    2618.7782   -38390.578    95.396092    235.66144 
   31400    136.20539   -715.46671    135122.66   -35765.091    2634.1435   -38399.235     95.58826    237.04414 
   31450    138.48127   -631.82796    135065.61   -35727.607     2678.158   -38405.765     95.77746    241.00496 
   31500    143.02735   -656.03655    135069.68   -35694.278    2766.0767   -38460.355    95.840191    248.91669 
   31550    138.71478   -522.18137    135102.61   -35715.035    2682.6738   -38397.709    96.139461    241.41134 
   31600    137.93159   -530.88751    135195.26   -35692.882    2667.5274    -38360.41    96.447002    240.04833 
   31650    144.54375   -687.91364     135220.6    -35658.47    2795.4032   -38453.873    96.954233    251.55575 
   31700    140.97409   -523.99476    135293.15   -35665.107    2726.3678   -38391.475    97.374409    245.34332 
   31750    138.46037   -732.50277    135408.87   -35713.263    2677.7537   -38391.017    97.428204    240.96859 
   31800    137.98669   -671.92608    135513.41   -35719.766    2668.5929   -38388.359    97.384738    240.14421 
   31850    141.03455   -757.93855    135517.79    -35736.99     2727.537   -38464.527    97.370879    245.44853 
   31900    138.23764   -754.83369    135533.42   -35741.206    2673.4462   -38414.652    97.676602    240.58096 
   31950    137.04827   -469.31604    135607.81   -35726.356    2650.4443     -38376.8    97.822942    238.51104 
   32000     140.2555   -425.03055    135758.31   -35758.583    2712.4706   -38471.054    98.109388    244.09272 
   32050     138.1268   -703.85035    135917.05   -35762.172    2671.3027   -38433.474    98.117598    240.38807 
   32100    137.04607   -642.07864    135887.23   -35749.227    2650.4019   -38399.629    98.170934    238.50722 
   32150    139.46094   -734.05528    135857.28    -35748.82    2697.1043   -38445.925    98.379202    242.70992 
   32200    134.79283   -814.55132    135828.19   -35801.996    2606.8253   -38408.821    98.755879     234.5858 
   32250    137.04562   -892.27646    135851.81   -35777.078    2650.3932   -38427.471    98.882199    238.50643 
   32300     136.0057   -590.08439    135899.56   -35761.497    2630.2816   -38391.778    99.157287    236.69661 
   32350    137.79238   -726.99611    135936.79   -35720.414    2664.8351   -38385.249    99.394102    239.80605 
   32400    135.95967   -1047.1138    135896.96   -35750.872    2629.3915   -38380.263    99.752314    236.61651 
   32450     136.2252   -735.23688    135818.61   -35781.417    2634.5266   -38415.943    99.524243    237.07861 
   32500     136.4993   -578.05441    135846.37   -35784.888    2639.8276   -38424.716    99.712838    237.55565 
   32550    137.95064   -577.45686    135914.26   -35767.624    2667.8958   -38435.519    99.803184    240.08148 
   32600    138.77542   -860.20734    135975.68   -35735.579    2683.8467   -38419.426    100.04784    241.51689 
   32650    138.12037   -613.17018    136051.67    -35752.48    2671.1783   -38423.658    100.19877    240.37687 
   32700    136.47652   -762.39472    136129.23   -35771.739     2639.387   -38411.126     100.3244      237.516 
   32750    137.52983    -544.1063     136160.6   -35782.369    2659.7576   -38442.126    100.36317    239.34913 
   32800    138.20897   -693.45008    136237.08   -35771.779    2672.8918   -38444.671    100.44795    240.53107 
   32850    137.12374   -672.64817    136279.98   -35803.528    2651.9039   -38455.431    100.41799    238.64238 
   32900    136.03909     -767.604    136314.82    -35800.89    2630.9273   -38431.818    100.63142    236.75472 
   32950    132.58023   -816.23771    136283.87   -35830.183    2564.0347   -38394.218    100.80203    230.73512 
   33000    135.84187   -845.90972     136242.2   -35795.155    2627.1133   -38422.268    100.68094     236.4115 
   33050    136.66816   -774.68196    136152.26   -35796.818    2643.0933   -38439.911    100.77615    237.84953 
   33100     136.8224   -788.97647    136081.18   -35783.154    2646.0761    -38429.23    100.92603    238.11795 
   33150    139.01289   -888.46576    136014.91   -35757.025    2688.4393   -38445.464    101.12749    241.93017 
   33200      136.821   -797.96071    135967.83   -35695.113    2646.0492   -38341.162    101.10884    238.11552 
   33250    138.87394   -1015.8857    135901.39   -35679.775    2685.7519   -38365.526    101.04499    241.68833 
   33300    139.05963   -898.36713    135817.07   -35699.506    2689.3431    -38388.85    100.87246    242.01151 
   33350    138.62252   -546.78709    135780.37    -35665.06    2680.8897   -38345.949     101.0738    241.25079 
   33400    140.99827   -729.83622    135774.38   -35649.662    2726.8353   -38376.498    101.23973    245.38539 
   33450    139.95989   -813.11951    135770.21   -35673.171    2706.7537   -38379.925    101.21153    243.57826 
   33500    138.14612   -633.34602    135720.03   -35707.257    2671.6763   -38378.933     101.2752    240.42169 
   33550    137.12014   -616.61648     135707.5   -35733.843    2651.8344   -38385.678    101.36661    238.63613 
   33600    137.87557   -797.35211    135798.69   -35792.707     2666.444   -38459.151    101.45441    239.95083 
   33650    137.19306   -726.86806     135739.3   -35812.871    2653.2446   -38466.115    101.62139    238.76303 
   33700    137.68885   -489.42315    135744.14   -35746.496    2662.8329   -38409.329    101.67804    239.62587 
   33750    137.01047   -968.14769    135695.71   -35766.651    2649.7134   -38416.365    101.84962    238.44526 
   33800    138.70117   -863.03269    135667.87   -35759.365    2682.4106   -38441.776    102.12974    241.38765 
   33850    137.48454   -806.94632    135581.12   -35785.133    2658.8817   -38444.015    102.28974     239.2703 
   33900    136.21676   -872.79055    135608.79   -35743.131    2634.3633   -38377.494    102.54052    237.06392 
   33950    139.84695   -660.54089    135624.82   -35660.547    2704.5695   -38365.117    102.70832    243.38171 
[...]
   92000    136.72442   -780.80307    134786.33   -35733.864    2644.1813   -38378.045    273.79508    237.94743 
   92050    136.09878   -959.61634    134767.57   -35718.448    2632.0817    -38350.53    273.80792     236.8586 
   92100    137.71735   -441.07784    134773.16   -35699.098     2663.384   -38362.482    274.09164    239.67547 
   92150    137.36078   -580.55173    134857.92   -35662.089    2656.4882   -38318.577    274.26587    239.05492 
   92200    139.89106   -365.68201    134915.42   -35639.494    2705.4225   -38344.916    274.46805    243.45848 
   92250    137.70461   -907.83636    134920.35   -35668.575    2663.1376   -38331.712    274.47789    239.65329 
   92300    137.92233    -539.7526    134772.13   -35680.978    2667.3482   -38348.326    274.45518     240.0322 
   92350    136.40796   -810.11607     134711.9   -35696.424    2638.0611   -38334.485    274.55613    237.39668 
   92400    136.04931   -771.48819    134709.53   -35677.038    2631.1251   -38308.163    274.84698    236.77252 
   92450    139.02111   -702.39346    134747.28   -35651.741    2688.5981   -38340.339    274.86848    241.94446 
   92500    136.85389   -799.16997    134703.19   -35632.218    2646.6852   -38278.903    274.91391    238.17276 
   92550    137.72152   -752.58817    134606.14   -35626.714    2663.4648   -38290.179    274.65411    239.68274 
   92600    138.34302   -578.14842    134570.18   -35651.355    2675.4841   -38326.839    274.26603    240.76435 
   92650    137.24844   -575.00669    134651.53    -35636.33    2654.3155   -38290.646    274.27638     238.8594 
   92700    136.34549   -598.27675     134669.3   -35614.707    2636.8529    -38251.56    274.93652    237.28796 
   92750    135.81988   -667.60613    134727.95   -35595.999     2626.688   -38222.687    275.06854    236.37322 
   92800    138.37531   -487.30502    134749.56   -35560.815    2676.1088   -38236.924    275.36562    240.82056 
   92850     135.6497   -683.47396    134809.44   -35588.427    2623.3968   -38211.824    275.77296    236.07706 
   92900    139.16804   -976.82359    134817.75   -35583.232    2691.4396   -38274.671    275.88874    242.20017 
   92950     138.4209   -592.01501    134872.33   -35605.065    2676.9904   -38282.055    276.18366    240.89989 
   93000    138.95706   -957.49401    134888.26   -35613.211    2687.3595   -38300.571    276.52776      241.833 
   93050    137.88373   -702.27671    134828.91   -35592.028    2666.6017    -38258.63    276.51325    239.96503 
   93100    140.40966   -634.62773    134793.51   -35562.816    2715.4519   -38278.268    276.87622    244.36101 
   93150    138.48482   -809.04995    134804.51    -35601.37    2678.2266   -38279.596    277.10506    241.01114 
   93200    137.05822   -686.98187    134795.49   -35615.658    2650.6369   -38266.295    277.22676    238.52837 
   93250    136.18232   -429.73959    134884.14   -35659.095    2633.6974   -38292.793    277.44871    237.00399 
   93300    137.38836   -677.69842     134919.2   -35640.457    2657.0216   -38297.479    277.41445    239.10292 
   93350    132.99484   -951.13869    134867.25   -35659.697    2572.0532    -38231.75    277.30902    231.45669 
   93400    139.15613   -590.05924    134819.52   -35689.262    2691.2093   -38380.472    277.22385    242.17944 
   93450     138.3475   -880.19093    134782.03    -35655.89    2675.5709   -38331.461    277.31924    240.77215 
   93500    136.93455   -866.38455    134777.12   -35681.407    2648.2452   -38329.652    277.09266    238.31314 
   93550    138.75441   -957.39367    134744.24   -35658.844    2683.4403   -38342.284    277.14761    241.48032 
   93600    137.35796    -834.1449    134634.34   -35668.698    2656.4337   -38325.132    277.11685    239.05001 
   93650    140.93601   -809.18189    134549.23    -35659.25    2725.6314   -38384.882    277.03412    245.27706 
   93700    138.23046   -522.46101    134544.94   -35608.322    2673.3073   -38281.629    277.26076    240.56845 
   93750    136.03043   -867.90282    134546.24   -35611.767    2630.7599   -38242.527    277.44026    236.73965 
   93800    140.09417    -670.1702    134479.61   -35608.864    2709.3505   -38318.214    277.41216    243.81195 
   93850    137.40157   -683.30831    134431.13   -35653.736     2657.277   -38311.013     277.6678     239.1259 
   93900    136.97151   -804.31981    134479.33   -35666.593    2648.9598   -38315.553    277.87584    238.37745 
   93950    138.87051   -603.05732    134440.22   -35657.549    2685.6855   -38343.234    277.85344    241.68236 
   94000    137.83106    -853.4688    134426.67   -35677.142    2665.5832   -38342.725      278.468    239.87337 
   94050    140.36005   -794.49483    134386.62   -35633.269    2714.4927   -38347.762    278.17956    244.27469 
   94100    137.74068   -860.48172    134385.04   -35651.971    2663.8354   -38315.806     278.6324    239.71608 
   94150    137.59548   -709.67079    134445.87   -35606.813    2661.0272    -38267.84    278.82169    239.46338 
   94200    136.08387   -705.46904    134565.07   -35619.246    2631.7935   -38251.039    278.86699    236.83266 
   94250    139.87771   -754.98016    134510.97    -35570.06    2705.1644   -38275.224    279.22185    243.43524 
   94300    138.68449   -670.98992    134489.88   -35525.283     2682.088   -38207.371    279.56308    241.35862 
   94350    138.00769   -931.71591    134478.03   -35489.539    2668.9991   -38158.538    279.78137    240.18077 
   94400    140.27422   -514.22883    134444.98   -35470.923    2712.8327   -38183.756    280.04342    244.12531 
   94450    138.34521   -739.11201    134464.28   -35503.766    2675.5266   -38179.292    280.58292    240.76816 
   94500    140.58256   -743.51973    134435.12   -35521.137    2718.7957   -38239.933    280.66497    244.66192 
   94550    140.77445   -633.23778    134413.87   -35576.466    2722.5069   -38298.973    281.10492    244.99588 
   94600     138.6597   -739.22646    134367.93   -35558.123    2681.6087   -38239.731     281.4518    241.31549 
   94650      137.408   -711.34049    134393.71   -35580.401    2657.4015   -38237.802     281.6031    239.13711 
   94700    136.31804   -733.06491    134379.73   -35605.835    2636.3221   -38242.157    281.80001    237.24019 
   94750       136.16    -849.7331    134236.03   -35646.382    2633.2657   -38279.648    282.15927    236.96515 
   94800    138.16375   -964.13883    134238.01   -35643.092    2672.0171    -38315.11     282.6632    240.45235 
   94850    137.99499   -728.71634     134245.7   -35583.024    2668.7535   -38251.777     283.1168    240.15866 
   94900    135.36158   -784.84307    134301.46   -35632.778    2617.8247   -38250.603    283.26735    235.57562 
   94950    138.80686   -807.93038    134267.82   -35632.872    2684.4547   -38317.326    282.89476     241.5716 
   95000     138.7409   -377.27272    134256.31    -35626.84     2683.179   -38310.019    283.31599     241.4568 
   95050    138.58135   -770.64968    134332.02   -35630.396    2680.0934   -38310.489    283.82898    241.17913 
   95100    134.75549   -505.03064    134363.62   -35641.224    2606.1032   -38247.327    283.96157    234.52082 
   95150    138.08052   -727.66998    134422.72   -35662.449    2670.4076   -38332.857    284.18591    240.30752 
   95200    135.76555   -786.16352    134320.11   -35684.856    2625.6373   -38310.494    284.14017    236.27867 
   95250    137.87663   -749.48364    134232.49   -35606.194    2666.4644   -38272.658    284.37568    239.95267 
   95300    138.09391   -918.68024    134198.66   -35582.034    2670.6665   -38252.701    284.69417    240.33082 
   95350    140.68299   -601.71815    134185.56   -35624.517    2720.7381   -38345.255    284.71899    244.83671 
   95400     137.1658   -493.52163    134327.18   -35666.891    2652.7174   -38319.608    285.29338    238.71559 
   95450    139.88118   -661.59238    134440.78   -35632.705    2705.2315   -38337.937    285.58574    243.44129 
   95500     135.6562   -687.16945    134493.13   -35684.355    2623.5226   -38307.877    285.80138    236.08837 
   95550    137.07069   -597.04585    134520.99   -35649.019     2650.878   -38299.897     285.9036    238.55006 
   95600     137.1282   -834.70223    134602.71   -35679.144    2651.9903   -38331.134    286.62116    238.65016 
   95650    137.27206   -696.36271    134597.26   -35695.759    2654.7723   -38350.532    286.84061    238.90051 
   95700    137.51036   -450.08712    134626.31   -35623.366     2659.381   -38282.747    286.94934    239.31524 
   95750     137.8708   -617.87892    134693.08   -35609.824    2666.3516   -38276.176    287.25204    239.94252 
   95800    136.57083   -635.57652    134744.04   -35603.668     2641.211   -38244.879    287.74912    237.68014 
   95850    135.91523   -794.46568     134799.7    -35649.95    2628.5319   -38278.482    287.94578    236.53916 
   95900    136.85252    -735.1419     134899.3   -35707.011    2646.6587    -38353.67    288.64211    238.17037 
   95950    138.22961   -424.67019    134939.09   -35687.043     2673.291   -38360.334    288.06213    240.56699 
   96000    136.66378   -539.29258       134972   -35703.403    2643.0086   -38346.411    288.36508    237.84191 
   96050    136.91787   -597.60776    134984.46   -35664.267    2647.9226    -38312.19    288.70281    238.28411 
   96100    138.20585   -737.36544    135000.59   -35682.805    2672.8314   -38355.636    288.78313    240.52563 
   96150    136.21525   -584.73941    135045.57   -35711.922    2634.3342   -38346.256    289.04017     237.0613 
   96200    138.26434   -590.18265    135083.63   -35717.321    2673.9625   -38391.283    288.84346    240.62742 
   96250    134.49271   -676.51399    135091.87   -35732.575    2601.0213   -38333.596    289.06786     234.0635 
   96300    135.19288   -686.98066    135094.44   -35762.842    2614.5621   -38377.404    289.29831    235.28202 
   96350    136.33649   -868.80272    135095.68   -35748.994    2636.6789   -38385.673    289.91808     237.2723 
   96400    134.78442   -684.54832    135158.28   -35788.354    2606.6627   -38395.016    290.72422    234.57117 
   96450    134.91954   -914.22961     135049.6   -35843.418    2609.2758   -38452.693    291.46602    234.80632 
   96500    135.48785   -808.17129    135006.08   -35783.013    2620.2667    -38403.28    292.06193    235.79538 
   96550    137.12054   -638.36565    135023.86   -35746.034    2651.8422   -38397.877    292.60306    238.63683 
   96600    136.57415   -682.57267    134995.45   -35746.947    2641.2751   -38388.222    292.81935    237.68591 
   96650    136.01306   -546.26932    134972.97    -35710.41    2630.4241   -38340.834    293.13996    236.70943 
   96700    136.78423    -809.3808    134947.12   -35757.743     2645.338   -38403.081    293.27367    238.05153 
   96750    138.22489    -826.3067    134961.95   -35722.649    2673.1996   -38395.848    293.22231    240.55876 
   96800    136.55669   -590.52317    134955.52   -35732.703    2640.9376    -38373.64    293.41922    237.65554 
   96850    139.27799   -693.23653    135023.86   -35755.384     2693.566    -38448.95    293.92864    242.39152 
   96900    137.47466   -668.88116    135068.28     -35725.4    2658.6906   -38384.091    294.42641    239.25311 
   96950    136.22518   -732.75547    135031.26   -35731.382    2634.5262   -38365.908    294.79948    237.07858 
   97000     138.4632   -924.89596    134935.81   -35703.959    2677.8085   -38381.767    295.52045    240.97351 
   97050    135.40928   -664.75005    134926.24   -35679.577    2618.7473   -38298.324    295.88413    235.65865 
   97100    136.55084   -654.55005    134936.01   -35709.021    2640.8244   -38349.846    296.32703    237.64535 
   97150    136.18974   -749.64799    134895.94   -35688.288    2633.8409   -38322.129    296.58748    237.01691 
   97200    135.27053   -893.33938    134876.38   -35708.278    2616.0638   -38324.341    296.67169    235.41717 
   97250    136.05249   -735.42855    134888.87   -35703.853    2631.1865    -38335.04    297.05239    236.77805 
   97300    140.71652   -770.03746    134844.69   -35648.107    2721.3866   -38369.493    297.56196    244.89507 
   97350    139.27521   -436.94945    134868.91   -35654.121    2693.5123   -38347.634    297.46345    242.38668 
   97400    138.93975   -600.66753    134922.36   -35689.355    2687.0246    -38376.38    297.55985    241.80286 
   97450    137.25973   -930.82437    134938.67   -35678.838     2654.534   -38333.372    297.72817    238.87906 
   97500    136.26169   -774.78253    134848.81   -35740.448    2635.2324    -38375.68    297.66544    237.14213 
   97550    133.92147   -740.47615    134839.88   -35759.068    2589.9737   -38349.042    297.31331    233.06934 
   97600     134.1047    -693.0026    134858.41   -35729.919    2593.5172   -38323.436     297.2527    233.38822 
   97650    136.53322   -792.07751    134903.52   -35709.431    2640.4835   -38349.915    297.38218    237.61467 
   97700    133.89864   -852.63805    134954.32   -35726.909    2589.5321   -38316.441    297.74648     233.0296 
   97750    137.14989   -663.56617    134996.47    -35676.86    2652.4096   -38329.269    297.51251    238.68789 
   97800    138.08957    -710.1488    135028.69   -35661.229    2670.5827   -38331.812    297.61268    240.32327 
   97850    135.15141   -507.54376    135121.04   -35670.318      2613.76   -38284.078     298.0907    235.20985 
   97900    138.97674   -537.86418    135212.57   -35627.755    2687.7401   -38315.495    298.36275    241.86725 
   97950    138.17511   -714.26154    135207.84   -35636.235    2672.2369   -38308.472    298.20796    240.47213 
   98000    140.94198   -571.02305    135358.86   -35574.737    2725.7468   -38300.484    298.18079    245.28744 
   98050    138.90392   -792.21344    135313.14   -35605.172    2686.3318   -38291.504    298.34011    241.74052 
   98100    138.61204   -667.27111    135268.09   -35609.212     2680.687   -38289.899    298.25657    241.23255 
   98150    137.98009   -767.04847    135140.19   -35625.794    2668.4654    -38294.26     298.1747    240.13273 
   98200    137.24146   -938.57546    135048.07   -35626.082    2654.1806   -38280.263    298.40286    238.84726 
   98250    134.83588   -731.17144    134983.25   -35662.471     2607.658   -38270.129    298.26778    234.66073 
   98300    137.63823    -652.9912    134925.93   -35643.868    2661.8538   -38305.722    298.39325    239.53777 
   98350    133.41288   -729.22585    134929.38   -35634.169    2580.1379   -38214.307    298.60073    232.18422 
   98400    136.60331   -634.03201     134913.8    -35667.07    2641.8391   -38308.909    298.23917    237.73666 
   98450    133.32687   -526.16944     134946.7   -35712.182    2578.4744   -38290.656    298.14757    232.03453 
   98500    133.59272   -655.83425    134913.25   -35689.043    2583.6158   -38272.659    297.83995     232.4972 
   98550    137.72936   -818.25639    134917.43   -35669.584    2663.6163   -38333.201    298.05433    239.69637 
   98600    135.57383   -605.76653    134881.45   -35625.858    2621.9295   -38247.788    298.19882    235.94501 
   98650     135.9652   -828.63539    134882.49   -35639.128    2629.4983   -38268.626    298.14718    236.62612 
   98700    137.61343   -463.81993    134970.17   -35618.382    2661.3743   -38279.756    298.30419    239.49461 
   98750    138.41714   -570.62472    135090.68   -35664.517    2676.9177   -38341.435    298.93044    240.89335 
   98800    137.21726   -887.49086    135185.98   -35606.662    2653.7126   -38260.374    299.27108    238.80514 
   98850    139.97954   -752.70106    135127.29   -35606.865    2707.1336   -38313.999    299.43589    243.61245 
   98900    135.27028   -966.13782    135173.47   -35667.514     2616.059   -38283.573    299.32322    235.41674 
   98950     139.6802   -917.15246    135122.41   -35679.155    2701.3447     -38380.5     299.4759    243.09151 
   99000    136.08591   -855.37827    135119.45   -35701.061    2631.8329   -38332.893    299.93843    236.83621 
   99050    134.76013   -961.17586    135108.01   -35719.995     2606.193   -38326.188    299.96804     234.5289 
   99100    136.74717    -768.9541    135136.11    -35709.28    2644.6212   -38353.901    299.96686    237.98702 
   99150    136.81671   -884.33473    135153.03   -35772.304    2645.9661    -38418.27    300.34084    238.10804 
   99200    135.48444   -648.80822    135094.23   -35746.521    2620.2007   -38366.722    300.59421    235.78944 
   99250     135.3569   -481.75253     135146.7   -35725.994    2617.7341   -38343.728    300.65248    235.56748 
   99300    135.87423   -1007.5886    135060.54    -35756.89     2627.739   -38384.629     300.5733    236.46781 
   99350    136.23121    -923.2145     135092.1   -35726.552     2634.643   -38361.195    300.56186    237.08909 
   99400    134.69739   -856.97677    135055.48   -35790.591    2604.9795    -38395.57    300.66805     234.4197 
   99450    134.61903   -587.07906    135052.56   -35733.924    2603.4641   -38337.388    300.87726    234.28333 
   99500    137.68834   -885.76383    135106.74   -35699.242    2662.8231   -38362.066     301.3055    239.62499 
   99550    135.52893   -898.22771     135078.6   -35720.938    2621.0612   -38341.999    301.36523    235.86688 
   99600    137.48921   -942.33885    135073.39   -35714.372    2658.9721   -38373.344    301.50148    239.27844 
   99650    138.22962   -987.59214    135072.34   -35689.508    2673.2911   -38362.799    301.82964    240.56699 
   99700    137.97025   -701.33842    135083.02    -35670.02     2668.275   -38338.295    301.98849     240.1156 
   99750    137.59574    -805.5083     135102.9   -35719.846    2661.0323   -38380.878    302.19547    239.46384 
   99800    139.74808   -760.47904    135073.13   -35710.624    2702.6573   -38413.281    303.17383    243.20963 
   99850    135.70065   -706.69726    135121.89   -35673.887    2624.3822   -38298.269    303.01807    236.16573 
   99900    139.42072   -885.91567     135234.3   -35683.476    2696.3265   -38379.802    303.50742    242.63993 
   99950    137.75899   -860.42906    135191.24   -35685.898    2664.1894   -38350.087    303.24245    239.74794 
  100000    138.84884   -734.68321    135110.78   -35682.087    2685.2665   -38367.353    303.45084    241.64465 
Loop time of 56.251 on 90 procs for 100000 steps with 6489 atoms

Performance: 767.987 ns/day, 0.031 hours/ns, 1777.747 timesteps/s
97.2% CPU use with 90 MPI tasks x no OpenMP threads

MPI task timing breakdown:
Section |  min time  |  avg time  |  max time  |%varavg| %total
---------------------------------------------------------------
Pair    | 7.258      | 18.007     | 39.794     | 304.5 | 32.01
Neigh   | 0.56639    | 1.3175     | 3.3342     |  82.5 |  2.34
Comm    | 5.7552     | 19.181     | 42.382     | 317.6 | 34.10
Output  | 0.14685    | 0.15023    | 0.16041    |   0.5 |  0.27
Modify  | 3.4046     | 16.802     | 39.279     | 382.9 | 29.87
Other   |            | 0.7934     |            |       |  1.41

Nlocal:    72.1 ave 157 max 41 min
Histogram: 56 4 0 3 12 0 0 0 1 14
Nghost:    717.756 ave 1047 max 442 min
Histogram: 30 0 0 4 26 0 0 0 14 16
Neighs:    0 ave 0 max 0 min
Histogram: 90 0 0 0 0 0 0 0 0 0
FullNghs:  5788.38 ave 18825 max 1609 min
Histogram: 60 0 0 0 15 0 0 0 0 15

Total # of neighbors = 520954
Ave neighs/atom = 80.2826
Neighbor list builds = 5980
Dangerous builds = 0

write_data		${DIR}/data.eq-${NAME}-${TEMP}
write_data		run_8/data.eq-${NAME}-${TEMP}
write_data		run_8/data.eq-het_freeze_8-${TEMP}
write_data		run_8/data.eq-het_freeze_8-240
undump          1

reset_timestep  0

unfix           2
unfix           3
unfix           4


################################################
#######         Run Simulation         #########
################################################

log				${DIR}/log.run_${NAME}
log				run_8/log.run_${NAME}
log				run_8/log.run_het_freeze_8
