LAMMPS data file via write_data, version 29 Oct 2020, timestep = 100000

6368 atoms
2 atom types

0.0 49.22 xlo xhi
0.0 49.019635930410494 ylo yhi
1.1450368674818243 58.91696313251893 zlo zhi

Masses

1 18.015
2 12.01

Atoms # atomic

1486 1 1.520431411719248 2.9914988803420535 1.7723114753569025 0 0 1
330 1 4.486404330242601 3.5043481444690854 2.4977075072542645 0 -1 0
5199 1 5.811066610934542 0.4178794636276054 5.4014563462872305 2 1 0
1702 1 6.697199853385801 2.4133218280344773 3.872402797351627 1 2 1
6145 1 9.442502856556189 2.011981622891466 3.2492609748841415 0 1 1
6224 1 11.953545323123622 0.9180875363295856 3.2047486004854635 0 0 0
3104 1 10.166563708659556 3.6036010527134876 5.109977416698362 1 2 1
1599 1 13.621242362758178 1.1941981528009602 5.272746541247237 -1 -2 0
6275 1 16.048649540597502 3.4672726668710956 5.625289828624654 -1 -1 1
196 1 13.123836125556823 4.0600564233908605 5.4998626440318 -1 0 0
4970 1 15.051614460403014 1.1299165875606125 2.050016039184399 2 2 1
3190 1 17.22919227567932 3.2667536182419172 2.8026690674105916 1 0 0
544 1 19.38604664514812 2.2450196614336484 1.1650716183363041 0 0 0
465 1 20.679369782124954 2.420085033338489 4.1307590423747955 -1 0 0
3016 1 22.505698684850252 1.6418926885516738 1.2646117024244274 3 1 1
398 1 23.615634104786263 3.1712044632664083 3.895046407360027 -1 -1 0
2090 1 0.827163067578052 6.222740377942059 3.8406507402534418 1 1 1
6262 1 3.6536710189253756 5.442340558112447 4.124255324353152 0 1 1
3324 1 6.444557330657123 6.199252250934009 2.119070251931214 1 0 1
5089 1 4.607547006721361 7.577698647676088 3.251356844906866 2 0 0
3403 1 7.33223658821501 5.320664342453072 4.909543700696895 2 1 0
6319 1 9.429290936687263 6.525072002828507 3.568567180953259 0 2 1
4789 1 12.383230488541882 5.814469071974281 3.4507881234320146 0 0 0
2136 1 16.288583736375404 8.061227351333452 4.85657997001786 -1 2 1
3097 1 13.750009475350366 4.43827613073352 1.3327426640244369 1 0 1
3091 1 18.086520041090118 5.471145968126913 4.874969232638259 0 0 1
3467 1 16.67077332964676 5.098563209376873 1.1561854991642235 3 0 0
3237 1 22.816014789207532 7.328670589372496 2.9840868901553046 0 0 1
1371 1 24.17063565912147 8.024444325819672 5.573812412199818 -1 0 1
356 1 1.2198283857450787 9.034344326393391 2.7297993621956658 1 -1 0
245 1 0.36693663628041806 9.623381188101613 5.356148389196177 2 0 1
3262 1 3.496903316955358 9.811904546025238 1.3368924588853137 1 1 0
401 1 6.625984078502841 8.781959024428838 4.993535249473737 -2 1 0
4920 1 7.433345987400129 9.10356961553377 2.294142369211902 1 2 0
2074 1 6.316245223658973 11.217491043785024 1.2936625767634868 2 0 0
4756 1 4.6017031586357655 11.62135354282572 3.9118477542534467 -2 0 1
4611 1 9.13347616013946 12.164984502760406 1.5143535419864087 1 1 1
144 1 10.153141231958957 9.47274964274903 3.4210431929410055 -1 -1 0
6188 1 12.851373931012338 10.897196929634145 1.8629208797574566 0 1 1
5167 1 13.469751575362382 8.351671120122592 3.809536204391214 0 0 0
1771 1 13.496934085763709 12.142018549718868 4.774263413155381 0 3 0
1960 1 19.470408809959366 8.66405121482933 5.710174868043846 0 0 0
88 1 20.125485471741154 8.682869249504868 2.8116399656650386 -1 0 0
4736 1 19.373080490413862 11.749493104585136 4.256470968022261 -1 0 1
3601 1 17.201716124437336 9.929937354512962 3.114542721157386 -1 1 0
161 1 16.44868107394788 11.815992404673016 5.4269893446881055 0 1 0
60 1 21.18492892041613 11.263350283292818 1.9911557841961383 0 0 0
3062 1 22.08960497461748 10.469329759787604 4.999991620544719 -1 0 1
4591 1 3.316466139260891 13.214190176016302 2.0641412462087594 0 1 1
3221 1 3.350922790813096 16.149487820505474 2.2099737242817046 0 2 0
1519 1 2.4562858372904994 13.754811570037285 4.910961277475307 1 0 1
3702 1 6.846315437046124 15.810928307405268 2.837260786383199 -1 1 1
3540 1 6.279172315350338 14.045431629637118 4.837476734446675 -1 -1 0
1435 1 10.234123720239507 14.835978802108933 2.3197087456502103 -1 2 1
1590 1 9.28327936670145 14.765933552339026 4.7565703931185315 0 -1 1
6244 1 13.91927319408698 15.607600286096808 2.8403272642344906 3 0 1
3520 1 12.849763401856395 14.930011027185232 5.319082554760387 1 -2 0
6364 1 16.711473441349654 14.303042063404142 2.8065046994242797 0 -1 1
3269 1 17.10682270532439 14.404765541122172 5.798373517254484 0 -1 0
1766 1 24.319846414668955 14.229128178637472 4.668877060397776 1 1 1
5150 1 0.07065562890066007 20.285442451994555 2.5183020295854477 0 1 0
4506 1 1.5265006122535987 16.65756222419515 4.171019743649014 0 -2 1
3073 1 0.943955841466198 19.61296799784682 5.446815684781103 0 -2 1
1937 1 0.0990614142321688 17.607795037212096 1.3875386493070452 1 0 0
238 1 5.430714208820229 19.652816848675737 5.6897990331712665 -1 1 0
394 1 7.3700063359172505 18.037684668696837 4.368435675030247 3 2 0
1425 1 4.276245102109775 19.074362441089832 2.7607250043931355 1 0 0
1582 1 6.272006882065388 20.37276450027742 1.2159089445058555 1 2 0
5349 1 11.440944221702535 18.52019022902871 4.001961705196912 1 1 1
3646 1 10.969021673424395 16.816186892133345 5.920601408705868 1 0 1
285 1 9.076612903348094 19.498751829003623 2.4381299207780067 2 -1 1
5245 1 14.892734682037174 18.40215690221709 2.332119813852169 0 1 0
4904 1 14.98251611328909 19.789720891993483 4.593039282894656 0 1 1
188 1 18.37386758746811 20.04736660439693 1.786977032052426 2 1 0
468 1 17.367153468719852 16.791182036500437 1.6989164836336723 1 1 0
1481 1 20.235202198835065 17.54264340752685 1.7327015797487313 -1 0 1
1521 1 22.514489323221714 16.66263401447238 3.567217916960858 -2 -2 1
4427 1 24.508490178707266 19.101755247052136 4.962806887043194 0 0 1
3626 1 21.778923909714205 19.31787354493957 4.082769411100879 2 -1 0
6150 1 1.503039167699804 23.466077653196376 5.731643684553732 1 -1 1
2121 1 2.3214594988098565 21.686858240547213 3.194054276518698 0 0 1
1464 1 7.98678108836912 22.087336816427626 3.1043067586674793 0 1 1
2912 1 7.3060036447514225 22.011582755316056 5.668771837839592 0 0 1
2072 1 7.342782036949251 24.33038593504995 1.7594844548197135 3 0 1
1767 1 4.235957119782315 23.1276083814066 4.881492592232348 -1 1 0
4847 1 11.76865247372836 21.139625199191578 5.313823159884169 0 0 0
4486 1 10.389518047021072 23.418719092222762 3.66297483630209 1 1 1
6351 1 20.21891363988199 21.97296992310685 1.1856183193097685 0 1 1
4928 1 17.093775394692003 23.395089033520232 3.916347788058193 1 -1 0
5305 1 19.16708099013218 24.258824312781048 2.137351518048235 1 1 1
66 1 22.767370971846095 21.560671423809637 2.6841987669914524 1 1 0
3133 1 23.00639576273967 24.19845952215206 3.6367114730035492 1 1 0
1836 1 1.8695844385847684 1.8101201183117517 7.434345750426032 1 -1 0
1291 1 1.7046295587940887 1.9831806967643373 10.632253527944421 -1 -2 1
3538 1 6.054818984041019 1.7697782628831036 7.568907217977113 1 1 0
4478 1 8.44891837394466 2.528241339957421 10.584219031218066 1 -1 1
2927 1 10.326558587665152 4.068871234982185 8.75321383807725 0 1 1
317 1 8.92612323079195 2.111425782551059 7.472277669157702 1 0 0
3482 1 14.507741994364707 1.0590600121508176 9.370786119017872 0 0 0
4544 1 13.132511154047016 3.198101340020987 8.181597996176226 1 0 1
5025 1 16.32882037599213 3.585292860953522 8.548007117441255 2 1 0
3160 1 17.41016479640769 1.734104185071566 10.154249789511253 0 1 0
1957 1 20.150945315679984 2.43905207372002 10.012892632162316 1 2 0
2016 1 24.404477075415045 3.2020293298649762 6.667689913041698 0 2 1
4626 1 21.701180769592167 0.6724281622393861 7.095058711769358 0 -2 1
1991 1 1.5988901596160827 4.413106754995584 6.21467525459746 1 0 0
3478 1 1.818567396311482 6.845512555044516 7.895308036946544 1 1 0
3450 1 2.9779476289384896 4.637199556755806 9.4602281149315 1 -1 0
3418 1 2.3985293194775528 7.83287650867409 10.244958816712833 1 -2 0
2076 1 4.788241686329408 4.213620184683169 6.999869296343261 0 1 0
3420 1 7.335687717433722 4.961691489540075 9.127715373652798 1 1 0
156 1 8.709387110849521 7.559294385773388 8.915030276729944 1 2 0
6060 1 13.690919571815632 5.13920845059478 10.468331109772677 -1 -1 1
261 1 16.104365662882362 6.8223118299534615 9.03108685731616 0 0 0
454 1 18.428895885321115 5.308161526904683 7.430530139689449 0 1 0
1515 1 20.286347166474958 6.4320830214806115 9.585689295837128 2 1 1
3299 1 21.730537019849333 4.2438317549110085 8.089198961209599 0 1 0
3620 1 22.609281548152794 5.052145957637249 10.737978997335151 3 0 0
1641 1 2.067400294702815 10.881345375767081 7.419057152967077 0 1 0
125 1 0.23017101478460944 10.202192409960924 9.46358775570368 -1 0 0
4545 1 4.315296225881622 9.089739639072278 8.234226489335999 0 0 1
4790 1 5.618420096454632 11.029929731993107 6.479916621816638 2 2 1
4962 1 6.494108536503137 9.043594891131608 10.118610652638631 0 2 0
1318 1 9.317667947779631 8.189188180016156 6.150709984292575 1 0 1
3454 1 14.001256111868704 9.662613894462583 6.65208049225581 0 0 0
6235 1 15.115726726410509 11.15438006616544 10.041679297611893 2 0 1
4443 1 12.63104051703998 11.28000243575529 8.374401578638842 1 0 1
504 1 20.43030352154617 8.867954386406202 8.453294069847821 0 0 1
3058 1 16.41548643244095 9.14896746184292 7.8795578286742725 2 1 1
5320 1 18.690178832237045 11.279543104906066 7.651063472515994 2 0 1
6110 1 23.42487291494031 9.198871082738137 7.998569364721121 1 1 0
399 1 2.5014293914664245 16.174191447327104 10.063929551227364 -1 0 0
4463 1 2.4390323488544636 13.341573412398649 7.672780676730225 2 0 1
1292 1 0.47173398742307543 14.277625622877725 10.03222743236175 0 1 1
166 1 8.046931712790462 12.531385768307835 7.506235744011443 1 1 0
363 1 6.479016949158308 14.679548662532875 7.879648821177902 0 1 0
375 1 4.296407166795971 14.279202655799697 9.438659971033662 0 -1 0
276 1 10.799049300611609 13.041620604847873 6.8840369330810525 0 -1 0
1 1 11.843056294585859 13.459726318241513 10.51395656116933 2 0 0
2998 1 16.384745168821016 14.858630496309958 8.815810502543286 1 0 1
3493 1 19.12914274695803 14.46571370879447 10.198896412622316 1 1 0
3442 1 19.16495405268606 13.743455931671567 7.369463979923871 0 1 0
1255 1 23.76425532645788 12.273789292366747 6.487831052603232 1 0 1
4633 1 21.315191180504495 15.121380618284379 8.551151087350483 1 0 1
6368 1 23.944454642676135 14.035153349496856 8.687132583281425 1 1 1
1617 1 1.8551724380384926 17.089070207718137 7.055886896227724 -1 -2 1
1501 1 4.034264311019437 18.21301616215391 7.73371142597136 0 0 1
244 1 7.012790808497326 16.984302890757345 8.412390580960881 0 1 0
4807 1 7.293112392359714 19.0284280404297 10.684149488365144 1 0 0
3140 1 4.6468687593558515 20.030188454582763 9.765725691762993 -1 2 0
3199 1 12.137132358306634 17.405512439269692 8.533375807923857 -1 -1 0
5094 1 8.931495366507185 18.399594309981875 6.943642436012033 0 0 0
1465 1 10.756165664991492 19.02632495191183 9.921606179672821 -2 0 1
206 1 14.91502637675478 16.517447679859437 6.623114588135585 0 0 0
6360 1 14.734406043841451 19.94785618309971 10.264870347966964 -1 -1 1
335 1 14.410248453205446 17.147629763267826 9.895014096824527 -1 0 0
4593 1 16.828537306276864 20.33009765385723 8.176707984343057 0 0 1
3570 1 17.096217134661945 18.441999487690452 6.031352802012986 0 0 1
70 1 19.63719199919709 20.297068670747002 8.53786460140824 1 -1 1
1847 1 20.080729624925485 18.47652229216623 6.25357031304877 1 0 0
1285 1 21.304413904201 19.24240996201584 10.637748537255217 1 2 1
1364 1 22.048441761094665 17.928044048818926 8.000357389715006 0 0 0
1940 1 0.8509720266269615 22.38533175417361 10.485736142556199 0 0 0
1952 1 3.9364571905756724 21.61157809911341 7.533203174199861 1 1 0
1289 1 0.8893411647404698 21.410764135461353 7.605255879866399 0 0 1
534 1 4.6696985629039185 24.182666172461108 8.959673003401647 -1 1 1
1542 1 10.648442906294802 23.39333502682109 8.535507042308044 1 -1 1
4576 1 9.774435037753111 20.87102120432273 7.165057657845194 0 -1 1
1288 1 8.652167525465186 23.292674498955076 10.56703289359813 -1 0 1
1461 1 13.590701373509743 22.502698833274234 9.520668770159924 -1 0 1
3553 1 13.444664044243158 22.72790538012452 6.882233449392769 0 0 0
4709 1 16.429452387617456 23.054559630989733 10.31101323986067 -1 2 1
1747 1 18.10459286179379 23.468051530662258 8.064637220959101 1 0 0
2024 1 24.0560316462916 21.928448962094603 7.923050052716648 -1 -1 0
3201 1 21.298127985689803 23.002471889471845 9.034452751745476 0 -2 0
3217 1 0.40902265197618537 0.22497675352833113 14.151731020011708 2 0 0
6183 1 2.550160857440126 3.2799963326029222 14.682719984105752 2 2 0
1944 1 4.206760403851058 1.1473167625743002 10.835160807956745 2 1 0
236 1 4.733340266576065 0.41483583873196844 14.794818161160016 1 0 0
4669 1 8.17746074844316 2.867971890549155 13.298393171814476 0 0 1
64 1 5.2631390862597724 3.158646933834164 13.652371288587178 1 1 0
3575 1 8.450201223339311 1.1199273370159482 15.51736404082983 -1 1 0
3184 1 11.697319255119654 3.256537444639272 11.617581126515828 -1 -1 1
496 1 14.851201560869296 3.452204655091138 14.70033324058979 -1 -1 1
1350 1 12.939344279941835 0.10426749654372662 11.510938207930375 0 0 1
1721 1 12.349924255302474 2.7028304860078864 15.235972101406855 0 1 0
3321 1 14.765075858153095 3.01220660918761 11.846108737197628 1 0 0
3489 1 19.17507902840237 1.433466368849039 13.949737436129244 0 1 0
98 1 17.673072600190803 3.2324846401233636 12.565491060239346 3 -1 0
1405 1 17.227824705335827 0.3099735839832593 15.277733796795847 1 1 1
6169 1 24.39473844535357 0.18940467863843935 11.96504441807421 -1 0 1
3174 1 21.90306001582929 2.0621373911361953 12.246914954305133 2 0 0
6316 1 0.9156451525359557 5.027891135570809 13.19691741099184 2 -1 0
3231 1 3.390154957184192 5.858913998254702 12.587087549950645 0 -1 0
3257 1 5.259701375405721 4.18299208632774 11.094260022740242 0 0 0
4755 1 7.077463754213875 6.600087696328687 12.0516922013716 2 -1 1
4778 1 7.197726083908315 6.667791875188294 14.89423544685493 0 1 0
4833 1 10.311948668057418 6.313217732681719 11.066233054987306 1 0 1
4723 1 10.50924661234128 4.326101222804177 13.857122488486052 0 2 1
4814 1 9.647485819114678 8.030001565730169 13.392292858870647 1 1 1
1471 1 16.220321283020283 6.290623836709576 12.090087531158341 1 0 1
288 1 15.245518182068308 5.972024622053114 14.854675464246194 2 0 0
5997 1 18.90417952233562 6.25983760610855 12.158528717961424 0 1 0
3218 1 17.80306519755418 6.807854266830707 15.213508820572441 0 1 0
3161 1 23.70774945863922 7.633333454545122 10.88414080048073 0 2 1
5001 1 23.793966621848785 7.240900277448287 13.467928009827986 2 1 0
1508 1 20.95003357460089 6.146919028297987 13.963372225099114 2 0 1
6228 1 23.6421429384019 4.282508753383771 13.763786322217156 0 1 1
1643 1 4.239912342391546 10.955872372172669 13.853190958882234 -4 1 0
4538 1 5.758581529270868 8.837887970480281 15.370783393650669 1 1 1
3 1 4.559447763141866 8.179138029862418 12.371674887824446 0 1 1
4483 1 10.58515167961774 10.330971676932702 14.560198426827503 0 2 1
547 1 8.407006557560143 12.036071523879963 15.255827118720061 1 -1 1
3427 1 15.631379417027194 9.449698619556884 12.27300957837316 1 1 0
3602 1 12.367407251328876 11.94815229193649 13.164387172026046 1 2 1
61 1 13.986574402999628 10.035699891169674 14.247565023634603 1 0 0
5142 1 19.272335242429907 10.356931861717928 10.840258701986295 -2 0 0
1517 1 18.525162465813956 9.227208429148806 13.96802978076595 0 1 1
1668 1 17.55928013595548 11.873675933531535 12.577936570961075 2 1 0
1798 1 21.90535514463746 11.478651342292158 14.782082054825853 0 1 0
1936 1 21.338688122415235 9.377171361362343 12.705290250472519 1 0 0
1307 1 1.0340756605132824 15.07005473215759 15.157161866715075 -1 2 1
6055 1 3.0763058973323356 13.328684689578196 12.707377931497593 1 2 1
408 1 0.1914986345989331 12.601474743432604 11.945307849557224 -1 -1 0
5122 1 7.832746876946364 13.832493001104625 13.070356359055326 1 0 0
128 1 5.318511458034611 14.896986195978114 13.124287644829513 0 1 0
4917 1 11.708821411610202 13.882773363190143 15.09374960631021 1 0 0
5273 1 9.441593219302616 16.010359310071408 14.219678823229765 0 2 0
6044 1 14.719723537218224 13.928243369483313 10.856520912397105 1 2 1
1270 1 16.20556326516873 14.533820900511435 13.356484487642787 -1 0 1
4690 1 14.756732155501574 12.673237297345343 15.0656618773359 1 2 0
464 1 19.406519808115014 14.24221480561085 13.688932067963782 1 0 1
3680 1 20.824303897558966 12.72787690147821 11.947681938948973 1 0 1
4715 1 22.064313097768885 16.287958953934613 11.251266091813179 0 -2 0
6223 1 24.18755377503857 14.62027210887904 12.427152020983693 0 1 1
3638 1 0.7230310167332544 19.754715630408402 11.066739720102033 1 2 0
2135 1 3.3438210688241714 18.237911718239037 11.937652449542751 1 1 1
6119 1 7.929815182665529 19.052151122841735 13.780519945440734 3 0 1
1483 1 5.577413108341331 17.625614022773437 13.445592637924852 0 -1 1
137 1 10.019442827409058 17.560240372769446 12.058229518926362 -1 -2 0
2861 1 12.180134520705472 20.069995973114402 14.436678375494273 1 -2 1
322 1 12.735454183283478 16.365149741371955 11.965613848033314 -2 0 1
3123 1 15.261655499040918 17.42617136506377 13.689911188211838 0 0 1
239 1 17.46138191029404 16.98496709406708 15.292650122800222 1 -1 0
3233 1 24.069115312639248 18.59583040896165 11.996931461521712 0 0 0
1846 1 24.26695438305269 19.65879672205867 15.028424618852998 0 -1 0
281 1 23.529637047849935 16.70494209863225 14.219004050829277 0 1 0
3605 1 20.956088325831384 17.534909773442205 15.101377290483349 -1 -1 0
6146 1 0.5686194907127011 20.521471578147295 13.932681290532724 1 1 1
193 1 3.1814749858855227 23.155171212868503 11.265595103952457 1 0 0
1645 1 4.025294678288791 20.90716489395802 12.95025695589385 0 0 0
481 1 1.7373740816869157 22.759521601785327 15.249623126862952 0 -1 1
1343 1 6.854599836626345 21.618528039024294 12.533598611737812 -1 1 1
2911 1 7.49214263437044 22.842806146928925 15.115905436979418 1 2 1
4496 1 4.255866863178249 23.031647329895453 14.599487836964729 0 -1 1
2991 1 10.103290158675685 20.979153663521352 12.718094821955058 0 0 1
4751 1 11.97534002656044 23.11365562666177 11.665060914680504 -1 -1 0
2976 1 10.223916117774753 22.738532853166767 15.041178070466517 0 -2 1
2010 1 14.904844160831265 20.567821559035263 13.29283441458138 -1 0 0
1379 1 13.768387292878097 24.21117800883208 13.66909575979179 -1 0 1
3264 1 18.078486722908238 20.87825893011644 11.271023867650266 -1 1 0
155 1 16.582662803971626 22.61507729152903 12.956483668908955 -1 -2 0
1929 1 17.11620003663937 24.456664606216467 14.979202598188971 2 1 0
4686 1 20.172372847994065 24.173277611934477 13.403620148414415 0 -2 1
1585 1 21.40114146489554 20.450623744672804 14.147944128114611 -2 0 1
479 1 20.75395649745944 21.684726221426523 11.694281223316581 1 0 0
259 1 23.862780472113695 21.422377509402352 12.169956080675538 -1 -1 0
6072 1 22.334189500685508 23.25944238939542 15.03847915980693 0 0 1
6308 1 2.25145014627014 0.8966093196154539 16.620160667759713 1 0 1
5096 1 6.809654869504024 3.4886382075456845 18.234185541082365 1 0 0
2080 1 6.3639919116916825 1.0799248524392537 17.154869189550574 0 -1 1
3312 1 10.385887725951239 1.5929641259000338 17.726187526210346 2 1 0
6249 1 16.33537839379631 2.2142381913243883 16.902857085283873 2 1 1
1915 1 12.936549600819363 0.5970676583881357 17.43608804585382 0 2 0
2956 1 14.721820534044628 1.9179294616376135 19.103370806481 0 1 1
360 1 20.16725446794102 3.3679271705080054 15.695878038600965 -1 0 0
3002 1 18.78863266186697 2.656875402241771 18.289892212814507 -1 2 1
4869 1 22.47435081364141 2.932966757440326 17.01074456458747 -1 1 0
3525 1 21.016888510566844 1.0060248154040978 18.52477280129785 2 1 0
4834 1 24.23330979133149 1.0223676917491742 16.225153346565904 1 1 0
6094 1 3.9123634999632038 4.188308089361844 18.4805031417618 2 -1 1
4828 1 0.4937450367286132 4.333640050797027 18.357886891172164 2 0 1
4485 1 2.075110315207197 5.601663347316866 16.383095048441415 1 2 1
2170 1 5.549322189558742 4.7743945989238945 15.757334311847961 1 0 0
6004 1 4.9725354327423785 7.23058086833719 17.319395149569008 3 0 1
1323 1 10.658373039039606 6.7125499868344365 15.662283350979845 1 2 1
1267 1 10.785519671184186 4.345162866327052 17.434124771359727 1 0 1
4824 1 8.760987232528137 5.8361391824446 18.119336024014668 2 -1 0
1839 1 13.492956827511101 4.424483695327729 18.656549505093878 -1 1 1
6059 1 13.1888215714382 7.76624120708313 15.698747964993236 1 1 1
2827 1 17.178936385853607 5.263906366696592 19.385953592943405 -2 0 1
199 1 18.247072374748154 7.367841679147557 17.808022918540996 1 0 0
1370 1 19.868398478912987 4.689406925496919 19.830140711365292 0 1 1
143 1 21.09379633489988 7.72387878552074 16.421047824193202 0 0 0
2900 1 22.262069038827327 5.423368928658199 18.270349377959313 0 1 1
3477 1 1.2620317876815468 8.667664320616053 18.820696838165723 1 1 0
1273 1 2.888265318768947 8.376107765527557 16.196157636747067 0 -1 1
4754 1 2.4932430280367655 11.845145125531976 18.493837293008042 1 1 0
412 1 5.043344019461422 10.925302472386067 19.485119816164605 0 -1 0
63 1 4.989177297669441 8.318077195874777 20.077453271293734 2 -1 0
1635 1 11.122583410017494 11.072905001732591 17.309787996011536 1 1 0
1870 1 11.47721472757418 9.539937177508648 19.755967545802818 0 -1 0
4860 1 9.654434482544403 12.146541635430031 20.308094847688288 0 -1 1
1251 1 15.685717141645508 11.551261743748757 18.87688472928029 2 0 1
1586 1 15.086403846589297 8.427671671564442 20.330705253504803 0 0 1
1447 1 16.75905629207504 10.725930388649033 16.078865961174102 0 -1 1
4765 1 21.046630310395884 10.72728297195915 17.315489773704943 0 -1 1
4449 1 23.070990788702982 11.603276033518615 19.46099508547779 2 -1 1
5990 1 24.464853296092368 11.350893897415718 16.973666295942465 0 1 1
2828 1 2.7838038064305946 14.409233528944835 17.25072631995308 0 1 1
6035 1 2.3292953491186057 14.138226667473631 20.36377734015121 -2 0 1
3267 1 5.432944250050427 12.273309762339952 16.522047268017147 -1 0 0
3008 1 5.2177089758603605 14.885462956739707 15.972981644325891 0 1 1
4560 1 7.249874605602107 15.390071822993438 17.907075243510363 0 1 1
4674 1 9.714912741329185 13.298903943768131 17.449769379127208 0 -1 1
4792 1 11.07793244497377 16.058870154585726 16.94224608258922 1 -1 1
5304 1 13.785487975420054 15.22023559376114 19.995978689055974 0 1 1
1875 1 13.66329856643646 12.988435364364673 17.72855146030697 1 0 0
4760 1 18.610432478327223 12.727453306451755 19.38264284812387 1 0 0
341 1 19.044730163293142 12.7537666282803 16.11445688989074 0 1 0
427 1 16.54784377423912 14.639105349460694 19.720509316238637 -1 -1 0
5310 1 17.631297307821253 14.923141514483795 16.97612134855205 0 -2 1
3417 1 21.160344895870708 13.592313171580948 20.2668740225279 0 0 0
423 1 1.3318399085697603 16.878262061441223 18.196455117499273 -1 2 0
4810 1 1.903025237540891 18.869750272711073 16.098321429718684 0 -1 1
5224 1 4.702958070257061 19.243227773639926 15.772759178126618 0 -1 0
5070 1 10.422010590805717 19.85015062517894 17.5841202880743 0 0 0
4871 1 8.57753098422943 17.379860936317716 16.60845579816293 1 1 0
3079 1 10.284703923919494 17.721143915033803 20.152390518515983 2 1 0
1272 1 15.205512611121035 19.784773807327266 16.75211267960176 1 -1 0
3545 1 13.456991681727398 17.63178603369555 15.759346454632762 2 1 0
3452 1 16.159409474059842 19.119194736257516 19.33932725914862 2 1 0
3085 1 12.992832491200222 18.157483554267433 18.865459002797184 0 1 1
3650 1 18.548999675937576 18.81921619547462 16.958910745205976 0 1 1
6199 1 21.456396422011004 19.573912065383077 18.426308826339937 0 1 1
1520 1 23.16744180223815 16.957729038611568 18.49335156769713 -1 1 1
36 1 0.4399253280865086 22.75268376330423 19.989974565251057 0 1 1
5342 1 0.228940698350351 21.5378514428555 17.64185260357796 -1 -1 0
6346 1 3.035947017831207 22.808955156581856 18.245676024471532 1 1 1
6020 1 5.114133550492662 21.43316163678817 16.719282662912544 -1 -1 1
3567 1 8.069498679636736 20.543848681204427 16.30957074542325 0 0 0
1598 1 11.980863335182649 22.067668198214584 17.653345035277304 3 0 1
5136 1 13.588910824824302 22.20676197644886 15.750724733832229 0 1 0
3220 1 19.71151208907156 21.454664837817493 16.524823217960183 1 0 1
5073 1 18.109112753580177 22.96094481570463 19.118211192974208 -1 1 0
1966 1 20.723595588088475 22.381617201831588 19.284236423272407 -1 0 0
3587 1 1.1301931152146372 3.144626101213792 24.497334708031854 0 -1 0
4569 1 3.903417222857564 2.3450763427780914 23.080343505293413 2 0 1
1951 1 7.243676520645262 3.75392642559821 23.699373241874703 1 -1 0
5062 1 6.1069558027913695 1.1430674884332026 24.511433698120157 2 0 0
4664 1 8.047519832994903 2.524488945102396 21.031743341128056 1 0 1
1250 1 9.348978696834816 1.4854439754050819 24.453966882407922 0 0 1
1316 1 10.46047795295652 3.3136583978028753 22.98445320938803 1 1 1
2916 1 12.282024368925947 1.4621344962755187 21.529810982310046 0 0 1
5255 1 15.514230839978019 3.954094221811735 23.62177384766608 1 1 0
4896 1 15.075856946505294 1.516758065785712 22.32333177344756 3 1 0
1587 1 20.296841196543063 2.0735862443859583 21.520676685252457 0 -1 0
499 1 19.386030824430854 2.8311815962511835 23.970365632541665 0 1 0
6206 1 17.579409411747875 1.5034822783224109 20.646606087400986 0 1 1
2939 1 22.564850399264575 3.1576630142089894 22.457183548762583 2 0 1
3293 1 24.18563347172923 0.9148785242051183 23.496468375151014 0 0 1
413 1 1.02501977807476 6.037354975741935 24.332597156161565 -1 2 0
3621 1 2.31155402910021 5.923376763389736 20.989771178771157 1 1 0
1801 1 5.488203643110904 7.481031537689217 24.164882756078523 -1 1 0
5139 1 4.727824926125303 4.359166578408752 21.210426265008543 1 2 0
1986 1 6.244600673991182 6.319831092268369 21.84708424168175 2 0 0
3222 1 8.397375255029361 6.635507268700623 24.460787098489632 0 -2 0
362 1 11.05475487913078 7.820148442937713 24.32926643723229 0 -1 0
548 1 10.1457392927505 7.528373251557639 21.30063230917852 -1 1 0
2022 1 8.431692497399235 5.156748809505454 20.85663237536122 0 2 0
4440 1 11.992337458020877 5.509256360946791 21.26265811358614 1 0 1
3018 1 13.662032385449903 7.924128126284393 23.130105422971074 2 0 1
419 1 14.847557880146477 5.66181830703456 20.981092920491726 -1 2 0
1908 1 12.889846785231114 5.140686707091302 23.835965459548703 -1 1 0
3668 1 20.412797089001113 6.667967040008769 22.271989476943745 1 1 1
1800 1 16.485331432470293 7.171139418148863 24.29716475029857 0 0 0
416 1 17.92582620551875 5.243690339469829 22.607447543139482 -1 -1 0
3498 1 24.13631075771199 6.973991195711373 24.00917062855276 0 -1 0
1995 1 24.47380260852203 7.7460338301358345 21.321619202059292 2 0 0
3246 1 22.015344897865926 5.498744688017488 24.210582163975168 0 2 0
1257 1 3.1670554686743566 8.35370509670604 24.216564891902824 0 0 1
1901 1 0.9049143400551833 11.225244696369344 20.54414444837428 0 0 0
2041 1 3.469285004947182 10.90271960205901 24.474554843841254 2 1 1
4656 1 2.6574826401981393 8.738196269402328 21.46453022768108 1 0 1
1710 1 0.40083633996601287 10.570127026910994 24.495457398036866 0 0 1
1706 1 3.829725934086293 12.064854544644945 21.83826523455784 1 1 0
6026 1 6.5493374719946305 9.729125715522553 23.029597640484127 0 1 1
4437 1 7.0424091873701995 11.925024072702218 20.81613288613804 0 0 1
6365 1 10.289302982769163 10.463498043272606 22.771545395974368 0 0 1
1906 1 12.811467516234513 11.145811972625717 23.674183303121975 2 -1 0
3276 1 15.88137409943778 10.075072627569657 23.817803637499143 2 0 0
3383 1 14.328048831587793 10.665993626274183 21.17557229346145 1 1 0
420 1 19.360257840568153 10.465165907687956 21.09611025964681 1 0 1
1433 1 17.41589420638675 8.753582836820096 21.88397432010807 -2 1 1
4889 1 18.23297176573741 11.948931490937891 23.789311326250477 -1 2 0
4676 1 20.221840165312848 9.566355718175553 23.476658940333206 -1 -1 1
1827 1 23.34279253232719 9.706038281536962 23.59597799966284 0 1 0
6012 1 22.158423716674186 8.977942982551383 20.499299244630475 -2 2 1
5205 1 0.5993934916903018 15.572601602238707 24.143821489163823 0 1 0
3558 1 0.007709610843193104 13.055824706850979 23.108144797562215 2 1 0
1507 1 7.907910278390617 12.486293814550859 23.953919809539464 -1 0 0
1253 1 4.1093723419024215 15.980809859767211 21.80965645041788 1 0 1
6008 1 5.575670854320956 13.496962279741405 24.60733493531304 0 -1 1
2840 1 6.355237903340883 16.132705999181965 24.000848508845277 1 1 1
4514 1 6.463163917461542 14.599886267676787 20.610899287540395 0 0 1
4536 1 8.87416045793437 15.544793307560981 23.536437822749125 1 0 1
2018 1 9.335537942091783 15.125361700288341 20.97952648766426 2 0 0
6241 1 13.743338235026599 14.345520373918921 24.25990761592297 1 0 0
1509 1 16.579321493961707 14.012581976321503 23.969375386554766 1 -1 1
1489 1 20.691908021876987 13.595884498972042 23.294849080948662 0 0 1
3380 1 23.97915108650021 14.956145042205803 23.254020384296588 1 1 0
6192 1 22.69723152712221 12.333975575801821 24.367728343756976 -2 -1 1
2031 1 23.859219822228056 14.77785934118042 20.441666853867773 -1 0 0
2030 1 2.261946166225453 18.585000297779875 23.881884730291816 0 0 1
3245 1 3.6944087716726144 18.612216664330333 21.72489416896037 2 -1 0
371 1 0.4284057076883623 17.673060604922217 21.74793269725365 0 0 0
315 1 8.171810872973552 19.826935529332264 23.274418979995385 0 -1 0
1729 1 5.248015143971158 19.32981197122 24.181719387106288 0 1 0
3428 1 8.175974576288134 19.48744153413362 20.720531503103928 1 -1 0
1490 1 10.927138538180094 17.776336968399743 22.984115500820817 0 1 1
3101 1 10.71892890759472 20.16664995237038 24.09002338866007 -1 2 1
4698 1 13.346557574647807 16.682832365905547 22.706815397995552 3 1 1
4531 1 16.000472191558877 17.52399648500167 24.01081558967233 0 0 1
1310 1 18.360797482888323 16.422800287844165 24.006800261568046 1 1 1
1466 1 20.379725189834716 19.160062874765437 23.925834941946384 -2 0 1
1749 1 18.865574317605986 20.21721870469766 20.73992984565551 0 1 0
6159 1 24.13718925802657 17.72963589512176 24.215213518892774 0 0 1
4526 1 21.73800304384009 18.86797255204479 21.170329191010403 2 -1 1
4470 1 21.188614958575858 16.445523696722486 24.014327431440122 2 1 1
217 1 24.442859573524487 18.07940590568883 21.15722693994881 1 -2 0
3200 1 2.5264358609783137 22.766515840508635 23.377189740528486 0 0 0
4718 1 2.5441856507076928 21.28475768664415 21.064365722512616 1 1 0