LAMMPS data file via write_data, version 29 Oct 2020, timestep = 50000

6368 atoms
2 atom types

0.0 49.22 xlo xhi
0.0 49.019635930410494 ylo yhi
1.0380524146854135 59.023947585314005 zlo zhi

Masses

1 18.015
2 12.01

Atoms # atomic

140 1 23.500042245432503 0.8205759511856129 13.644946112273418 0 1 0
6314 1 21.66193502908027 19.55480807971402 14.931351721774936 1 0 0
5346 1 23.49178632887771 19.872584935888977 18.241108325256604 0 0 1
347 1 17.21210971086909 13.837353353086757 7.231766776119464 0 0 0
3372 1 18.545213420212008 16.418077885966625 9.22036427688517 1 0 0
4434 1 9.406738318377345 23.66227416421083 6.347346541486737 1 -1 1
1445 1 21.035508214599684 17.790819074934745 19.336755938566025 0 1 1
4707 1 5.385139465380323 12.258315111774433 19.801868385118713 0 -1 1
33 1 13.911220612605186 5.553777553944476 3.0936056656876225 0 1 1
1962 1 23.031089029381825 20.426232892240687 3.597314119556781 0 0 0
3411 1 15.157965037492401 16.03203156981674 6.04258694438691 -1 0 0
4989 1 22.85878731097321 6.035752645903424 6.778973210410198 -1 0 0
3356 1 4.931329925841461 6.382518149323548 8.166129765276976 0 0 0
5197 1 23.683602439585776 10.52497836876765 6.429115653321593 0 1 0
1989 1 17.621520308133352 8.40158433328773 2.3026633921752886 0 0 0
3071 1 18.25666113774977 20.37255338869195 2.0730453333864736 0 0 1
5138 1 0.1377888189005476 15.566884877764844 18.053755974964307 0 1 0
1490 1 18.469994210477424 4.8957671047660805 12.417988186002164 0 1 1
1505 1 1.87125649323576 9.63052378340357 4.398466218728364 1 0 1
4452 1 21.02068967893575 23.393768292737644 8.05104759338214 -1 0 1
6364 1 23.951571336033847 22.679073583270355 8.871884624169912 0 -1 1
1675 1 21.217741786614408 7.0479227998744305 2.2882863176511394 -1 -2 1
1655 1 8.805768601293682 9.644524708665259 8.476362067708477 1 0 1
2060 1 3.855594177214675 13.626353155869271 16.140971999017182 1 0 0
3331 1 20.145896119760003 21.55150571769417 3.616022386626817 0 1 1
1970 1 17.816062942604198 20.86140586369793 18.301796454713656 1 1 0
1935 1 3.3223651532990046 4.697419283640292 9.43471836422606 0 0 0
4546 1 9.965554573743924 3.7115536455307625 4.503520408343601 2 0 1
3307 1 9.193411000439736 13.156239508939366 1.4459982505137303 2 1 0
249 1 3.6736368934853516 2.303663308136806 8.519275264948273 0 0 0
462 1 4.553915709573498 10.442692693621762 7.161766630075807 1 1 1
6320 1 5.141298439156615 20.676842618798027 11.733802621019796 0 0 0
1982 1 22.657521538179353 14.249562562369334 19.748791596109527 0 0 0
1785 1 8.934163707969748 3.518147005791796 16.219532164380947 0 1 0
3336 1 12.323198752363826 16.57946996367745 15.923694817470855 1 -1 0
6173 1 18.007675665105037 16.29195612960631 6.257463833987303 -1 -2 1
192 1 4.712926518871449 6.996100139195044 1.473821374937164 0 2 0
1568 1 21.13464238042817 15.5094426779647 9.285778759046881 1 -1 1
1345 1 2.1096483393493797 2.6917773987718157 12.8735892054678 0 0 1
3631 1 7.029279351770627 9.634349057754061 16.161139796128772 0 0 0
4822 1 8.884577152449465 21.154102827981603 8.468699187333762 0 0 0
3317 1 9.162194783779395 6.327280613472912 10.253951215017354 -1 0 0
5271 1 13.201990577944107 13.701501833707978 16.806562959771412 0 0 1
6111 1 16.66782501290585 21.12035036167799 8.977271496422283 0 0 1
360 1 11.461632417505403 9.610914248102427 20.114626282899916 1 1 0
4636 1 7.226429135354285 10.977311383609809 10.650996623048563 1 -1 1
3551 1 21.233480016172663 6.179838681937466 12.90945694794552 0 0 0
4703 1 19.156262815833532 5.911642265405315 9.769916625122328 0 0 1
34 1 4.583751597557771 2.3085494618625457 3.995939777669042 -1 1 0
114 1 18.38064436352046 13.904644877509925 4.1482388114785635 1 0 0
1951 1 15.673112919077425 8.58014027898423 5.0914233378845655 -1 0 0
4533 1 8.015938380224426 9.005376992509415 5.487597042937551 0 1 1
3423 1 21.170458795886308 3.590626995278193 1.1884927327816108 1 0 0
1381 1 16.28248524496932 5.302564013420822 4.489993481122745 -1 0 1
1539 1 9.241293087222777 16.156615176135688 1.68072212710541 1 0 0
1741 1 23.777848398971464 20.974203966451142 15.873967555163945 0 0 0
4496 1 2.7046684246383217 2.383122667757843 6.167263361826069 0 -1 1
3136 1 18.102982471679756 20.623792609778906 5.67553718919057 0 1 1
5083 1 6.87756205562904 0.47824082237429205 14.490388990155141 2 0 0
1719 1 0.6641857090435052 22.76693875967718 2.3623248793502105 -1 0 0
268 1 5.367221437462817 8.949098480786677 4.958124937840517 -1 1 0
3176 1 15.700001030653306 22.714620887837487 4.90481733816785 0 0 1
541 1 20.548010088181794 1.026879736082192 13.055530006097323 0 1 1
6032 1 0.5249869202291177 12.228609393148982 11.754712184133997 0 0 1
358 1 1.706259988568881 12.218247039506533 2.159114133865617 1 0 0
3497 1 1.3874567662516042 6.14381008494179 14.922745249268287 1 0 0
2883 1 7.22769458871274 18.949431665183926 9.726923892774408 1 -1 1
2934 1 11.134292748815518 18.63628914446406 6.021661210421249 0 1 1
6075 1 1.8190088552200232 15.169120926349938 20.306232819666096 1 1 1
1929 1 1.4525137518018945 8.809043893132358 15.764439717462547 1 1 0
6160 1 1.8248391617955988 0.3452140484916634 14.712470117547683 0 0 1
1494 1 22.39543381980676 7.54831528187842 17.175169394504305 1 1 1
89 1 17.398577907276078 14.12250892264229 10.053837911572906 0 -1 0
2875 1 11.276272149252634 1.0468367629577617 5.504731570618753 0 1 1
1370 1 23.025271046960096 10.55432170954087 9.211160261679668 0 0 1
1759 1 12.0441427003381 20.682569504304794 18.700253496518496 0 -1 1
5240 1 7.05428619980754 17.245793809916577 7.597472814788894 0 0 1
3523 1 19.228563101253485 1.0440045066228931 6.70268278848472 0 1 0
1264 1 19.09411593157474 8.956646622688043 10.569981172938988 1 1 1
61 1 1.3800134621073237 19.78769642306442 7.7237601563607186 0 0 0
3505 1 3.381654712707146 22.723427417665828 3.9242820852481723 0 0 0
489 1 10.348096463042479 13.215349617040602 3.9282801844801005 0 -2 1
1706 1 6.919448568776476 0.9711573994849056 5.20045743411688 0 0 0
1960 1 5.802812389618495 0.8072680094957866 16.8642923191101 -1 0 0
1865 1 12.701683784128523 7.257511034379278 5.7525636809859275 0 1 0
1522 1 22.816599766090526 4.03207583676901 19.407763907439676 1 0 1
215 1 0.8196929466648877 5.140608891308602 8.732761219889266 1 1 1
4996 1 14.229222287431288 21.207668708237918 2.4873780222235737 0 0 0
3352 1 23.0743275977217 10.235477669704876 17.746822690972344 0 1 0
15 1 15.860350306324097 2.8990332973355675 5.540251417668538 -2 0 1
6214 1 7.343070383993599 3.7073300403973337 6.031799766112279 -1 1 1
4515 1 4.172108528529971 14.780849818473884 18.786773464164536 1 -1 1
5295 1 6.045227147187681 5.151285060224161 3.318403408086976 1 -1 1
4970 1 23.31057796893122 23.712754095575846 19.225401530892675 0 -2 1
3347 1 9.422731477938568 13.622254997627872 10.24986013594532 0 1 0
6158 1 23.509272376320354 2.121049739628409 8.64424220161047 0 -1 1
6036 1 18.786042098832674 24.015227333168173 4.855970529415738 -1 0 1
98 1 4.370524387810005 18.1428074120474 6.773248120240205 1 0 0
1821 1 7.846439235201542 24.353393900196046 8.614182438567575 0 0 0
2015 1 3.7640550932896577 2.6073756729632698 17.135026395781384 0 0 0
3495 1 7.722379946484056 4.084158478575882 12.124700668537546 0 0 1
364 1 12.872083319252546 3.6653685395762907 4.7198304948338805 0 0 1
3401 1 21.42729565174714 4.376686599362121 8.514373046166456 -1 1 0
4635 1 20.819681177477154 15.413745647771158 14.5304465308537 1 0 1
6192 1 17.147577392863326 6.64466899362274 14.256600857256437 0 0 1
2123 1 2.392413778221785 16.993071123114998 8.282304296506783 -1 1 1
4552 1 21.7499238508268 12.916393013225374 10.798786283004322 0 0 1
5103 1 7.2039033079608386 3.6798456367327175 8.759316014575198 1 1 0
3019 1 8.973312604155845 5.498887352508014 2.9509658825837954 2 1 1
1767 1 10.200809204466484 13.779836208983124 15.773182938093331 0 0 0
263 1 8.828540578328104 9.619835110231573 1.5729171726442979 0 3 0
465 1 12.410634305512527 7.33133611567579 11.107525365376706 0 0 0
2042 1 17.12609301916703 9.895857376085342 7.500123940538381 0 1 0
3086 1 21.491112707795637 10.623510493288558 4.800209989836743 1 0 1
1959 1 13.384271450792232 15.33999249491831 8.256374422098977 0 0 0
6276 1 18.916611784639418 16.452203242269345 1.7824079528995642 0 -1 1
2004 1 15.626155863773802 19.208720792591304 7.2647392701487306 0 0 0
4634 1 22.449437484361166 17.445923731245166 17.0030883391542 -1 -1 0
4759 1 5.814037720411069 1.4909858455083251 12.22107084469251 1 -1 0
6265 1 10.06755928426483 20.591937941741097 4.612801300774581 1 0 1
4558 1 8.426142138822431 23.817771922947315 3.9604790519820323 0 -1 1
141 1 7.518580339740725 18.83957064281237 3.031221608924553 1 0 0
447 1 8.071535557069481 11.546969890779263 4.857169078721924 0 -1 1
2053 1 10.588852736856344 18.64173471700856 8.698499843470017 1 1 1
1873 1 7.388036882672527 14.333431122686351 11.566700137876191 0 -1 0
4901 1 17.56091220665156 15.833502734944592 12.249467093802558 0 -1 0
1937 1 12.407836205661747 12.890201403546804 7.312657172240312 1 0 0
3231 1 11.286961119602145 17.346953479132743 11.024390558409294 0 0 0
3113 1 10.51018933766524 15.646866546460297 5.4248642815014145 2 1 1
2931 1 9.121345106433472 12.218222552867864 7.10496799532269 0 0 1
3239 1 19.439759336594598 11.718888967378437 6.478316115548943 1 -1 0
356 1 5.18392471001823 20.551210662628392 8.082708728784446 -1 0 0
5152 1 4.082808238324823 10.038898157178116 2.3820620757751314 1 0 0
4488 1 21.553146860740792 12.45428521179266 16.043382964318102 0 0 1
2894 1 6.67682539155074 23.114283587849688 11.035975150420285 0 0 1
8 1 7.47908662712009 14.535808517880122 7.244721492002446 1 0 0
3702 1 7.266675568421391 19.95895039286374 5.733728746963802 1 0 1
2070 1 24.244277754616412 7.985394957253714 12.15468442281942 1 0 0
1291 1 21.368550467778764 20.735402897485216 20.013969251321175 1 -1 1
4943 1 14.481252553521504 23.8375005656463 13.491150979094337 1 1 0
4817 1 14.043621973535757 17.09186043382678 12.25933662891874 1 0 0
2140 1 15.694904803238185 3.687963808348268 11.67456735753349 0 1 1
6142 1 18.077888543746813 23.33583628484644 7.725838316426875 1 1 1
1387 1 13.948088252132479 3.2850304972693047 7.723333945622973 -1 0 1
3179 1 0.523119472855942 7.245649013390844 11.6708091976736 1 0 0
3650 1 5.801718006554723 21.902125089690248 14.256897904250415 0 0 1
5004 1 1.8451353986921022 5.648208768191764 17.856548116238486 1 1 0
371 1 8.5713990896066 8.917960755269537 20.198508920114016 0 1 0
2907 1 4.135402130577178 6.551045468215843 14.505165571123975 2 0 1
5110 1 17.046811069642352 15.655212986264544 15.27741019902036 0 1 0
6187 1 12.465580577312174 11.195407997331152 1.1561268871649963 1 1 1
4464 1 0.04422555055576538 0.4674696063491144 18.87292775928833 1 0 1
3373 1 15.60850182978436 18.78842397816639 2.5936863476791006 1 0 0
341 1 10.061120642468056 15.88528536128798 7.993192241634793 1 0 0
2113 1 14.385023868763849 1.3587237002465455 9.927318199185457 0 -1 0
421 1 17.922344421333754 17.859674361854367 19.570290380386066 1 0 0
1338 1 0.3683899197515916 11.636985401544433 18.309508280799243 1 -1 1
288 1 10.299397086238706 3.761006554258966 9.674514674785529 0 0 0
6294 1 11.974644590363024 9.290414511835468 12.91275904477851 1 0 1
3242 1 14.576842653474824 9.738560899358738 16.45547634722223 0 0 0
4711 1 19.5384091758126 3.9280525288129975 6.220865603079257 -1 1 1
3375 1 1.0705699386852523 13.55066098126912 16.56490010447383 1 1 0
1481 1 16.313681156262508 3.30199649748974 14.30226368856916 0 0 1
6327 1 18.85962978825177 7.015918023782443 4.643812197781812 1 1 1
2915 1 6.9202892866002985 19.462683630488442 14.665081777035896 1 1 1
3189 1 14.191160918857243 7.5359278384744455 14.577836025769896 1 1 0
3585 1 14.69456751884143 5.864233321857354 10.005511740903888 0 2 1
6050 1 11.328615518105629 4.7095262894075685 12.30927888503013 1 1 1
399 1 4.299106264628698 3.638459909128972 14.40885115797535 1 0 0
4700 1 8.303964757565767 23.579875413456772 18.04505360348631 2 0 1
4681 1 2.639186002594283 3.1325200623681035 19.621961536382447 0 -1 0
3230 1 11.371949595784324 11.89715911113111 11.375105789550153 2 0 0
2094 1 15.54715054568329 10.57939551669109 10.268578523825925 1 1 0
4972 1 23.35856917691537 3.372649725005418 3.063266875075994 0 1 0
3333 1 17.99669653026333 8.864850020176087 13.052984936488931 -1 1 0
4457 1 15.600732060243383 6.155025904374165 7.022535863681237 0 0 1
1833 1 14.549085509667615 17.533865029611054 14.862358188218543 0 1 0
159 1 8.941723458951499 8.462722857951917 12.844618784383929 1 0 0
4727 1 17.13042774921029 10.84396500369336 14.894459179483515 0 -1 1
4977 1 12.589846064329768 1.196161555849494 14.574818490528797 0 1 0
1273 1 12.943330960675327 2.4562195829374613 11.978701331644427 0 1 1
4537 1 11.891813666955 5.159643871733335 7.929940465768295 1 1 1
3594 1 21.804132650823586 4.35180231707359 15.321403954611288 0 0 0
6200 1 11.133032774108996 21.187211512976447 13.593047212606125 0 0 1
1619 1 11.50102982150078 15.271207432947396 13.502117879393237 1 1 0
3478 1 19.688326664885096 8.639259889944656 18.05869636274399 2 0 0
6224 1 16.011830490118747 16.906492638790514 17.812225138823823 1 1 0
318 1 12.701831719559232 11.13211637564404 9.442946770299763 0 1 0
3406 1 19.629026282719302 18.26699925002862 11.914461763853286 1 0 0
3524 1 22.931685483879516 16.812067604671014 13.330878551526142 1 1 0
391 1 19.592615629349453 20.271855256039316 10.087259202979173 1 0 0
1798 1 13.359302908039 16.416195842462635 18.649939990789644 0 0 0
5234 1 11.690205295381347 8.653546277419462 8.568620063242761 1 -1 0
1914 1 7.914023848503748 10.735429357891952 13.602280963312964 0 -1 0
429 1 4.682938787264551 6.47362753927318 5.490082795235858 1 0 0
2939 1 13.048129115154644 12.22895259764745 4.322204473970137 0 -1 1
1784 1 15.017089969394927 23.402976996237562 16.815236657138147 -1 1 0
1371 1 15.000512524317402 19.623965524101237 16.861390236752094 1 -1 1
408 1 14.71432541079607 14.778113409262229 10.590306748237282 2 -1 0
4491 1 6.25236931237663 22.02441426807825 4.441943768687913 1 -1 1
3415 1 20.73652830055125 22.519489567041106 10.670707888352426 0 2 0
4865 1 1.7225611021417182 20.46220612343959 11.753248477348048 0 -2 0
4889 1 10.796589668489935 23.18146743500416 19.20128449344227 0 0 0
6281 1 5.375048234158512 20.34338141699254 2.104580263247463 0 1 1
285 1 1.34167766994933 13.103119525428296 4.639730060833525 0 1 1
6171 1 13.60034644704173 18.361041801212323 8.77181330119883 0 1 1
6027 1 4.074709242155227 15.806104534501765 4.852438466897173 0 0 1
4787 1 21.225352046759888 1.435683554505617 19.67217783947049 0 0 1
6156 1 17.609465612621207 7.125495517671819 16.772449285018737 -1 1 1
315 1 2.1227819141152526 21.83358773949389 14.169505621475466 1 -1 0
1788 1 1.8128685986538386 6.586353563612892 6.072046934810085 -1 0 0
5017 1 16.785064194746926 19.73146136115635 13.649538112341492 0 0 0
1998 1 23.70973984715327 12.702022811918251 13.740898722647348 -1 -1 0
2904 1 21.864197035525198 21.07619964726153 6.455390739088011 -1 -1 1
1686 1 24.53492168078481 21.015102208480016 6.741724252533862 -1 -1 1
1848 1 2.8458409192821827 16.00876266880075 11.071868340082649 2 0 0
4458 1 6.164399573423813 17.949809306412103 12.527467667015484 1 1 0
5028 1 14.080488145509271 21.03401413348799 14.23868999189259 -1 0 0
2826 1 4.5022534125860565 9.586103924629779 11.294002906594345 0 0 1
3384 1 9.056866518029393 6.087660100757011 13.956667910894344 1 1 0
2836 1 19.130225936812653 2.9909957646597127 17.534067099452486 2 1 1
1882 1 16.152532622212128 0.6798762555712283 3.2065937194671745 -1 1 0
555 1 16.78223606531633 4.355652387334755 17.33724899195007 0 0 1
4823 1 4.26477256990304 6.634558819893188 17.575390654646235 1 1 1
3444 1 24.029096152327114 4.462672334109759 16.34658168238024 0 -1 0
5164 1 7.104673943998354 18.569706335456228 17.3900024176041 1 0 0
524 1 16.41977483908629 15.042718635061938 2.0975661606027916 1 0 1
5128 1 16.957263792099795 0.4799339312033575 14.160169201664809 1 1 0
5021 1 24.443721322059076 13.211531798541545 16.86722160452966 0 0 0
6184 1 16.50348885825419 22.494539624600296 11.958271940985517 1 1 1
4845 1 1.8360352699053542 10.971679148638065 6.6530716525743 0 0 0
1900 1 6.29487160750576 4.831136570153904 18.48293221893346 0 1 0
4477 1 15.70864189018168 14.412237816119074 19.928303309528278 2 1 1
3588 1 13.531182841594477 4.704845323894887 14.635645962444407 1 1 0
2984 1 24.371910582654547 13.745421689591652 11.063571991314824 0 1 1
3364 1 11.125650306300813 7.488918215629539 15.620571291412347 0 -1 0
104 1 15.112395032543608 12.468932699848368 12.247653495833108 -2 0 0
2873 1 20.952953847884714 18.558855566143652 4.009918533160804 0 1 1
3340 1 19.311319701349124 0.31760731514531143 10.633066874405175 1 1 0
2962 1 7.6955847223388165 6.645596501820864 8.011827110772769 0 2 1
6086 1 6.3120876340234044 13.067491123760561 14.35712072194561 0 -1 1
4470 1 3.4046473076832426 17.748470942732883 15.338611562567797 1 1 1
6319 1 2.7872023316757146 21.85098248768748 9.550816251058874 1 0 1
2138 1 7.477173452147665 6.542070154484517 16.253202535886658 0 0 1
4501 1 7.81032438071112 13.773424771360716 16.631091488530597 0 -1 1
1355 1 11.882236033070038 10.023671135523015 17.354375862780643 -1 1 1
1565 1 14.520628935253402 22.7445452188613 8.108061265605663 -1 1 0
1696 1 1.9864039375736968 19.657564118967123 17.335773536759515 1 0 0
3206 1 21.265761422774606 14.885241317989951 17.462329682309335 1 1 0
1272 1 17.828897690740018 13.449975363053046 17.488373181519872 1 0 0
4795 1 0.1730777247060914 6.1933458360496525 3.740500487424095 1 -1 0
552 1 20.579344851226235 13.875256594245498 1.933923631099851 2 0 0
5161 1 0.3268670091894891 7.018499260292945 19.60319796105646 1 1 0
1625 1 2.583438013631828 20.187061878191933 1.736637870384581 1 0 1
4863 1 20.778324502405393 1.6686268536274673 4.169719084746184 0 0 0
4461 1 10.203491869072344 1.3925343458808608 12.25540284256747 1 1 1
6301 1 10.698024914105341 11.10834908518541 15.10277100627093 1 0 1
3586 1 20.012207395416226 22.763901911953273 19.279583994267863 0 1 0
2111 1 19.19511185353803 11.030818660301046 16.63704650602765 0 -1 1
175 1 18.802369861790687 17.73856979765701 14.606080650200107 0 0 0
5105 1 19.43058519108005 18.968996863665087 16.839587817733126 1 1 0
168 1 3.0840040191987557 18.087870353568558 12.6038769779732 0 -1 0
5183 1 19.12471551916902 11.780357330343598 9.65988591891685 0 0 0
4749 1 21.379101000367765 7.738223242666581 5.0806458040091345 1 -1 1
3218 1 12.390339458498529 19.236245433318135 1.1784612428222165 0 0 0
79 1 12.703339075108582 9.431033982843081 3.6084825068814603 1 0 1
6083 1 9.057471538699389 21.05679391902595 15.400205184042978 0 0 1
303 1 6.177321377034558 7.564637487505633 12.665906840624253 1 1 0
5 1 10.988022036689427 19.168290498177576 16.52346265083567 0 -1 1
3038 1 13.482540328438175 23.82622870909534 10.690519398540983 0 0 1
6347 1 6.157674401812305 12.438141928226676 8.42138659995069 0 0 1
150 1 8.958242552793072 16.527558339911952 12.546663016275305 0 0 0
4482 1 2.666837252409328 12.091355130260386 9.331453081236496 1 0 1
5233 1 17.502503598981583 13.042870631901804 13.356992482242884 1 1 0
3034 1 18.641886702613977 3.691489666704427 20.244058409904856 -1 1 1
4913 1 22.255933368057928 19.808341368645937 12.351142635388264 0 0 1
2951 1 4.414818148048657 10.76164010463744 17.294284270335623 0 0 1
3105 1 0.3330237950749543 17.01646408491214 15.388067409929313 0 0 1
2011 1 5.859545596328766 16.932799038055766 19.76625477561939 1 0 0
530 1 10.067784531988277 8.072056797407308 3.385602001146014 -1 1 0
5172 1 22.57782125038001 23.604105524186835 15.389078264681139 0 -1 0
4897 1 4.8772899564049546 13.849218752161239 10.739757989960427 0 1 1
4992 1 23.618803929934696 22.466900696665483 1.6412372470991525 -1 -1 0
6054 1 2.1905104657039978 8.913797823504813 18.187215441158603 0 0 1
2024 1 15.895987466651619 18.61123348311218 11.076639513658638 0 0 0
44 1 18.380822136920195 24.023950848233486 10.779163396906117 0 0 0
3194 1 19.216423401457654 15.044813185711636 19.33520333488669 1 0 0
3410 1 14.333772939784136 5.723265213452313 18.983656945397584 0 -1 0
5065 1 5.9264445177301 16.157981596947295 16.46228807434371 1 1 0
2897 1 3.342818085776797 5.651363609477911 12.016484741042898 1 1 1
3604 1 20.21723181877974 5.561079361549986 17.427069756532788 0 1 0
1396 1 13.046578761633315 12.077344708287516 19.140483998297267 1 -2 1
6172 1 18.07384212544942 0.5328208416268814 19.190258441066682 1 1 1
3504 1 13.658947524311229 18.08843453038918 4.873611590394425 1 0 0
3365 1 0.5978878930791423 7.929304520020112 8.643699161201207 1 0 0
6089 1 18.84532076717042 2.6279031799402066 9.095827979914665 -1 0 1
1894 1 0.21151001216861715 15.136267636022811 11.439761059782382 0 0 0
492 1 9.044786043880285 0.977964831028786 3.0784895305503435 -1 1 1
151 1 7.526940106054575 21.101835135175126 19.155888100834744 2 0 0
6191 1 21.58907490919658 10.083559386114205 13.55582484167711 0 0 1
70 1 9.553893087444592 17.74483766340134 18.436012825148666 0 1 1
1531 1 12.90072275561763 1.4852547271795549 19.10519110962451 1 0 1
3306 1 6.457168617102268 13.939448249293319 4.494257264933785 1 0 1
342 1 22.523028719398813 23.750499037562648 12.102519255124728 -1 0 0
1964 1 14.792730671154526 8.06737152334858 1.9155506745765312 0 1 0
3461 1 11.437021324641222 2.5021259777354667 16.742384451999172 0 0 0
1547 1 0.25436808238094744 15.676963315446901 5.085302010161076 1 0 1
5158 1 18.985119148285982 5.391706667288835 1.9707845521258673 1 0 0
5277 1 8.099650538029728 23.777119584616134 15.03664741478187 0 1 1
5210 1 9.142080700801273 23.490375797163022 12.122473319146845 1 0 0
71 1 18.0878690496888 18.304029992474113 4.055980741488137 1 0 0
39 1 22.509221458377983 12.906258143580256 3.437389771049672 0 0 0
5003 1 3.686240657645737 11.973661958443452 12.873801765854713 2 1 0
5348 1 15.313363402303457 8.181553889997188 11.809147348042734 0 0 0
1283 1 3.0849678369890468 8.813951282269299 8.573837639434547 0 0 1
6063 1 9.381280048380738 20.23613111360978 1.3363853699526698 1 0 1
6304 1 2.136445977411881 24.38558384051386 10.623536624088924 1 1 1
4780 1 12.022153723704276 5.3467842693402465 17.141873362619105 0 0 0
3203 1 15.894453503322241 8.315026070260961 18.795088984259564 1 -1 0
74 1 8.942209356863675 10.965723885123056 17.766226692583324 0 -1 0
2989 1 21.715491745498873 8.692339373509661 10.738559304263893 1 1 1
425 1 23.5690569610815 16.36791196521476 10.679875364731886 1 -1 0
1657 1 7.991174401507628 16.316008446657957 4.1917749269955245 1 1 0
4851 1 12.687787416927824 12.59327967793577 13.773594100907385 0 2 0
323 1 1.8218830049299883 17.620973201620732 3.4058072086111957 -1 0 0
3519 1 3.9473107105668452 9.809810991835995 14.763365146999497 0 1 0
1972 1 13.09508073175834 21.014476962073516 5.601201704912759 0 1 0
1742 1 23.98867727587008 9.36849191361893 14.28845786920018 -2 1 0
4872 1 9.961041116521526 6.293283822888063 6.385865132120907 1 1 1
1443 1 7.987719461375857 1.8512368902665295 18.07712812839948 1 0 1
5096 1 14.412397183105412 22.48258179711926 19.35420548284715 1 0 0
1495 1 20.30966379372791 7.901513454861062 14.59926104820763 0 0 1
3492 1 20.502843056759044 12.843444924092182 13.29231159815034 0 1 0
3690 1 14.120802216064886 20.581515478476433 11.445198357582482 1 -1 1
4773 1 2.707596572832157 20.09683343904648 5.022910057916864 1 0 0
1898 1 24.421861364790104 7.16800174653627 3.51928071111851 0 0 0
6066 1 0.38806630969724815 3.851786747947872 6.316834552594115 1 0 1
6030 1 18.492798394243426 2.9267394221096854 3.3534878127332206 0 -1 1
4524 1 13.695306518610302 15.066657238679074 3.831228074882658 1 1 1
3025 1 19.4753977676101 12.31507928892076 20.160470538791543 0 0 1
1808 1 17.904765009746136 7.191256658581768 8.016515005521999 -1 0 0
3540 1 12.012897288910107 16.977187092858074 2.6194949441966013 1 -1 0
1439 1 2.5439592414035896 0.9171432562266765 10.638391956307006 1 0 1
343 1 19.79581985450591 19.23561830181251 7.49802726012041 -1 1 0
3112 1 2.359522506704412 23.93990495768564 17.721872465353922 0 0 1
4957 1 3.670051112259916 21.723063413107088 16.364955387609577 0 1 0
1248 1 8.736462630854868 15.048607797900981 19.42254566343809 1 -1 0
101 1 4.682212792301689 21.59409103975152 19.01677399811852 -1 0 0
3695 1 11.595217007413424 22.296070432064276 7.645013420176042 1 1 1
3378 1 1.410942589420309 23.10622031814968 7.09381258845814 0 0 0
382 1 11.012741698893507 22.410894389037253 10.564279771425117 0 0 0
4734 1 11.173854788308768 13.80611924129743 20.339855185540642 0 1 0
1925 1 20.688041886322424 0.19204939700409346 17.208186073742628 0 3 0
2040 1 23.185543681297602 18.184030770522234 1.736472940017281 1 1 0
4839 1 9.437395500114977 0.03972036184116425 19.85813693512039 0 1 0
3545 1 22.094882061703206 11.044392996303598 20.20880554349272 1 0 0
6236 1 0.12225481184258769 15.790820827952293 8.358058498109397 0 0 1
4856 1 24.322180863684764 14.85399130188786 3.235714835095098 0 0 0
1652 1 21.64664986932756 0.02801426566954035 8.373303974374881 0 1 1
1769 1 24.515099289627486 24.207934880656946 3.5184808833679018 1 0 0
3457 1 2.7134233816436444 0.08538765435194971 20.240341292395836 0 1 0
3149 1 9.594771988436262 23.410010236396886 1.2431674374498556 -1 0 0
3318 1 15.748153900794042 22.848365720450634 1.2867240548991248 1 1 0
4460 1 22.893305839010527 15.313353449127607 22.993299849142208 0 0 1
5180 1 4.407395795139007 23.192626846604718 21.726016461324356 1 0 0
6353 1 2.64081885769555 7.748438353041574 37.6772027447968 0 -1 0
2844 1 16.858221506877857 22.862794698033184 36.56045962280788 -1 1 0
3612 1 10.721166569526549 0.5494944971502652 22.824017018335784 1 0 0
1790 1 0.7091528207443231 21.893539520497143 21.227822301541675 0 0 0
3671 1 17.704669728369737 9.809536299879339 21.13012997533816 0 0 1
5294 1 4.62454897829843 0.0866737727249216 36.785214639211105 1 1 0
1372 1 9.65246864826668 16.881433417637567 35.92014846311332 0 1 0
6230 1 1.9166957814570011 19.509918581543698 20.412618035583122 1 0 1
6114 1 1.2153060096290342 23.982869606720723 37.249818540610974 -1 0 0
1509 1 14.952241700800018 24.12443358645121 38.63470431030633 1 0 0
5033 1 23.555183501104683 23.699806030845085 35.970399943291454 0 -1 -1
1731 1 17.427833046894428 1.3598966248013384 21.975145488418377 0 2 0
1750 1 23.343939225854186 7.320156288301791 35.672812702447175 -1 1 -1
1349 1 18.81629196089256 24.34531714496683 23.62436615057436 -1 0 1
5200 1 5.9041391863023795 19.900533087357047 23.68998213768372 1 0 0
1910 1 11.282452126853403 10.118274974987036 22.873531554939284 0 0 0
2956 1 22.173571262533827 19.9417270318843 22.276451206752572 1 0 1
2872 1 2.364473732252683 16.366620121287564 23.545462610938106 1 1 1
3398 1 10.029747440749144 5.716353825723993 21.533279497103837 0 0 0
514 1 9.9748245022427 17.64470756138541 38.7497533791267 1 -1 0
5284 1 12.881622650813094 0.7436980484708378 24.51571886314757 0 0 0
3397 1 1.8058417121785924 1.4353666981328113 36.120592170614074 0 0 -1
3641 1 13.287299810912563 7.6324098205006266 24.11245505117852 0 0 1
2028 1 8.428131588012944 24.328014867082857 24.20194108191414 -1 0 0
2920 1 2.804259852337278 7.773033612285095 21.29671931190093 0 1 1
2041 1 17.232950929137747 16.30262705501267 36.41664801184871 0 1 0
1269 1 4.7643193392840315 19.958895134988705 36.30828663477283 0 0 0
6026 1 7.055893491128104 5.954640808698612 23.631976700418125 0 1 1
1566 1 6.337846706267567 22.527509125794523 23.83441553327262 -1 1 1
5171 1 7.962670230291452 1.3971876657210034 24.171619369603388 -1 -1 0
273 1 9.722599748594195 12.012186948841086 24.25554532307222 0 0 0
3246 1 12.562514380592848 7.43377161419906 20.887302049501525 0 0 0
1520 1 10.47705499942186 7.752480351023613 23.302580590575158 1 1 1
363 1 14.12781392892535 11.664910010475003 23.545738803338516 0 0 0
4917 1 20.107625490289582 8.587960484459343 20.769312243566297 0 0 0
3199 1 17.93992374341672 15.122858804586027 38.66772378644055 1 -1 -1
182 1 13.42390726058758 4.756320751480916 24.34917382111411 0 0 0
3170 1 1.8362394110548943 23.709144149159886 23.07407125002112 1 0 1
2157 1 7.592063193501934 0.8495186405119043 21.72120146054112 -1 0 1
326 1 13.602945486055424 16.696732544661376 24.199767105167258 1 0 0
4819 1 12.212922741336595 20.705096138908782 21.28471451476256 0 -1 0
6291 1 1.6448119140632167 2.191701258797327 39.17731513135108 1 1 0
1896 1 1.8703547219137817 2.4576917082339347 23.825899875801415 0 1 0
6188 1 8.830699868714488 21.22374861971056 36.08437156709836 0 -1 0
1245 1 2.578008440062894 5.5451190535937425 35.78861504065321 0 0 0
1745 1 14.686205916135217 21.135979537383715 35.93451099399982 -1 0 -1
1889 1 4.744938377111509 10.619398764557431 23.568076339369423 1 1 0
6359 1 3.9184756914833363 10.648977312778834 35.70920144660097 0 0 -1
1687 1 1.227780265028313 12.614672862323845 21.011535838638927 0 0 1
1815 1 15.388993389923396 14.102458053366965 23.530138867006265 1 0 0
3142 1 9.04920806327394 21.66436956221846 39.00239127481791 0 0 0
3116 1 17.506069921459158 17.44709451404008 22.26348868916911 -1 0 1
4518 1 12.23065033810915 1.168217041846766 36.701078533879155 2 0 0
4600 1 20.847665246444585 5.22648409527818 23.415262847835802 1 -1 1
3207 1 5.384505111280792 16.576653664644695 22.80504265834276 1 1 0
6310 1 19.32482764917619 21.280108067575057 36.27386469082205 0 0 -1
497 1 2.654660082826928 18.1509207508758 35.487429814863034 2 0 0
5270 1 21.015730862363906 22.501071893658672 23.611406509960077 1 -1 0
4715 1 8.534122761945884 11.894672388274774 20.39380067925219 0 -1 0
5265 1 5.375076068253231 13.63808209441997 23.005534856013828 1 1 0
6219 1 20.41439594207088 13.470428176533165 22.69070415586522 1 1 1
6322 1 6.370588833175057 22.51268197895513 37.117322588120985 -1 -1 -1
1446 1 23.096474628245346 3.1669109554478085 37.666699379755556 1 -1 0
3285 1 15.378693463117735 7.684983779514659 37.11279742003289 0 0 -1
5246 1 10.676123774437395 23.295993809363832 35.94052057555815 1 -1 0
4527 1 18.68260124677199 4.269486182518806 23.428794704935935 0 0 1
3015 1 15.368455289072282 19.03291438530129 23.595582850789807 0 1 1
3012 1 24.2045687807926 6.241908670238835 22.666719505593292 0 0 1