LAMMPS data file via write_data, version 29 Oct 2020, timestep = 100681

4466 atoms
1 atom types

0.0 49.22 xlo xhi
0.0 49.019635930410494 ylo yhi
0.9378420504506266 59.12415794954907 zlo zhi

Masses

1 18.015

Atoms # atomic

332 1 24.451127889438613 21.165355479654362 7.498567820975294 0 0 0
2000 1 3.167432949623127 0.37654700201150215 4.583964927466077 0 1 1
824 1 24.43252148770774 2.604666238674372 1.7041562541061976 0 0 1
349 1 10.228029654956254 1.2598984678562049 2.1547870995082037 0 0 0
2053 1 22.040995440522444 19.06063521007016 1.3737688505271128 0 0 1
1190 1 15.658706097814633 2.313063302292741 6.381219454896807 0 1 0
898 1 18.86183168893883 1.1167326467802305 5.753239768113084 0 0 1
77 1 1.1455753954324848 14.516043802804845 5.32648388418663 0 0 0
11 1 22.73064496399561 1.105683298806216 2.974792354243903 0 0 0
1141 1 22.64633169662398 6.916526678297516 20.314372457459868 0 0 0
1210 1 20.80249497713787 24.253407955889337 8.644830027217475 0 0 0
368 1 11.717725911432467 4.180173150869083 3.325563066783588 0 0 0
3345 1 16.0409289316212 2.2353975010960307 3.817549023707235 0 0 1
3309 1 14.16998298880206 22.192289984930746 9.888852446596413 0 0 1
3683 1 1.4140356820517794 7.37775625346806 4.119791842883162 0 1 0
3205 1 10.492760307975447 14.92864329065986 1.4343994913670222 0 0 1
633 1 18.321843316907742 4.627194289437269 19.35651266271927 0 0 0
1067 1 3.225042947956993 1.5278061115413846 17.661610303124128 0 0 1
3699 1 13.695759646138441 8.978979669814551 2.6734229725356475 0 1 0
1440 1 14.571205432918042 4.203705016879259 2.3577429889954913 0 1 0
1220 1 21.06144803206458 9.904883844158956 2.4000364598286423 0 0 0
3079 1 19.101633280990704 6.918883389955216 5.0551452931473 0 0 1
1018 1 21.751700704118438 7.42659452517064 3.4112901506060966 0 0 1
4281 1 1.6307099476335951 11.448629056115843 1.7292193596144991 0 0 1
161 1 6.847142212948277 24.352253411741234 6.853646620296521 0 0 0
424 1 24.197004521408658 24.33610043523697 18.87100382709388 0 0 0
1041 1 7.2875422018116955 14.106533600991549 3.202693803794845 0 0 1
1294 1 23.79912363083553 0.8983619576032591 12.908303388815172 0 1 0
2218 1 16.176759328117516 8.840333832733057 2.090552617419895 0 0 0
4 1 18.49136952623281 9.33130822443796 3.769039808811095 0 0 0
1118 1 22.384535477620354 11.766502253605744 4.583783731270133 0 1 0
3100 1 23.9385616628563 9.142785257239787 4.276357724292817 0 0 1
588 1 3.1735208800128185 24.16628454460867 15.644879735435179 0 0 0
750 1 14.054317158747073 21.569345371314903 16.273642911893248 0 0 0
3139 1 4.697497465109499 15.232376043246285 3.5957701901741776 1 0 1
3423 1 9.698276118541624 15.268077080154676 4.109472642197226 1 1 0
900 1 13.683245585210909 12.96329768419194 5.0916506182565735 0 0 1
3723 1 16.528723789511467 24.347319942095737 7.734059259853887 1 0 0
2982 1 16.04997654493055 14.388397081054011 3.791140400743217 0 0 1
2868 1 24.58721820991798 12.226575557436343 6.141828426390473 0 0 0
2341 1 1.7339839168623463 15.688763790660355 2.7768636262605377 1 0 0
345 1 3.52171209214322 16.704509017558113 5.835346792270407 0 0 0
2323 1 6.6904315914091885 17.407445393808295 2.738527311099097 1 0 0
1918 1 8.293381919042847 17.586495117435383 5.188681118187383 0 0 1
1051 1 15.091749036886203 16.707826654146 3.492092295319172 0 0 1
3024 1 0.997395558648248 13.38582647672415 14.23939611704454 1 0 1
1276 1 20.75031628938935 15.276637892774277 3.9289738142413198 0 0 0
993 1 21.506414501067827 17.80704697587713 5.201985553839477 0 0 1
617 1 12.01765138214486 23.254679873628923 17.88874747921083 0 0 0
521 1 5.247477413850507 18.91835541704014 5.039328677633008 0 0 0
2069 1 2.349125615106095 3.303238116323375 1.4166853981120182 1 1 1
225 1 9.789213975464612 18.67287413098321 3.020010391276392 0 0 0
1168 1 10.764972222483133 24.421651047992945 2.515414335558737 0 0 0
86 1 23.21073726817348 20.094063870142122 3.577565920737217 0 0 0
26 1 3.0070792677638316 1.1696859939142903 7.8254837652564575 0 0 0
827 1 9.105564998581329 21.26386482879833 2.6148380163390534 0 0 1
1283 1 20.057813764080013 17.502807109233316 2.4201464502590673 0 0 0
1152 1 3.726537077812424 0.44190901850661796 11.737385730305542 0 1 0
269 1 11.652687101727896 23.646103079915243 5.105321369043923 0 0 0
237 1 6.185070329247636 2.6211564377592484 3.533906297332894 0 0 0
3553 1 11.501130336451387 1.3513940734924317 8.872623219043245 0 1 0
58 1 7.035075416691453 24.41351571186639 17.599576929096305 0 0 0
2188 1 11.763952483371945 1.6134681313263346 4.782548177540059 0 1 1
963 1 7.17714281012492 9.920482682508 1.5140545970064765 0 0 1
2220 1 1.467908721375897 24.21264578494609 3.171527844340432 1 0 0
93 1 14.650854717177113 1.013780338773327 9.391658782632685 0 0 0
281 1 17.446640452160185 0.8057920590869369 8.465036400136526 0 0 0
164 1 21.14463793733329 3.2837344309185905 4.048675831253038 0 0 0
1077 1 3.657031566280702 2.8991433771135884 3.9689796133663098 0 1 0
2345 1 1.7048242344807534 3.4298897728184308 6.915012280441857 1 0 0
142 1 7.069469769158047 4.214259048389817 1.398499284786971 0 0 0
1165 1 7.346648791788374 3.691148048058227 5.737644753440032 0 1 0
796 1 11.493599780048301 6.689491913554006 4.4225258395198725 0 0 1
3142 1 16.174273628850823 6.219820143850887 4.031494350522314 1 0 1
2975 1 21.370126202396754 5.548531942574592 5.855487947570464 0 0 1
1148 1 2.028228809462157 6.557320527838903 7.645545697608785 0 1 0
2909 1 3.301602765699041 5.444389055105901 5.304519649010316 1 0 0
3047 1 5.937756596897273 6.082828267934649 5.2980066738274 1 0 1
2452 1 6.921365616681147 6.698944308287947 2.6911537610204688 1 0 0
4317 1 23.879385887779584 2.5365574500254473 8.531800302201784 0 1 1
3282 1 9.624601295341098 7.809531751892558 2.4275294554198927 1 0 1
1098 1 14.151581658941701 7.799884590916227 5.385119578272698 0 1 0
956 1 17.831554756912166 5.938300260793501 7.715883434688935 0 0 1
177 1 14.844536411786349 24.475647790624702 17.042958102851816 0 0 0
740 1 1.0585864475485283 10.253508559244366 4.4147208686578105 0 0 1
853 1 1.5421860845750797 10.865180906404715 8.024470260748691 0 0 1
341 1 2.4993001483898025 12.176596313801866 5.77010139401301 0 0 0
3575 1 7.223833839618627 11.369344336109029 3.7988756164780635 1 0 0
1411 1 12.50949472655552 11.687692417256475 3.168126501190911 0 1 0
4154 1 10.215195497609333 10.430812029399199 3.752331548066393 1 0 1
45 1 14.825881262450421 9.180232288274732 7.696477390491883 0 0 0
2332 1 19.521537190489486 11.307998541926265 5.419818022346946 1 0 0
2639 1 0.24052693013514115 14.754684204685145 17.15819893576601 1 0 0
4428 1 6.329097469188098 16.815785565279036 7.40276250693775 1 0 1
200 1 5.16906347385248 12.903301759419856 7.199037668024348 0 0 0
3694 1 9.673180747917584 14.406385128881 7.8369752459834725 1 1 0
3986 1 10.809574129719104 11.822457981096719 8.434660868412587 0 1 0
2634 1 11.671810651322556 14.584470487257024 5.8197958331581745 1 0 0
91 1 13.592979841909575 11.902815401841298 7.559542315556148 0 0 0
1109 1 18.764462701857568 13.8730953365292 5.281070555399183 0 0 0
3586 1 5.98893688372109 0.1357358014927748 13.104794234338685 1 1 0
3023 1 7.359878084106689 14.384239745954332 6.398445049283076 1 0 1
271 1 9.104133115679645 18.83562610026329 7.699729016939255 0 0 0
1048 1 13.412910450463627 16.759460414896324 5.774677878719302 0 0 1
2258 1 18.383466993516862 18.33618323608987 6.2386000670356365 0 0 0
2558 1 18.57476592883274 15.622260063606943 7.376122000069119 0 0 0
1426 1 21.50087541511252 16.94533196964116 7.957516815179621 0 1 0
1912 1 1.8442279790731515 18.418646237099022 4.1223466303264 0 0 1
2387 1 6.682044064498053 19.939658988777435 7.297889378956517 1 0 0
3172 1 11.950985536772063 19.245054095285433 4.792582453212089 0 0 1
499 1 10.539740367038537 21.1172742533074 6.288129439034396 0 0 0
2327 1 17.484789909054342 18.292045367397538 3.4636573865734843 0 0 0
2502 1 20.344979872609795 20.44826645376039 5.942118632017324 0 0 0
3657 1 2.8939582323608994 20.97646433102807 5.176407130804936 1 0 0
751 1 0.7237370706797167 1.0316330251717545 17.354231089911003 0 0 0
4365 1 5.560894202551458 22.03396368052349 3.5978647944974016 1 0 1
3582 1 7.68259027454124 21.87494364685197 5.673224449314167 1 0 0
3677 1 21.90750282094616 15.116162714164913 20.113019663737237 0 1 0
42 1 13.393212752744311 20.634508200308243 2.688664364201272 0 0 0
212 1 16.116256220382034 20.712098538668418 3.1336599864512933 0 0 0
3199 1 17.314952079588558 20.29463864362293 19.18943155571722 0 0 1
541 1 17.746963580042078 22.080596180720644 4.727544601435104 0 0 0
1335 1 21.650703746844425 22.474949803046105 4.367648195637811 0 0 0
1940 1 18.757055892032025 13.810451777482637 1.9267819791097633 0 0 1
1199 1 22.484059229440476 13.499747851769033 2.453287336211166 0 0 0
4035 1 4.371249754284311 2.6484538860557185 9.93180497053189 0 1 0
1158 1 7.167374140006623 3.408697655546989 9.732567618397649 0 1 0
3029 1 9.259033113039298 0.8012844138888415 6.619785500316838 1 0 1
384 1 23.7611646522954 11.036612836518986 14.399570200190304 0 0 0
1108 1 9.091448008733577 0.09146079505840249 16.33443428271593 0 1 0
2141 1 13.504058197800347 0.1593507674882326 6.615640509811911 0 1 1
2319 1 19.60794847146605 2.6106178357774716 9.882972090240363 0 0 0
3330 1 18.556284698657095 5.3388007705566105 2.4306922419945782 1 0 1
2497 1 2.918952978659031 13.835049762680484 1.3290318272035937 1 0 0
1350 1 9.456161635139177 5.437091593222248 6.37326137767529 0 1 0
3110 1 13.271495375291112 5.2365970677110925 7.571345390474386 0 0 1
1026 1 15.67061572103673 4.8614516147128155 6.497899941261704 0 0 1
3048 1 17.49057794516324 4.5697765790501625 10.03290389183206 0 0 1
2089 1 20.78507619927135 2.574092732531282 6.919895625281762 0 1 1
1778 1 2.7540785615212395 9.016945741843989 11.073026108952268 0 1 0
2389 1 3.2170335208526417 8.804489655864645 8.3335719456405 1 0 0
2239 1 6.248632273848582 7.977262319130595 7.444545582078371 1 0 0
2433 1 9.45563028444038 10.553470456879214 6.57625036306665 1 0 0
530 1 9.008082571209094 8.008412059977633 7.475692065939402 0 0 0
1458 1 12.696244884554762 7.866365875519614 9.202203337580018 0 1 0
742 1 17.018693997714305 8.618741039351365 11.122687364633682 0 0 1
1094 1 20.778284078029092 5.583215212264056 8.79221276159829 0 1 0
99 1 17.420054357633227 8.61377131841201 8.3901077017864 0 0 0
1358 1 22.06323338541497 8.213951665576724 8.249810140729934 0 1 0
2546 1 1.525657746105037 12.99630959307862 9.815073981803017 1 0 0
374 1 6.571730617733767 10.691829934065868 6.405905956599931 0 0 0
443 1 8.043241460635697 10.283965451423205 12.271679932765547 0 0 0
1386 1 10.203464311530315 12.167308782334882 11.285643472856064 0 0 0
2757 1 10.39838169146155 9.107920667213172 9.898750476987578 0 0 0
3808 1 19.930657993949975 10.151962043470528 8.071954439287872 0 0 0
1676 1 1.9266993044474459 15.585693786756583 8.249483758281787 0 0 0
3652 1 4.28270735077347 13.284947674188139 9.648768070810855 1 0 0
44 1 5.728586040583689 15.102193189635788 11.804457615388575 0 0 0
2584 1 7.701537332176407 16.032744083439162 10.060689694737034 1 0 0
871 1 9.665719376582759 14.847068449177371 11.719143464789557 0 0 1
834 1 14.472071843237586 13.932346300724467 9.299301734094692 0 0 1
661 1 19.609909330779594 12.206560531746328 10.10669615234587 0 0 0
309 1 17.624576147684486 14.23471122895522 9.537154596111625 0 0 0
83 1 21.35564605599231 14.015865997923893 8.11882033787846 0 0 0
3465 1 24.34528321662736 13.42085041700452 8.60515951545745 1 1 0
12 1 4.165682459379819 16.553044391548 9.518223153981419 0 0 0
1731 1 8.86933648568482 18.5745508263715 10.650934115471516 0 0 0
1367 1 11.20356516899645 16.76469034811886 8.413244000799144 0 0 0
306 1 15.584540512424034 16.09537782038504 7.697005545930279 0 0 0
2440 1 5.755903666038958 20.002915921609297 1.735066895887694 1 0 0
2720 1 21.864402235077964 17.329687254605346 11.084904189613743 0 0 0
193 1 5.196590119444536 23.38072905111706 19.700014779514394 0 0 0
2846 1 3.49151330832664 19.29880634563022 9.857332108964135 1 0 0
2453 1 5.712606610448813 21.131810176556435 9.454170816374397 1 0 0
1076 1 7.939512409751113 21.032417817660384 11.658825235080199 0 0 0
1865 1 11.694375625741946 18.792520255121914 10.495891645059846 0 1 1
3630 1 14.360717432418243 17.3924068909878 9.96545689024899 0 1 0
1354 1 16.518542765332324 19.130987718273065 8.163802748544938 0 0 0
855 1 21.900961567615127 19.72353303433673 8.342536187422763 0 0 1
2469 1 19.78049868614688 21.61363014181932 8.773171187678837 1 0 0
1145 1 2.4158036609082676 22.94533213608561 7.541449565227139 1 0 0
2970 1 4.778067392075268 23.798796706203547 9.648029491505557 1 0 1
455 1 1.4004010433648684 4.143624995309714 20.21296578345708 0 0 0
203 1 15.751088860902168 23.29577157441585 13.481826521270515 0 0 0
117 1 9.826031620933607 23.12172924324626 10.633027012538385 0 0 0
4165 1 11.689563408764352 21.125355416031233 9.172070452862467 1 0 1
3592 1 17.050716263131395 1.4877905197726387 13.732081623941525 0 1 0
802 1 17.309950968073856 21.570619637314536 7.272364591597596 0 0 1
2751 1 23.20576431942506 23.526625065777544 6.663352169718677 0 0 0
4140 1 22.419359745560786 21.881145495294575 10.732604696321365 0 0 1
1233 1 1.9107826410011082 1.983372081073064 13.35881421886267 0 1 0
1114 1 8.494492820213747 2.656133907052845 11.99619781138716 0 1 0
852 1 1.6323151450507778 18.681306897229295 1.3600918059133495 0 0 1
2312 1 1.0011500595894995 20.222446435794367 9.077996352885231 1 0 0
1966 1 19.112576895047898 0.8237823383821649 12.074771828265256 0 1 1
3686 1 21.492308281898335 2.7074047235488417 12.529906594111974 0 1 0
2021 1 13.935535208537274 23.452582674939805 4.019586801404208 0 0 1
285 1 2.6854930496965 4.90404323382373 10.01304937712864 0 0 0
1637 1 11.346255048367686 3.3515141972493963 11.204659428728496 0 1 0
4099 1 11.236489207625443 3.4643948652778613 6.781379074711983 1 1 1
1331 1 12.804558850467837 5.614287173405275 10.824642902887271 0 1 0
36 1 14.779208392816743 3.892402450520531 9.658702836646619 0 0 0
3404 1 22.479302572124883 4.0150956534919064 10.093334023782042 1 1 0
3189 1 6.7092556433556325 1.3453061884275472 7.664666825047968 1 0 1
660 1 3.6106903406897812 6.89402845079852 13.006132621402587 0 0 0
2295 1 5.5986618163309485 5.568250419803405 11.463536513134407 1 0 0
1627 1 6.225880613103555 8.007456022831374 10.31280837571652 0 1 0
1374 1 14.473322996125802 8.855178344233405 11.703032357813512 0 1 0
291 1 15.873379753852843 4.664596253456287 13.42340186477631 0 0 0
1799 1 17.82295664651458 6.430255086826647 12.155641306299241 0 1 0
977 1 21.010834627906405 7.009913839473978 12.250922436363602 0 0 1
3571 1 22.34319756682932 8.98938366024975 10.740086052348953 0 1 0
543 1 4.361152027763339 11.19064561677398 13.438618639649459 0 0 0
221 1 5.410723264653577 10.768098498531723 10.907022251017226 0 0 0
4085 1 8.476358018632528 10.036846731621464 15.110418672042746 1 0 0
2350 1 11.274397970788641 7.227950687208804 14.167704380312102 1 0 0
1250 1 11.67822599933912 11.761157582925764 13.693163188856076 0 1 0
1315 1 17.95786482184712 11.109336348532493 11.905370388562433 0 1 0
4307 1 21.620995613699343 10.875551633967117 12.707141579198515 0 0 1
535 1 7.297350586327478 12.871223694744861 13.079848184296164 0 0 0
188 1 10.498732569450462 15.859945562459188 14.13425977452422 0 0 0
561 1 12.576760182856802 14.01030501842723 15.523502257122917 0 0 0
1332 1 12.288900410271774 15.314035165082883 10.614865968475353 0 1 0
2799 1 15.696881223301427 12.860794413967295 11.570771286373754 0 0 0
3924 1 21.793967433308293 13.248504891228611 11.551961726876156 0 1 0
2537 1 4.879997560967411 17.040000456265272 13.713264213027239 1 0 0
84 1 3.839320446867688 19.53022900686649 12.695282441960211 0 0 0
594 1 13.34178849771826 16.56116216497012 13.589019678812862 0 0 0
61 1 18.096602905599628 16.087376376796232 11.92179084297151 0 0 0
536 1 21.008749432801334 15.709950936843887 12.81717569633534 0 0 0
235 1 1.162218228034661 19.3098010236407 13.435489718435742 0 0 0
2201 1 0.35579148771674207 7.481541206396204 11.732320264310536 1 0 0
1420 1 5.911631362582168 21.36568778235408 13.46975895225907 0 0 0
4137 1 9.389638949823556 20.950748973193548 14.141687377978418 1 0 0
2325 1 11.45919813918087 19.13727304558533 13.260153822479896 0 0 0
275 1 16.04101357208862 21.224180930863277 11.708334973568851 0 0 0
1418 1 15.634901701836986 18.510317830434282 12.122157167852958 0 1 0
1034 1 18.078154850288765 18.728476759283446 10.292763392560818 0 0 1
73 1 18.970084425543774 21.03824867934044 11.652241641528159 0 0 0
960 1 22.85032381545315 20.806084110254666 14.413152963124505 0 0 1
108 1 4.262681782210781 23.865658790200076 12.961190063929017 0 0 0
4335 1 3.7661518342138196 24.027836958730017 4.488795243009428 1 0 1
348 1 12.80588118676359 13.40874141411993 1.2490522383618583 0 0 0
2340 1 21.216089445773175 19.525930092819724 12.305017319612386 0 0 0
4243 1 3.6785923805034906 2.8688026646560125 15.330074474201297 1 1 1
753 1 6.253761190331832 2.6587613258743557 14.128467618391928 0 0 1
1248 1 8.310073704205772 3.0425975069472897 16.49628959062251 0 1 0
2695 1 11.018116320346174 3.3002345488029126 18.322011891197086 0 1 0
881 1 14.439903862778989 2.142106028755029 12.565847104975562 0 0 1
1848 1 17.953278532037206 1.8227434160262679 16.29908065017746 0 1 1
3353 1 22.23882684444855 0.7644732317325924 16.797436041122836 0 0 1
3642 1 2.6776981875751136 5.514095369083544 15.060544637978103 1 1 0
664 1 4.0163667507115 3.7226087559434364 19.31867314913529 0 0 0
2293 1 7.798477279674741 5.225519519051939 13.178413471856834 0 0 0
1286 1 6.663918014412655 2.6409142174482056 18.889420931750802 0 1 0
266 1 11.974789307203082 2.16355053386088 13.713317899445554 0 0 0
447 1 13.741364170912655 5.992155280213641 16.493542491987142 0 0 0
1779 1 16.01167327409922 4.419305675333232 15.952638226070743 0 1 0
17 1 20.552592854516355 2.6941219712842446 15.343167137437993 0 0 0
619 1 1.5941832867135486 9.067410170142814 16.374805023715517 0 0 0
2172 1 18.685168605131437 2.650884574173227 2.8451665544813007 0 1 1
286 1 3.906294213270488 8.959146338308235 14.888524286384792 0 0 0
9 1 9.401359927378605 7.478330152115285 12.227078331731237 0 0 0
171 1 13.755114220402028 6.4020372412204765 13.051906323744259 0 0 0
3710 1 18.984630166166465 7.5985807960253 14.716509242665788 0 1 0
934 1 20.942878729339355 5.284245814318233 15.371838948329646 0 0 1
3372 1 2.5590483607983665 7.604414713128619 1.4733442921628535 1 1 0
3830 1 23.736573789352125 4.3297993753211985 18.80557918656854 0 1 0
2277 1 1.784694505812548 10.919737430801948 18.561260286151658 1 0 0
229 1 6.015581024559864 8.802855812722608 16.72279378562665 0 0 0
33 1 11.302148461633196 9.98622889437736 15.723032766110418 0 0 0
500 1 14.33736295300508 10.952752345439801 13.434043197516942 0 0 0
3822 1 16.591106406434122 10.128903815834502 15.149362944397632 0 1 0
174 1 19.311598199034183 10.320349356475692 14.264897177487692 0 0 0
650 1 20.378480259295234 11.44347216776958 16.78934186606224 0 0 0
1071 1 0.5084949349373411 21.986525056690045 13.476240958369853 0 0 0
1128 1 5.251274248713921 12.94783136745759 15.333063941381413 0 0 0
2916 1 3.9075131571147086 12.366330122907769 17.662393761906433 1 0 0
1225 1 9.04165967167186 12.689169877756786 15.345233468868065 0 0 0
502 1 7.2218797737456235 13.763666461052836 17.169933296177387 0 0 0
56 1 15.2295886477493 14.095787653510575 14.247861500269654 0 0 0
682 1 11.131188633742827 12.683822197268187 17.822491424468485 0 0 0
153 1 16.20604786316248 12.67366030126141 16.359760752038312 0 0 0
2378 1 18.707416576933955 13.722831040817171 17.010903848201895 0 0 0
568 1 22.890585248802154 12.325480727782532 16.925478568973304 0 0 0
715 1 3.3040056944917913 14.758670729543045 15.035432836107972 0 0 0
1300 1 6.391215348459618 17.49008477431383 15.837626141861078 0 0 0
119 1 8.87683514323226 18.06737865449021 14.616353990135233 0 0 0
304 1 10.776426252493652 15.760823354556667 17.38945893839039 0 0 0
564 1 13.470610849805267 16.970385150041754 16.557281990863125 0 0 0
288 1 16.75870590795199 16.31938196908779 14.24768721277254 0 0 0
779 1 16.278803831456823 18.159144861068548 16.074922556658215 0 0 1
284 1 19.239151843462736 15.661378100817428 15.306327308864075 0 0 0
2346 1 19.686960905601254 17.893880507679977 17.09051905250713 0 0 0
48 1 23.58820062320104 15.439406248819799 13.529975564810877 0 0 0
1305 1 8.486691933007597 22.126561903269227 16.9128207130657 0 0 0
4061 1 6.069390574535953 20.31702510290915 16.232952370783558 1 0 0
3761 1 9.875773726558958 18.53100315332245 17.156676387299434 0 0 0
1222 1 16.86370027466511 20.954230137762657 16.662577538991833 0 0 0
2343 1 21.24727366174517 20.548703402229695 16.726290866247783 0 0 0
3820 1 10.854122222758237 23.366029838064502 15.51397955296004 1 0 0
1561 1 1.6782429235244312 22.9152081392188 18.635829586871083 0 0 0
378 1 3.859600400054693 21.70752529547266 17.219907972613672 0 0 0
3369 1 12.274317124679646 23.5834112050676 12.01754380869573 1 0 0
2721 1 12.65981250722974 21.81753931932365 13.932047735801468 0 0 0
3537 1 22.21365151406423 23.061803354526496 13.184353266767156 0 0 0
4054 1 19.894697208479876 23.247829436499988 17.13917575616283 0 0 0
3456 1 18.047772500424767 22.40578476174431 14.544280100162133 0 0 0
116 1 15.35902108477939 13.623033857166995 1.0191213547633622 0 0 0
1102 1 19.04540469517219 22.435838076574633 19.75627990812236 0 0 0
3 1 11.655443586591556 4.249499845238476 15.805474722540627 0 0 0
554 1 21.398169602060275 9.491790185665641 20.182201672540433 0 0 0
625 1 11.488373268223116 1.1590027936557399 19.802147995311707 0 0 0
4229 1 24.363708830001663 18.18905215828969 10.118978269777138 0 0 1
3603 1 22.699900458287622 1.7672904565733087 19.278271889857926 0 1 0
1993 1 0.19297466307848762 7.142723604004908 14.653903747141271 0 1 0
333 1 23.468908433925805 5.987519156652365 14.5235734005204 0 0 0
1131 1 13.341066371063135 5.077879584413728 19.02178103534509 0 1 0
697 1 23.048281189697857 21.29410960261424 18.6939990248403 0 0 0
2541 1 18.335792990045476 1.6289381824605105 19.351322665516438 0 0 0
2298 1 1.7291009110057727 11.355894469478114 12.317469618024784 1 0 0
883 1 24.221384390254993 17.488822213832844 5.553899426428755 0 0 1
170 1 1.411153487512911 7.308029652511189 18.646291727662295 0 0 0
4079 1 3.868640820945659 6.209333169093101 17.69615692407906 1 1 0
1217 1 5.8982685154291845 6.868322329763187 19.380078942449327 0 1 0
1771 1 10.45253190699306 8.599975465942467 19.144566787514883 0 1 0
1154 1 9.267334060525318 5.8212199689755435 15.541751665378323 0 1 0
133 1 12.416880756561955 8.14521399499638 17.240609502168738 0 0 0
749 1 17.930987224757406 6.294653471359675 16.759080165097828 0 0 1
419 1 18.333008423531915 17.3052175594866 19.327593693060386 0 0 0
678 1 20.9693398684329 5.137066181469295 18.146934709772065 0 0 0
2379 1 23.633196038959717 18.688177238419698 19.262730930569965 0 0 0
1121 1 24.529455694998703 8.674097623312415 6.966398778893444 0 1 0
10 1 8.296303077337559 6.788769716847961 18.090006951030247 0 0 0
1555 1 24.313052223849397 6.173728844297226 1.9602936712562191 0 1 1
2915 1 14.395392603270714 9.663535631173293 18.70327493571511 0 0 0
2494 1 17.023100580650922 8.983929472164869 17.687894675475633 0 0 0
3879 1 19.13354882937817 10.388932155339443 18.78478999262558 0 1 0
2085 1 21.689488439169057 4.973406869693108 1.514201042356205 0 1 1
181 1 23.764758842998233 11.059088009412799 19.313879132330786 0 0 0
889 1 23.230405590407624 0.2890660429960582 7.250573492094893 0 0 1
4248 1 13.896500580301264 18.189054641311493 1.5006420922116457 1 0 1
219 1 6.159314667464427 11.028163845461716 18.63704992832872 0 0 0
1088 1 8.594608932183402 12.599762594617166 19.889326174071982 0 1 0
1149 1 14.00914871889636 12.248501718548198 18.199127290005396 0 0 0
1591 1 23.98508711095622 14.951070446087794 16.292877853287596 0 0 0
3715 1 2.1027230476898673 17.914042659540183 19.15561046696631 1 1 0
3698 1 2.792152313669605 15.332010446864498 17.724413210178316 1 0 0
1554 1 2.137010716484136 24.11074697203953 11.017544537912999 0 0 0
126 1 5.774616731629803 16.23293713054599 18.02603647189601 0 0 0
643 1 9.902834433077038 16.78097337293513 20.18675912209125 0 0 0
2385 1 15.392272648902747 16.683630019446763 18.971291133989652 1 0 0
338 1 14.259913812643937 14.498884262220797 19.895023657614782 0 0 0
656 1 19.32981446281027 14.536994327382455 19.779975327470197 0 0 0
844 1 22.153295118153096 16.7575752035961 17.92310856918682 0 0 1
2384 1 3.6384152340966156 20.453669695693247 19.832118591278622 1 0 0
1969 1 24.31545727841777 5.290600679348815 11.86882363735125 0 1 1
3215 1 9.36529765562514 20.632228111582886 19.346068372848148 0 0 1
4024 1 12.44054392421482 19.729357912115518 17.720820159380906 0 1 0
2416 1 24.16107647242877 5.945682059662691 5.264593768758852 0 0 0
2533 1 0.052263857877356656 21.985937212211375 4.110167834016288 1 0 0
3815 1 15.436518282414227 3.49434764334464 20.20945379815325 0 1 0
592 1 13.596034517711285 18.695237778432677 19.872162066425116 0 0 0
4152 1 11.169318868386089 22.36148304256934 0.9418677254817709 0 0 1
3795 1 2.6728824145987042 0.4593118843127979 23.19333826430252 1 1 0
629 1 5.606975397992263 0.1875370799296799 22.631594788237354 0 0 0
1792 1 9.499335404969598 4.2121407303673415 20.561646217171774 0 1 0
2672 1 20.670728953402932 0.30885538363502724 25.74920457505035 0 0 0
1675 1 6.629868825975344 4.676029370687367 20.96403654551964 0 1 0
2272 1 0.3460807326232288 16.29920496001636 22.935095044289213 1 0 0
2759 1 22.93200648361719 1.6062873208923365 23.201549904639364 0 0 0
1063 1 2.3037621018867656 8.898314587861762 20.79142618309895 0 0 0
2796 1 21.87233816390437 21.858665030612755 20.72385161127146 0 0 0
1428 1 4.051771601290883 6.56002103413564 23.13883785497607 0 1 0
642 1 10.059326691196633 6.113986119112493 22.23876534721037 0 0 0
63 1 15.790155601181795 4.574120200702393 22.54922617391836 0 0 0
2667 1 18.518708041868088 5.608285423562759 21.94238795596564 0 0 0
1583 1 20.19780378937719 3.8589349325984643 23.46759955521763 0 1 0
320 1 22.43869700064286 5.160054821216172 24.59223041156266 0 0 0
429 1 0.7646980495162655 6.709251476093867 22.0300558656247 0 0 0
558 1 7.349354857771086 6.91934552336385 23.126566768310592 0 0 0
3165 1 24.513827426149764 23.285719759407044 35.21920204264056 0 0 0
371 1 14.182827151006064 7.139180907590104 22.658407278742317 0 0 0
562 1 19.886313255789634 7.233417469031587 24.286125703943 0 0 0
496 1 11.34094906248781 14.362311445322712 20.392816194368898 0 0 0
2957 1 23.49544099435256 11.903396395845666 31.905321171231012 0 0 0
486 1 4.6062905955723465 9.119390412789315 23.950325424295553 0 0 0
375 1 2.4636939393095467 10.835654116088525 23.16903030042809 0 0 0
66 1 12.213554964411852 11.176760578463785 22.678588870403605 0 0 0
278 1 14.208287638018215 9.731347381168632 21.473600240918532 0 0 0
3374 1 18.717606862310962 12.126035472945892 21.248277007064054 0 1 0
1371 1 21.319498947159598 9.358155431132486 22.786250590618874 0 1 0
2616 1 23.650843319834106 9.179170842282536 23.907130023843504 0 0 0
3495 1 6.981580026256699 23.743218171970753 24.17988648389956 0 0 0
406 1 0.7768869749490139 11.13124891934969 32.345391436951076 0 0 0
227 1 4.779006089211253 12.500056833598823 24.087959818937613 0 0 0
2408 1 5.9734214152028295 12.556172607902804 21.388265532464054 0 0 0
2819 1 8.150142138075763 12.8286306530185 23.561419203202117 0 0 0
190 1 13.254178871933517 13.304325584890067 24.503417200489473 0 0 0
3443 1 8.879887213736 1.449264766096977 20.700901556146608 1 1 0
214 1 15.08410253986572 14.045070623262124 22.548191968472704 0 0 0
1476 1 16.31673443182285 11.544871975087887 22.36431733720065 0 0 0
2597 1 19.040413164822784 15.01251381673429 22.56470171856785 0 0 0
3188 1 21.778910677676492 0.5660970255745136 36.47139858053467 0 0 0
1809 1 2.7256664973640734 16.647944294206155 21.609664261982758 0 0 0
2324 1 4.349829451854793 17.74498272531433 23.92570862027068 1 0 0
159 1 5.941704976993397 15.248471940312148 22.872499705638024 0 0 0
457 1 10.878538028090173 19.08064730341082 20.99062546725918 0 0 0
2594 1 15.166116687575126 20.267346387700115 21.288804022850876 0 0 0
3612 1 16.5712473639757 15.838535449993294 23.993151131320996 0 0 0
431 1 19.399663247993104 17.610635589251025 21.782581327657734 0 0 0
738 1 1.3107611290712287 16.239344552759295 32.544879439308204 0 0 0
3338 1 24.533774598198715 12.35620461734249 29.638356386605526 0 0 0
4062 1 2.1311013766800913 23.762882187030563 22.579099912818474 1 0 0
3557 1 3.752400999240386 23.88349010385225 29.923626144616975 1 0 -1
357 1 5.066368845015192 9.035441695483913 20.605265902472407 0 0 0
722 1 16.25369711464939 18.80401301030884 23.398055194057637 0 0 0
362 1 18.320924137304814 19.994169886241757 22.469599020393165 0 0 0
2470 1 21.636694767077437 20.02240502712803 22.987267513855528 0 0 0
3402 1 22.431982262735115 17.64196912828733 21.322674836901566 0 0 0
3939 1 2.3667758512570938 24.24446880109637 39.36806280723918 1 0 0
404 1 5.5537437948646025 18.719821848421862 21.503791607279727 0 0 0
479 1 3.9377131526934375 3.1543156697001913 22.28348161500226 0 0 0
2794 1 7.026112562678417 21.086949475886676 21.06888076709964 1 0 0
366 1 14.504459350152452 22.906349754686243 21.953923070631326 0 0 0
201 1 0.5104939616963361 1.339015819188324 26.555244549715134 0 0 0
2709 1 23.739785745646174 23.593185258530074 21.35576128949388 0 0 0
3422 1 13.74506960961477 0.026912429456336037 26.904138223192877 0 1 0
1360 1 8.76592981982988 1.057944902360882 23.68713864482719 0 1 0
47 1 11.205902584900826 2.467905488366459 24.694442071282612 0 0 0
70 1 13.77631742470518 1.2972693780958058 24.62767610346093 0 0 0
2791 1 17.39828815833762 0.3775373409950692 23.413597696676824 0 0 0
3789 1 18.787773882100108 2.6239787413362126 25.387481021672 0 1 0
1511 1 23.843290616995215 2.9941369157573514 25.396884433347573 -1 1 0
379 1 2.2035555496494377 4.700606907217 24.273898801821804 0 0 0
1635 1 6.839474002960936 5.443060591959013 25.40387776710608 0 1 0
1826 1 6.696316287470889 3.08730910573059 23.512062237580718 0 1 0