
# read in water data
read_data data.liquid_ML_1000 group water extra/atom/types 1
Reading data file ...
  orthogonal box = (0.0000000 0.0000000 0.37431495) to (49.220000 49.019636 59.687685)
  2 by 2 by 3 MPI processor grid
  reading atoms ...
  4466 atoms
  reading velocities ...
  4466 velocities
  read_data CPU = 0.376 seconds

# remove area for graphite
region substrate block 0 ${XDIM} 0 ${YDIM} ${Z_LO} ${Z_HI}
region substrate block 0 49.22 0 ${YDIM} ${Z_LO} ${Z_HI}
region substrate block 0 49.22 0 49.019635930410494 ${Z_LO} ${Z_HI}
region substrate block 0 49.22 0 49.019635930410494 25 ${Z_HI}
region substrate block 0 49.22 0 49.019635930410494 25 35.062
delete_atoms region substrate
Deleted 741 atoms, new total = 3725

# Insert substrate
read_data data.graphite add append shift 0.0 0.0 ${Z_LO} group graphite offset 1 0 0 0 0
read_data data.graphite add append shift 0.0 0.0 25 group graphite offset 1 0 0 0 0
Reading data file ...
  orthogonal box = (0.0000000 0.0000000 0.37431495) to (49.220000 49.019636 59.687685)
  2 by 2 by 3 MPI processor grid
  reading atoms ...
  2760 atoms
  reading velocities ...
  2760 velocities
  read_data CPU = 0.924 seconds


# Define potential
# CHECK ON THIS %%%%%%%%%%%%
#
pair_style sw
pair_coeff * * MLC_e.sw mW C


# Delete water and ice atoms that are overlapping
#
delete_atoms overlap 2.5 water graphite
System init for delete_atoms ...
Neighbor list info ...
  update every 1 steps, delay 10 steps, check yes
  max neighbors/atom: 2000, page size: 100000
  master list distance cutoff = 7.76
  ghost atom cutoff = 7.76
  binsize = 3.88, bins = 13 13 16
  2 neighbor lists, perpetual/occasional/extra = 1 1 0
  (1) command delete_atoms, occasional, copy from (2)
      attributes: full, newton on
      pair build: copy
      stencil: none
      bin: none
  (2) pair sw, perpetual
      attributes: full, newton on
      pair build: full/bin/atomonly
      stencil: full/bin/3d
      bin: standard
Deleted 117 atoms, new total = 6368

# set timestep
#
timestep 10.0

# Define output
#
compute 1 all msd
thermo 50
thermo_style custom step temp press vol etotal ke pe c_1[4]

# Neighbor lists
#
neigh_modify delay 0 every 1 check yes


# Fix graphite atoms in place
# CHECK ON THIS %%%%%%%%%%%%%%%%%%%%
#
fix 1 graphite setforce 0.0 0.0 0.0
velocity graphite set 0.0 0.0 0.0


### NEW FOR TESTING

# Set fixes

fix             2 water momentum 10 linear 1 1 1 rescale
fix             3 water nve
fix             4 water temp/csvr ${TEMP} ${TEMP} 500.0 837493
fix             4 water temp/csvr 235 ${TEMP} 500.0 837493
fix             4 water temp/csvr 235 235 500.0 837493
fix             5 water press/berendsen z ${PRES} ${PRES} 1000.0 modulus 20000
fix             5 water press/berendsen z -1000 ${PRES} 1000.0 modulus 20000
fix             5 water press/berendsen z -1000 -1000 1000.0 modulus 20000

# Run 0.5 ns equilibration

timestep 5.0

dump		    1 all atom 2000 testeq.${NAME}-${TEMP}.dump
dump		    1 all atom 2000 testeq.graphite_ML_1000atm_e-${TEMP}.dump
dump		    1 all atom 2000 testeq.graphite_ML_1000atm_e-235.dump

reset_timestep  0

run	            100000
Neighbor list info ...
  update every 1 steps, delay 0 steps, check yes
  max neighbors/atom: 2000, page size: 100000
  master list distance cutoff = 7.76
  ghost atom cutoff = 7.76
  binsize = 3.88, bins = 13 13 16
  1 neighbor lists, perpetual/occasional/extra = 1 0 0
  (1) pair sw, perpetual
      attributes: full, newton on
      pair build: full/bin/atomonly
      stencil: full/bin/3d
      bin: standard
Per MPI rank memory allocation (min/avg/max) = 4.557 | 4.688 | 4.952 Mbytes
Step Temp Press Volume TotEng KinEng PotEng c_1[4] 
       0    135.20178    -1236.677    143108.12   -34353.732    2565.9699   -36919.702            0 
      50    139.11395   -1982.6549     142650.6   -34359.807    2640.2184   -37000.025   0.28578152 
     100    140.75888   -2156.8084    141868.93   -34450.635    2671.4371   -37122.072   0.48434605 
     150    141.08514   -2232.2547    141009.61   -34514.858    2677.6291   -37192.487    0.7403796 
     200    135.32868   -2265.1714    140184.66   -34619.979    2568.3783   -37188.357   0.98076879 
     250     139.5759   -1806.1886    139609.88   -34661.468    2648.9856   -37310.453    1.0953429 
     300    140.21447    -1357.613    139322.52   -34636.692    2661.1048   -37297.797    1.1261854 
     350    137.49578   -1641.0453    139064.24   -34729.266    2609.5073   -37338.774    1.2135271 
     400    134.32385   -1690.0335    138775.59     -34853.6    2549.3079   -37402.908    1.3436443 
     450    134.08131   -1587.3909    138562.99   -34847.569    2544.7047   -37392.273    1.5002635 
     500    135.55158   -1432.0374    138315.16   -34833.923    2572.6088   -37406.532    1.6778523 
     550    136.31833   -1425.6109    138143.65   -34807.242    2587.1607   -37394.402    1.7849146 
     600    136.54905    -1263.109    137908.53   -34802.147    2591.5396   -37393.686    1.8608206 
     650    134.44954   -1152.3338    137770.87    -34889.67    2551.6934   -37441.363    1.9013264 
     700    132.76864   -1192.2357    137736.82   -34950.997    2519.7917   -37470.789    1.9639298 
     750    134.73308   -1295.4354    137604.93   -35041.183    2557.0745   -37598.258    2.0558103 
     800    132.20164   -1326.9828    137499.81   -35052.155    2509.0308   -37561.186    2.1911868 
     850    132.75768   -1258.2973    137441.91   -35042.341    2519.5839   -37561.925    2.2691281 
     900    132.21982   -1371.7914    137323.05   -35072.207    2509.3759   -37581.582    2.3330732 
     950    132.07464   -1117.3243     137267.3   -35029.806    2506.6205   -37536.427    2.3980935 
    1000    133.51692   -1422.8214    137212.73   -35078.627    2533.9932   -37612.621    2.4429313 
    1050      135.069   -1164.5808    137161.33   -35077.235    2563.4499   -37640.685    2.5215023 
    1100    135.84735   -1413.6573    137123.22     -35059.2    2578.2221   -37637.423    2.5823935 
    1150    133.91407   -1395.9553    137032.11   -35095.317    2541.5306   -37636.848    2.6503548 
    1200    130.87032   -1287.7012     137048.7   -35106.737    2483.7639   -37590.501    2.6634287 
    1250    135.02812   -1414.9504    136930.32   -35094.132    2562.6741   -37656.807    2.7037143 
    1300    132.10946   -1370.2336    136906.06   -35102.419    2507.2813     -37609.7    2.7677459 
    1350    134.97134   -1208.1605    136913.03   -35109.698    2561.5965   -37671.294    2.8296328 
    1400    135.28736   -1175.2656    136830.35   -35016.668    2567.5942   -37584.263    2.9433913 
    1450     132.9774   -1281.4469    136884.19   -35045.271    2523.7537   -37569.025    2.9934354 
    1500    136.37625   -1291.5751    136895.78   -34998.823      2588.26   -37587.083    3.0028017 
    1550    137.21786   -1320.0566    136853.45   -34957.983    2604.2327   -37562.216    3.0471175 
    1600    134.65677    -1336.527    136883.22   -35057.134    2555.6263    -37612.76    3.1100001 
    1650    135.43039   -1474.5108    136882.71   -35098.728    2570.3087   -37669.037    3.1869003 
    1700    133.22072   -1406.0179    136868.18   -35152.295    2528.3717   -37680.667    3.2536368 
    1750    134.50394   -1354.1334    136814.92   -35155.745    2552.7257   -37708.471    3.3156901 
    1800    130.88006   -1052.0442    136776.71   -35236.465    2483.9488   -37720.413    3.3303803 
    1850    132.30981   -939.58495    136903.03   -35196.472    2511.0837   -37707.556    3.3125352 
    1900    133.02519    -1377.072    136897.01   -35212.064    2524.6608   -37736.725    3.3872679 
    1950    133.88528   -1238.8927    136907.68   -35178.005    2540.9843   -37718.989    3.4383055 
    2000     129.7222   -1272.9686    136920.32   -35202.568    2461.9739   -37664.542    3.4827778 
    2050    130.97776   -1386.1614    136784.29   -35182.765    2485.8031   -37668.568      3.52616 
    2100    130.76974   -1106.6768    136801.98   -35158.963     2481.855   -37640.818    3.6124939 
    2150    132.32886   -1103.8724    136754.47   -35175.249    2511.4453   -37686.694    3.6806064 
    2200    130.49346   -1194.7233    136780.91    -35162.13    2476.6115   -37638.741    3.7258692 
    2250    132.64264   -1096.7772    136851.71     -35155.1    2517.4005     -37672.5    3.7617202 
    2300    132.54378   -971.00599    136928.58   -35127.539    2515.5242   -37643.063    3.8158733 
    2350    134.25169   -948.92604    137023.14    -35114.52    2547.9384   -37662.458    3.8474306 
    2400    136.01786   -1184.9875    136970.46   -35078.617    2581.4581   -37660.075     3.873228 
    2450    136.24869   -1133.3881    136941.81    -35081.61     2585.839   -37667.449    3.8899044 
    2500    132.21226        -1448    136915.49   -35106.261    2509.2323   -37615.493    3.9417223 
    2550    134.78556   -1437.0318     136756.5   -35152.681    2558.0705   -37710.751    4.0873255 
    2600     130.9515   -1236.6566    136672.31    -35153.89    2485.3046   -37639.195    4.1802583 
    2650    133.36752   -1130.1159    136686.43   -35173.924    2531.1579   -37705.082    4.2105994 
    2700    130.69867   -1356.9339    136660.71   -35196.132    2480.5061   -37676.638    4.2156223 
    2750    134.42524   -1434.8922    136604.25   -35185.484     2551.232   -37736.716    4.2212707 
    2800    131.80965   -923.85897     136586.2   -35176.344    2501.5912   -37677.935    4.2693474 
    2850    131.74207   -1034.8074    136673.39   -35164.838    2500.3086   -37665.147    4.3259916 
    2900    133.03411   -1125.7585    136603.25   -35114.438    2524.8302   -37639.268    4.4293662 
    2950    134.83115   -1178.0116    136593.94   -35114.923    2558.9359   -37673.859    4.4947272 
    3000    135.71089   -1115.9185    136556.51   -35108.946    2575.6323   -37684.578    4.5574998 
    3050    134.71113   -1060.9485    136598.12   -35124.999    2556.6579   -37681.656    4.5691146 
    3100    132.03475   -1190.6256    136584.57   -35135.008    2505.8635   -37640.872    4.6058657 
    3150    133.55365   -1177.1672    136650.02   -35190.351    2534.6904   -37725.041    4.6783873 
    3200    131.32981    -1167.463    136692.17    -35198.01    2492.4845   -37690.494    4.7112625 
    3250    132.86494   -953.11569    136761.88   -35199.336    2521.6194   -37720.955    4.7144981 
    3300     131.6777   -1277.1094    136780.48   -35190.472    2499.0871    -37689.56    4.7487929 
    3350    133.30611   -1350.0256    136768.17   -35145.849    2529.9923   -37675.842    4.7707708 
    3400    133.33282   -1380.7087    136681.68   -35163.157    2530.4993   -37693.656    4.8086472 
    3450     132.4764   -1022.4074    136654.26   -35170.933    2514.2454   -37685.178    4.8548067 
    3500    132.85484   -1293.4795    136666.01   -35236.579    2521.4278   -37758.007    4.8951754 
    3550    132.10777   -1381.1777    136606.17   -35253.463    2507.2492   -37760.712    4.9570844 
    3600    133.48668    -1259.097    136559.45   -35228.351    2533.4194   -37761.771      5.02189 
    3650    131.33945   -1150.0654    136593.38   -35235.934    2492.6674   -37728.601    5.0393485 
    3700    133.36557   -1128.2457    136671.73    -35227.01    2531.1208   -37758.131    4.9994657 
    3750    131.79892   -1118.6688    136751.95   -35259.014    2501.3877   -37760.401    4.9471101 
    3800    130.40133   -1266.7854    136756.32   -35303.615     2474.863   -37778.478    4.9978216 
    3850    130.27154    -1390.603    136709.05   -35339.814    2472.3998   -37812.214    5.1151669 
    3900    131.31936   -1203.4878    136692.15   -35337.383    2492.2862    -37829.67    5.1740836 
    3950    130.90033   -1212.4359    136634.94   -35337.269    2484.3335   -37821.602    5.2105336 
    4000    131.05739   -1270.3791    136628.32    -35306.75    2487.3142   -37794.065    5.2727552 
    4050    132.84581    -1224.756    136624.62   -35269.643    2521.2564     -37790.9    5.2854252 
    4100    133.35351   -1243.7687    136562.92   -35271.302    2530.8919   -37802.193    5.3386059 
    4150    133.03703   -1293.9915    136513.84   -35220.107    2524.8855   -37744.992    5.3780375 
    4200    132.42669   -1011.7618    136573.29   -35220.518    2513.3019    -37733.82    5.3833603 
    4250    133.31428   -1255.5989    136604.69   -35179.814    2530.1475   -37709.961    5.4764066 
    4300    133.06547   -1051.1997    136650.17   -35179.924    2525.4253   -37705.349    5.4867943 
    4350    131.07424   -1044.6371    136678.57   -35155.824    2487.6342   -37643.458    5.4593609 
    4400    131.60327   -1146.1914    136718.63   -35192.425    2497.6745   -37690.099    5.4897083 
    4450    131.89667    -1047.207    136679.36    -35196.94    2503.2429   -37700.183    5.5686503 
    4500    131.26103   -1048.9437    136675.24   -35230.198    2491.1791   -37721.377    5.6261059 
    4550    132.76154   -1125.1756    136655.44   -35240.193     2519.657    -37759.85    5.7028256 
    4600    130.93948   -1359.3679    136573.19   -35245.343    2485.0764   -37730.419     5.755934 
    4650     133.5882   -1192.4593    136537.43   -35178.216    2535.3462   -37713.562    5.8006573 
    4700    133.52308   -1204.4375    136523.75   -35138.002    2534.1101   -37672.113    5.8483644 
    4750    133.28835   -1017.7532    136540.43   -35102.134    2529.6552   -37631.789    5.8769037 
    4800    135.86714   -1253.2497    136460.37   -35140.892    2578.5976   -37719.489    5.9147408 
    4850     133.3762   -1283.7677    136379.28    -35190.07    2531.3225   -37721.392    5.9440955 
    4900    130.88503   -1205.7493     136364.2   -35199.884    2484.0432   -37683.927    5.9638759 
    4950    134.54105   -1318.1906    136318.08   -35212.256      2553.43   -37765.686    6.0210427 
    5000    134.68145   -1270.3136    136199.88    -35193.62    2556.0947   -37749.715    6.1135328 
    5050     132.7182    -1250.837    136053.43    -35183.71    2518.8345   -37702.544    6.2355026 
    5100    132.72861   -1024.8981    136001.43   -35199.307    2519.0322   -37718.339    6.2670769 
    5150    132.83206   -1025.9046    136066.68   -35177.297    2520.9954   -37698.292    6.3487217 
    5200    130.94622   -1316.6478    136047.59   -35204.909    2485.2044   -37690.113    6.4746098 
    5250    134.19017   -1306.7463    135933.64   -35212.297    2546.7708   -37759.067     6.660415 
    5300    130.85724   -1127.1056    135922.94   -35220.871    2483.5158   -37704.387    6.7359715 
    5350    132.76507   -1013.2503    135902.85   -35227.919    2519.7241   -37747.643    6.8303282 
    5400    132.01288    -877.6862    135976.44   -35271.018    2505.4484   -37776.466    6.8217621 
    5450    129.61898   -1211.1108    136019.04   -35322.917     2460.015   -37782.932    6.8649095 
    5500    129.69967   -1204.3859    136022.31   -35333.375    2461.5464   -37794.922    6.9169421 
    5550    131.74969   -1213.9667    135990.27   -35314.581    2500.4533   -37815.035    6.9573457 
    5600    132.25953   -1344.4759    135959.81   -35262.659    2510.1296   -37772.789    6.9858357 
    5650    133.82574   -1274.9443    135885.53   -35243.484    2539.8544   -37783.339    7.0701173 
    5700    132.53205    -1277.206    135897.57   -35247.092    2515.3016   -37762.394    7.1176135 
    5750    130.39523   -1013.8837    135915.34    -35325.25    2474.7474   -37799.997     7.164834 
    5800    130.56316   -1112.9318    135889.25   -35292.021    2477.9343   -37769.956    7.2062058 
    5850     129.3039   -1162.6783    135873.78   -35245.926    2454.0351   -37699.961    7.1633411 
    5900    134.34887   -1153.2423    135888.58   -35242.641    2549.7827   -37792.423    7.1796606 
    5950     133.8669   -1135.5453    135932.65   -35232.787    2540.6354   -37773.422    7.2506139 
    6000     131.4295   -1352.0865    135906.79   -35183.589    2494.3764   -37677.966     7.272051 
    6050     132.8794   -1334.7614    135855.42   -35158.629    2521.8939   -37680.523    7.3223858 
    6100    135.09018   -1000.6021    135800.57   -35105.877    2563.8518   -37669.728    7.4223702 
    6150    135.16242   -1232.7516    135798.02   -35124.716     2565.223   -37689.939    7.5052042 
    6200    133.27719   -1066.1923    135847.02   -35168.869    2529.4435   -37698.313    7.5276337 
    6250    132.16446   -1242.1317    135871.13   -35251.752    2508.3252   -37760.078    7.6246125 
    6300    133.51827   -1075.2145    135840.59   -35255.147    2534.0189   -37789.166    7.7065742 
    6350    135.31897   -991.55185    135870.11   -35182.664    2568.1941   -37750.858    7.7171011 
    6400    135.19382   -1168.0637    135907.13   -35141.596    2565.8189   -37707.415    7.7358234 
    6450    136.31105   -1181.4272    135881.84   -35105.607    2587.0226    -37692.63    7.7999614 
    6500    131.01886   -1066.9186    135858.45   -35143.357    2486.5831    -37629.94    7.8641822 
    6550    132.05514   -1023.1383    135871.95   -35168.305    2506.2505   -37674.555    7.9010166 
    6600    130.67636   -1204.3989    135871.38   -35169.221    2480.0829   -37649.304    7.9673928 
    6650     133.1549   -1177.8589    135778.25   -35150.788    2527.1225   -37677.911    8.0323901 
    6700    132.48813   -1096.1698    135810.79   -35158.515     2514.468   -37672.983    8.0763225 
    6750    132.99296   -1190.0403    135786.29   -35123.066    2524.0492   -37647.115    8.1379097 
    6800    133.83101   -1204.3054    135783.48   -35168.981    2539.9544   -37708.935    8.2127559 
    6850    133.99709   -1364.0105    135711.69   -35172.385    2543.1063   -37715.492    8.2854414 
    6900    134.64131   -1210.3497    135679.66   -35161.577    2555.3329    -37716.91    8.3426507 
    6950    132.69558   -1396.7733    135605.27   -35195.708    2518.4052   -37714.113    8.4183275 
    7000    134.22496   -1220.7244     135586.6   -35206.247    2547.4311   -37753.678    8.4783763 
    7050    133.40295   -1161.4162    135621.39   -35240.736    2531.8302   -37772.566    8.5046409 
    7100    133.48275   -1197.9466    135614.48   -35223.482    2533.3448   -37756.827    8.5978308 
    7150    130.92007   -1092.1259    135649.71   -35247.836    2484.7082   -37732.545    8.6548982 
    7200    131.93176    -1190.206    135734.52   -35232.653    2503.9087   -37736.562    8.6028384 
    7250    132.97757    -1355.228    135758.36   -35260.929    2523.7571   -37784.686    8.6557728 
    7300    134.58441   -1078.3908    135846.81   -35252.693     2554.253   -37806.946    8.6095789 
    7350    132.64882    -1125.064    135930.03   -35281.864    2517.5178   -37799.382    8.6034105 
    7400    133.27332   -931.21334    135961.38   -35255.021    2529.3701   -37784.391    8.6185324 
    7450    133.83926   -966.87085    136016.66   -35218.696    2540.1109   -37758.806    8.6700566 
    7500    133.45534   -1265.7552    136091.16   -35206.357    2532.8246   -37739.182    8.7313455 
    7550       133.71   -1147.7282    136101.74   -35196.889    2537.6577   -37734.547    8.7265607 
    7600    132.42797   -991.65412    136115.84   -35223.029    2513.3263   -37736.355    8.7410854 
    7650    132.85226   -1236.6593    136197.49   -35221.569    2521.3788   -37742.947     8.833992 
    7700    134.38701   -1151.3992    136209.63    -35178.76    2550.5066   -37729.266    8.8854692 
    7750    134.09686   -1167.5573    136139.25   -35190.631    2544.9998   -37735.631    8.9802409 
    7800    132.76498    -1217.127    136175.16   -35168.426    2519.7223   -37688.149    8.9672009 
    7850    135.74091   -1185.1552    136120.92   -35105.851    2576.2019   -37682.053    9.0273397 
    7900    134.51136   -1201.2934    136035.88   -35033.581    2552.8666   -37586.447    9.1560657 
    7950    137.74422   -1153.4709    136071.89   -35054.147    2614.2223   -37668.369    9.1511034 
    8000    138.15087   -1147.9304    135971.47   -35070.743    2621.9402   -37692.683    9.1401789 
    8050     133.4446    -1050.236    136031.73   -35168.227    2532.6208   -37700.848     9.184101 
    8100    134.36295   -875.74623    136087.21   -35165.361    2550.0499    -37715.41    9.2381933 
    8150     135.9999    -1151.466    136195.05   -35149.036    2581.1173   -37730.153    9.2388863 
    8200    134.76707   -1251.0639    136163.04   -35164.233    2557.7197   -37721.953    9.2788524 
    8250    134.74591   -1228.2343       136126   -35157.065     2557.318   -37714.383    9.3190447 
    8300    134.03322   -1192.8472    136102.79    -35189.17    2543.7921   -37732.962    9.3760446 
    8350    133.72964   -1043.6989    136086.56   -35188.653    2538.0305   -37726.684    9.4564268 
    8400    132.83276   -1276.4767    135980.01   -35212.045    2521.0088   -37733.054    9.5159843 
    8450    132.17006   -1038.4366    135967.49   -35250.954    2508.4314   -37759.385    9.5469912 
    8500    134.56665   -974.60464    135990.46   -35271.573    2553.9158   -37825.489    9.6241308 
    8550    132.65515   -1114.2847    136066.33   -35263.464     2517.638   -37781.102    9.6714189 
    8600    132.01785   -1197.8255    136081.32    -35313.72    2505.5428   -37819.263    9.6932458 
    8650    132.35334   -1081.7929     136091.1   -35286.423    2511.9098   -37798.333    9.6695957 
    8700    134.43417   -990.82001     136146.5   -35276.142    2551.4015   -37827.543    9.6664358 
    8750    129.83256   -1226.8193    136101.43   -35285.446    2464.0684   -37749.515    9.6712933 
    8800    133.78772   -863.20789    136089.14   -35263.405    2539.1327   -37802.538    9.7517221 
    8850    135.10676   -1214.5278    136088.65   -35273.498    2564.1666   -37837.665    9.8030872 
    8900    133.11464     -1064.35    136172.13    -35271.58    2526.3584   -37797.938    9.8318632 
    8950    133.72869   -1210.9733    136158.78   -35205.779    2538.0125   -37743.792    9.8168071 
    9000    132.33206   -1283.6142    136168.57   -35217.628     2511.506   -37729.134    9.8467944 
    9050    133.18979   -1320.0899    136150.57   -35223.556    2527.7846   -37751.341    9.8809479 
    9100    134.45616   -1143.5132    136170.46   -35197.683    2551.8189   -37749.502    9.9971705 
    9150    135.00447   -997.43263    136153.29   -35211.411    2562.2252   -37773.636    10.039127 
    9200    131.11973   -1155.0573    136221.73   -35244.735    2488.4975   -37733.232    10.075989 
    9250    134.50025    -1142.554    136205.39   -35225.055    2552.6557   -37777.711    10.113269 
    9300    136.00267   -1080.8339     136174.9   -35173.042    2581.1699   -37754.212    10.196432 
    9350    134.82371   -980.10684    136182.61   -35180.781    2558.7947   -37739.575    10.271421 
    9400    136.95625   -1128.4813    136157.38   -35204.584    2599.2677   -37803.852     10.32337 
    9450     136.3089   -1099.4318    136122.21   -35174.863    2586.9818   -37761.845    10.426166 
    9500    133.13722   -1268.7614    136034.37    -35216.64     2526.787   -37743.427    10.520053 
    9550    131.98679   -1231.6412    136011.21   -35219.426    2504.9532   -37724.379    10.493746 
    9600    133.91694   -1256.1687       136087   -35273.782    2541.5852   -37815.367    10.452269 
    9650     133.2732   -1103.8453    136060.87   -35285.122    2529.3678   -37814.489    10.428697 
    9700     131.1041   -1203.8202     136112.7   -35317.294    2488.2008   -37805.495    10.453277 
    9750    132.55949   -1141.1931    136103.24   -35328.315    2515.8225   -37844.138    10.484559 
    9800    130.24585   -1278.4787    136117.07   -35303.908    2471.9123    -37775.82    10.562585 
    9850    132.48527   -1131.0521    136065.79   -35285.566    2514.4137    -37799.98    10.609221 
    9900    133.22684   -1161.9223    136169.19   -35261.778    2528.4878   -37790.266    10.681027 
    9950    133.79438   -1232.3952    136261.41   -35281.865    2539.2591   -37821.124    10.700368 
   10000    130.97898   -1178.5497    136302.38   -35302.759    2485.8261   -37788.585    10.732501 
   10050    132.78811   -1158.8732    136280.06   -35328.909    2520.1614    -37849.07    10.769146 
   10100    126.93224   -1373.1204     136266.5   -35390.439    2409.0238   -37799.463     10.82129 
   10150    130.93725   -1367.9755    136185.09   -35324.176    2485.0341    -37809.21    10.842001 
   10200    133.79472    -1278.443    136109.22   -35250.126    2539.2655   -37789.392    10.891482 
   10250    131.73925   -1285.5412    136056.21   -35283.232    2500.2551   -37783.487     10.90626 
   10300    133.35795   -1098.9103    136031.87   -35283.464    2530.9763    -37814.44    10.878345 
   10350    134.69127   -1193.4654    135984.39   -35275.451     2556.281   -37831.732    10.893782 
   10400    132.54712   -1160.8526    135939.85   -35226.877    2515.5877   -37742.465    10.945075 
   10450    134.70289   -1109.0094    135948.01   -35204.937    2556.5015   -37761.439    11.015172 
   10500    136.49836   -1195.5497    136032.68   -35206.169    2590.5775   -37796.747    11.118457 
   10550    135.26311   -848.73275    136044.39   -35224.827     2567.134   -37791.961    11.152943 
   10600     132.6853   -1142.8056    136064.01   -35275.852    2518.2102   -37794.062    11.170018 
   10650    134.92002   -1061.9343    136071.94    -35279.27    2560.6224   -37839.892    11.221163 
   10700    136.10425   -1338.1121    136048.67   -35251.593    2583.0978   -37834.691    11.247553 
   10750    132.10443   -1263.9119    136023.92   -35330.731     2507.186   -37837.917    11.275698 
   10800    130.90902   -1195.8965    135963.76   -35379.043    2484.4984   -37863.541    11.372013 
   10850    127.56174   -1311.8237    135984.73   -35361.288     2420.971   -37782.259    11.377563 
   10900    131.76235   -1197.1189    135948.16   -35364.641    2500.6937   -37865.335    11.419377 
   10950    130.90341   -1226.2527    135887.08   -35376.845    2484.3919   -37861.237    11.426487 
   11000    127.32718   -1133.5122    135884.31   -35413.899    2416.5193   -37830.419     11.45666 
   11050     129.9691   -1078.7921    135956.66   -35406.333    2466.6599   -37872.993     11.48397 
   11100    130.99747   -902.90475    135974.75   -35366.223    2486.1771     -37852.4    11.549329 
   11150    133.19233    -1133.593    135957.68   -35306.598     2527.833   -37834.431    11.620324 
   11200    131.31934   -1193.9232    135951.46   -35281.524    2492.2858   -37773.809    11.674705 
   11250    130.42144    -1245.616    135973.86   -35297.339    2475.2447   -37772.584    11.641446 
   11300    130.55727   -1289.3799    135948.66   -35301.211    2477.8226   -37779.034    11.643551 
   11350    132.16579   -1151.5077    136023.45   -35327.441    2508.3504   -37835.792    11.704008 
   11400    132.79535   -1154.3902    136037.41   -35296.722    2520.2988   -37817.021    11.749269 
   11450    130.55955   -1007.2851    136021.56   -35299.283    2477.8658   -37777.149    11.740313 
   11500    135.63224   -1065.5855    136099.35   -35225.719    2574.1395   -37799.859    11.801861 
   11550    131.62225   -1117.8663    136043.14   -35261.106    2498.0346   -37759.141     11.88351 
   11600    135.28364    -1100.164    136110.08   -35215.896    2567.5235    -37783.42    11.968562 
   11650    132.64794   -935.30711    136060.93    -35163.64    2517.5011   -37681.141    12.037121 
   11700    135.11338   -1134.1356    135997.44   -35184.227    2564.2923   -37748.519    12.024033 
   11750    135.57888   -1270.7993    136018.75   -35143.012    2573.1269   -37716.139    12.000456 
   11800    132.74267   -1099.0819    136073.12   -35181.344     2519.299   -37700.643    12.102586 
   11850    135.16593   -1080.7672    136193.68   -35188.291    2565.2895    -37753.58    12.072505 
   11900    134.38948   -1275.6477    136192.26   -35201.924    2550.5534   -37752.478    12.077512 
   11950     131.9729   -1389.5231    136234.69   -35214.217    2504.6896   -37718.906    12.037401 
   12000    130.55104   -1286.7674    136194.17   -35208.803    2477.7044   -37686.507    12.057663 
   12050    134.69928   -1128.1836    136264.83     -35198.6    2556.4331   -37755.033    12.179105 
   12100    132.12153   -1105.4145    136266.68   -35177.109    2507.5103   -37684.619    12.208103 
   12150     133.2914   -1182.1856    136292.05    -35191.09    2529.7132   -37720.803    12.301427 
   12200    134.63353    -1160.536    136285.36   -35179.188    2555.1853   -37734.373     12.39989 
   12250    134.31361   -1139.6627    136348.04   -35170.777    2549.1136    -37719.89    12.545455 
   12300    133.19552   -1051.5353    136336.21   -35172.682    2527.8935   -37700.576    12.614739 
   12350    134.25048   -1053.5741    136332.45   -35148.315    2547.9155   -37696.231    12.721897 
   12400    136.19254    -1002.093    136377.53   -35085.163    2584.7733   -37669.936    12.754559 
   12450    137.39909   -1026.9016    136464.63   -35084.529    2607.6722   -37692.201    12.830266 
   12500    135.03115   -1244.9398    136412.57   -35105.916    2562.7316   -37668.648    12.917903 
   12550    133.51311   -995.22097    136399.28   -35141.688    2533.9209   -37675.609    12.872878 
   12600    134.40641   -1332.5656    136414.26   -35127.923    2550.8748   -37678.798    12.905089 
   12650     135.7431   -1321.8675    136397.98   -35140.507    2576.2435   -37716.751    12.877422 
   12700     133.3549   -1140.2584    136440.53    -35212.76    2530.9183   -37743.678    12.872223 
   12750    135.99694   -1241.9204    136392.43   -35216.556    2581.0611   -37797.618    12.918808 
   12800    132.08367   -1094.0797    136336.41   -35218.962    2506.7919   -37725.754    13.018997 
   12850    132.80366    -998.7211    136387.68   -35239.353    2520.4565    -37759.81     13.09012 
   12900    135.03829   -1398.1139    136409.65   -35212.019    2562.8671   -37774.886    13.123917 
   12950    135.25657   -1259.8563    136309.02    -35162.28    2567.0098   -37729.289    13.230601 
   13000    131.73865   -1228.3271     136329.6   -35219.794    2500.2437   -37720.038    13.274394 
   13050    132.41323   -1022.2116    136347.51   -35238.627    2513.0465   -37751.674    13.282657 
   13100     134.2991   -1021.0483     136389.4   -35240.021    2548.8381   -37788.859    13.300718 
   13150    134.74037   -1009.8645    136365.38   -35212.712     2557.213   -37769.925    13.343984 
   13200    136.35035   -1160.8107    136451.52   -35165.945    2587.7684   -37753.713    13.345632 
   13250    134.84791   -1215.9273     136451.5   -35122.815    2559.2538   -37682.069    13.337265 
   13300    136.96083   -1175.0934    136468.61    -35085.07    2599.3546   -37684.424    13.382919 
   13350    136.11513   -1125.9706    136472.55   -35113.692    2583.3043   -37696.996     13.40812 
   13400    136.10715   -1444.9186    136386.58   -35097.508    2583.1528   -37680.661    13.501502 
   13450     135.8528   -1268.5024    136420.09   -35117.566    2578.3255   -37695.891    13.564024 
   13500    137.25166     -1339.82    136435.93    -35129.74    2604.8743   -37734.614      13.6656 
   13550    136.77713   -1061.8189    136433.42   -35119.161    2595.8683   -37715.029    13.732454 
   13600     136.6978   -1286.9545    136456.07   -35118.525    2594.3627   -37712.887    13.712251 
   13650    136.85182   -1114.8037    136509.04   -35135.393    2597.2857   -37732.679    13.719883 
   13700    136.00037    -1245.176    136542.09   -35153.544    2581.1262   -37734.671      13.7895 
   13750     134.4728   -1274.2601    136537.22   -35155.338    2552.1348   -37707.473     13.88384 
   13800    134.26545   -1109.2905    136527.99   -35188.813    2548.1994   -37737.012    13.888466 
   13850    134.87409   -1097.2548    136515.03   -35196.719    2559.7508   -37756.469     13.93659 
   13900    131.71095   -1293.5565    136495.66   -35239.767    2499.7182   -37739.486    13.934673 
   13950    135.80453   -730.63518    136528.56   -35205.707    2577.4094   -37783.116    13.913916 
   14000    134.71787   -1316.1966    136550.01    -35165.19    2556.7858   -37721.976    13.956337 
   14050    132.91847   -1267.7146    136490.73   -35191.196    2522.6354   -37713.832    14.028863 
   14100    130.54013    -1285.504     136567.9   -35233.427    2477.4973   -37710.924    14.079449 
   14150    132.10498   -1290.7727    136530.72   -35241.458    2507.1963   -37748.654    14.199576 
   14200    131.46976    -1311.555    136421.83   -35279.225    2495.1406   -37774.366     14.30121 
   14250    131.05092    -1157.476    136369.87   -35292.318    2487.1916   -37779.509    14.371493 
   14300       128.43   -1367.4522    136429.74   -35284.594    2437.4496   -37722.043    14.368785 
   14350    132.69753   -1121.7762     136431.8   -35300.091    2518.4422   -37818.533    14.442084 
   14400    134.27746   -1350.1401    136417.33   -35227.094    2548.4274   -37775.522    14.596225 
   14450    132.06375   -1418.1754    136356.72   -35220.654    2506.4139   -37727.068     14.63204 
   14500    129.81081   -1268.4712    136352.55   -35274.382    2463.6557   -37738.038    14.603982 
   14550    131.57658   -1302.9782    136324.75    -35268.29    2497.1679   -37765.458    14.561773 
   14600    131.84104   -1308.7343    136298.59   -35224.369     2502.187   -37726.556    14.586023 
   14650    135.61783   -1156.1008    136215.52   -35243.126     2573.866   -37816.993    14.651178 
   14700    132.67594   -1214.5273    136253.99   -35264.912    2518.0325   -37782.945    14.611581 
   14750    133.36948   -1202.8199    136224.64   -35308.336     2531.195   -37839.531    14.651928 
   14800     131.3222   -1218.0397    136219.78   -35271.481      2492.34   -37763.821    14.755577 
   14850    131.03996   -1292.5187     136202.7   -35286.988    2486.9835   -37773.971    14.878083 
   14900    132.09725   -1116.8531    136204.96   -35265.747    2507.0497   -37772.796    14.936587 
   14950    133.08914   -1407.5986    136257.55   -35274.852    2525.8745   -37800.726    15.032566 
   15000    133.84528    -1294.536    136174.15   -35267.082    2540.2252   -37807.308    15.103872 
   15050    134.94709   -1071.2353    136221.51   -35236.017    2561.1362   -37797.154    15.090953 
   15100    132.24067   -1326.2013    136232.19   -35215.868    2509.7715    -37725.64    15.108125 
   15150    132.12654   -1273.4345    136317.51   -35182.368    2507.6054   -37689.974    15.134928 
   15200    134.66971   -1271.0934     136303.5   -35187.053    2555.8719   -37742.924    15.241598 
   15250    136.81314   -1240.3184    136215.21   -35161.409    2596.5517    -37757.96    15.329913 
   15300    135.13322   -1257.1733    136226.54   -35162.791    2564.6688    -37727.46    15.427798 
   15350    131.84905   -1050.0023    136276.89   -35238.885    2502.3392   -37741.224    15.406667 
   15400    132.34476   -1277.6386    136309.04   -35256.504    2511.7471   -37768.252    15.431583 
   15450    132.27951    -1050.713     136334.3   -35245.466    2510.5088   -37755.974      15.4518 
   15500    129.98205   -1189.7371    136410.44   -35226.046    2466.9056   -37692.952    15.483252 
   15550    133.96925   -1173.9969    136390.02   -35213.683     2542.578   -37756.261    15.542101 
   15600    134.34351   -1184.5123    136455.67   -35228.137    2549.6809   -37777.818    15.646329 
   15650    134.69056   -1110.1184     136449.7   -35160.237    2556.2676   -37716.505    15.697257 
   15700    136.62411   -975.73208    136457.97   -35146.632     2592.964   -37739.596    15.751049 
   15750    137.29835   -1159.0742    136483.56   -35183.953    2605.7603   -37789.713    15.824855 
   15800    132.85009    -917.3328    136448.86   -35180.766    2521.3376   -37702.103     15.87879 
   15850    134.35198   -1081.4805    136478.93   -35150.845    2549.8418   -37700.687    15.900481 
   15900    134.07379   -1142.7061    136485.55   -35220.949    2544.5621   -37765.512    15.959561 
   15950    133.16277   -1290.0847    136312.24   -35225.752    2527.2719   -37753.024    15.927108 
   16000    133.12989   -891.15003    136262.56   -35283.115    2526.6479   -37809.763    16.004811 
   16050    132.91908   -1015.8337    136271.15   -35291.734    2522.6469   -37814.381    16.090502 
   16100    132.72522   -1104.4149    136290.11    -35295.65    2518.9677   -37814.617    16.231191 
   16150    134.78619   -900.27144    136257.35   -35234.005    2558.0826   -37792.088    16.298241 
   16200    134.01236   -916.21288    136295.62   -35198.559    2543.3961   -37741.955    16.353477 
   16250    133.75193   -1058.7025    136337.98   -35220.418    2538.4535   -37758.872    16.374064 
   16300    134.34945   -1184.4073    136355.06   -35226.166    2549.7937    -37775.96    16.314929 
   16350    135.12205   -853.22398    136369.13   -35190.216    2564.4567   -37754.673    16.311366 
   16400    135.77067   -1160.6965    136419.51   -35219.336    2576.7667   -37796.102    16.344542 
   16450    134.93404   -1082.5533    136448.26    -35251.17    2560.8886   -37812.058    16.320974 
   16500    133.84103   -1128.7138    136410.13   -35281.869    2540.1445   -37822.013    16.325662 
   16550    132.60998   -1190.1874    136383.49   -35254.167    2516.7807   -37770.947    16.327405 
   16600    134.45476   -1086.0609    136412.47   -35235.777    2551.7924   -37787.569    16.327679 
   16650    133.06626   -1242.7465    136383.01   -35270.773    2525.4402   -37796.213    16.411668 
   16700    134.27201   -1176.6545    136353.12   -35265.192     2548.324   -37813.516    16.451064 
   16750    132.12965   -1088.4613    136318.81   -35275.938    2507.6646   -37783.602    16.435874 
   16800     137.2837   -1171.4344    136309.89   -35237.969    2605.4823   -37843.451    16.456215 
   16850    133.94181   -1106.2477    136298.09   -35203.818    2542.0573   -37745.875    16.502855 
   16900    132.40629   -1430.1827    136297.61   -35217.563    2512.9149   -37730.478    16.470078 
   16950    134.32175   -1223.5754    136208.62   -35245.038     2549.268   -37794.306    16.504437 
   17000    135.32006   -984.15656    136201.22   -35265.418    2568.2148   -37833.633    16.580681 
   17050     134.6105   -1027.9196    136188.04    -35254.68    2554.7481   -37809.428    16.731163 
   17100    132.67813   -1126.9794     136104.9   -35314.411    2518.0741   -37832.485    16.811671 
   17150    133.54123   -1257.2279    136015.71   -35302.405    2534.4546    -37836.86    16.859583 
   17200    134.21765   -1154.3092    135936.81   -35266.122    2547.2923   -37813.414    17.043808 
   17250    132.74421   -1321.9894    135903.75   -35310.028    2519.3281   -37829.357    17.044213 
   17300    131.60339   -1336.7639    135848.49   -35323.087    2497.6767   -37820.763    17.019102 
   17350    132.72516   -1175.4078    135780.75   -35301.376    2518.9667   -37820.343    16.979215 
   17400    133.86184   -1046.7695    135865.53   -35293.113    2540.5394   -37833.652    16.955738 
   17450     134.9266   -1043.7312    135908.22   -35231.042    2560.7474    -37791.79    16.962141 
   17500    134.39038    -1099.965    136005.74   -35255.343    2550.5704   -37805.913     16.96209 
   17550    135.28596   -1445.0619    135960.51   -35268.271    2567.5675   -37835.839     17.03086 
   17600    135.56632   -1229.2349     135893.5   -35248.798    2572.8884   -37821.686    17.062449 
   17650     133.3662   -1181.3766    135872.06   -35249.363    2531.1328   -37780.496    17.182944 
   17700    132.43922   -1268.2833    135881.99   -35291.393    2513.5398   -37804.933    17.273977 
   17750    133.50506   -1103.6173    135949.08   -35290.594    2533.7682   -37824.363    17.285116 
   17800    132.76052    -1178.782     135903.1    -35280.24    2519.6377   -37799.878    17.301884 
   17850     135.6616   -891.07209    135941.52    -35259.75    2574.6967   -37834.446    17.277351 
   17900    134.89658   -1122.6982    136034.75   -35229.573    2560.1776   -37789.751    17.309606 
   17950    135.95168   -1091.8747    136070.32   -35229.261    2580.2021   -37809.464    17.320233 
   18000    134.28577   -1364.0038    136029.59   -35258.408    2548.5851   -37806.993     17.37948 
   18050    134.42677   -1014.1736    136053.65   -35246.247    2551.2611   -37797.509    17.386713 
   18100    136.15639   -1188.8873     136117.6   -35280.994    2584.0873   -37865.081    17.362229 
   18150    131.52327   -1039.3796    136118.92   -35271.289    2496.1561   -37767.445    17.409601 
   18200     135.9076   -1110.5965    136165.06   -35279.137    2579.3655   -37858.502      17.4448 
   18250    131.78449   -1131.5223    136157.19   -35295.019    2501.1137   -37796.133    17.586127 
   18300    132.53254   -989.99268    136152.95   -35292.544     2515.311   -37807.855    17.699783 
   18350    133.61543   -1021.1843    136167.08   -35291.121    2535.8628   -37826.984    17.646472 
   18400     134.8115   -976.38705     136228.8   -35331.528    2558.5629   -37890.091    17.609664 
   18450    134.60823   -877.53931    136291.47   -35369.419     2554.705   -37924.124    17.683951 
   18500     131.4554    -1172.442    136257.43   -35366.686    2494.8681   -37861.554    17.840046 
   18550    131.43483   -1235.5507    136193.37   -35373.652    2494.4776    -37868.13    17.878716 
   18600     133.4562   -996.16108    136234.35   -35332.555     2532.841   -37865.396    17.885325 
   18650    133.17178    -942.4398    136324.57   -35401.531    2527.4429   -37928.974    17.918563 
   18700     134.0871   -1130.4107    136413.44   -35368.781    2544.8145   -37913.595     17.92138 
   18750    132.79478     -1021.83    136536.33   -35372.987     2520.288   -37893.275    17.939432 
   18800    132.48238   -1288.2555    136493.21    -35363.47    2514.3588   -37877.828     17.99656 
   18850    131.96906   -909.06598    136526.66   -35378.021    2504.6167   -37882.638     17.95644 
   18900    129.40336     -1211.95     136487.5   -35341.522    2455.9227   -37797.445    17.976027 
   18950    131.05192   -1002.7847    136503.81   -35376.234    2487.2104   -37863.445    18.011022 
   19000    133.70042   -1059.8815     136606.4   -35367.902    2537.4758   -37905.378    17.935199 
   19050    133.34544   -858.71901    136662.77   -35352.489    2530.7388   -37883.228    17.889434 
   19100    132.98102   -953.72946    136636.64   -35339.969    2523.8225   -37863.791    17.897973 
   19150    128.81843   -1164.2847    136591.51   -35320.959    2444.8215   -37765.781    18.002077 
   19200    132.34497   -1076.8784    136510.14   -35298.068    2511.7511   -37809.819     17.99913 
   19250    132.12466   -926.92362    136543.62   -35340.848    2507.5698   -37848.418      17.9688 
   19300    130.41281   -1120.7898    136571.77   -35335.273    2475.0809   -37810.354    18.048025 
   19350    132.88326   -1171.0112    136568.34   -35316.921    2521.9672   -37838.889    18.115496 
   19400    133.19418    -1209.663    136500.42   -35279.454    2527.8681   -37807.322    18.168347 
   19450    132.16829   -1183.3718    136413.33   -35283.939     2508.398   -37792.336    18.213162 
   19500    135.28064   -998.32627    136432.63   -35249.274    2567.4666   -37816.741    18.210096 
   19550      133.541   -895.57065     136482.2   -35254.515    2534.4503   -37788.965    18.162096 
   19600    136.99121   -1122.5121    136521.82   -35292.149    2599.9312    -37892.08    18.219052 
   19650    134.22037   -1335.8991    136501.75   -35279.113    2547.3439   -37826.457    18.256605 
   19700    136.50022   -1194.1829    136559.38   -35282.681    2590.6127   -37873.293    18.302356 
   19750    135.64245   -1065.8368    136580.13   -35247.824    2574.3334   -37822.158    18.262864 
   19800    136.57044   -1143.6417    136643.63   -35238.524    2591.9454    -37830.47    18.341959 
   19850    134.64715   -1101.4161    136694.94   -35266.278    2555.4438   -37821.722    18.337175 
   19900    134.45058   -1207.6208    136754.95   -35233.845     2551.713   -37785.558    18.345179 
   19950    135.11678   -1157.6135    136782.41   -35267.436    2564.3567   -37831.793    18.387093 
   20000     132.7677   -1251.3649    136757.09   -35320.981    2519.7741   -37840.755    18.408195 
   20050    132.49499   -1105.7756    136811.75   -35310.055    2514.5982   -37824.653    18.419649 
   20100    134.76746   -1236.2483    136819.33   -35319.174    2557.7271   -37876.901    18.457701 
   20150    133.94869   -1051.6954    136802.73   -35323.233    2542.1877   -37865.421    18.543394 
   20200    133.33035   -1317.6926    136776.22   -35292.328    2530.4523   -37822.781    18.640733 
   20250    132.12095   -1474.4905       136700   -35307.797    2507.4993   -37815.297    18.824487 
   20300    132.51666   -1133.5951    136679.94    -35330.95    2515.0095    -37845.96    18.818217 
   20350    130.73001   -1056.6999    136690.86   -35338.182     2481.101   -37819.283    18.750482 
   20400    134.50539   -1201.7438    136707.11   -35313.344    2552.7532   -37866.098    18.835598 
   20450    133.24697   -1109.6619    136730.42   -35252.097    2528.8699   -37780.967    18.861827 
   20500     135.4291   -1264.3414    136704.44   -35236.016    2570.2841   -37806.301    18.905523 
   20550    136.67964   -972.13589    136713.23   -35217.365     2594.018   -37811.383    18.847263 
   20600    134.84852   -1197.7624    136709.85   -35217.771    2559.2654   -37777.036    18.830059 
   20650    130.97296   -1113.3694    136736.08   -35253.262     2485.712   -37738.974    18.804446 
   20700    134.73759    -1169.728     136730.3   -35245.504    2557.1601   -37802.664    18.893072 
   20750    133.82002   -1138.1102    136697.34   -35256.572    2539.7457   -37796.318    18.923855 
   20800    133.89022   -1269.9505    136713.08   -35250.076     2541.078   -37791.154    18.941354 
   20850    133.67808   -816.78969    136726.99   -35265.312    2537.0519   -37802.364    18.944715 
   20900    134.52348   -900.01723    136714.34   -35264.699    2553.0966   -37817.795     18.96497 
   20950    134.02737    -1159.287    136743.49   -35333.916    2543.6809   -37877.597    19.020532 
   21000    133.23955   -1226.9865    136716.25     -35348.9    2528.7291   -37877.629    19.148294 
   21050    132.12094   -1408.5751    136729.72   -35347.867    2507.4992   -37855.366     19.20785 
   21100    132.80317   -1320.8744    136675.92   -35347.718    2520.4471   -37868.165    19.270218 
   21150    133.61489   -1242.2005    136698.11   -35313.557    2535.8527    -37849.41    19.321684 
   21200    137.68753   -1261.8689    136723.03   -35285.425    2613.1466   -37898.572    19.325898 
   21250    134.85069   -1123.2877    136704.73   -35292.724    2559.3067   -37852.031    19.320506 
   21300    133.83911   -1039.2719    136711.95   -35291.995     2540.108   -37832.103    19.262612 
   21350    134.61608   -1030.5858    136718.25   -35287.233     2554.854   -37842.087     19.28141 
   21400    135.90666   -1292.6352    136752.18   -35278.102    2579.3477    -37857.45    19.302664 
   21450     131.3707     -1169.02    136738.49    -35356.05    2493.2605    -37849.31    19.255349 
   21500     132.5547   -1228.1523    136681.11   -35363.253    2515.7315   -37878.985    19.257723 
   21550    133.41727   -1060.8674    136711.28   -35361.392     2532.102   -37893.494    19.307167 
   21600    134.46052   -1002.4249    136676.55   -35336.258    2551.9016    -37888.16    19.409468 
   21650    131.38141   -1269.1237    136660.73   -35357.464    2493.4638   -37850.928    19.429715 
   21700    132.93942   -1161.9173    136645.02   -35355.351     2523.033   -37878.384    19.443251 
   21750    130.35965   -1165.9782    136638.75   -35377.692     2474.072   -37851.764    19.469909 
   21800     131.2165   -1199.4563    136677.07   -35434.577     2490.334   -37924.911    19.543324 
   21850    131.67447   -1312.8047     136687.3   -35374.736    2499.0258   -37873.761    19.553368 
   21900    129.88543   -883.13041    136659.76   -35403.605    2465.0719   -37868.677    19.510731 
   21950     132.8331   -1049.9885    136697.42   -35345.248    2521.0152   -37866.263    19.531596 
   22000    130.79437   -1005.3434    136759.53   -35408.218    2482.3226    -37890.54    19.547466 
   22050    132.31216   -1278.0112    136766.71   -35373.781    2511.1284   -37884.909    19.650209 
   22100    133.98288   -1316.5039    136733.24    -35386.74    2542.8367   -37929.577    19.718439 
   22150    131.50311   -1576.8086    136620.14   -35346.272    2495.7736   -37842.046     19.79167 
   22200    131.62161   -1408.7981    136504.68    -35364.72    2498.0224   -37862.742    19.804438 
   22250    131.19781   -1078.2346    136496.44   -35383.232    2489.9793   -37873.211    19.715451 
   22300    130.25353    -1229.052    136477.72   -35411.965    2472.0579   -37884.023    19.703218 
   22350     134.7983   -1237.9894    136429.85   -35360.765    2558.3123   -37919.078    19.740869 
   22400    129.92066   -984.33905    136419.52    -35372.33    2465.7404   -37838.071     19.77508 
   22450    132.29578   -1130.9381    136439.72   -35396.524    2510.8174   -37907.341    19.849908 
   22500    130.15077   -1086.4647    136438.85   -35341.468    2470.1077   -37811.576    19.843403 
   22550    133.21225   -1171.2202    136560.94   -35361.203    2528.2109   -37889.414    19.921253 
   22600    131.89522   -1293.5546    136502.75    -35388.82    2503.2154   -37892.036    19.993437 
   22650    133.32608   -1178.7438    136463.13   -35393.073    2530.3713   -37923.444     20.08174 
   22700    131.88934    -1102.816    136474.87   -35413.949    2503.1037   -37917.053    20.052396 
   22750    132.29293   -1171.3376    136523.96   -35377.395    2510.7635   -37888.158     19.94968 
   22800    133.20574   -1062.3553    136551.38   -35367.903    2528.0874    -37895.99    20.011196 
   22850    133.00411   -1287.9604    136468.87   -35318.811    2524.2608   -37843.072    20.018593 
   22900    132.93973   -1196.7353    136464.14   -35327.467    2523.0388   -37850.506    20.039532 
   22950    132.22219   -1380.4262    136471.12   -35312.905    2509.4207   -37822.326    19.985973 
   23000    136.51548   -1374.8617    136354.79   -35249.069    2590.9024   -37839.972    20.017612 
   23050     133.8958   -1208.4846    136349.99   -35310.673    2541.1839   -37851.857    20.013276 
   23100    135.50685   -1150.6968    136354.69   -35296.089    2571.7599   -37867.849    20.107306 
   23150    132.25961   -1310.5985    136316.41   -35296.874     2510.131   -37807.005    20.214157 
   23200    133.12159   -1444.3903    136160.27   -35326.774    2526.4904   -37853.264    20.334203 
   23250    130.47097   -1129.4927    136137.45   -35294.736    2476.1847   -37770.921     20.35875 
   23300     134.4029   -1152.7328    136172.01   -35290.312    2550.8081    -37841.12    20.480115 
   23350    133.14068   -1237.4937     136017.4   -35255.145    2526.8527   -37781.998    20.597202 
   23400    135.91695   -1225.2492       136025     -35272.5     2579.543   -37852.043    20.514958 
   23450    128.14485   -1248.9089    135982.95   -35316.801    2432.0378   -37748.839    20.536757 
   23500    134.01123    -1180.807    135958.37   -35282.327    2543.3747   -37825.702    20.606787 
   23550    135.90728   -1179.0043    136033.72   -35280.472    2579.3596   -37859.831    20.715209 
   23600    130.64917   -1315.1029    136126.86   -35326.088    2479.5667   -37805.655    20.844097 
   23650    132.58722   -1289.7902    136212.49   -35311.959    2516.3486   -37828.308    20.892752 
   23700    130.98511   -1274.7148    136190.06   -35303.322    2485.9426   -37789.265    20.840133 
   23750    132.51414   -1022.6838    136278.06   -35336.712    2514.9617   -37851.674    20.775971 
   23800    134.67986   -1033.5587    136299.79   -35313.716    2556.0644    -37869.78    20.776096 
   23850    132.85098   -1196.9584    136337.31   -35297.676    2521.3546    -37819.03      20.8105 
   23900    132.12839   -1192.3366    136251.29   -35291.027    2507.6407   -37798.668    20.825541 
   23950    134.75431   -1136.8281    136231.07   -35283.918    2557.4775   -37841.395    20.858217 
   24000    133.42341    -1121.417    136321.98   -35303.601    2532.2186    -37835.82    20.864305 
   24050    133.63468   -1119.9007    136414.54   -35266.766    2536.2282   -37802.995    20.894891 
   24100    135.80142    -1114.441    136498.34   -35261.903    2577.3503   -37839.253     20.89918 
   24150    132.08488    -985.8478    136584.68   -35256.793    2506.8148   -37763.607    20.926431 
   24200    134.89816   -1078.4201    136634.54    -35280.87    2560.2076   -37841.078    20.953697 
   24250    133.19044   -1240.4501    136666.89   -35300.966    2527.7971   -37828.763    21.049211 
   24300    130.50403   -1225.5146    136620.31    -35348.86    2476.8121   -37825.672    21.186767 
   24350    130.95448   -1306.4303    136498.53   -35369.429    2485.3611    -37854.79    21.210976 
   24400    131.65986    -962.9535    136419.34   -35369.893    2498.7485   -37868.642    21.142397 
   24450    134.78209   -738.62624    136479.29   -35338.623    2558.0048   -37896.627    21.191908 
   24500    132.61358   -956.69045    136488.44   -35401.096     2516.849   -37917.945    21.151011 
   24550     130.8849   -1039.0314    136549.91   -35442.955    2484.0407   -37926.996    21.020751 
   24600    132.15729   -1181.8497    136553.47   -35461.012    2508.1892   -37969.201    21.211963 
   24650    133.22992   -1100.0042    136612.99   -35450.531    2528.5464   -37979.078    21.255075 
   24700    132.14299   -1110.1508    136587.87   -35455.605    2507.9176   -37963.522    21.150488 
   24750     128.7044   -1177.2794    136636.11   -35470.644    2442.6574   -37913.302    21.091629 
   24800    131.71235   -966.15986    136680.44   -35437.564    2499.7446   -37937.309    21.101928 
   24850    130.04736   -1027.2095    136752.19   -35419.176    2468.1451   -37887.321    21.105445 
   24900     132.8902   -984.48002    136810.87   -35428.679     2522.099   -37950.778    21.188358 
   24950    132.52642   -1200.0552    136835.09   -35458.803    2515.1948   -37973.998    21.249332 
   25000    131.98259   -1098.9725    136850.67   -35458.151    2504.8736   -37963.024    21.353351 
   25050    131.93889   -1258.4754    136880.87   -35444.058    2504.0441   -37948.102    21.301955 
   25100    131.46798   -1370.2523    136864.51   -35464.044    2495.1069   -37959.151     21.33553 
   25150    133.29944   -1124.6355     136870.5   -35404.868    2529.8657   -37934.734    21.344844 
   25200    133.25433    -1232.035    136860.12   -35341.865    2529.0096   -37870.874    21.415908 
   25250    134.28744   -1192.7616    136918.91   -35344.508    2548.6169   -37893.125    21.462701 
   25300    135.56935   -1305.5823    136925.02   -35348.761     2572.946   -37921.707    21.504977 
   25350    133.41928   -1245.5078    136916.65   -35362.051    2532.1402   -37894.191    21.529576 
   25400    133.43724   -1189.0637    136876.93   -35356.884     2532.481   -37889.365    21.630275 
   25450    135.17602   -1428.3738    136830.54   -35371.889    2565.4811    -37937.37    21.600969 
   25500    135.38497   -961.11474    136882.64   -35343.469    2569.4467   -37912.916    21.679637 
   25550    131.75543   -981.57141    136884.53   -35404.572    2500.5622   -37905.135    21.808774 
   25600    131.60412   -1143.6552    136905.01   -35414.047    2497.6905   -37911.738    21.872622 
   25650     134.6987   -1237.7619    136889.38   -35384.381    2556.4221   -37940.803    21.875395 
   25700    131.00989   -1174.0726    136864.22   -35352.488    2486.4128   -37838.901    21.962164 
   25750    134.98471   -1285.6461    136799.57    -35354.98    2561.8501   -37916.831     21.98963 
   25800    135.35394   -1001.2902    136864.21   -35411.099    2568.8577   -37979.956    22.017833 
   25850    133.93023   -1212.0059    136862.22   -35391.934    2541.8375   -37933.771    22.084051 
   25900    133.39025   -1166.2568    136766.58   -35424.606    2531.5893   -37956.195    22.092186 
   25950    131.09435   -1273.4785     136672.8   -35433.725    2488.0158   -37921.741    22.205116 
   26000    131.65086   -1060.6069       136648   -35458.308    2498.5777   -37956.886     22.21846 
   26050    133.22294   -1215.6599    136643.32   -35483.118    2528.4139   -38011.532    22.263824 
   26100    131.90203    -1133.828    136663.51    -35476.46    2503.3445   -37979.805    22.309933 
   26150    133.43727   -1107.9099    136721.12   -35440.911    2532.4815   -37973.393     22.32371 
   26200    130.66157   -1192.8341    136660.78   -35459.667     2479.802   -37939.469    22.387494 
   26250    130.40945    -1166.057    136561.68   -35435.455    2475.0173   -37910.472    22.448785 
   26300    133.00483   -1145.0878    136570.65   -35424.405    2524.2743    -37948.68    22.468041 
   26350     131.5962   -948.62976    136588.38   -35444.485    2497.5402   -37942.025    22.500629 
   26400    131.46024   -986.50161       136647   -35428.845    2494.9599   -37923.805     22.54107 
   26450    129.96551   -1080.8055    136705.39   -35469.469    2466.5917    -37936.06    22.556155 
   26500    132.98756   -1163.2356    136737.85   -35476.184    2523.9466   -38000.131    22.544139 
   26550    133.00667   -1167.3719    136775.33     -35414.7    2524.3094   -37939.009    22.643905 
   26600    134.41217   -1092.6145    136800.45   -35377.146     2550.984    -37928.13    22.672533 
   26650    132.88595   -1117.1209    136849.84   -35411.479    2522.0183   -37933.498    22.688154 
   26700    131.87125   -1303.3605     136849.3   -35327.503    2502.7603   -37830.264    22.728965 
   26750    133.31415   -1183.4784    136889.49   -35310.433    2530.1448   -37840.578    22.708142 
   26800    134.26822   -1302.8089    136886.87   -35354.328    2548.2521   -37902.581    22.661063 
   26850    129.92971   -994.30676    136986.44   -35348.378    2465.9123    -37814.29    22.636785 
   26900    129.37332   -1382.6752    137039.78   -35351.497    2455.3527    -37806.85    22.678317 
   26950    133.04015   -1181.8621    136982.33   -35322.013    2524.9448   -37846.958    22.629881 
   27000    135.98504   -1273.3121    137021.59   -35263.903    2580.8352   -37844.739    22.695111 
   27050    133.95785   -1292.1936    136986.14   -35302.541    2542.3616   -37844.903    22.720373 
   27100    133.18491    -1202.335    136938.41    -35297.69     2527.692   -37825.382    22.703053 
   27150    132.15326   -1362.3947    136950.47   -35364.886    2508.1126   -37872.999    22.699883 
   27200    132.76647   -1185.5933    136910.62   -35397.791    2519.7506   -37917.541    22.748306 
   27250    130.30508   -1410.6774    136795.14   -35439.083    2473.0363   -37912.119    22.927334 
   27300    128.83164   -1047.9508    136752.19   -35436.797    2445.0722   -37881.869    22.893048 
   27350    131.44852    -981.4702    136814.94   -35435.547    2494.7374   -37930.284    22.745352 
   27400    131.27577   -1020.6746    136883.72   -35389.431     2491.459    -37880.89    22.673962 
   27450    131.61479   -1416.3286    136850.54   -35406.027    2497.8931    -37903.92    22.819079 
   27500    132.41101   -1229.0444     136763.2   -35400.663    2513.0045   -37913.668    22.972997 
   27550    130.78285   -1117.2343    136723.35   -35346.383    2482.1038   -37828.486    22.986875 
   27600     132.1899   -1188.2754    136672.05   -35378.449    2508.8081   -37887.257    23.076913 
   27650    131.16405   -1184.2387     136658.6   -35358.483    2489.3385   -37847.821    23.200076 
   27700    133.46452   -1132.0537    136634.58   -35355.492    2532.9988   -37888.491    23.241362 
   27750    131.18086   -1176.5134    136589.33   -35393.465    2489.6575   -37883.122    23.329497 
   27800    132.60258   -1319.1975    136599.68   -35421.465    2516.6402   -37938.105    23.295557 
   27850    130.53525   -1313.0354    136547.55   -35435.854    2477.4048   -37913.259    23.329091 
   27900     131.1948   -1192.9976    136575.02   -35480.388    2489.9222    -37970.31    23.350336 
   27950    128.07917   -1215.7901    136543.22    -35489.56    2430.7912   -37920.351    23.406971 
   28000    128.05143   -1216.2456    136492.88   -35491.462    2430.2647   -37921.727    23.331852 
   28050    131.57571    -1117.931    136404.95   -35461.261    2497.1513   -37958.412    23.320042 
   28100    133.26596   -1104.2225    136341.69   -35447.688    2529.2303   -37976.918    23.383704 
   28150    131.27953   -1073.4754    136342.28   -35411.594    2491.5303   -37903.124    23.486211 
   28200    132.28248   -1269.4667    136316.84   -35357.909    2510.5651   -37868.474    23.590729 
   28250    133.60492   -1241.5679    136311.21   -35354.385    2535.6634   -37890.048     23.62035 
   28300    130.98118   -1288.1321    136326.52   -35375.482    2485.8679    -37861.35    23.692891 
   28350    133.38909   -959.02523    136358.22   -35357.867    2531.5671   -37889.434    23.673807 
   28400    131.80068   -1018.8341    136519.21   -35325.481    2501.4211   -37826.902    23.691698 
   28450    133.21843    -1234.548    136570.94   -35312.226    2528.3282   -37840.554    23.726272 
   28500    137.03019   -1106.6149    136547.05   -35280.128    2600.6709   -37880.799    23.755122 
   28550    137.01317   -1076.1037    136611.64   -35246.021    2600.3479   -37846.368    23.771946 
   28600     134.3396   -1157.2428    136597.38   -35210.282    2549.6068   -37759.889    23.707459 
   28650    133.96338   -1272.0108    136559.24   -35234.103    2542.4665   -37776.569    23.744426 
   28700    134.14435   -1144.7461    136523.98   -35270.553    2545.9012   -37816.455    23.830445 
   28750    133.54285   -1324.9755    136549.02   -35303.543    2534.4854   -37838.029    23.858562 
   28800    134.69679   -1266.3737    136559.38   -35297.903    2556.3857   -37854.289    23.757025 
   28850     132.9268   -1114.2026    136533.93   -35271.461    2522.7935   -37794.255    23.806399 
   28900    132.80304   -1349.6575    136594.62   -35269.475    2520.4446   -37789.919     23.80421 
   28950    134.50598   -1183.2525    136501.08   -35242.703    2552.7644   -37795.467     23.86981 
   29000     136.5732   -1125.3056    136525.64    -35241.07    2591.9979   -37833.068    23.907071 
   29050    133.36224   -1308.5993    136392.77   -35324.913    2531.0577   -37855.971    23.876093 
   29100    133.59163   -1114.2223    136391.25   -35335.619    2535.4112   -37871.031    23.957764 
   29150    135.68128   -960.26471    136437.96   -35302.462    2575.0703   -37877.533    23.981581 
   29200    133.49237   -1123.5153    136472.96   -35282.382    2533.5273   -37815.909    24.090831 
   29250    134.57771   -1034.1049    136405.54   -35246.154    2554.1259    -37800.28    24.207943 
   29300    133.04964   -1208.2928    136396.31   -35272.979    2525.1248   -37798.104    24.200544 
   29350     134.7576   -981.06199    136416.49    -35232.41    2557.5398   -37789.949    24.277399 
   29400    133.51032   -975.69455    136425.77   -35254.934    2533.8681   -37788.802    24.327488 
   29450    132.39249   -1001.1815    136462.75   -35289.732     2512.653   -37802.385    24.303767 
   29500      130.953    -1277.765    136466.99   -35295.027     2485.333    -37780.36     24.26843 
   29550    134.58255   -1256.3085    136447.61   -35288.842    2554.2177    -37843.06    24.327238 
   29600    133.59791   -1102.8605     136461.1   -35282.625    2535.5303   -37818.155    24.334406 
   29650    133.11529   -1022.8809    136481.52   -35260.661    2526.3707   -37787.032    24.432818 
   29700    133.57283   -992.67217    136497.75    -35244.07    2535.0544   -37779.124    24.508955 
   29750    128.45954   -1070.5326    136502.42   -35329.857    2438.0103   -37767.868    24.588883 
   29800    129.42744   -954.56575    136513.94    -35376.27    2456.3798    -37832.65    24.661492 
   29850    127.79728   -1038.5011    136517.93   -35374.652    2425.4412   -37800.093    24.768831 
   29900    131.93619   -1242.3923    136502.95   -35360.266    2503.9929   -37864.259    24.746178 
   29950     131.7643   -978.14299    136552.45   -35352.699    2500.7306   -37853.429    24.719059 
   30000    131.94963   -1161.7762    136587.11   -35325.048    2504.2479   -37829.295    24.899614 
   30050    137.26771    -1144.978    136527.19   -35264.771    2605.1788    -37869.95    25.075094 
   30100    134.50176   -1199.8532    136592.96   -35241.059    2552.6843   -37793.743    25.095522 
   30150    134.29385    -1092.388    136617.86   -35250.301    2548.7386    -37799.04    25.029348 
   30200    134.77315   -1011.7056    136675.23   -35213.438     2557.835   -37771.273    25.022002 
   30250    138.06759   -1171.4198    136660.43   -35196.649    2620.3596   -37817.009     25.05304 
   30300    133.25764   -1149.2098     136609.1   -35209.303    2529.0725   -37738.376    25.044106 
   30350    137.25809   -1183.4381    136685.11   -35197.466    2604.9963   -37802.462     25.14023 
   30400    131.65822   -1263.2635    136614.11   -35189.078    2498.7174   -37687.796    25.304045 
   30450     135.5442   -1160.9998    136620.54   -35180.787    2572.4687   -37753.256    25.359021 
   30500    132.79399   -1249.1444    136599.61   -35182.478     2520.273   -37702.751    25.479688 
   30550     134.0414   -1018.2947    136606.09   -35166.665    2543.9473   -37710.612    25.507381 
   30600     135.7531   -1154.8257    136660.26   -35212.844    2576.4333   -37789.277    25.479679 
   30650    136.55639   -1067.3804    136638.04   -35182.976    2591.6787   -37774.654    25.425008 
   30700    136.09593   -1053.8187    136604.64   -35201.923    2582.9398   -37784.863    25.593183 
   30750    132.26192   -1192.1707    136634.57   -35270.348    2510.1748   -37780.523    25.651734 
   30800    133.06862    -1259.468    136609.11   -35291.207    2525.4851   -37816.692    25.709857 
   30850    132.88017   -1090.6086    136562.08   -35261.386    2521.9084   -37783.295    25.743748 
   30900    135.68288   -1269.7955    136514.04   -35204.799    2575.1007     -37779.9    25.731166 
   30950    133.75567   -1061.0965    136465.92   -35190.751    2538.5245   -37729.276    25.774288 
   31000    133.41061   -1233.5641    136476.72   -35226.302    2531.9756   -37758.277    25.796904 
   31050    133.73231   -1010.3177    136508.56   -35204.601    2538.0811   -37742.682    25.780063 
   31100    134.10925   -1117.6096    136626.52    -35176.36    2545.2351   -37721.595    25.890451 
   31150    139.55023   -1144.3209    136606.94   -35140.052    2648.4983   -37788.551    25.879539 
   31200    135.85792    -1332.856    136580.62   -35160.936    2578.4227   -37739.358    25.847378 
   31250    134.27762   -1342.3147    136493.08   -35187.946    2548.4304   -37736.377    25.934709 
   31300    132.43951   -1126.0267    136537.59   -35235.409    2513.5453   -37748.954    25.977578 
   31350    133.65189   -1251.2487    136565.23    -35233.03    2536.5548   -37769.585    26.088444 
   31400    134.62873   -951.08075    136530.05    -35234.93    2555.0942   -37790.024    26.184621 
   31450    131.66695   -1080.0496    136534.95   -35223.597     2498.883    -37722.48    26.155656 
   31500    133.75771   -1167.4324    136584.27   -35252.703    2538.5632   -37791.266    26.126233 
   31550    133.75847   -1101.4663    136584.31   -35248.019    2538.5776   -37786.597    26.117615 
   31600    131.85134   -1214.6065    136581.13   -35270.928    2502.3826    -37773.31    26.220576 
   31650    130.41439   -1179.3629     136526.7    -35269.79     2475.111   -37744.901    26.261106 
   31700    131.41522   -1092.0533    136515.51    -35290.16    2494.1055   -37784.265    26.388974 
   31750    132.64922   -982.45552    136527.64   -35258.715    2517.5253    -37776.24    26.384194 
   31800    131.01502   -1090.3087    136535.31   -35299.501    2486.5102   -37786.011    26.401106 
   31850    132.06287   -978.91841    136572.86    -35343.66    2506.3971   -37850.057    26.528916 
   31900    133.41302   -1024.4394    136608.47   -35325.841    2532.0213   -37857.863    26.523649 
   31950    133.39751   -938.32831    136652.89   -35262.516    2531.7271   -37794.243     26.52424 
   32000     133.3567   -1238.7357     136674.2   -35316.986    2530.9525   -37847.939    26.512063 
   32050    131.62025   -955.78929     136646.3   -35324.957    2497.9968   -37822.953    26.493513 
   32100    132.05071   -1140.3621    136721.22   -35344.411    2506.1664   -37850.578    26.572383 
   32150    132.24846   -1329.6107    136720.61   -35334.722    2509.9194   -37844.641    26.499798 
   32200    131.09188   -1051.5304    136730.72   -35306.718    2487.9688   -37794.687    26.555369 
   32250    132.13237    -1176.638    136698.58   -35293.368    2507.7161   -37801.084    26.541257 
   32300    133.41779   -1370.9862    136663.75   -35279.233    2532.1119   -37811.345    26.596924 
   32350    131.93796   -1272.4364    136653.74   -35269.264    2504.0265    -37773.29    26.543672 
   32400    134.86687   -1068.1182    136697.33    -35287.76    2559.6137   -37847.374    26.664667 
   32450    132.87724   -1031.8261    136721.84   -35293.281     2521.853   -37815.134    26.679659 
   32500     133.8056   -1209.6598    136697.67   -35282.197    2539.4721   -37821.669    26.693316 
   32550    134.25226   -920.14194    136721.38   -35263.067    2547.9492   -37811.016    26.733292 
   32600    131.29413   -1139.4419    136734.63   -35257.767    2491.8073   -37749.574    26.742383 
   32650    135.04455   -936.87406    136723.33   -35252.145    2562.9858   -37815.131    26.753111 
   32700    134.53761   -1156.8658    136753.48   -35263.911    2553.3648   -37817.276    26.721776 
   32750    132.70147   -866.14575    136713.97   -35322.006     2518.517   -37840.523    26.756207 
   32800    133.79153   -1167.9601    136725.54   -35255.865     2539.205    -37795.07    26.797682 
   32850    132.86848   -877.76312    136775.96   -35273.469    2521.6866   -37795.155    26.859384 
   32900    131.41353   -1139.1109    136811.72   -35286.493    2494.0734   -37780.566    26.785065 
   32950    132.10138   -1032.2212    136797.64    -35299.42    2507.1279   -37806.548    26.779467 
   33000    134.44478   -1093.6815    136742.25   -35340.668    2551.6029   -37892.271    26.900333 
   33050     130.4191   -1267.8004    136646.27   -35332.913    2475.2003   -37808.114    26.998437 
   33100     132.4312   -1019.5201    136680.72   -35351.525    2513.3876   -37864.913    27.033722 
   33150     134.5597   -1065.1215    136683.05   -35309.639    2553.7841   -37863.423    27.020223 
   33200    132.23742    -973.8067    136683.62   -35350.775    2509.7098   -37860.485    27.092927 
   33250     132.6501   -1052.6653    136750.26   -35282.305    2517.5421   -37799.847    27.142653 
   33300    132.58138   -1099.9744    136794.42   -35335.541    2516.2379   -37851.779    27.132186 
   33350    132.47047   -1280.4149    136799.04    -35345.01    2514.1328   -37859.142    27.241422 
   33400    132.63786    -1171.363    136761.71    -35332.71    2517.3098    -37850.02    27.337694 
   33450    132.73492   -1075.4156    136767.56   -35331.318    2519.1518    -37850.47    27.341477 
   33500    131.79792   -1084.8326    136727.69   -35350.061    2501.3687    -37851.43    27.371502 
   33550    133.50408   -976.67759    136755.82    -35322.72    2533.7495    -37856.47    27.308922 
   33600    133.76622   -1032.6389    136775.48   -35308.931    2538.7247   -37847.655    27.346125 
   33650    133.26365   -1213.5948    136805.13   -35305.909    2529.1865   -37835.095    27.378918 
   33700    132.96295   -1098.9994    136758.43   -35397.082    2523.4797   -37920.562    27.451768 
   33750    130.04178   -1140.5265    136764.19   -35450.774    2468.0393   -37918.813    27.496138 
   33800    128.06329   -1136.7231    136738.15   -35506.724    2430.4899   -37937.214    27.607763 
   33850    128.37951   -1207.8093    136744.19   -35459.336    2436.4913   -37895.827    27.725802 
   33900    130.29061   -1225.6725    136613.27   -35418.328    2472.7616    -37891.09    27.784772 
   33950    131.57475   -1049.1785    136607.64   -35391.238    2497.1332   -37888.371    27.857793 
   34000    131.64301   -1051.7873    136580.84   -35343.605    2498.4286   -37842.033    27.853928 
   34050    131.25951   -1023.4508    136571.17    -35306.27    2491.1504    -37797.42    27.885382 
   34100    130.02517   -1020.7727    136580.35   -35307.922     2467.724   -37775.646    27.910604 
   34150    130.78626   -1210.0133    136675.65   -35296.515    2482.1686   -37778.684    28.009638 
   34200     131.3977    -1273.681    136645.62   -35317.448     2493.773   -37811.221     28.01081 
   34250    129.81967    -1223.185    136620.48   -35342.915    2463.8238   -37806.738    27.978128 
   34300    131.80833   -1242.3408    136594.19   -35345.452    2501.5663   -37847.018    27.988027 
   34350    130.44177   -1303.1588    136516.97   -35344.139    2475.6306    -37819.77    28.021503 
   34400    132.72156   -1230.8554    136438.59   -35329.711    2518.8983    -37848.61    28.001566 
   34450    131.76845   -1325.7718    136309.64   -35394.904    2500.8094   -37895.713     27.97998 
   34500    130.97233   -1153.3922    136282.93   -35400.551    2485.6999   -37886.251    28.119044 
   34550    131.25337   -1020.7999    136342.42   -35342.726    2491.0338    -37833.76    28.252129 
   34600    132.89882    -1075.159    136331.21   -35360.614    2522.2625   -37882.877    28.188686 
   34650    135.13825    -1087.348    136339.83   -35371.446    2564.7642    -37936.21    28.129609 
   34700    130.25339   -1095.4382    136379.05   -35372.903    2472.0554   -37844.958    28.238871 
   34750    130.78749   -1061.9995       136357    -35410.67    2482.1919   -37892.861    28.225292 
   34800    129.39479   -1137.4859    136434.55   -35408.071    2455.7602   -37863.831    28.226056 
   34850    132.78446   -1235.9655    136437.37   -35403.615     2520.092   -37923.707    28.322656 
   34900    131.85907   -1138.1295     136405.4   -35360.218    2502.5292   -37862.747    28.402737 
   34950    131.35941   -928.48307    136421.04   -35404.585    2493.0462   -37897.631    28.420078 
   35000    132.32363   -1149.6517    136484.11   -35409.128    2511.3461   -37920.474     28.48459 
   35050    132.74355   -1003.9078    136495.07   -35355.221    2519.3156   -37874.537    28.555802 
   35100    131.81281   -956.11753    136496.37   -35375.499    2501.6513    -37877.15    28.658813 
   35150    132.61507   -1012.8843     136505.7   -35351.843    2516.8773   -37868.721    28.712596 
   35200    131.99272   -903.99006    136515.31   -35332.208    2505.0658   -37837.274    28.654747 
   35250    133.11261   -1330.5952     136529.8   -35350.338      2526.32   -37876.658    28.630246 
   35300    129.95267   -1278.0925    136541.77    -35384.91    2466.3481   -37851.258    28.652121 
   35350    132.44703   -967.64636    136582.24   -35422.271     2513.688   -37935.959    28.555948 
   35400     132.4677   -971.34687    136633.43   -35411.775    2514.0803   -37925.855    28.631576 
   35450    132.91663    -1206.865    136711.71   -35372.878    2522.6005   -37895.478    28.662479 
   35500    132.34762   -1212.9708    136673.56   -35421.106    2511.8013   -37932.907    28.765313 
   35550     133.9459   -1275.5494    136618.16   -35354.965    2542.1348   -37897.099     28.77627 
   35600     132.6965   -1250.8393    136517.79   -35364.464    2518.4227   -37882.887    28.795118 
   35650    130.73642   -1176.2157    136467.42   -35380.246    2481.2226   -37861.469    28.829404 
   35700    133.72494   -1000.5939    136496.63   -35379.362    2537.9412   -37917.303    28.871403 
   35750    130.83571   -1170.1208    136498.47   -35365.463     2483.107    -37848.57    28.958565 
   35800    133.60675   -1085.1389    136509.43   -35337.353    2535.6981   -37873.051    29.126121 
   35850    133.89246   -1114.6854    136496.93    -35344.54    2541.1205   -37885.661    29.113237 
   35900    132.10081   -1247.9318    136443.55   -35308.903    2507.1172    -37816.02    29.001659 
   35950    133.30349   -1232.7054    136400.84   -35363.743    2529.9426   -37893.685    29.055446 
   36000    133.52601   -1066.4589    136475.86   -35344.714    2534.1658    -37878.88    29.129966 
   36050    133.44618   -1026.3172    136554.24   -35353.572    2532.6507   -37886.223    29.130609 
   36100    135.34658   -1093.4051    136654.38   -35362.852    2568.7181    -37931.57    29.177337 
   36150    132.89783    -1171.716    136683.13   -35386.686    2522.2437   -37908.929    29.272281 
   36200    131.41116   -1059.8734    136652.42   -35387.373    2494.0284   -37881.401    29.257697 
   36250    132.50876   -1068.4576    136655.04   -35438.084    2514.8596   -37952.943    29.208776 
   36300    134.62894   -1004.5106    136634.33   -35366.424    2555.0981   -37921.522    29.144378 
   36350    133.02162   -849.12075    136738.49   -35338.176    2524.5931   -37862.769    29.149301 
   36400    132.25522   -1055.5014    136773.53   -35377.863    2510.0476   -37887.911    29.176866 
   36450    132.77518   -1044.0764    136789.72   -35342.578    2519.9159   -37862.494    29.182847 
   36500    134.52924   -1169.6775     136773.1    -35357.63    2553.2059   -37910.836    29.214705 
   36550    134.72034   -995.40426    136733.04   -35330.806    2556.8328   -37887.639    29.208007 
   36600    131.31776   -950.47699    136780.74   -35403.488    2492.2557   -37895.743    29.298285 
   36650    133.79978   -1165.1095    136780.53   -35420.768    2539.3616    -37960.13    29.434829 
   36700    130.69478   -1128.5912    136756.62   -35438.262    2480.4323   -37918.694    29.458234 
   36750    131.25769    -1292.826    136757.59   -35427.669    2491.1158   -37918.785    29.460678 
   36800    132.88295   -1209.6398    136697.16   -35356.858    2521.9612   -37878.819     29.50866 
   36850    135.10655   -1204.9263     136727.3   -35360.952    2564.1626   -37925.115    29.405838 
   36900    135.22598   -1128.9993    136760.71   -35311.905    2566.4292   -37878.335    29.390681 
   36950      133.392   -1158.5359    136744.17   -35335.483    2531.6224   -37867.105    29.304354 
   37000    136.21393    -1138.066    136726.91   -35304.074    2585.1794   -37889.254     29.50256 
   37050    131.60384   -1038.5972    136699.45   -35295.593    2497.6852   -37793.278    29.639842 
   37100    135.00466   -1204.4093    136723.77   -35314.097    2562.2288   -37876.326    29.655941 
   37150     135.2145    -1351.073     136676.8   -35289.177    2566.2113   -37855.388    29.752735 
   37200    137.01873   -1100.2733    136648.91   -35254.002    2600.4535   -37854.455    29.665598 
   37250    136.87931   -1060.3062    136691.24    -35251.65    2597.8075   -37849.457    29.700868 
   37300    133.91549   -1217.0514    136721.91   -35289.438    2541.5578   -37830.996    29.743143 
   37350    134.19167    -1019.046    136764.49   -35296.753    2546.7993   -37843.552    29.775471 
   37400    134.83954    -1230.985     136874.3   -35308.879     2559.095   -37867.974    29.870876 
   37450    130.97389   -1120.7242    136901.39   -35343.627    2485.7296   -37829.357    29.964039 
   37500    133.46163   -991.48132    136939.18    -35334.53    2532.9439   -37867.473     30.11919 
   37550    132.31581   -1230.5245    136962.17    -35373.99    2511.1976   -37885.188    29.997427 
   37600    131.61352   -1297.1724    136993.53   -35431.857     2497.869   -37929.726    29.901713 
   37650    132.50025   -1322.7876    136994.91   -35411.144     2514.698   -37925.842    29.827996 
   37700    132.93247   -1171.8325    137017.05   -35434.996    2522.9011   -37957.897    29.973559 
[...]
   40850    228.67356   -905.18938    140045.79   -28838.168    4339.9538   -33178.122    1320.0983 
   40900    232.33155   -1241.4773    139998.73   -28822.471    4409.3781   -33231.849    1322.5654 
   40950    229.63125   -954.18541    140009.89   -28786.267    4358.1295   -33144.396    1324.3861 
   41000    233.37594   -934.84994    140104.71   -28792.207    4429.1994   -33221.406    1325.1622 
   41050     229.8231    -642.8046    140219.62    -28801.18    4361.7707    -33162.95    1324.6762 
   41100    229.66467   -1487.9557    140414.31   -28809.812    4358.7639   -33168.576    1326.2994 
   41150       232.17   -1203.8983    140582.77   -28803.254    4406.3122   -33209.566    1328.7739 
   41200    234.20687   -1385.3959    140676.17   -28761.947    4444.9695   -33206.916    1331.0789 
   41250     238.0889   -1697.2223       140678   -28765.207    4518.6457   -33283.853    1331.6257 
   41300    235.26775   -1197.0609    140652.93   -28742.791    4465.1037   -33207.895    1332.8079 
   41350    229.51843   -1175.2704    140581.54   -28779.958    4355.9885   -33135.946    1334.6144 
   41400    230.04236   -1350.7222     140495.3   -28734.253     4365.932   -33100.185    1333.7345 
   41450    232.76029   -1158.7041    140358.62   -28748.154    4417.5152   -33165.669    1335.4547 
   41500    233.43814   -1008.2927     140231.3   -28736.375    4430.3798   -33166.755    1337.2731 
   41550    231.07898   -1324.8143    140077.04   -28734.965    4385.6058   -33120.571    1338.6296 
   41600    238.69948   -873.94393    139959.36   -28737.877    4530.2339   -33268.111    1340.6067 
   41650    234.31184   -741.86814    139871.96   -28753.884    4446.9617   -33200.846    1340.6045 
   41700    235.80328   -940.27728    139805.12   -28730.867    4475.2675   -33206.134    1341.9361 
   41750    235.24218   -868.09477    139753.74   -28738.439    4464.6183   -33203.057    1343.3203 
   41800    233.74798   -1281.9559    139729.75   -28769.602    4436.2602   -33205.862    1344.1715 
   41850    235.57765   -1269.8798    139641.78   -28733.918    4470.9853   -33204.903    1344.7415 
   41900    231.29107   -1084.7227    139546.15   -28685.978    4389.6311   -33075.609     1345.935 
   41950    235.10843   -929.33276    139470.42   -28710.206    4462.0799   -33172.286    1347.2385 
   42000    232.07798   -1175.6006    139455.98    -28727.52    4404.5656   -33132.085    1347.6139 
   42050    234.45734   -1118.0762    139457.96   -28714.591     4449.723   -33164.314    1348.8269 
   42100    234.42674   -1038.5028    139477.61   -28750.953    4449.1424   -33200.095     1351.664 
   42150    235.03285   -926.00175    139611.52   -28757.817    4460.6456   -33218.463    1353.1303 
   42200    237.59827   -1554.6768    139829.05   -28734.001    4509.3342   -33243.336    1354.7393 
   42250    236.76442   -1015.7845    139989.12   -28776.662    4493.5087    -33270.17    1355.6324 
   42300    229.06889   -1008.5551     140174.1   -28826.739    4347.4566   -33174.196    1356.1057 
   42350    232.16024   -1324.3085     140406.7    -28811.11    4406.1269   -33217.237    1356.5712 
   42400    229.78568   -971.92435    140547.84   -28833.204    4361.0606   -33194.264    1357.0514 
   42450    227.02651   -898.54392    140598.01   -28832.876    4308.6947    -33141.57    1358.0877 
   42500    230.36478   -1487.0196     140581.9   -28810.291    4372.0511   -33182.342    1361.5001 
   42550    230.72906   -1086.6172    140502.33   -28820.106    4378.9648    -33199.07     1362.953 
   42600    231.16602   -950.83669    140459.07   -28837.593    4387.2576   -33224.851    1363.5948 
   42650    230.40351   -1183.8836    140384.81    -28833.48    4372.7863   -33206.267    1364.5855 
   42700    231.28693   -1279.5789    140282.42   -28866.165    4389.5525   -33255.718    1365.0399 
   42750    228.68847   -651.88564    140178.81   -28836.486    4340.2368   -33176.723    1367.2668 
   42800    234.62622   -1099.3011    140085.31   -28834.035    4452.9282   -33286.964    1367.9305 
   42850    226.35337   -802.55118    140037.96   -28815.794    4295.9193   -33111.713     1367.851 
   42900    230.74101   -1103.8725    140014.26    -28812.13    4379.1915   -33191.322    1367.7754 
   42950    230.95853   -1373.1836    139968.21   -28782.314    4383.3198   -33165.633    1368.7286 
   43000    233.86541   -1197.6523     139919.1   -28799.036    4438.4889   -33237.525    1369.3689 
   43050    230.06104   -1085.8221    139913.25   -28780.398    4366.2865   -33146.684    1371.8372 
   43100    229.80762   -952.21573    139952.26   -28815.434    4361.4769   -33176.911    1372.7596 
   43150    229.35329   -1187.3098    139922.71   -28806.884    4352.8543   -33159.739    1374.0049 
   43200    236.41623   -1163.7143    139855.78   -28804.715    4486.9004   -33291.616    1376.2102 
   43250    233.26293   -1478.8338    139780.13   -28809.189    4427.0546   -33236.243    1378.4436 
   43300    235.07443     -1708.86    139638.65   -28803.551    4461.4348   -33264.986    1379.6059 
   43350    236.25346    -1522.221    139421.63   -28817.961    4483.8114   -33301.772    1382.0744 
   43400    235.45812   -1283.3625    139245.05   -28819.923    4468.7168    -33288.64    1384.5781 
   43450    230.40993   -976.45485     139186.3   -28815.373     4372.908   -33188.281    1386.4438 
   43500    236.68697   -777.13685    139234.11   -28792.055    4492.0389   -33284.094    1387.1667 
   43550    234.64288     -1228.93    139363.88   -28786.195    4453.2443   -33239.439    1389.1485 
   43600    231.56751   -1297.8508    139550.24   -28800.394    4394.8776   -33195.272    1389.7784 
   43650    236.24028   -1527.3796    139744.33   -28745.095    4483.5613   -33228.656    1392.0967 
   43700    238.48456     -826.516    139936.89   -28719.459     4526.155   -33245.614    1395.5573 
   43750    232.08188   -1119.6378    140189.31    -28721.31    4404.6396    -33125.95    1399.3879 
   43800    229.88176   -1481.5197     140444.5    -28731.44     4362.884   -33094.324     1401.591 
   43850    231.71244   -916.40871    140614.38    -28703.79    4397.6282   -33101.418    1402.9847 
   43900    232.93511   -1242.6855    140819.42   -28723.026    4420.8329   -33143.859    1406.9555 
   43950    226.81597   -1332.1801    141019.21   -28754.315    4304.6989   -33059.014    1409.8187 
   44000    231.56661   -1062.8098    141155.36   -28745.259    4394.8605   -33140.119    1411.1941 
   44050    233.19796   -1161.2504    141293.41   -28756.529    4425.8215   -33182.351    1413.7511 
   44100    235.22439   -1181.3058     141425.7   -28740.121    4464.2807   -33204.402    1414.9968 
   44150    229.30041   -1092.7889    141627.05    -28748.84    4351.8507    -33100.69    1417.1573 
   44200    232.52939    -1122.924    141771.98   -28761.757    4413.1329    -33174.89    1417.7061 
   44250      232.167   -1381.9453    141854.43     -28755.1    4406.2551   -33161.355    1419.0724 
   44300    232.52192   -1558.1946    141880.81   -28722.723    4412.9912   -33135.714    1418.5005 
   44350     227.8405   -1439.1386    141798.55   -28717.759    4324.1433   -33041.902    1419.6408 
   44400    237.25999   -1186.8728    141631.53   -28718.277    4502.9142   -33221.191    1420.1458 
   44450    234.03439   -1424.7854    141419.02   -28696.677    4441.6961   -33138.373    1420.6818 
   44500    231.94759   -1179.1397    141176.79   -28684.157    4402.0909   -33086.247    1420.9807 
   44550    231.01936   -817.01365    140946.99   -28638.709    4384.4744   -33023.184    1422.1796 
   44600    233.06059   -1036.9098    140705.61   -28660.214    4423.2145   -33083.429    1422.1695 
   44650    232.54187   -1295.2388    140483.33   -28649.734    4413.3698   -33063.104    1424.0666 
   44700    233.66619   -1361.6986     140346.7   -28669.131     4434.708   -33103.839    1424.9207 
   44750    237.00866   -1028.3528    140250.32   -28629.419    4498.1442   -33127.563    1425.8025 
   44800    230.08559   -872.92798    140213.15   -28646.562    4366.7525   -33013.314    1425.5485 
   44850    237.51636   -1355.8126    140217.72   -28616.396    4507.7797   -33124.176    1426.5116 
   44900    235.58589   -1157.5874    140192.17     -28603.9    4471.1416   -33075.041    1426.8948 
   44950      237.021   -1265.1243    140150.01   -28627.876    4498.3783   -33126.254    1428.3151 
   45000    233.99017   -1352.4742    140117.62   -28684.278    4440.8567   -33125.134    1429.5931 
   45050    234.47248   -1020.7548    140101.87   -28702.957    4450.0104   -33152.967    1431.4089 
   45100    236.78149   -1404.6605    140126.76   -28711.301    4493.8327   -33205.134    1434.0764 
   45150    236.94312   -1004.6856    140202.29   -28729.853    4496.9002   -33226.753    1435.7652 
   45200    237.92891    -1187.985    140291.94   -28709.309    4515.6094   -33224.918    1436.4281 
   45250    234.32217   -668.69766    140284.58   -28729.428    4447.1577   -33176.586    1439.0241 
   45300    234.68338   -1204.7319    140266.97   -28758.756     4454.013   -33212.769    1440.4607 
   45350    233.39923   -970.77988    140258.95   -28785.502    4429.6414   -33215.143    1441.5483 
   45400    225.99716   -1129.8331    140316.89   -28779.918    4289.1588   -33069.077     1442.981 
   45450    238.94106   -1174.4688    140404.72   -28754.991    4534.8188   -33289.809    1441.7167 
   45500    233.70851   -1044.1695    140454.01   -28736.258    4435.5111   -33171.769    1445.7745 
   45550    230.82257   -1379.2843    140525.59   -28748.675    4380.7395   -33129.415       1446.3 
   45600    233.21509   -1230.7846     140600.4   -28760.154    4426.1466   -33186.301    1447.6388 
   45650     230.3426   -914.39802    140743.58   -28763.072    4371.6301   -33134.702    1450.0797 
   45700    232.92181   -876.40066    140866.01   -28749.458    4420.5806   -33170.038    1452.3844 
   45750    234.44235   -1051.3923    140950.91   -28723.293    4449.4386   -33172.731    1454.1904 
   45800    232.41121   -1197.5081    141008.82   -28704.029    4410.8899   -33114.918    1455.5367 
   45850    233.77412   -1194.2205    140992.86   -28709.097    4436.7564   -33145.854    1455.1458 
   45900    231.80294   -1403.5763    140955.73    -28720.01    4399.3456   -33119.356    1456.3368 
   45950    236.16899   -996.16538    140906.67   -28714.398    4482.2081   -33196.606    1457.7173 
   46000    233.68913   -1489.8857    140847.61   -28709.062    4435.1433   -33144.206    1460.4545 
   46050    232.16141     -1362.94    140750.35    -28706.14    4406.1491   -33112.289    1462.1047 
   46100    234.24837   -806.18454    140660.79   -28716.709     4445.757   -33162.466    1462.5557 
   46150    230.73143   -1478.5952    140570.56   -28732.837    4379.0097   -33111.846     1461.369 
   46200    230.77218   -1297.6952    140432.93   -28763.241    4379.7831   -33143.024    1463.5304 
   46250    231.76008   -1085.0411    140287.89   -28758.938    4398.5322   -33157.471    1464.8214 
   46300    233.76267   -1283.4173    140242.56   -28745.632     4436.539   -33182.171    1465.5699 
   46350    229.97357   -1282.5484     140258.6   -28745.715    4364.6264   -33110.341    1466.3345 
   46400    234.79831   -1214.1399    140268.92   -28727.306    4456.1944     -33183.5    1466.1767 
   46450    233.11025   -1391.8383    140342.61   -28733.818    4424.1569   -33157.975    1467.3222 
   46500    233.97283   -1516.3131    140431.59   -28765.421    4440.5276   -33205.949      1470.38 
   46550     232.5891   -1058.6251    140505.53   -28733.296     4414.266   -33147.562     1473.572 
   46600    235.13426   -1210.4127    140608.55   -28727.918    4462.5702   -33190.489     1474.259 
   46650    235.91346   -1188.5397    140618.46   -28720.311    4477.3585   -33197.669     1476.405 
   46700     232.7532   -1295.2424    140529.03    -28696.74    4417.3805   -33114.121    1479.0282 
   46750     233.0262   -1110.5036    140385.07   -28695.757    4422.5618   -33118.319    1479.5922 
   46800     237.6942   -743.06445    140208.99   -28704.863    4511.1549   -33216.018    1480.5667 
   46850    235.67195   -780.74661    140076.59   -28707.558    4472.7749   -33180.333    1483.2758 
   46900    234.50449    -915.3044    139988.98   -28686.068    4450.6179   -33136.686    1486.1294 
   46950    233.94275   -1150.8493    139989.35   -28669.803    4439.9568   -33109.759    1487.2441 
   47000    232.99362   -1513.9145    139945.16   -28649.498    4421.9434   -33071.441    1489.0916 
   47050    235.00729   -1317.9078    139855.74    -28646.57    4460.1605    -33106.73    1490.8264 
   47100    239.08651   -1620.6698    139843.75    -28655.64    4537.5792   -33193.219    1492.0044 
   47150    233.78919   -1546.5037    139861.34   -28660.961    4437.0424   -33098.004    1493.9676 
   47200    235.86721   -1059.8943     139879.2   -28645.708    4476.4808   -33122.189    1494.4158 
   47250    239.14685   -974.21785    139954.95   -28608.497    4538.7245   -33147.222    1497.0258 
   47300    236.75794    -1109.715    140113.01   -28598.282    4493.3857   -33091.668    1500.6513 
   47350    235.06202   -1088.1571    140269.21   -28575.151    4461.1992   -33036.351    1504.0697 
   47400    236.33772   -1220.8796    140419.28    -28564.05    4485.4105   -33049.461    1504.9869 
   47450    239.86032   -1130.0784    140539.18    -28538.64    4552.2653   -33090.905    1506.9344 
   47500    239.07013   -1114.1393    140567.97   -28535.978    4537.2684   -33073.247    1507.9873 
   47550    236.62189   -990.98606    140506.49   -28543.658    4490.8037   -33034.461     1510.732 
   47600    242.85377   -917.09955    140419.67   -28527.692    4609.0774   -33136.769    1511.0701 
   47650    235.19914   -928.50037    140364.16   -28538.055    4463.8016   -33001.857    1511.7277 
   47700    233.92242   -942.48059     140290.4   -28542.165     4439.571   -32981.736    1511.7191 
   47750     244.3238    -1345.881    140164.08   -28522.563    4636.9768    -33159.54    1512.5877 
   47800    240.15723   -1358.3768    140020.57    -28495.23    4557.9003   -33053.131    1513.7814 
   47850    238.69918   -817.44087    139897.83   -28483.759    4530.2281   -33013.987    1514.1187 
   47900    239.83188   -1210.1993    139827.45   -28507.253    4551.7256   -33058.979    1515.0284 
   47950    237.54722   -1055.2752    139772.12   -28517.707    4508.3654   -33026.073    1514.4167 
   48000     240.7788   -981.57454    139735.01   -28536.517     4569.697   -33106.214    1515.7833 
   48050    241.69416    -1137.392    139744.48   -28529.475    4587.0693   -33116.545    1515.4244 
   48100    238.56777   -916.95495    139751.95   -28546.099    4527.7342   -33073.833    1516.3027 
   48150    238.06654   -1599.1143     139791.8   -28572.527    4518.2214   -33090.748    1516.1918 
   48200     238.4756   -1343.5392    139877.72    -28576.48    4525.9849   -33102.465    1518.2359 
   48250    237.55042    -1149.846    139928.48    -28557.24     4508.426   -33065.666    1520.1025 
   48300    239.18175   -1172.1077     139978.8   -28557.685    4539.3869   -33097.072    1520.8667 
   48350    236.24926   -1399.3788    140029.87   -28550.856    4483.7316   -33034.588    1521.3906 
   48400     238.8727   -1253.2246    140021.09   -28563.323    4533.5213   -33096.844    1523.6674 
   48450    234.95689   -1385.7024    140041.81   -28608.986     4459.204    -33068.19    1525.0494 
   48500    234.80817   -878.71765    140049.24   -28632.599    4456.3815    -33088.98    1526.2259 
   48550    238.81349   -918.81856    140135.28   -28643.354    4532.3976   -33175.751    1526.6006 
   48600    239.90765   -1264.7371     140176.8   -28623.773    4553.1636   -33176.936    1528.7767 
   48650     235.7841   -1061.8456    140268.62   -28611.388    4474.9034   -33086.291    1530.9331 
   48700    238.40477   -998.92053    140389.93   -28572.649    4524.6407    -33097.29    1534.0585 
   48750    236.17555   -1390.4466    140487.54   -28541.216    4482.3326   -33023.548     1536.306 
   48800    238.96208   -1135.1382    140560.81   -28552.303    4535.2177   -33087.521    1540.4426 
   48850    239.76314   -1063.4362    140687.73    -28545.27    4550.4209   -33095.691    1541.2185 
   48900    238.97605   -817.26235    140834.67   -28552.081    4535.4829   -33087.564    1541.1217 
   48950    237.23131   -1537.2153    140959.89   -28531.554    4502.3698   -33033.924    1542.8323 
   49000    236.06239   -1521.7857    141021.86    -28536.46     4480.185   -33016.645    1544.5292 
   49050    233.89672   -1453.9702    141053.26   -28544.568    4439.0832   -32983.652    1545.3472 
   49100    237.01536   -766.40574    141099.53    -28559.05    4498.2713   -33057.321    1548.2597 
   49150    236.75359   -1045.5415    141145.67   -28564.581    4493.3033   -33057.884    1548.9501 
   49200    236.85364   -1466.7605    141201.32    -28561.55    4495.2021   -33056.752    1549.8512 
   49250    237.37595    -1064.999    141242.98   -28546.823    4505.1148   -33051.938    1550.7352 
   49300    233.70937   -1130.9857    141253.49   -28543.088    4435.5275   -32978.615    1551.0152 
   49350     236.5389   -1097.0997    141206.79   -28583.735    4489.2286   -33072.963    1553.1189 
   49400    238.47791   -1472.6222    141106.15   -28551.838    4526.0288   -33077.867    1553.5509 
   49450    235.01045    -900.6131    140955.26   -28572.801    4460.2205   -33033.022    1555.1499 
   49500    234.76584   -990.14481    140845.56   -28571.384    4455.5781   -33026.962    1555.4906 
   49550    239.08847   -1136.2456    140729.14   -28605.223    4537.6165   -33142.839     1556.399 
   49600    235.75894   -1355.5632    140620.05   -28591.039    4474.4259   -33065.465    1557.0617 
   49650    241.77137   -1478.2067    140516.27   -28557.168    4588.5348   -33145.702    1557.5503 
   49700    237.68837   -1353.0562    140385.32   -28573.532    4511.0443   -33084.577    1558.7696 
   49750    238.99666   -779.50196    140230.89   -28573.261    4535.8739   -33109.135     1559.759 
   49800    234.85038   -933.07664    140146.81   -28630.781    4457.1826   -33087.963    1560.5321 
   49850     239.4995   -1347.6997    140079.67   -28603.711    4545.4173   -33149.129    1561.1255 
   49900    237.56529   -948.79937    139971.53   -28603.955    4508.7084   -33112.663    1561.8995 
   49950    232.56819   -813.57825    139906.26    -28577.79    4413.8693   -32991.659    1563.5871 
   50000    237.81252   -1052.0549    139905.26   -28599.085    4513.4003   -33112.485    1564.3057 
Loop time of 9460.07 on 12 procs for 50000 steps with 6368 atoms

Performance: 4.567 ns/day, 5.256 hours/ns, 5.285 timesteps/s
80.4% CPU use with 12 MPI tasks x no OpenMP threads

MPI task timing breakdown:
Section |  min time  |  avg time  |  max time  |%varavg| %total
---------------------------------------------------------------
Pair    | 35.571     | 124.98     | 306.5      |1125.5 |  1.32
Neigh   | 8.1263     | 16.138     | 32.775     | 277.3 |  0.17
Comm    | 2816.2     | 3048.5     | 3205       | 256.7 | 32.22
Output  | 78.009     | 81.294     | 86.367     |  28.4 |  0.86
Modify  | 5312.5     | 5412.7     | 5525.4     |  82.5 | 57.22
Other   |            | 776.4      |            |       |  8.21

Nlocal:        530.667 ave         904 max         331 min
Histogram: 8 0 0 0 0 0 0 0 0 4
Nghost:        1986.42 ave        2270 max        1832 min
Histogram: 6 2 0 0 0 0 0 0 1 3
Neighs:        0.00000 ave           0 max           0 min
Histogram: 12 0 0 0 0 0 0 0 0 0
FullNghs:      62242.2 ave      148465 max       19273 min
Histogram: 8 0 0 0 0 0 0 0 0 4

Total # of neighbors = 746906
Ave neighs/atom = 117.29052
Neighbor list builds = 8309
Dangerous builds = 0

# Create data file for import to other simulations
#
write_data data.${NAME}
write_data data.graphite_ML_1000atm_e
System init for write_data ...


Total wall time: 6:23:36
