
# Create simulation box of size 49.22 x 49.019 x 60.06 Angstrom
#
region 	     all block 0 ${XDIM} 0 ${YDIM} 0 ${ZDIM} units box
region 	     all block 0 49.22 0 ${YDIM} 0 ${ZDIM} units box
region 	     all block 0 49.22 0 49.019635930410494 0 ${ZDIM} units box
region 	     all block 0 49.22 0 49.019635930410494 0 60.062 units box
create_box          1 all
Created orthogonal box = (0.0000000 0.0000000 0.0000000) to (49.220000 49.019636 60.062000)
  2 by 2 by 3 MPI processor grid

# fill box with randomly distributed atoms of number density 0.0327 N/A**3
#  ~800 atoms will eventually be removed to insert the substrate
#
create_atoms        1 random 4466 63782 all
Created 4466 atoms
  create_atoms CPU = 0.003 seconds
mass                1 18.015

# Define potential
#
pair_style          sw
pair_coeff          * * ML.sw mW
Reading sw potential file ML.sw with DATE: 2019-02-27

# Run minimization
#
minimize            1.0e-8 1.0e-8 10000 1000
WARNING: Using 'neigh_modify every 1 delay 0 check yes' setting during minimization (../min.cpp:187)
Neighbor list info ...
  update every 1 steps, delay 0 steps, check yes
  max neighbors/atom: 2000, page size: 100000
  master list distance cutoff = 6.0032907
  ghost atom cutoff = 6.0032907
  binsize = 3.0016454, bins = 17 17 21
  1 neighbor lists, perpetual/occasional/extra = 1 0 0
  (1) pair sw, perpetual
      attributes: full, newton on
      pair build: full/bin/atomonly
      stencil: full/bin/3d
      bin: standard
Per MPI rank memory allocation (min/avg/max) = 4.215 | 4.218 | 4.220 Mbytes
Step Temp E_pair E_mol TotEng Press 
       0            0    6066723.2            0    6066723.2    3985627.8 
     681            0   -47623.484            0   -47623.484    -1267.548 
Loop time of 0.870548 on 12 procs for 681 steps with 4466 atoms

98.8% CPU use with 12 MPI tasks x no OpenMP threads

Minimization stats:
  Stopping criterion = max force evaluations
  Energy initial, next-to-last, final = 
      6066723.18330973  -47622.9160610132  -47623.4838583228
  Force two-norm initial, final = 1.1601931e+08 5.8483290
  Force max component initial, final = 67075432.0 1.1305750
  Final line search alpha, max atom move = 0.024685882 0.027909241
  Iterations, force evaluations = 681 1001

MPI task timing breakdown:
Section |  min time  |  avg time  |  max time  |%varavg| %total
---------------------------------------------------------------
Pair    | 0.56853    | 0.65417    | 0.76831    |   6.6 | 75.14
Neigh   | 0.018285   | 0.019191   | 0.020235   |   0.4 |  2.20
Comm    | 0.050792   | 0.16556    | 0.25193    |  13.2 | 19.02
Output  | 0          | 0          | 0          |   0.0 |  0.00
Modify  | 0          | 0          | 0          |   0.0 |  0.00
Other   |            | 0.03162    |            |       |  3.63

Nlocal:        372.167 ave         402 max         354 min
Histogram: 3 2 1 0 1 1 2 1 0 1
Nghost:        948.417 ave         990 max         900 min
Histogram: 2 0 0 1 2 2 2 0 1 2
Neighs:        0.00000 ave           0 max           0 min
Histogram: 12 0 0 0 0 0 0 0 0 0
FullNghs:      9963.33 ave       11266 max        9028 min
Histogram: 2 1 2 1 1 1 2 1 0 1

Total # of neighbors = 119560
Ave neighs/atom = 26.771160
Neighbor list builds = 30
Dangerous builds = 0

# Add velocity/set timestep
#
velocity            all create ${TEMP} 120598 rot yes dist gaussian
velocity            all create 250 120598 rot yes dist gaussian
timestep            5.0

# Define output
#
compute	            1 all msd
thermo	            100
thermo_style        custom step temp press vol etotal ke pe c_1[4] density

# Neighbor lists
#
neigh_modify        delay 0 every 1 check yes

# Set fixes
#
fix                 1 all momentum 10 linear 1 1 1 rescale
fix                 2 all nve
fix                 3 all temp/csvr ${TEMP} ${TEMP} 500.0 928347
fix                 3 all temp/csvr 250 ${TEMP} 500.0 928347
fix                 3 all temp/csvr 250 250 500.0 928347
fix                 4 all press/berendsen z ${PRES} ${PRES} 1000.0 modulus 20000
fix                 4 all press/berendsen z -1000 ${PRES} 1000.0 modulus 20000
fix                 4 all press/berendsen z -1000 -1000 1000.0 modulus 20000

# Run 0.5 ns equilibration
#
dump                1 all custom 1000 eq.${NAME}.dump id type x y z vx vy vz
dump                1 all custom 1000 eq.liquid_ML_1000_250K.dump id type x y z vx vy vz
run                 100000
Per MPI rank memory allocation (min/avg/max) = 3.465 | 3.468 | 3.470 Mbytes
Step Temp Press Volume TotEng KinEng PotEng c_1[4] Density 
     681          250   -217.96411    144914.38   -44296.155    3327.3292   -47623.484            0   0.92191433 
     700    130.06454   -1000.6429    145077.37   -44013.151    1731.0701   -45744.221   0.09697225   0.92087855 
     800    177.31674   -1123.5319    144639.47   -42825.551    2359.9646   -45185.516   0.56979056   0.92366659 
     900    205.16561   -1183.0935    144229.39   -42129.711    2730.6141   -44860.325    1.0911861    0.9262928 
    1000    226.90014   -1421.8062    144116.56   -41711.108    3019.8859   -44730.994    1.6214492   0.92701801 
    1100    234.50214   -1379.2225    143850.16   -41451.585    3121.0633   -44572.648    2.1834661   0.92873473 
    1200    241.97631   -1093.2789     143762.3   -41295.855    3220.5394   -44516.395    2.6080545   0.92930235 
    1300    247.99438   -1408.1214    143536.33   -41156.557    3300.6358   -44457.193    3.1081029   0.93076536 
    1400    254.86854   -1427.3968    143186.83   -41186.155    3392.1262   -44578.282    3.8014249    0.9330372 
    1500    252.59469   -1231.1056    142994.77   -41148.981    3361.8628   -44510.844    4.4146589    0.9342904 
    1600    250.91184   -1006.9232    142711.78   -41206.081    3339.4652   -44545.546    4.9720408   0.93614303 
    1700    251.25028    -1082.348    142596.68   -41258.069    3343.9695   -44602.039     5.470596   0.93689871 
    1800    253.36023   -1376.1496    142358.81   -41220.773    3372.0516   -44592.824    6.0824436   0.93846415 
    1900    253.33269   -1019.5574    142132.42   -41234.024     3371.685   -44605.709    6.4830954   0.93995894 
    2000    253.54526   -1164.5322    141938.93   -41223.146    3374.5142    -44597.66    7.1100772    0.9412403 
    2100    254.01941   -1279.0802     141768.9    -41351.94    3380.8248   -44732.765    7.5264692    0.9423692 
    2200    251.47245   -1423.9193    141534.23   -41415.227    3346.9265   -44762.154    7.9869108   0.94393169 
    2300    251.44599   -1002.3076     141456.1   -41437.421    3346.5743   -44783.995    8.5456463   0.94445305 
    2400    254.36694   -978.17799    141393.96   -41455.546    3385.4502   -44840.996    8.9286746   0.94486807 
    2500    252.67975   -1207.7627       141334   -41501.103    3362.9949   -44864.098    9.3584043   0.94526893 
    2600     259.7622   -1057.7147    141227.96    -41433.37    3457.2575   -44890.627      9.72276   0.94597873 
    2700    251.88215   -1225.8268    140974.23   -41446.145    3352.3794   -44798.525    10.165927   0.94768129 
    2800    252.99301   -976.80046    140911.26   -41563.829    3367.1642   -44930.993     10.51432   0.94810478 
    2900    249.75486   -1070.7743    140880.16   -41557.502    3324.0666   -44881.568    10.912637   0.94831413 
    3000    251.59666   -1132.4662    140899.58    -41519.39    3348.5797    -44867.97    11.377702   0.94818337 
    3100     250.6389   -1014.4843    140818.59   -41538.985    3335.8325   -44874.817     11.83837   0.94872873 
    3200    252.19895   -1273.2892    140895.97   -41568.921    3356.5957   -44925.517    12.178409   0.94820772 
    3300    245.99195    -1163.825    140731.45   -41585.049    3273.9848   -44859.034    12.694343    0.9493162 
    3400    251.57183   -1221.1583    140674.35   -41564.013    3348.2491   -44912.262    13.188804   0.94970148 
    3500    254.34716   -1019.1235    140543.72   -41494.741    3385.1869   -44879.928    13.592328    0.9505842 
    3600    251.28921    -857.1524    140522.65   -41510.915    3344.4878   -44855.403    14.065121   0.95072672 
    3700    252.44307   -1193.0156    140469.25   -41553.334    3359.8449   -44913.179    14.621462   0.95108817 
    3800    253.49885    -970.8469    140297.17   -41556.657    3373.8966   -44930.553    15.154825   0.95225474 
    3900    245.19009   -1072.7657    140250.02   -41671.878    3263.3126   -44935.191    15.770662   0.95257483 
    4000    248.18915   -898.87203    140212.19   -41699.869     3303.228   -45003.097    16.265759   0.95283185 
    4100     251.7131   -881.52135    140459.93   -41697.592    3350.1294   -45047.721    16.557675   0.95115129 
    4200    249.39246   -1304.7646    140462.73   -41714.491    3319.2433   -45033.734    16.880725   0.95113234 
    4300    245.58613   -852.21366     140443.5   -41680.647    3268.5836   -44949.231    17.158517   0.95126256 
    4400    254.95512   -1016.1947    140451.21   -41698.516    3393.2784   -45091.795    17.561372   0.95121036 
    4500    248.11448    -1131.037    140325.81   -41664.444    3302.2342   -44966.678    18.095931   0.95206036 
    4600    247.54196   -1345.2352    140045.47   -41676.215    3294.6144   -44970.829    18.732421   0.95396618 
    4700    244.39261   -930.64148    139976.64   -41711.928    3252.6987   -44964.627    19.101297   0.95443527 
    4800    252.23982   -871.05255    139849.36   -41686.933    3357.1397   -45044.073    19.399978   0.95530392 
    4900    251.16069    -813.3615    139851.94   -41648.014    3342.7772   -44990.792    19.813255   0.95528627 
    5000    250.19473   -1082.5711    139848.45   -41732.403     3329.921   -45062.324    20.386254   0.95531016 
    5100    254.41816   -713.34424    139932.96   -41677.241    3386.1319   -45063.373    20.592419    0.9547332 
    5200    247.25498   -1146.8249     139970.4   -41755.061    3290.7949   -45045.856    21.026506   0.95447781 
    5300    247.47374   -985.36341    139816.44   -41750.043    3293.7064    -45043.75    21.375926   0.95552884 
    5400    254.02661    -741.5027    139767.74   -41678.133    3380.9206   -45059.054    21.797071   0.95586179 
    5500    253.64307   -919.16313    139684.96   -41655.722     3375.816   -45031.538     22.20194   0.95642826 
    5600    255.08572   -1133.9841    139779.08   -41607.415    3395.0166   -45002.432    22.519747   0.95578425 
    5700    249.62667   -936.66327    139792.62   -41719.378    3322.3605   -45041.738    23.006581   0.95569168 
    5800    247.92438   -920.35412    139774.84   -41649.649    3299.7041   -44949.353    23.517033   0.95581327 
    5900    251.24125    -1209.599    139619.65   -41730.904    3343.8494   -45074.753    24.034358   0.95687562 
    6000    246.07773   -1192.4834    139510.83   -41771.049    3275.1264   -45046.175    24.518363     0.957622 
    6100    247.72407   -1318.1386    139451.61   -41783.548    3297.0381   -45080.586    24.956499   0.95802871 
    6200    247.24029    -1031.303    139480.55   -41766.045    3290.5993   -45056.644    25.264728   0.95782991 
    6300    248.51125   -853.03544    139595.19   -41752.704    3307.5149   -45060.219    25.661556   0.95704332 
    6400     255.1263   -843.09243    139583.19   -41733.262    3395.5567   -45128.819    26.156348   0.95712558 
    6500    252.59114   -1081.3596    139678.15   -41681.375    3361.8156   -45043.191     26.62952   0.95647487 
    6600    248.95965   -1111.0909    139743.34   -41753.692    3313.4829   -45067.175    26.957689   0.95602866 
    6700    249.42588    -962.9808    139960.16   -41758.214     3319.688   -45077.902    27.287828   0.95454767 
    6800    242.66184   -1004.6595    140001.87   -41856.517    3229.6633    -45086.18    27.910382   0.95426324 
    6900    248.49613   -1013.8466    140197.13   -41823.556    3307.3137   -45130.869    28.350176   0.95293422 
    7000    252.77847   -1078.6559     140209.6   -41720.945    3364.3087   -45085.253     28.81526   0.95284945 
    7100    251.27215   -1043.4559    140406.97   -41796.214    3344.2607   -45140.475    29.054463   0.95151007 
    7200    250.08214   -956.06907    140393.14   -41819.949    3328.4225   -45148.372    29.378313   0.95160379 
    7300    242.80707   -862.83636    140479.12   -41851.675    3231.5962   -45083.271    29.555356   0.95102135 
    7400    248.50429   -1020.8242    140492.78   -41905.784    3307.4223   -45213.206    30.080199   0.95092887 
    7500    246.04144   -1358.5216    140582.58   -41823.967    3274.6435   -45098.611    30.466553   0.95032145 
    7600    246.37601   -1057.3098    140411.87    -41785.25    3279.0964   -45064.347    31.004405   0.95147685 
    7700     248.6173   -766.80461    140392.77    -41742.57    3308.9265   -45051.496      31.2138   0.95160629 
    7800    252.28653   -1066.7892     140293.9   -41803.738    3357.7614     -45161.5    31.535789   0.95227692 
    7900     241.8665    -907.2421    140278.57   -41889.312    3219.0779    -45108.39    31.863882   0.95238095 
    8000    245.96759   -775.55249    140362.64   -41891.225    3273.6605   -45164.885    31.994958   0.95181056 
    8100     247.1536   -734.03423    140344.95   -41799.368    3289.4456   -45088.813    32.417214   0.95193052 
    8200    251.37653    -1104.841    140273.22   -41810.129    3345.6499   -45155.779     32.95376   0.95241734 
    8300    246.81337   -1133.6651    140184.37    -41778.56    3284.9173   -45063.477    33.284966   0.95302099 
    8400    254.25784   -971.67389    140075.49   -41826.183    3383.9981   -45210.181    33.608504   0.95376172 
    8500     247.1988   -978.72707    140013.27   -41853.492    3290.0472   -45143.539    33.820752    0.9541856 
    8600    251.73943   -1246.7066    139921.15   -41775.903    3350.4798   -45126.383    34.322181   0.95481379 
    8700     256.8344   -869.41213    140023.76   -41747.726    3418.2904   -45166.016    34.829495   0.95411409 
    8800    254.09086    -854.4121    140068.67   -41687.133    3381.7758   -45068.908    35.297608    0.9538082 
    8900    253.50973   -1092.8614    140140.28   -41757.465    3374.0413   -45131.506    35.847182   0.95332078 
    9000    252.66446   -746.59916    140083.13   -41702.125    3362.7914   -45064.916    36.398224    0.9537097 
    9100    247.44981   -1218.1511    140059.04    -41702.48    3293.3879   -44995.868    36.784987   0.95387376 
    9200    250.80866   -904.73748    139946.53   -41741.563    3338.0919   -45079.655    36.899685   0.95464061 
    9300    253.67179   -1129.3143    139800.46   -41754.957    3376.1982   -45131.155    37.292876   0.95563808 
    9400    248.92202    -1036.043    139795.94   -41760.695     3312.982   -45073.677    37.917405     0.955669 
    9500     252.3297    -1111.212    139800.72   -41781.588    3358.3359   -45139.924    38.508952   0.95563631 
    9600    248.37448   -1118.0229    139834.88   -41832.646    3305.6947    -45138.34    38.978719   0.95540287 
    9700    253.65271   -1068.5052    139875.62   -41776.306    3375.9443    -45152.25    39.519697   0.95512459 
    9800    252.17922   -1112.2096    139737.54   -41808.556    3356.3331   -45164.889    39.752336   0.95606835 
    9900    252.35384   -1275.3758    139764.17   -41727.409    3358.6572   -45086.066    40.116042   0.95588619 
   10000    244.81516   -890.77253    139648.16   -41890.117    3258.3226    -45148.44    40.402118   0.95668028 
   10100    250.26517   -614.90764    139635.65   -41791.025    3330.8584   -45121.883    40.700799   0.95676603 
   10200    244.22754   -971.75376    139681.86    -41884.31    3250.5017   -45134.811    41.390562   0.95644951 
   10300    253.04431   -568.67591    139807.34   -41842.049     3367.847   -45209.896    41.633085   0.95559106 
   10400    254.57662   -1205.8185       139951    -41762.97    3388.2409   -45151.211    41.867703   0.95461011 
   10500    252.68779   -982.74525    139994.34   -41768.698    3363.1018   -45131.799    42.134546   0.95431462 
   10600    249.13606   -1006.6906    139945.59   -41773.516    3315.8307   -45089.347    42.653765   0.95464703 
   10700    252.02627   -976.26512    140055.55   -41808.945    3354.2975   -45163.242    42.980964   0.95389749 
   10800    252.69987    -1129.436    140048.78   -41756.067    3363.2626    -45119.33    43.305063   0.95394362 
   10900    256.33013   -956.32595    140125.46   -41651.301     3411.579    -45062.88     43.40088   0.95342161 
   11000    256.30654   -956.87296    140146.03   -41702.115     3411.265    -45113.38    43.888671   0.95328169 
   11100    252.71163   -899.28377    140176.52   -41747.167    3363.4192   -45110.586    44.205704   0.95307434 
   11200    252.65046   -958.23559    140339.47   -41736.673     3362.605   -45099.278      44.6298   0.95196767 
   11300    253.67148   -964.42234    140328.86   -41797.645    3376.1941   -45173.839    45.111561   0.95203965 
   11400    251.45891   -1012.9636    140371.77   -41807.937    3346.7463   -45154.684    45.467049   0.95174863 
   11500    245.21822   -1011.5352    140383.11   -41936.053     3263.687    -45199.74    46.232971   0.95167177 
   11600    245.13372   -1075.9908    140317.98   -41976.839    3262.5624   -45239.401    46.503809   0.95211347 
   11700    250.74555   -1098.0636    140269.71   -41897.974     3337.252   -45235.226     47.00138   0.95244117 
   11800    250.57964   -952.79071    140343.82   -41849.104    3335.0439   -45184.148    47.404124   0.95193819 
   11900    247.87825   -1124.5161    140273.11   -41943.478    3299.0901   -45242.568    47.563664   0.95241805 
   12000    247.70633   -1350.1713    140294.85   -41892.986     3296.802   -45189.788    47.949618   0.95227048 
   12100    246.11452   -1018.9048    140251.17   -41902.476    3275.6161   -45178.092    48.038633   0.95256706 
   12200    252.83304   -1369.7413    140268.87   -41774.386     3365.035   -45139.421    48.066388   0.95244681 
   12300    250.21895    -988.0638     140234.1   -41723.969    3330.2433   -45054.213    48.574615   0.95268298 
   12400    252.27988   -1426.1906    140162.52   -41693.685    3357.6729   -45051.358    49.017825   0.95316953 
   12500     250.4458   -980.39838    140091.97   -41717.745    3333.2625   -45051.007    49.466425   0.95364956 
   12600    248.68166   -1025.0607    139851.14   -41750.136     3309.783   -45059.919    49.738596   0.95529173 
   12700    247.52707   -1214.0237    139636.97   -41727.454    3294.4163    -45021.87    49.925484   0.95675697 
   12800    247.62699   -839.80002    139561.06   -41804.563     3295.746   -45100.309    50.368762   0.95727737 
   12900    251.77499   -1059.3961    139696.13   -41794.062    3350.9531   -45145.015    51.012108   0.95635177 
   13000    248.79047   -724.98771    139801.54   -41813.373    3311.2311   -45124.605    51.600208   0.95563072 
   13100    250.53678   -887.74879    139879.31   -41809.716    3334.4733   -45144.189     52.02368   0.95509938 
   13200    251.53331   -1065.4499    139988.84   -41758.555    3347.7365   -45106.291    52.422233   0.95435208 
   13300    250.91507   -927.78883    140128.75    -41732.45    3339.5082   -45071.958    52.561055   0.95339922 
   13400    252.03875   -1118.5365    140102.94   -41788.674    3354.4636   -45143.137     52.90696   0.95357489 
   13500    247.58232   -968.47541    139984.23   -41791.596    3295.1515   -45086.747    53.530841   0.95438349 
   13600    247.45357   -849.45938    139950.98   -41809.521     3293.438   -45102.959    53.703341   0.95461023 
   13700    251.48299   -1060.6527    140038.41   -41780.057    3347.0668   -45127.124    53.753803   0.95401426 
   13800    257.02179   -810.88816    140262.13   -41780.746    3420.7845    -45201.53    54.231049    0.9524926 
   13900    244.13612   -814.29471    140240.08   -41820.087     3249.285   -45069.372     54.67896   0.95264238 
   14000    244.49325   -994.27427    140289.45   -41884.178    3254.0382   -45138.216    55.042175   0.95230713 
   14100    248.33732   -1267.4128    140285.59    -41875.18    3305.2001    -45180.38    55.634361   0.95233331 
   14200    251.08757   -847.97354    140311.31   -41823.112     3341.804   -45164.916    56.110259   0.95215877 
   14300    246.70558   -1074.9649    140363.32   -41809.298    3283.4827    -45092.78    56.640164   0.95180592 
   14400    247.28323   -1422.1402    140366.75    -41838.41    3291.1708    -45129.58    56.982611   0.95178272 
   14500     247.7705   -1154.9765    140342.99   -41851.754     3297.656    -45149.41    57.512479   0.95194382 
   14600    251.10235   -1100.5443    140252.99   -41795.786    3342.0008   -45137.787    57.965664   0.95255467 
   14700    247.82504    -726.7287    140427.81   -41766.402     3298.382   -45064.784    58.213231   0.95136885 
   14800    251.35337   -875.44584    140359.41   -41811.457    3345.3416   -45156.798    58.389108   0.95183246 
   14900    251.08485   -960.27556    140334.78   -41817.759    3341.7679   -45159.526      58.7567   0.95199952 
   15000     246.3237   -858.50098    140461.55   -41906.057    3278.4002   -45184.457    59.077138   0.95114033 
   15100    250.34876   -1090.8433    140411.84   -41886.348     3331.971   -45218.319    59.832195   0.95147703 
   15200    249.08202   -969.21211    140510.16   -41929.049    3315.1115   -45244.161    59.933175   0.95081123 
   15300    251.78644   -816.54312    140539.47   -41857.794    3351.1055   -45208.899    60.183792   0.95061294 
   15400    247.69883   -958.32472     140630.3   -41831.068    3296.7023    -45127.77    60.800547   0.94999898 
   15500     252.6744   -894.49862    140700.37   -41831.563    3362.9237   -45194.487    60.897645   0.94952591 
   15600    246.96144   -1019.9505    140664.24    -41876.21    3286.8881   -45163.098    61.198715   0.94976974 
   15700    251.08398    -1088.268    140805.21   -41884.017    3341.7562   -45225.774    61.449332   0.94881891 
   15800    250.74587    -1139.904    140800.66   -41873.308    3337.2562   -45210.565    62.234793   0.94884956 
   15900    247.09049   -1156.3687    140715.74    -41847.09    3288.6056   -45135.696    62.327702   0.94942214 
   16000    249.42797   -1133.5909    140644.83   -41903.698     3319.716   -45223.414    62.382445   0.94990083 
   16100    245.46592   -899.18055    140561.87   -41883.043    3266.9836   -45150.027    62.828336   0.95046151 
   16200    255.42423   -1017.3721    140418.31   -41760.623    3399.5221   -45160.145    63.142629    0.9514332 
   16300    254.48005   -1247.1225    140334.95   -41712.479    3386.9557   -45099.434    63.668887   0.95199834 
   16400    255.83496   -1018.8209    140255.95   -41721.812    3404.9885     -45126.8    64.171001   0.95253461 
   16500     251.9331   -995.37334    140300.26   -41733.374    3353.0575   -45086.432    64.645144   0.95223372 
   16600    250.28921   -1034.4649    140382.86   -41771.875    3331.1784   -45103.054    65.005916   0.95167345 
   16700    253.90877   -787.68709    140401.84   -41775.875    3379.3522   -45155.228     65.27232   0.95154482 
   16800    251.77109   -842.29575    140417.17   -41759.835    3350.9012   -45110.736    65.484087   0.95144094 
   16900    250.22819   -1017.8522    140464.59   -41769.576    3330.3663   -45099.942    65.935306   0.95111974 
   17000    250.91688    -1095.394    140398.01    -41778.63    3339.5322   -45118.162    66.125788   0.95157075 
   17100    250.55749   -990.85524    140365.26   -41789.767     3334.749   -45124.516    66.963558   0.95179282 
   17200    252.18964   -1159.1009    140327.09   -41738.657    3356.4719   -45095.129    67.548701   0.95205168 
   17300    255.61433   -1099.0829    140260.69   -41695.976    3402.0521   -45098.028    67.935599   0.95250239 
   17400    248.62999   -905.07807    140213.44   -41769.563    3309.0953   -45078.658    68.117447    0.9528234 
   17500    251.31709    -1051.598    140225.05    -41779.68    3344.8588   -45124.539    68.507299    0.9527445 
   17600    248.38186   -879.53929    140247.66    -41822.55    3305.7929   -45128.343    69.070775   0.95259087 
   17700    249.69854   -893.01586    140228.59   -41853.525    3323.3169   -45176.842    69.533745   0.95272046 
   17800    245.99006   -1081.9558    140280.62   -41856.962    3273.9596   -45130.922    69.972407   0.95236706 
   17900    246.09259   -979.91693     140258.5   -41882.942    3275.3243   -45158.266    70.042492   0.95251725 
   18000    245.52496   -798.07319     140291.4   -41937.069    3267.7696   -45204.839    70.331089   0.95229391 
   18100    244.62707   -1261.4098    140281.52    -41949.19    3255.8192   -45205.009    71.025709   0.95236093 
   18200    247.81967   -1070.2174    140169.94    -41836.11    3298.3105   -45134.421    71.158335   0.95311904 
   18300    249.83507   -1113.1942    140042.61   -41880.929    3325.1342   -45206.063    71.558352   0.95398566 
   18400    246.54741   -1159.5901    140010.05   -41897.305    3281.3776   -45178.682    71.851673   0.95420751 
   18500    248.78549    -995.7494    140101.62   -41847.936    3311.1649   -45159.101     72.38211   0.95358383 
   18600    254.96801   -1073.7817    139996.32    -41830.39      3393.45    -45223.84    72.806846   0.95430108 
   18700    253.43419   -978.75973    139907.84   -41781.826    3373.0359   -45154.862    73.222359   0.95490464 
   18800     250.5711   -1051.0125       139983   -41822.394    3334.9302   -45157.324    73.435028   0.95439191 
   18900    244.93117   -716.41878    140065.14   -41886.669    3259.8666   -45146.535    74.253653   0.95383219 
   19000    246.82922   -747.63821     140228.7   -41844.421    3285.1283   -45129.549    74.887399   0.95271966 
   19100    251.20865    -742.4485    140329.91   -41887.567    3343.4156   -45230.982    75.396445   0.95203252 
   19200    249.88327   -960.58155    140373.12   -41866.924    3325.7756     -45192.7    75.897286   0.95173952 
   19300    248.31652   -1080.0411    140380.63   -41806.306    3304.9232    -45111.23     76.13029   0.95168857 
   19400    248.62255   -1121.1833    140223.57   -41810.663    3308.9963   -45119.659    76.176265   0.95275457 
   19500    251.06705   -1242.2648    140121.03   -41802.189    3341.5309    -45143.72     76.44263   0.95345178 
   19600     248.0815   -1340.1362     139860.6   -41803.181    3301.7953   -45104.976    76.314235   0.95522713 
   19700    252.59928   -1024.5189    139756.07    -41820.39    3361.9238   -45182.314    77.002826    0.9559416 
   19800    249.80882   -857.68643    139913.22   -41735.676    3324.7847   -45060.461    77.681799   0.95486787 
   19900    251.11025   -1102.9273    140035.68   -41753.157    3342.1059   -45095.263     77.90108    0.9540329 
   20000    253.65993    -923.0399    140102.26   -41660.516    3376.0404   -45036.557    78.158547   0.95357953 
   20100    252.92261   -1183.9294    140037.84   -41685.118    3366.2272   -45051.346    78.171922   0.95401816 
   20200    252.98187   -1241.2526    140060.19   -41657.091    3367.0159   -45024.107    78.900051   0.95386589 
   20300    252.57695   -899.75177    139998.71   -41615.223    3361.6266   -44976.849    79.418857   0.95428483 
   20400    251.66447   -906.39513    140007.09   -41706.161    3349.4822   -45055.643    79.757797   0.95422768 
   20500    253.79416   -638.90494    140049.19   -41662.918     3377.827   -45040.745    80.348051   0.95394086 
   20600    253.80529   -976.69701    139904.39   -41716.152     3377.975   -45094.127    80.587307   0.95492815 
   20700    257.45604   -930.51471    139958.38    -41768.07     3426.564   -45194.634    80.852988   0.95455976 
   20800    249.04484   -984.31382    139910.65   -41778.373    3314.6167    -45092.99    81.051566   0.95488542 
   20900    247.99674    -1078.669    139935.11   -41814.071    3300.6672   -45114.738    81.234314   0.95471856 
   21000     249.4738   -795.65011    139780.79   -41790.612    3320.3259   -45110.938    81.960033   0.95577255 
   21100    250.78897   -851.55708    139771.67   -41797.868    3337.8299   -45135.698    82.349854   0.95583492 
   21200    246.05407   -1087.1701    139702.51   -41863.212    3274.8116   -45138.024    82.683275   0.95630808 
   21300    248.70131   -1007.1764    139875.03   -41895.021    3310.0445   -45205.065    82.945618    0.9551286 
   21400    244.51397    -1012.361    140093.82   -41808.016    3254.3139    -45062.33    83.279612   0.95363694 
   21500    257.28027   -978.25265    140143.85   -41680.318    3424.2247   -45104.543    83.482349   0.95329651 
   21600    251.22871   -921.45399    140167.07   -41797.609    3343.6825   -45141.292    83.918332   0.95313861 
   21700    246.81886   -940.98343    140169.77   -41802.125    3284.9905   -45087.115    84.243871    0.9531202 
   21800    254.20458    -912.4107     140045.7   -41735.388    3383.2893   -45118.677    84.348489   0.95396458 
   21900    250.95242   -1081.3689    140185.46   -41758.862    3340.0052   -45098.868    84.874952   0.95301351 
   22000    247.80266   -1086.0762    140028.85   -41719.947    3298.0841   -45018.031    85.181671   0.95407943 
   22100     250.3203   -1170.9307    140147.69   -41736.957    3331.5922   -45068.549    85.339684   0.95327038 
   22200    255.70714   -927.24144    140058.63   -41686.154    3403.2873   -45089.442    85.437227   0.95387656 
   22300    251.82913   -949.31687    140079.63   -41692.155    3351.6737   -45043.829    86.228239   0.95373355 
   22400    250.31774    -1079.039    140090.18   -41820.563    3331.5582   -45152.121    86.676248   0.95366172 
   22500    249.88359   -1001.3161    140079.48   -41781.997    3325.7798   -45107.777    87.040116   0.95373456 
   22600    246.66294   -936.81567    140056.02   -41772.615    3282.9153    -45055.53    87.388108    0.9538943 
   22700    250.06639   -1066.5377    140161.66    -41776.61    3328.2128   -45104.823    87.721394   0.95317535 
   22800    245.12066   -950.64404    140134.89   -41830.144    3262.3886   -45092.532    87.814164   0.95335744 
   22900    245.83638   -982.68626    140200.62   -41928.163    3271.9143   -45200.077    88.265964   0.95291048 
   23000    247.14068   -1300.4981    140090.78   -41822.982    3289.2737   -45112.256    88.688294   0.95365764 
   23100     249.5264   -1275.0903    140062.43    -41779.39    3321.0259   -45100.416    88.832437   0.95385065 
   23200    248.95955   -986.94264    140073.68   -41772.352    3313.4815   -45085.834    88.942451   0.95377409 
   23300    249.42816   -1213.3897    140103.04   -41782.429    3319.7184   -45102.147    89.296912   0.95357419 
   23400     244.4233   -1056.5559    140012.91   -41825.248    3253.1072   -45078.355     89.64366   0.95418801 
   23500    249.42995   -1060.5061    140034.23   -41748.093    3319.7423   -45067.836    90.354449   0.95404276 
   23600    246.23745   -1082.3677     140029.6   -41770.132    3277.2523   -45047.385    90.838015    0.9540743 
   23700    245.50111   -748.57185    140112.99   -41811.542     3267.452   -45078.994    91.652294   0.95350649 
   23800    250.91676   -838.70643    140147.43   -41765.008    3339.5306   -45104.538    92.017869   0.95327215 
   23900    247.28274   -917.56266    140149.81   -41701.534    3291.1643   -44992.699    92.514137   0.95325594 
   24000    250.59751   -1088.7296    140117.19   -41675.852    3335.2817   -45011.134    93.177497   0.95347785 
   24100    248.49096   -1041.3094    140049.32   -41704.933     3307.245   -45012.178    93.599735   0.95393993 
   24200    252.10996   -924.66523    140082.38   -41629.923    3355.4113   -44985.334    93.951089   0.95371484 
   24300    253.53439   -1064.8676    140169.19   -41647.394    3374.3696   -45021.764    94.513799   0.95312417 
   24400    256.81523   -1010.2183    140164.96   -41601.561    3418.0353   -45019.597    94.757511   0.95315292 
   24500    251.33342   -1060.4446    140208.52   -41656.814    3345.0761    -45001.89    95.190792   0.95285679 
   24600    250.22526   -974.63763    140226.74   -41720.457    3330.3273   -45050.784    95.653562   0.95273298 
   24700    252.75301   -1173.5776    140072.53   -41683.592    3363.9699   -45047.562    96.371915   0.95378189 
   24800    252.18894   -1012.7666    140062.44   -41636.904    3356.4625   -44993.367    96.875536   0.95385058 
   24900    250.27419   -901.94305    140079.62   -41730.571    3330.9785   -45061.549    97.759869   0.95373361 
   25000    250.98456   -1161.0485     139899.1    -41743.06     3340.433   -45083.493    98.097206    0.9549643 
   25100    247.93383   -943.98941    139726.26   -41744.036    3299.8299   -45043.866    98.452063   0.95614557 
   25200    249.84162   -1405.4754    139835.43   -41747.731    3325.2212   -45072.953    99.196227   0.95539907 
   25300    247.47112   -772.72535    139629.02   -41772.497    3293.6715   -45066.169    99.758796   0.95681144 
   25400    247.21601   -1002.0145    139639.43   -41761.219    3290.2762   -45051.496    100.26632    0.9567401 
   25500    251.03524   -959.88004    139589.02   -41719.487    3341.1076   -45060.595     100.4496   0.95708559 
   25600    251.80409   -776.38272    139660.21   -41782.547    3351.3405   -45133.888    101.01826   0.95659774 
   25700    246.01338   -962.35644     139683.3   -41787.272      3274.27   -45061.542    101.35874   0.95643963 
   25800    250.47085    -1023.729    139632.85   -41793.855     3333.596   -45127.451    101.54371   0.95678516 
   25900    244.08956   -975.91453    139610.47   -41947.203    3248.6654   -45195.868    101.91837   0.95693858 
   26000    248.47794    -773.0671    139593.97   -41822.231    3307.0717   -45129.302     102.2261    0.9570517 
   26100    248.19872   -967.51608    139838.71   -41875.152    3303.3554   -45178.508    102.64762    0.9553767 
   26200     249.2436    -793.0517    139929.38   -41770.362    3317.2621   -45087.624    102.68208   0.95475764 
   26300      250.261    -857.5889    139995.97   -41736.471    3330.8029   -45067.274    103.16856    0.9543035 
   26400    248.25925    -997.5086    140156.29   -41800.451     3304.161   -45104.612    103.76042   0.95321187 
   26500    250.86186   -891.72133     140218.2   -41669.737       3338.8   -45008.537    103.79951     0.952791 
   26600    253.35691    -1020.123    140238.28   -41691.279    3372.0073   -45063.287    104.27416    0.9526546 
   26700    253.18949   -859.02811    140012.51   -41712.952    3369.7792   -45082.731    104.58245   0.95419077 
   26800    256.23397   -1163.4067    139982.23   -41708.604     3410.299   -45118.903    105.19892   0.95439714 
   26900    248.46317   -899.35061    140011.95   -41794.267     3306.875   -45101.142    105.22516    0.9541946 
   27000    246.83262   -1122.2609    140035.91   -41806.365    3285.1736   -45091.538    105.72517   0.95403128 
   27100    250.42072    -965.9315    139805.64   -41856.097    3332.9287   -45189.025    105.86552   0.95560265 
   27200    253.67718   -940.34649     139790.2    -41799.37      3376.27    -45175.64    106.18521   0.95570821 
   27300    254.57687   -882.09457    139968.19   -41735.109    3388.2443   -45123.353    106.99213   0.95449287 
   27400    256.90595   -911.94684    140005.73   -41732.112    3419.2426   -45151.355    107.79997   0.95423695 
   27500      252.119    -804.7939    140145.38   -41804.194    3355.5317   -45159.726     107.8029    0.9532861 
   27600    252.12643   -1025.3146    140222.66   -41765.332    3355.6305   -45120.963     108.2335   0.95276069 
   27700    251.94642   -971.69512     140427.3   -41750.623    3353.2347   -45103.858    108.80613   0.95137229 
   27800    250.71444   -1025.5073    140289.31   -41699.525     3336.838   -45036.363    108.97029    0.9523081 
   27900    249.44767   -1114.2789       140355   -41743.461    3319.9781   -45063.439    109.50334   0.95186239 
   28000    252.26896   -1176.1964    140343.82   -41625.173    3357.5276   -44982.701    109.79539   0.95193816 
   28100    252.71279   -1043.8815    140254.99   -41723.059    3363.4346   -45086.494    110.43987   0.95254112 
   28200    248.40819   -1031.2997    140195.35   -41827.808    3306.1433   -45133.952    111.27669   0.95294635 
   28300    250.82743     -942.445    140323.24   -41870.781    3338.3418   -45209.123    112.06098   0.95207778 
   28400    254.35586   -1093.4618    140257.76   -41774.157    3385.3028    -45159.46     112.5415   0.95252226 
   28500    251.74861   -710.73796    140383.27   -41747.358     3350.602    -45097.96     112.5248    0.9516707 
   28600    244.37114   -1047.8461    140542.15   -41820.391    3252.4129   -45072.804    113.06981   0.95059483 
   28700    246.62107   -741.81491       140555   -41885.378    3282.3579   -45167.736    113.49307   0.95050793 
   28800    250.90056   -885.77424    140586.66   -41839.317     3339.315   -45178.632    113.78082   0.95029389 
   28900    253.90014   -860.62819    140504.41   -41840.512    3379.2374   -45219.749    113.97303   0.95085017 
   29000     248.3058   -1111.3827    140527.07   -41869.354    3304.7806   -45174.135    114.27199   0.95069683 
   29100    248.20816   -830.79734    140465.93   -41818.321    3303.4811   -45121.802    114.78458   0.95111068 
   29200     250.8619   -935.40309    140446.58   -41855.791    3338.8005   -45194.592    115.57614    0.9512417 
   29300    249.03832   -1015.2743    140411.91    -41846.82    3314.5299   -45161.349    115.88147   0.95147656 
   29400    248.43856   -798.05317     140296.6   -41824.572    3306.5475   -45131.119    116.46331   0.95225856 
   29500    249.98516     -967.101    140326.78   -41884.638    3327.1317    -45211.77    116.90217   0.95205379 
   29600    249.79382   -1011.4574     140260.7   -41853.687    3324.5851   -45178.272    117.07527   0.95250231 
   29700    249.93334   -1230.0433    140295.67   -41783.816     3326.442   -45110.258    117.18565   0.95226492 
   29800    246.12457    -957.2384    140224.75   -41800.504    3275.7498   -45076.254    117.43451   0.95274649 
   29900    254.27121   -1199.6517    140254.72   -41717.507    3384.1761   -45101.683    118.16118   0.95254292 
   30000    255.24843   -992.97497    140169.89   -41723.071    3397.1822   -45120.253    118.56638   0.95311938 
   30100     252.3337   -1039.8394    140148.32   -41742.588    3358.3892   -45100.977     119.5705   0.95326611 
   30200    249.39656    -786.3493    140162.87   -41758.168    3319.2978   -45077.466    119.93931   0.95316715 
   30300    244.41389   -956.97808    140269.98   -41718.359    3252.9819   -44971.341    119.84896    0.9524393 
   30400      250.775   -1063.0854    140348.43   -41768.142     3337.644   -45105.786    120.25459   0.95190693 
   30500    246.26497   -1319.4178     140297.7   -41838.836    3277.6186   -45116.455    120.48853   0.95225113 
   30600    246.71733   -1047.9752    140235.84   -41807.533    3283.6392   -45091.173    121.26271   0.95267118 
   30700    249.34148   -887.23779    140100.49   -41815.715    3318.5648   -45134.279    121.65687   0.95359154 
   30800    249.32766   -1025.0955    140139.47    -41793.93    3318.3808   -45112.311     122.0173   0.95332631 
   30900    249.54014   -1111.2385    140176.85   -41775.701    3321.2088    -45096.91    122.28224   0.95307205 
   31000    246.21624   -1054.8026    140291.56    -41759.82    3276.9699    -45036.79    122.67565   0.95229282 
   31100    248.28614    -1208.053    140152.54   -41806.078    3304.5189   -45110.597    122.95337   0.95323738 
   31200    241.43902   -1278.7319    139921.45   -41887.595    3213.3884   -45100.983    123.12306   0.95481176 
   31300    250.32053   -752.35106    139970.98   -41789.966    3331.5952   -45121.561    123.31289   0.95447387 
   31400    254.34418   -951.14583    140041.18   -41804.393    3385.1473    -45189.54    123.43788   0.95399542 
   31500    256.50842     -826.443    140155.17   -41741.067    3413.9519   -45155.019    123.74028   0.95321952 
   31600    252.36305   -948.09005    140248.23   -41741.072    3358.7798   -45099.851    124.02971   0.95258699 
   31700    253.55696   -845.71917    140230.78   -41752.434      3374.67   -45127.104    124.31737   0.95270558 
   31800    250.14842   -1099.5326    140044.76   -41759.674    3329.3046   -45088.978    124.82514   0.95397099 
   31900    248.80305   -1134.2977     140165.1   -41686.561    3311.3987   -44997.959    125.36388   0.95315198 
   32000    252.80787    -881.7639    140091.39   -41661.793    3364.7001   -45026.493    125.79142   0.95365352 
   32100    248.37098   -1041.5106    140030.93    -41756.16     3305.648   -45061.808    126.32975   0.95406521 
   32200    243.05732   -1133.5925    140117.17   -41686.863    3234.9269    -44921.79     126.6139   0.95347801 
   32300    249.40464   -851.85439    140234.07   -41719.867    3319.4054   -45039.272    126.45743   0.95268319 
   32400    253.90834   -1198.5693    140213.82   -41668.595    3379.3465   -45047.941    126.78196   0.95282078 
   32500    254.14664   -1098.8316    140131.16   -41707.985    3382.5181   -45090.503    127.15501   0.95338283 
   32600    250.30844   -1259.3591    140130.25   -41747.276    3331.4343    -45078.71    127.37252   0.95338902 
   32700    248.70796   -1052.5945    140285.05   -41727.644    3310.1331   -45037.777    127.62086   0.95233699 
   32800    250.16749   -978.62847    140352.28   -41764.039    3329.5584   -45093.597    127.99825   0.95188084 
   32900    251.09777   -985.88103    140309.49   -41863.229    3341.9398   -45205.169    128.44936    0.9521711 
   33000    248.18461   -1261.1645     140186.1   -41821.045    3303.1676   -45124.213    128.72159   0.95300922 
   33100    247.59297   -1157.3777    140151.02    -41887.62    3295.2933   -45182.913    129.17828   0.95324773 
   33200    249.26254   -1069.7074    140296.78   -41777.982    3317.5142   -45095.496    129.76105   0.95225738 
   33300    250.04316   -1103.5983    140323.28   -41750.431    3327.9036   -45078.335    130.23741   0.95207755 
   33400    251.70145     -1399.35    140219.48   -41810.313    3349.9744   -45160.288    130.41658   0.95278231 
   33500     248.9313   -949.42751    140234.45   -41723.729    3313.1056   -45036.835    131.10178   0.95268058 
   33600    253.98451   -952.16311    140232.36   -41771.009    3380.3603   -45151.369    131.45643   0.95269483 
   33700    246.37729   -1354.5306    140269.93   -41799.552    3279.1135   -45078.666    132.08206   0.95243963 
   33800    251.84239   -1040.8893    140178.78   -41801.264    3351.8501   -45153.114    132.00148   0.95305894 
   33900    247.41732   -1100.0217    140097.67   -41794.858    3292.9555   -45087.814    132.08208   0.95361076 
   34000    250.85596   -922.68224    140152.08   -41804.166    3338.7215   -45142.887    132.44705   0.95324053 
   34100    248.03665   -1112.0511     140195.9   -41828.363    3301.1984   -45129.561    133.16803   0.95294255 
   34200    254.39933   -961.33792     140175.5   -41816.175    3385.8813   -45202.056    133.53907   0.95308124 
   34300     252.0843   -981.47941     140129.6   -41844.092    3355.0699   -45199.162    133.92166   0.95339344 
   34400    258.13091   -1021.0925    140056.08   -41760.343     3435.546   -45195.889    134.17467   0.95389389 
   34500      252.091   -1005.9281    140086.67   -41702.706     3355.159   -45057.865     134.8146   0.95368565 
   34600    252.83549   -1124.7334    140300.16   -41747.289    3365.0677   -45112.356    135.46883   0.95223441 
   34700    249.13584   -1085.8537    140266.04   -41801.708    3315.8279   -45117.536    136.14404   0.95246604 
   34800    248.45828   -1104.7841    140338.93   -41829.507    3306.8099   -45136.317    136.63906   0.95197134 
   34900     249.9328   -992.69637     140120.6   -41819.369    3326.4348   -45145.804    136.95064   0.95345465 
   35000    245.96734   -1061.9059    140040.05    -41853.92    3273.6572   -45127.577    137.25574   0.95400308 
   35100    251.45906   -781.58989    140074.11   -41760.998    3346.7483   -45107.747    137.55665   0.95377111 
   35200    258.22596   -844.73472    140308.12   -41657.681    3436.8111   -45094.492    138.16079   0.95218042 
   35300    251.83347   -959.40077    140316.57   -41677.934    3351.7314   -45029.666    138.22243   0.95212307 
   35400    247.34785   -1162.5562    140229.67   -41738.895    3292.0309   -45030.926    138.34315   0.95271307 
   35500    248.19137   -1323.7389     140099.1   -41701.707    3303.2576   -45004.965    138.77048   0.95360101 
   35600    248.85628   -1001.8457    139969.09   -41709.723    3312.1071    -45021.83    139.34083   0.95448675 
   35700     247.2676   -989.83832    140063.68   -41679.261    3290.9629   -44970.224    139.89246   0.95384217 
   35800    252.10189   -1036.7577    140081.85   -41666.366     3355.304    -45021.67    140.35838   0.95371847 
   35900    246.93494   -1273.9019    139978.98   -41634.231    3286.5354   -44920.766    140.89017   0.95441934 
   36000    247.94538   -1100.9864    139917.81   -41684.135    3299.9836   -44984.119    141.14147   0.95483656 
   36100    250.73395   -1112.3423    140030.23   -41698.886    3337.0976   -45035.983     141.6153   0.95407001 
   36200    254.78009   -1045.9631    140201.06   -41674.147    3390.9489   -45065.096    142.02242    0.9529075 
   36300    256.51686   -941.85353    140391.71    -41658.34    3414.0642   -45072.404    142.63925   0.95161348 
   36400    251.30536   -949.40517    140220.42    -41695.75    3344.7027   -45040.453    142.77913   0.95277594 
   36500    256.70666   -1038.2873    140165.06   -41594.013    3416.5903   -45010.604    142.72209   0.95315227 
   36600    249.32545   -1147.3151     140169.4     -41710.1    3318.3514   -45028.451    143.08974   0.95312272 
   36700    253.22516   -1014.7122    139968.33   -41747.522    3370.2539   -45117.776    143.28974   0.95449195 
   36800    249.28958   -1138.2615    140008.03   -41788.143     3317.874   -45106.017    143.75915   0.95422127 
   36900    248.86274   -796.84204    140125.09   -41847.671     3312.193   -45159.864     144.3184   0.95342414 
   37000    249.26458   -856.21451    140084.08   -41810.975    3317.5413   -45128.517    145.27829   0.95370323 
   37100    247.12444   -972.40001    140166.45   -41838.611    3289.0575   -45127.669    145.50837    0.9531428 
   37200    245.77912   -1189.9783    140259.48   -41838.528    3271.1522    -45109.68    145.77845   0.95251059 
   37300    246.09166   -784.53332    140338.32   -41836.841    3275.3118   -45112.153    146.15791   0.95197553 
   37400    246.62084   -1040.6751    140227.79   -41873.753    3282.3549   -45156.108     146.3466   0.95272587 
   37500     242.0406   -879.48477    140276.29   -41909.309     3221.395   -45130.704    146.38262   0.95239646 
   37600    247.92078    -997.5225    140296.93   -41860.739    3299.6563   -45160.396    146.88042   0.95225634 
   37700    244.08911   -1133.1584    140302.78   -41860.412    3248.6593   -45109.072    147.91801   0.95221663 
   37800    244.92673     -1193.86    140227.52   -41892.467    3259.8075   -45152.274    148.23876   0.95272773 
   37900    247.46614     -816.075    140228.92   -41878.959    3293.6053   -45172.564     148.6035   0.95271818 
   38000    249.12124   -905.40766    140330.62   -41903.504    3315.6335   -45219.137    148.71674   0.95202773 
   38100    249.82234   -1007.8324    140327.58   -41919.705    3324.9647   -45244.669     148.7646   0.95204835 
   38200    245.92318    -896.1942    140310.44   -41907.958    3273.0696   -45181.027    149.04961   0.95216466 
   38300    243.52506   -1072.1677    140370.75   -41960.456    3241.1522   -45201.608    149.50658   0.95175558 
   38400    246.22855   -1242.3759    140414.93   -42002.887    3277.1339   -45280.021    150.25514   0.95145609 
   38500    248.93089   -911.44805    140338.93   -42010.331    3313.1001   -45323.431    150.62542   0.95197136 
   38600    252.05597   -1159.1594    140303.66    -41961.57    3354.6928   -45316.263    151.33672   0.95221066 
   38700    247.24025   -922.10238    140260.45   -41941.159    3290.5988   -45231.758    151.57676   0.95250401 
   38800    256.59979   -1023.7892    140357.83   -41874.705     3415.168   -45289.873    151.96194    0.9518432 
   38900    250.52568   -954.59697    140480.53   -41847.249    3334.3257   -45181.575    152.63461   0.95101184 
   39000    248.51752   -992.99899     140467.8   -41909.745    3307.5985   -45217.343    152.87238   0.95109796 
   39100    252.84146   -1021.4173    140454.34   -41864.819    3365.1471   -45229.966    153.06712   0.95118915 
   39200    253.05776    -1224.983    140511.37    -41935.39     3368.026   -45303.416    153.63484   0.95080306 
   39300    248.06043   -1178.3948    140510.19   -41913.572    3301.5148   -45215.087    154.28714   0.95081105 
   39400    250.13694   -913.56242    140549.55   -41893.156    3329.1518   -45222.308    154.14752   0.95054481 
   39500    256.79879   -835.20587    140757.54   -41921.919    3417.8164   -45339.735    154.83537   0.94914019 
   39600    252.08523   -829.02969    140763.01   -41890.761    3355.0822   -45245.844    155.26886   0.94910331 
   39700    247.28832   -1069.4753    140633.32   -41939.483    3291.2385   -45230.721    155.77409   0.94997858 
   39800    248.39579   -940.36912    140654.98   -41938.989    3305.9782   -45244.967     155.7383   0.94983227 
   39900    243.80909    -1133.454    140753.17   -42026.959    3244.9325   -45271.891    156.00559   0.94916971 
   40000    245.56884   -1000.2865    140727.92   -42035.143    3268.3535   -45303.496    156.30282   0.94933996 
   40100    246.92601   -938.42958    140890.76   -41938.137    3286.4165   -45224.553    157.30749   0.94824278 
   40200    247.48564   -886.57771    140918.51   -41891.544    3293.8648   -45185.409    157.92263   0.94805602 
   40300    252.80294   -1031.1006    141088.44   -41911.016    3364.6344    -45275.65    158.60767   0.94691417 
   40400    248.67047   -1066.2061    141050.97   -41891.814     3309.634   -45201.448    158.52941   0.94716569 
   40500    247.02919   -933.25791    140899.19   -41937.372    3287.7898   -45225.162    158.25774   0.94818599 
   40600     245.0422   -920.59943    140812.53   -41864.748    3261.3443   -45126.092    158.28465   0.94876958 
   40700    252.35811    -1009.899    140896.38   -41922.661     3358.714   -45281.375    158.39844   0.94820492 
   40800    246.48093    -1123.065     140794.6    -41943.37    3280.4928   -45223.863    159.04586   0.94889035 
   40900    249.78703   -1237.9371    140585.55   -41885.685    3324.4947    -45210.18    159.29252   0.95030138 
   41000    248.75891   -974.57604    140714.41   -41934.995    3310.8111   -45245.806    159.60288   0.94943112 
   41100     248.9219   -938.51097    140939.21   -41982.075    3312.9805   -45295.055    159.80538    0.9479168 
   41200    253.41159   -1119.8231    140946.97   -41846.507    3372.7352   -45219.242    160.33108   0.94786458 
   41300     251.5452   -1140.2205    140907.73   -41946.481    3347.8948   -45294.376    160.12172   0.94812857 
   41400    249.25562   -844.79682    140930.85   -41931.866     3317.422   -45249.288     160.5613   0.94797301 
   41500    245.59007   -1061.0923    140845.09   -41952.295    3268.6361   -45220.931    160.86089   0.94855023 
   41600    247.95749   -1013.4652    141036.96   -41941.743    3300.1448   -45241.888    161.64047   0.94725979 
   41700    244.04732   -842.00563     141226.7   -42015.929    3248.1031   -45264.032    162.36704   0.94598717 
   41800    248.72833   -1407.0905    141082.32    -41963.82    3310.4041   -45274.224    162.56071   0.94695522 
   41900     250.6713   -1113.2964    140946.86   -41887.629    3336.2637   -45223.893    163.35881   0.94786536 
   42000     249.9973   -1027.5439    141106.52   -41945.587    3327.2932    -45272.88     164.1015   0.94679286 
   42100    250.84645   -1123.5963     141077.8   -41937.652    3338.5949   -45276.247    164.51898   0.94698559 
   42200    250.99919   -899.15851     140939.2   -41956.286    3340.6278   -45296.914     164.8882   0.94791686 
   42300    248.77476   -1219.3994    140899.97   -41950.475    3311.0221   -45261.497    165.50455   0.94818075 
   42400    250.30643   -1048.9762    140837.14   -42021.629    3331.4076   -45353.036    165.29016   0.94860378 
   42500     246.1011   -958.98271     140815.6   -41976.549    3275.4375   -45251.987    165.77587   0.94874886 
   42600    247.53486   -1055.3507    140920.01   -42015.702    3294.5199   -45310.222    165.96883   0.94804596 
   42700    248.10151   -1000.9897    140980.47   -42008.772    3302.0616   -45310.833    166.94489   0.94763939 
   42800    243.75491   -1024.3974    140991.81   -42076.124    3244.2113   -45320.335    167.71348   0.94756314 
   42900     248.2664   -1117.1529    140855.92   -42050.519    3304.2562   -45354.775     167.5431   0.94847732 
   43000    251.16352   -780.01157    141006.52   -42000.944    3342.8149   -45343.759    167.68952    0.9474643 
   43100     250.9229   -1118.4151     141004.9   -42044.151    3339.6123   -45383.763    167.77939   0.94747518 
   43200    253.50588   -815.18056     140994.1   -42003.802    3373.9901   -45377.793    167.85162   0.94754777 
   43300    245.84246   -1016.2553    141030.69   -42061.601    3271.9952   -45333.596    168.00048   0.94730194 
   43400    244.70857   -1308.7494    141089.26   -42106.317    3256.9039   -45363.221     168.8113   0.94690869 
   43500    247.21279   -1163.2438    141010.67   -42058.245    3290.2333   -45348.478    168.83744    0.9474364 
   43600    251.00247   -928.04163    140847.71   -42043.044    3340.6714   -45383.715    168.97782   0.94853258 
   43700    245.42285   -1145.6841     140836.4   -42063.936    3266.4105   -45330.346    169.37022   0.94860877 
   43800    246.95477   -1206.8242    140765.05   -41977.801    3286.7993     -45264.6    169.71627   0.94908956 
   43900     251.7573   -1185.2759    140744.88   -41993.534    3350.7177   -45344.252    170.23207    0.9492256 
   44000    244.49088    -973.6022    140735.29    -41983.33    3254.0066   -45237.337    170.54465   0.94929026 
   44100    245.99262    -1134.285    140707.08   -41910.348    3273.9937   -45184.342    170.60947   0.94948059 
   44200    252.45519   -1137.9816    140578.64   -41932.203    3360.0061   -45292.209    170.27855   0.95034809 
   44300    247.27127   -1076.9767    140461.13   -41966.998    3291.0117    -45258.01    169.94404   0.95114316 
   44400    245.97201    -1085.658    140460.51   -41990.676    3273.7194   -45264.395    170.45569   0.95114735 
   44500    247.24439   -931.29581    140490.33   -42003.606     3290.654    -45294.26    170.84561   0.95094546 
   44600     243.7995   -1058.1983    140397.48   -41974.249    3244.8048   -45219.054    171.55492   0.95157434 
   44700    244.41031   -1035.8726    140378.53   -42023.698    3252.9343   -45276.632     171.8609   0.95170282 
   44800    244.58017   -968.72088    140371.68   -41944.819    3255.1949   -45200.013    172.34341   0.95174924 
   44900    251.04399   -975.77668     140418.3   -41897.816     3341.224    -45239.04    172.48808   0.95143329 
   45000    247.76144   -981.05502    140490.09   -41897.434    3297.5355   -45194.969    172.76867   0.95094708 
   45100    245.42432   -1072.3377    140720.47   -41895.212      3266.43   -45161.642    173.12158   0.94939022 
   45200    250.97744   -1232.7012    140670.34   -41891.058    3340.3383   -45231.396    173.51781   0.94972861 
   45300    250.02691   -1114.6106    140741.16   -41893.579    3327.6874   -45221.267    174.24218    0.9492507 
   45400    250.04531   -751.02299    140830.86   -41890.319    3327.9322   -45218.251     174.3922   0.94864606 
   45500    247.22994   -1087.6364    140750.78   -41869.706    3290.4616   -45160.168     174.6783   0.94918579 
   45600    247.29009   -1157.8565    140742.11   -41885.536    3291.2622   -45176.798    175.03446   0.94924427 
   45700    248.70338   -1168.3235    140879.93   -41907.298    3310.0721    -45217.37    175.85275   0.94831566 
   45800    245.02254   -1087.0658    140932.39    -41809.27    3261.0826   -45070.352    175.91221   0.94796263 
   45900    251.71511   -1154.0937    141007.68   -41828.043    3350.1561   -45178.199    176.12552   0.94745648 
   46000    248.81233   -951.52701    140753.48   -41883.558    3311.5221    -45195.08    176.04243   0.94916762 
   46100    248.98274    -993.0031    140700.73   -41853.188    3313.7901   -45166.979    176.40818   0.94952346 
   46200    250.81519   -848.51311    140637.13   -41815.712    3338.1789   -45153.891    176.80527   0.94995282 
   46300    251.52311   -989.84578     140583.2    -41785.31    3347.6008    -45132.91    176.49276   0.95031728 
   46400    251.57867   -842.30122    140611.01   -41793.882    3348.3403   -45142.222    176.73877   0.95012931 
   46500    248.39147   -1125.6914    140613.01   -41850.615    3305.9208   -45156.536    176.89629   0.95011583 
   46600    254.95833   -514.63252     140634.7   -41776.966    3393.3212   -45170.287     177.0119   0.94996926 
   46700    255.05224   -1178.5465    140660.26   -41812.443     3394.571   -45207.014    177.37183   0.94979664 
   46800    254.62772    -813.0598    140691.27   -41711.599     3388.921    -45100.52    177.46889   0.94958727 
   46900    256.82867    -810.2261    140883.86   -41754.414    3418.2142   -45172.628    178.44154   0.94828918 
   47000    254.58284   -833.57422    140950.22     -41747.5    3388.3236   -45135.823    178.93822   0.94784272 
   47100    252.05334   -1238.4997     140840.9   -41783.743    3354.6578   -45138.401    179.32698   0.94857847 
   47200    251.04325   -1035.4768    140757.93    -41774.13    3341.2141   -45115.344    178.81532   0.94913757 
   47300    250.00231   -1054.6653     140625.5   -41808.756    3327.3599   -45136.116     179.1951    0.9500314 
   47400    249.20855   -841.36111    140609.21   -41769.495    3316.7955    -45086.29    179.54207   0.95014148 
   47500    251.87681    -1153.115    140477.57   -41760.339    3352.3083   -45112.648    180.04046   0.95103183 
   47600    247.48903   -696.64375    140441.29   -41732.894      3293.91   -45026.804    179.94679   0.95127749 
   47700    249.81631   -1032.5065    140404.95   -41752.891    3324.8845   -45077.776    180.62261   0.95152375 
   47800    248.76689    -686.1041    140418.54   -41789.781    3310.9174   -45100.699    181.56749   0.95143163 
   47900    253.64133   -1150.0029    140516.33   -41775.195    3375.7928   -45150.988    182.22646   0.95076948 
   48000    247.44333   -871.72386     140487.6   -41893.508    3293.3017    -45186.81     182.5673   0.95096392 
   48100    249.06407   -1012.9624    140362.68   -41862.148    3314.8727   -45177.021    182.36921   0.95181031 
   48200    245.39122   -970.14235    140413.04   -41819.102    3265.9895   -45085.092    183.08249   0.95146892 
   48300    250.82724   -1028.9982    140352.89   -41774.746    3338.3392   -45113.085    183.45932    0.9518767 
   48400    250.93628   -691.13474     140481.6   -41755.297    3339.7905   -45095.087    183.33368   0.95100453 
   48500    251.42091   -895.71505    140483.86   -41782.443    3346.2406   -45128.684    183.49303   0.95098928 
   48600    247.95181   -823.62808    140416.56   -41822.292    3300.0693   -45122.362    183.47127   0.95144508 
   48700    246.72814   -922.52499    140443.46   -41854.619     3283.783   -45138.402    184.46937   0.95126282 
   48800    249.06744     -1225.48    140529.37   -41848.285    3314.9175   -45163.203    184.97618    0.9506813 
   48900    247.84346   -1016.1866    140537.45   -41831.434    3298.6271   -45130.061    185.40012    0.9506266 
   49000    250.50812   -1074.9873    140616.96   -41796.085    3334.0919   -45130.177    185.55539   0.95008914 
   49100    247.35837    -1263.315    140594.48   -41790.474     3292.171   -45082.645    185.69671   0.95024101 
   49200    240.91852   -1248.3121    140441.27    -41875.56    3206.4609   -45082.021    185.75157   0.95127767 
   49300    249.11865   -1095.8484    140477.68    -41881.42     3315.599   -45197.019    186.11291    0.9510311 
   49400    250.06282   -1033.2668    140482.94   -41767.234    3328.1654   -45095.399    186.67641   0.95099547 
   49500    248.45782   -1149.7777    140582.52   -41792.282    3306.8039   -45099.086    187.21763   0.95032186 
   49600    249.22118    -1000.753    140520.16   -41837.117    3316.9636    -45154.08    188.01977   0.95074357 
   49700    246.77338   -955.55194    140656.86   -41833.265    3284.3851   -45117.651    188.78162   0.94981959 
   49800    250.05808   -1040.8919    140678.68   -41765.757    3328.1022   -45093.859    188.76699   0.94967228 
   49900    246.57117   -947.33805    140945.99   -41830.338    3281.6938   -45112.032    189.70253    0.9478712 
   50000     248.3139   -1061.8491    140909.55   -41856.707    3304.8884   -45161.596    189.50765   0.94811629 
   50100     245.3282   -964.74214    140779.49   -41874.652    3265.1507   -45139.803    189.59874   0.94899223 
   50200       245.06   -1067.5099    140661.14   -41809.489    3261.5811    -45071.07    189.97825   0.94979072 
   50300    249.67381   -1041.5724    140596.18   -41809.146    3322.9878   -45132.134    190.63939   0.95022951 
   50400    246.97836   -1108.7272    140456.39   -41801.397    3287.1132    -45088.51    190.69705   0.95117526 
   50500    253.40877   -1120.7284    140349.74   -41831.315    3372.6976   -45204.013     191.2019   0.95189804 
   50600    250.87167   -893.69079    140266.86   -41814.206    3338.9305   -45153.136    191.23222   0.95246046 
   50700    248.68165   -1063.5696    140281.08   -41871.493    3309.7829   -45181.276    191.08713   0.95236396 
   50800    251.26309    -1293.891    140287.02   -41717.446    3344.1401   -45061.586    191.66079   0.95232362 
   50900    255.37223   -1318.2851    140204.11   -41743.565    3398.8299   -45142.395    192.27201   0.95288678 
   51000    249.33179   -765.75671    140309.16   -41749.849    3318.4358   -45068.285    192.51059   0.95217334 
   51100     243.9046   -1400.4204    140211.93   -41790.743    3246.2036   -45036.947    192.58064    0.9528336 
   51200    255.52213   -1146.3983    139995.06   -41707.417     3400.825   -45108.242    192.68147   0.95430967 
   51300    253.00417   -786.84529    139952.77   -41679.013    3367.3127   -45046.326    193.26021   0.95459805 
   51400    248.52336   -1071.6304    140166.14   -41875.054    3307.6762   -45182.731    193.69736   0.95314489 
   51500    244.71701   -1005.5459    140168.23    -41855.77    3257.0162   -45112.786    194.30362   0.95313072 
   51600    244.35426   -1104.7188     140152.8   -41854.876    3252.1882   -45107.064    194.64811    0.9532356 
   51700    250.96313   -1117.8616    140142.45   -41821.866    3340.1478   -45162.013    194.97859   0.95330604 
   51800     247.1097      -1175.2    140109.23   -41847.168    3288.8613    -45136.03    195.27749   0.95353206 
   51900    244.18097   -924.39405    140028.93   -41905.129    3249.8819   -45155.011    195.29237   0.95407883 
   52000    247.77569   -775.71529    140104.68   -41888.736    3297.7252   -45186.462    195.93505   0.95356301 
   52100    252.71709   -907.30603    140126.33   -41828.451    3363.4918   -45191.943    196.01496   0.95341572 
   52200    251.30052   -925.24974     140254.5   -41911.283    3344.6383   -45255.921    196.83827   0.95254446 
   52300    249.28211   -760.54082    140367.73     -41812.2    3317.7746   -45129.975    197.06958   0.95177602 
   52400    250.44955   -900.71083    140339.47   -41768.383    3333.3124   -45101.696    197.47748   0.95196767 
   52500     251.9729   -1031.1343    140443.84   -41786.058    3353.5871   -45139.645    197.54418   0.95126023 
   52600    247.51279   -1451.8061    140432.21   -41847.475    3294.2261   -45141.701    197.91722     0.951339 
   52700    247.68247   -949.01562    140318.28   -41842.431    3296.4845   -45138.915    198.31686   0.95211144 
   52800    250.05907   -900.46846    140428.95   -41898.123    3328.1155   -45226.238       199.05   0.95136108 
   52900     247.1134   -1031.7185    140446.49    -41956.07    3288.9106    -45244.98    200.14252   0.95124227 
   53000    245.83161   -898.56032    140550.64   -41976.164    3271.8508   -45248.014    200.97104   0.95053741 
   53100    240.74094   -1054.3762    140552.04   -42048.616    3204.0974   -45252.713    201.07386   0.95052794 
   53200    247.36445   -998.68851    140598.01   -41909.384    3292.2518   -45201.636    201.50855   0.95021714 
   53300    247.30551   -1178.8153     140577.5   -41903.254    3291.4675   -45194.721    201.54407   0.95035579 
   53400    247.60597   -1015.0235    140466.13   -41819.424    3295.4664    -45114.89    201.73337   0.95110932 
   53500    249.20062   -1029.0383    140362.07   -41787.556      3316.69   -45104.246    202.67161   0.95181442 
   53600    255.01099   -933.93477    140395.12   -41809.493    3394.0221   -45203.515    203.41858   0.95159035 
   53700    249.42848    -804.3722    140567.25   -41775.818    3319.7227   -45095.541    204.05777   0.95042509 
   53800    245.72211   -1215.0051    140508.54   -41892.087    3270.3934    -45162.48    203.99786   0.95082225 
   53900    247.30772   -1018.3661    140343.73   -41917.344    3291.4968   -45208.841    204.14216   0.95193882 
   54000     250.7388   -1046.3625    140416.56   -41906.614    3337.1622   -45243.776    204.66801   0.95144508 
   54100    246.02093   -977.93843    140348.11   -41862.408    3274.3705   -45136.779     204.9725   0.95190913 
   54200    255.44434   -855.47077    140242.42   -41832.052    3399.7897   -45231.841    205.28595    0.9526265 
   54300    252.29578   -736.35911    140284.02   -41852.548    3357.8845   -45210.432    205.58859   0.95234397 
   54400    249.72796   -823.29163    140334.15   -41826.497    3323.7085   -45150.206    205.72788   0.95200379 
   54500     251.9666   -967.77542    140422.24   -41883.276    3353.5033    -45236.78    206.24042   0.95140658 
   54600    252.38907   -920.99424    140474.42   -41839.743    3359.1261   -45198.869    206.50852    0.9510532 
   54700    250.97166   -917.09336    140395.74   -41867.303    3340.2613   -45207.564    206.76048   0.95158615 
   54800     247.6445   -925.58789    140378.06   -41868.263    3295.9791   -45164.242    207.35933   0.95170601 
   54900    250.06617   -753.88417    140304.15   -41809.447    3328.2099   -45137.657    207.18478   0.95220735 
   55000    249.09319   -822.89442    140171.88   -41787.034    3315.2602   -45102.294    207.70348   0.95310585 
   55100    250.02724   -844.34351    140097.89   -41710.451    3327.6918   -45038.143    208.63034   0.95360921 
   55200    252.05178   -939.44067    140100.54   -41770.391     3354.637   -45125.028    208.94806    0.9535912 
   55300    253.96801   -830.51345    140090.66   -41746.766    3380.1408   -45126.907    209.41441   0.95365848 
   55400    248.64346   -1123.7567    140082.29    -41782.75    3309.2746   -45092.024    210.10047   0.95371547 
   55500    251.04225   -927.52978    140023.58   -41758.477    3341.2008   -45099.678    210.21418   0.95411531 
   55600    253.38831   -960.53169    140062.54    -41756.45    3372.4254   -45128.875    210.25532    0.9538499 
   55700    252.35296   -1019.2562    139883.23   -41776.199    3358.6455   -45134.844    210.29174   0.95507262 
   55800     244.8812   -1091.7218    139840.73   -41812.242    3259.2015   -45071.443    210.57001   0.95536286 
   55900     247.1894   -1111.8154    139748.35   -41891.698    3289.9221    -45181.62    210.96079    0.9559944 
   56000     244.4422   -1124.0269    139880.32   -41936.159    3253.3587   -45189.517      211.728   0.95509246 
   56100    245.62663   -813.11026    139959.41   -41893.747    3269.1227   -45162.869    212.24864   0.95455277 
   56200    248.05111   -1002.4618    140067.42   -41860.672    3301.3908   -45162.063     212.8975   0.95381665 
   56300    249.51779   -997.47927    140162.19   -41811.582    3320.9113   -45132.494    213.14301   0.95317179 
   56400    249.62629   -1057.9323    140205.87   -41790.031    3322.3554   -45112.386     213.8261   0.95287479 
   56500    248.13426   -721.58319    140223.65   -41765.511    3302.4975   -45068.009    214.15902   0.95275399 
   56600    256.42466   -1086.1213    140316.81   -41731.404    3412.8371   -45144.241    214.92503   0.95212143 
   56700    249.85196   -826.29502    140281.79   -41767.017    3325.3589   -45092.376    214.68783    0.9523591 
   56800    247.31992   -1079.8385    140080.68   -41738.084    3291.6592   -45029.743    215.32413   0.95372643 
   56900    247.35021   -1054.4904    139989.36   -41786.882    3292.0623   -45078.945    215.78203   0.95434857 
   57000    243.69382   -947.71791    139987.91   -41814.977    3243.3983   -45058.375    216.52985   0.95435841 
   57100    246.04761   -823.46042    139806.81   -41852.518    3274.7257   -45127.244    216.64888   0.95559469 
   57200    242.60596   -927.97512     139728.6   -41920.209    3228.9196   -45149.128    216.72028   0.95612952 
   57300    249.11803   -1012.4602    139934.88   -41972.134    3315.5907   -45287.724    217.41797   0.95472011 
   57400    244.37308   -1107.5685    139800.85   -41943.086    3252.4387   -45195.525    217.22094   0.95563538 
   57500    247.03911   -981.83359    139869.14   -41903.678    3287.9219     -45191.6    217.36777   0.95516879 
   57600    247.41636   -1297.6647    140010.91   -41958.337    3292.9427    -45251.28     217.8592   0.95420163 
   57700    243.65438   -1160.1232    140016.04   -41951.268    3242.8733   -45194.141    218.25774   0.95416671 
   57800    252.08313   -911.63479    139930.33   -41831.881    3355.0542   -45186.935    218.17987   0.95475114 
   57900    250.02447   -1284.9176    139988.49   -41796.253    3327.6549   -45123.908    218.13517   0.95435449 
   58000    252.30742   -1068.3111    139926.38   -41910.989    3358.0394   -45269.028    217.95588    0.9547781 
   58100    249.35936   -1075.8196    140114.63   -41856.879    3318.8027   -45175.682    218.61909    0.9534953 
   58200    250.15702   -956.84608    140045.99   -41829.062     3329.419   -45158.481    218.98692   0.95396263 
   58300    248.04678   -1014.9234    140097.15    -41883.15    3301.3332   -45184.483    219.07136   0.95361426 
   58400    250.95295    -987.8316    140096.32   -41800.051    3340.0123   -45140.064    219.25521   0.95361991 
   58500    250.14711   -1045.7803     140041.8   -41819.613    3329.2872     -45148.9    219.45187   0.95399118 
   58600    250.46009   -538.59572    140100.21    -41828.75    3333.4527   -45162.203    220.06409   0.95359343 
   58700    254.13809   -789.71263    140116.87    -41754.94    3382.4043   -45137.344    220.50933   0.95348004 
   58800     248.3756   -846.53963    140282.99   -41803.913    3305.7095   -45109.622    221.32888   0.95235096 
   58900    252.27337    -1211.785    140336.98   -41706.749    3357.5862   -45064.335    222.39736   0.95198459 
   59000    251.72484   -946.47439    140245.58   -41756.103    3350.2856   -45106.389    222.71525   0.95260503 
   59100    250.70415   -856.38685    140252.92    -41790.56     3336.701   -45127.261    223.49243   0.95255517 
   59200    245.46478    -1032.491    140330.88   -41770.398    3266.9685   -45037.366    223.24221   0.95202599 
   59300    239.38284   -925.12868    140253.87   -41817.639     3186.022   -45003.661    223.75951   0.95254867 
   59400    249.01257   -731.62956    140238.46   -41742.215    3314.1871   -45056.402    224.15257   0.95265338 
   59500    250.40271   -997.60467    140323.98   -41782.325     3332.689   -45115.015    224.46079   0.95207278 
   59600    254.23544   -932.72044    140425.24   -41743.704       3383.7   -45127.404    224.83103   0.95138622 
   59700    244.10682   -1090.0004    140252.19   -41761.007    3248.8951   -45009.902    225.10371   0.95256011 
   59800    252.92075   -702.48217       140166   -41720.205    3366.2024   -45086.408    225.27432   0.95314586 
   59900    249.41895    -1188.344       140285   -41827.777    3319.5959   -45147.373    225.97338   0.95233731 
   60000    245.37186   -832.81816    140341.09   -41812.164    3265.7319   -45077.896    226.73938   0.95195674 
   60100    254.15235    -821.3187    140321.78   -41784.331    3382.5942   -45166.925    226.72475    0.9520877 
   60200    244.31076   -972.15175    140467.86   -41893.755    3251.6093   -45145.364    227.31715   0.95109761 
   60300    249.06745   -975.20392    140511.07   -41863.478    3314.9176   -45178.396      227.917    0.9508051 
   60400    249.55635   -959.52386    140331.48   -41839.036    3321.4245    -45160.46    227.77615   0.95202193 
   60500    245.51717   -935.35272    140375.99   -41914.991    3267.6658   -45182.657    228.09279   0.95172001 
   60600    249.00059   -1130.8227     140474.5   -41893.389    3314.0277   -45207.416    228.35084    0.9510526 
   60700    245.02738    -908.2911    140683.96   -41851.676     3261.147   -45112.823    228.94608   0.94963666 
   60800    248.91178   -1131.4847    140738.36   -41839.298    3312.8457   -45152.144    229.83887   0.94926957 
   60900     250.0325   -1136.6716    140651.19   -41801.452    3327.7618   -45129.214    230.78391   0.94985788 
   61000    254.87554     -1319.86    140577.86   -41727.337    3392.2194   -45119.557    230.98289   0.95035336 
   61100    250.20414   -1534.0803    140391.74   -41696.712    3330.0462   -45026.758     230.7675   0.95161324 
   61200    247.08984   -960.20833    140219.95   -41749.754    3288.5969   -45038.351    231.14128   0.95277916 
   61300     252.5788   -998.64335    140342.12   -41749.265    3361.6513   -45110.916    231.95145   0.95194969 
   61400    252.30973   -1106.1058    140318.49   -41611.743    3358.0701   -44969.813    232.74506   0.95211003 
   61500    250.98099   -1034.0185    140411.67    -41627.62    3340.3856   -44968.006    233.34737   0.95147821 
   61600    252.04136   -988.40334    140242.19    -41685.38    3354.4984   -45039.878    233.53656     0.952628 
   61700    251.99232   -807.69783     140077.6   -41723.044    3353.8456    -45076.89     234.0782   0.95374738 
   61800     250.0134    -1014.663    140181.88   -41737.455    3327.5075   -45064.962     234.7712   0.95303787 
   61900    246.65711   -948.56354     140169.5   -41666.124    3282.8377   -44948.961    234.64765   0.95312208 
   62000    252.03887   -1190.3586    140082.58   -41750.029    3354.4652   -45104.494    235.16827   0.95371345 
   62100    245.18583   -1049.0233    140125.48   -41786.726    3263.2559   -45049.982    235.58253   0.95342145 
   62200    250.55978   -916.26306    140173.74   -41781.875    3334.7795   -45116.654    236.03482   0.95309326 
   62300    253.42307   -1073.2074    140240.41   -41795.585    3372.8879   -45168.473    237.16357   0.95264013 
   62400    250.09748   -1071.2857    140243.85   -41860.029    3328.6267   -45188.655    237.18312   0.95261674 
   62500    246.31278   -1142.5814     140184.1   -41871.828    3278.2548   -45150.083    237.16656   0.95302278 
   62600    250.12725    -658.4015     140208.9   -41785.447    3329.0229    -45114.47    238.11942   0.95285426 
   62700    247.93265   -764.34067    140171.84   -41814.458    3299.8142   -45114.272    237.92688   0.95310618 
   62800    250.41553   -1048.6588    140026.64   -41857.269    3332.8597   -45190.129    237.64871   0.95409447 
   62900    254.12433   -944.67065    139958.13   -41782.276    3382.2212   -45164.497     238.1055   0.95456149 
   63000    248.11824   -869.88572    140000.45   -41796.465    3302.2843   -45098.749    238.58962   0.95427294 
   63100     247.9989   -1160.9587     139977.8   -41786.803     3300.696   -45087.499    238.90725   0.95442737 
   63200    252.09236    -857.1848    139959.23   -41830.188    3355.1772   -45185.365    239.44006   0.95455402 
   63300    250.82343   -800.51131    140075.75   -41897.042    3338.2885    -45235.33    239.74613   0.95375996 
   63400    246.53283   -1097.7882    140172.39   -41908.359    3281.1836   -45189.543    239.92343   0.95310241 
   63500    251.53583   -864.01217     140336.4   -41866.108      3347.77   -45213.878    240.08244   0.95198853 
   63600    250.77312   -1171.6908    140453.97   -41779.154    3337.6189   -45116.773    240.43198   0.95119161 
   63700    249.93105   -945.71369    140403.37   -41838.659    3326.4115    -45165.07    240.74726   0.95153444 
   63800    244.12566   -1007.6849    140139.06   -41907.416    3249.1458   -45156.562    240.97365    0.9533291 
   63900    245.90326   -1130.9547    139856.52   -41817.384    3272.8044   -45090.189    240.89608   0.95525503 
   64000    248.22399     -862.789    139936.78   -41885.374    3303.6917   -45189.066    241.37726   0.95470717 
   64100    248.90194   -898.76349    139869.81   -41921.617    3312.7148   -45234.331    241.92807   0.95516422 
   64200    251.60372   -1069.9559     139731.4   -41914.575    3348.6737   -45263.249    241.79217   0.95611036 
   64300    244.48512   -1018.4116    139601.23   -41922.683    3253.9299   -45176.613    242.07798   0.95700187 
   64400    249.60136   -811.33326    139734.12   -41924.005    3322.0236   -45246.028    242.43242   0.95609175 
   64500     247.1196   -850.16125    139814.54    -42001.77    3288.9931   -45290.763     243.1589   0.95554184 
   64600    247.83364    -1170.742    139927.95   -41901.333    3298.4964   -45199.829    243.73035   0.95476737 
   64700    246.33277   -1040.9761    139916.71   -41851.474    3278.5209   -45129.995    243.94093   0.95484411 
   64800    248.04172   -853.58083    140104.05   -41782.546    3301.2658   -45083.812    244.47414   0.95356734 
   64900    248.95987   -1103.0456    140080.86   -41779.645    3313.4858   -45093.131    244.44863   0.95372516 
   65000    251.05793   -720.51722    140050.93   -41822.402    3341.4095   -45163.811    244.83294   0.95392901 
   65100    253.06197   -1018.6437    140038.84   -41866.093     3368.082   -45234.175    245.01823   0.95401132 
   65200    247.78166   -864.08805    140078.56   -41877.676    3297.8047    -45175.48    245.38965   0.95374081 
   65300    248.95858   -992.61847    140057.53   -41930.494    3313.4686   -45243.963    245.97749   0.95388401 
   65400    251.24759   -901.60241    140041.84   -41942.872    3343.9338   -45286.805    246.31222   0.95399088 
   65500    250.63772    -783.6463    140046.48   -41885.108    3335.8169   -45220.925    246.82532    0.9539593 
   65600    253.12444   -1111.2137    139993.83   -41842.675    3368.9134   -45211.589    246.86583   0.95431805 
   65700    250.99228   -848.44912    139964.83   -41868.398    3340.5358   -45208.934    247.02925   0.95451583 
   65800    253.67247   -1238.2585    140143.03   -41930.326    3376.2072   -45306.533    247.60406   0.95330211 
   65900    251.12871   -816.20515    140183.23   -41897.155    3342.3516   -45239.506     247.6879   0.95302871 
   66000    251.10088   -916.11302    140167.64   -41858.459    3341.9811    -45200.44    248.22885    0.9531347 
   66100    251.18431   -1137.6273    140181.74   -41902.231    3343.0916   -45245.323    248.52955   0.95303884 
   66200    249.98228   -958.58226    140212.82   -41830.627    3327.0933    -45157.72    249.21816   0.95282758 
   66300    254.88054   -1108.2128    140398.23   -41867.367    3392.2859   -45259.652    250.54475   0.95156927 
   66400    252.17508   -782.78286    140408.64   -41853.191    3356.2781   -45209.469    251.11349    0.9514987 
   66500    249.22807   -757.22018    140426.95   -41868.842    3317.0553   -45185.897    251.00388   0.95137466 
   66600    254.37434   -883.33496    140655.68   -41867.479    3385.5488   -45253.028     251.4648   0.94982759 
[...]
   84500    245.06882    -968.8618    140231.43   -41889.333    3261.6986   -45151.032    315.17146   0.95270116 
   84600    243.63842   -997.41668    140368.19    -41876.38    3242.6609   -45119.041    315.89992   0.95177294 
   84700     247.2842   -803.57972    140317.44   -41897.052    3291.1838   -45188.236    316.05352   0.95211716 
   84800    245.96077   -877.83145    140389.33   -41828.682    3273.5699   -45102.252    316.71674   0.95162957 
   84900    252.36971   -897.74346    140497.96   -41827.119    3358.8684   -45185.988    316.51956   0.95089382 
   85000    249.35477   -951.79193    140364.44   -41850.631    3318.7416   -45169.373    317.20357   0.95179837 
   85100    248.48462   -911.68445    140458.88   -41878.484    3307.1606   -45185.645    316.87483   0.95115841 
   85200     252.3293   -886.75029     140390.9   -41907.223    3358.3307   -45265.554    317.14007   0.95161895 
   85300    252.36703   -974.72735       140312   -41857.736    3358.8328   -45216.568    316.90311    0.9521541 
   85400     251.0183   -750.14919    140349.55   -41867.945    3340.8821   -45208.827    317.09577   0.95189931 
   85500    245.72614   -1082.6754    140258.76   -41867.597    3270.4471   -45138.044    316.83992   0.95251552 
   85600    249.53631   -1207.5655    140372.19   -41785.606    3321.1579   -45106.764    317.58112   0.95174577 
   85700    246.36822   -1120.0305    140229.46   -41840.802    3278.9928   -45119.794    317.82745   0.95271454 
   85800    250.41696    -653.0002    140279.56   -41818.974    3332.8787   -45151.852    317.90728   0.95237428 
   85900    249.37935     -1065.08    140458.85   -41887.678    3319.0688   -45206.746    319.16741   0.95115862 
   86000    252.00669   -1140.4928    140394.64    -41878.27    3354.0369   -45232.307    318.83776   0.95159358 
   86100    248.52874   -949.27111    140374.32   -41888.682    3307.7477    -45196.43    319.43116   0.95173136 
   86200     251.1758   -929.59841    140302.49   -41884.728    3342.9783   -45227.707    319.54906    0.9522186 
   86300    250.61608   -944.25507    140353.09   -41877.603    3335.5289   -45213.131    320.10258   0.95187534 
   86400    248.04006   -962.97803    140384.55   -41854.358    3301.2437   -45155.602    320.57502   0.95166201 
   86500    244.76955   -1169.8626    140374.12   -41830.905    3257.7155    -45088.62    320.90329    0.9517327 
   86600    250.05064   -1270.2662    140194.39   -41795.872    3328.0032   -45123.875    320.96259   0.95295284 
   86700    252.78151   -973.41931       140039   -41829.712    3364.3492   -45194.062    320.89511   0.95401026 
   86800    251.30528   -1004.6844    139992.83   -41802.108    3344.7017    -45146.81    320.91652    0.9543249 
   86900    252.94648    -798.8544    140269.77   -41783.992    3366.5449   -45150.537    321.22786   0.95244071 
   87000     253.3577   -785.77186    140560.16   -41829.969    3372.0179   -45201.987     321.1084   0.95047305 
   87100    245.94431   -736.93506    140639.35    -41883.15    3273.3508   -45156.501    321.91572   0.94993787 
   87200    251.08132   -1086.6757    140631.71   -41910.807    3341.7208   -45252.528    322.20534   0.94998943 
   87300    252.26064   -977.65186    140789.03   -41768.228    3357.4168   -45125.645    322.66761   0.94892792 
   87400    251.36389   -1176.2556    140768.05   -41746.788    3345.4816    -45092.27     323.5146   0.94906939 
   87500    253.79436   -1095.2171    140410.12   -41862.027    3377.8295   -45239.857    323.54258   0.95148871 
   87600    250.76176   -960.61124    140324.16   -41819.983    3337.4677   -45157.451    323.84464   0.95207159 
   87700     248.2993   -888.55071    140382.22   -41847.775    3304.6941   -45152.469    324.31414   0.95167778 
   87800    250.22974   -1105.5171    140215.09   -41780.695    3330.3869   -45111.082    325.04949   0.95281214 
   87900    246.51377   -1067.4715    140253.81   -41785.942    3280.9299   -45066.872    324.72211   0.95254909 
   88000    252.06432   -890.78361    140437.98   -41729.001    3354.8039   -45083.805    325.29601   0.95129996 
   88100     249.2288   -907.79909    140508.47   -41808.071     3317.065   -45125.136    325.52225   0.95082269 
   88200    253.31146   -1022.8204    140505.24   -41782.082    3371.4024   -45153.485    326.15115   0.95084457 
   88300    254.76427   -1157.6002     140385.3   -41815.481    3390.7384   -45206.219    326.98249   0.95165693 
   88400    247.52889   -1320.6928       140217   -41803.578    3294.4404   -45098.019    327.07487   0.95279918 
   88500    250.56292   -1062.7107    140192.67   -41878.898    3334.8213   -45213.719    327.43383   0.95296454 
   88600    247.61284    -932.8111    140181.07   -41906.013    3295.5577   -45201.571    328.14626   0.95304336 
   88700    249.21136   -1063.7619    140417.26   -41879.978     3316.833   -45196.811     328.5279   0.95144031 
   88800    249.46697   -884.21922    140316.92   -41854.726     3320.235   -45174.961    328.19454   0.95212066 
   88900     248.6733   -764.64761    140401.22    -41929.61    3309.6718   -45239.282    328.37036   0.95154902 
   89000    252.74638   -674.82327    140548.62   -41867.416    3363.8817   -45231.298    329.23623   0.95055111 
   89100    249.42179   -910.04193    140583.94   -41834.856    3319.6336    -45154.49    330.21425   0.95031228 
   89200    245.39735   -1062.0226    140614.38   -41897.039    3266.0711    -45163.11    330.79043   0.95010654 
   89300    247.03345   -1166.6865    140651.17   -41876.599    3287.8465   -45164.446    330.83258   0.94985801 
   89400    251.07836   -1128.1791    140471.31   -41799.744    3341.6814   -45141.426    330.48009    0.9510742 
   89500    247.44228   -1291.7836    140259.58   -41885.751    3293.2877   -45179.039    330.51167    0.9525099 
   89600    250.37008   -1209.2729     140291.9   -41848.869    3332.2547   -45181.124    330.95033   0.95229046 
   89700    248.68888   -791.71286    140319.08    -41817.34    3309.8791   -45127.219    331.21499     0.952106 
   89800    249.09495   -841.62707       140341   -41858.692    3315.2836   -45173.975    331.62846   0.95195734 
   89900    250.11897   -1246.9084    140387.61   -41818.066    3328.9126   -45146.979    331.56611   0.95164125 
   90000    248.36905   -879.46793    140393.23   -41858.832    3305.6225   -45164.454     331.5874   0.95160315 
   90100    251.92665   -1161.8927    140270.15   -41792.118    3352.9716    -45145.09    331.75348   0.95243812 
   90200    245.33057    -1079.046    140175.19   -41876.072    3265.1823   -45141.254    332.75614   0.95308335 
   90300    247.71665   -1298.6428    140159.64   -41915.293    3296.9394   -45212.232    333.02499   0.95318909 
   90400    250.76034   -768.73435    140246.73   -41854.268    3337.4488   -45191.717    333.39622    0.9525972 
   90500    250.55136    -1032.911    140303.67    -41769.06    3334.6675   -45103.727    333.94427   0.95221058 
   90600     252.8111   -660.20596    140394.58   -41750.763     3364.743   -45115.506    334.50118   0.95159405 
   90700    250.04027   -1090.2777    140334.46    -41773.34    3327.8652   -45101.205    334.72078   0.95200171 
   90800    250.41494   -929.92894    140457.39   -41736.769    3332.8517    -45069.62     335.0432    0.9511685 
   90900    246.46617    -1193.481    140387.63    -41823.61    3280.2964   -45103.906    335.75023   0.95164112 
   91000    247.67366    -1159.618    140182.57   -41804.373    3296.3673    -45100.74    336.16134   0.95303317 
   91100    251.43902   -863.53424    140224.51   -41782.623    3346.4816   -45129.105    336.71121   0.95274813 
   91200    255.56134   -832.84788    140107.71   -41792.647    3401.3469   -45193.994    336.80358   0.95354241 
   91300     249.9307   -1250.9071    140015.39   -41838.389    3326.4068   -45164.796    337.17945   0.95417109 
   91400    247.20184    -785.7741    139972.45   -41873.908    3290.0876   -45163.995     337.0637   0.95446382 
   91500     245.5201   -887.25851    140119.17   -41855.305    3267.7048    -45123.01    337.95664   0.95346441 
   91600    246.15441   -939.51652    140208.77   -41837.243     3276.147    -45113.39    337.84194   0.95285512 
   91700    246.25188   -967.64053    140125.92   -41864.143    3277.4444   -45141.587    338.06706   0.95341849 
   91800    243.08912   -1325.0376    139857.45   -41940.934    3235.3502   -45176.284    338.20569   0.95524863 
   91900    246.27581   -1027.4675    139831.49   -41918.469    3277.7628   -45196.232    338.87878     0.955426 
   92000    250.22253    -959.5584    139920.55   -41865.769    3330.2909    -45196.06    338.84267   0.95481787 
   92100    252.30046   -1024.0913    139901.94   -41861.981    3357.9468   -45219.928     338.9638    0.9549449 
   92200    250.64031   -967.96234    139971.31   -41770.784    3335.8512   -45106.635    339.05367   0.95447165 
   92300    246.30026   -737.81677    139933.68   -41801.691    3278.0882   -45079.779    339.84381   0.95472827 
   92400    251.91678   -854.18375    140088.43   -41842.358    3352.8402   -45195.198    339.36204   0.95367361 
   92500    251.53639   -966.98905    140040.68   -41773.688    3347.7775   -45121.466    339.35216   0.95399879 
   92600    250.52288    -980.3155    140281.42   -41795.814    3334.2884   -45130.102    340.07872    0.9523616 
   92700     246.5818    -1334.687    140264.61   -41822.614    3281.8353   -45104.449    340.00125   0.95247574 
   92800    248.58695   -1068.4505    140351.28   -41822.511    3308.5224   -45131.033    340.41005   0.95188762 
   92900    252.64485   -1060.9634    140279.96   -41812.633    3362.5303   -45175.163    340.80081   0.95237153 
   93000    248.91358   -1079.1047    140376.38   -41731.295    3312.8697   -45044.164    341.33634   0.95171737 
   93100    251.79741    -1366.987    140439.05   -41750.052    3351.2515   -45101.304    341.61049   0.95129269 
   93200    249.07422   -635.00089     140382.9   -41735.843    3315.0077   -45050.851    341.16757   0.95167321 
   93300    254.40072   -885.32842     140497.5   -41642.982    3385.8998   -45028.882    341.88589   0.95089692 
   93400    250.79381   -816.36984    140550.73   -41751.602    3337.8943   -45089.496    342.23775   0.95053683 
   93500    249.87188   -909.31939    140615.67   -41773.219    3325.6241   -45098.843     342.3673   0.95009786 
   93600    248.28771   -918.22491    140601.84   -41847.333    3304.5398   -45151.873    343.25005   0.95019128 
   93700    247.27021   -1163.6169    140555.45    -41867.57    3290.9976   -45158.567    343.27681   0.95050491 
   93800    254.77826   -996.47196    140325.28   -41804.439    3390.9246   -45195.364    343.60737   0.95206398 
   93900    249.86856   -1282.3294    140173.35   -41896.126    3325.5798   -45221.706    343.49867   0.95309587 
   94000     251.8146   -977.98737    139930.43   -41940.006    3351.4803   -45291.486    344.21023   0.95475045 
   94100    247.86085    -975.0434    139996.43   -41997.818    3298.8586   -45296.677    344.52039   0.95430038 
   94200    242.95944   -1033.0727     139993.3   -41958.548    3233.6241   -45192.172    345.21236   0.95432167 
   94300    251.09165   -1053.5417    140023.69   -41874.659    3341.8583   -45216.517    345.69032   0.95411453 
   94400    248.25299   -1094.6427    139972.93   -41867.575    3304.0777   -45171.652    345.66066   0.95446055 
   94500    248.20708   -738.13939    139889.29   -41848.938    3303.4667   -45152.405    345.75562   0.95503122 
   94600    247.91921   -1172.3549    140045.12   -41907.012    3299.6353   -45206.647    346.69659   0.95396859 
   94700     245.7521   -817.69593    140031.31   -41859.279    3270.7925   -45130.072    347.10418   0.95406265 
   94800    249.85474   -825.51351     140184.9   -41790.386    3325.3959   -45115.782    347.49105   0.95301737 
   94900    248.78677   -956.98618    140135.16    -41764.17    3311.1819   -45075.352    348.20919   0.95335559 
   95000    251.27169    -648.5145    140323.19    -41739.83    3344.2546   -45084.085    348.46706   0.95207812 
   95100    254.51645   -1031.0209    140356.32    -41735.95      3387.44    -45123.39    349.45214   0.95185341 
   95200    256.49955    -795.6551    140488.62   -41767.232    3413.8338   -45181.066    349.81942   0.95095701 
   95300    249.25544   -969.38373     140531.8   -41781.284    3317.4197   -45098.703    350.34761   0.95066484 
   95400    255.13442   -996.32008    140459.93   -41847.264    3395.6648   -45242.929    350.21818   0.95115128 
   95500    248.96788   -669.61543    140491.92   -41868.744    3313.5924   -45182.337    350.34657   0.95093468 
   95600    247.76921   -854.80708       140438   -41923.563    3297.6389   -45221.201    350.67429   0.95129981 
   95700    248.84839   -1322.0087    140509.12     -41926.8    3312.0021   -45238.802    351.17129    0.9508183 
   95800     250.5288   -701.21589    140597.42   -41880.208    3334.3671   -45214.575    351.85706   0.95022117 
   95900    250.85462    -842.1794     140627.4   -41916.814    3338.7037   -45255.517    352.08405    0.9500186 
   96000    253.52778   -944.25678    140696.38   -41883.555    3374.2816   -45257.836    352.22615   0.94955281 
   96100    250.71915   -1095.8333     140784.7   -41898.444    3336.9006   -45235.345    353.17284    0.9489571 
   96200    253.33769     -1253.58     140608.6   -41874.502    3371.7516   -45246.253    353.35346   0.95014558 
   96300    253.00457   -1016.4203    140423.77   -41881.286    3367.3181   -45248.604    353.31051   0.95139624 
   96400    249.09774    -964.3221    140313.62   -41922.119    3315.3208    -45237.44    353.99374   0.95214306 
   96500    251.44137   -925.65237    140528.57   -41886.041    3346.5129   -45232.554    354.51372   0.95068672 
   96600    252.21229   -948.01796    140761.12   -41854.276    3356.7732   -45211.049    355.18444   0.94911607 
   96700    250.39998   -997.86544    140781.35   -41861.993    3332.6527   -45194.645    355.19551   0.94897967 
   96800    248.74857   -1238.8746    140730.92    -41820.79    3310.6735   -45131.464    355.10257   0.94931977 
   96900    253.40368    -786.1633    140846.06   -41818.877    3372.6299   -45191.507    355.94206   0.94854368 
   97000    244.12814   -1142.7887    140894.67   -41841.342    3249.1788   -45090.521    356.66759   0.94821644 
   97100    245.76772    -956.6794    140965.27    -41834.08    3271.0005    -45105.08    357.44347   0.94774153 
   97200    251.52347   -896.25947    140974.47   -41832.323    3347.6055   -45179.929    358.34546   0.94767966 
   97300     248.3244   -856.53732    140873.95   -41851.803    3305.0281   -45156.831    359.16394   0.94835589 
   97400    250.12926   -1195.9831    140667.51   -41848.432    3329.0496   -45177.482    358.97552    0.9497477 
   97500    250.33718   -943.70832    140558.53   -41877.301    3331.8169   -45209.118     358.9405   0.95048404 
   97600    252.74718   -1034.7441    140670.96    -41897.57    3363.8923   -45261.463    359.33733   0.94972442 
   97700    250.97216   -992.68622    140728.71   -41975.901     3340.268   -45316.169    360.14608   0.94933469 
   97800    248.29945   -1011.3612    140768.32   -41994.871     3304.696   -45299.567    360.27335   0.94906753 
   97900    246.81908   -1006.7895    140881.14   -41934.421    3284.9933   -45219.415    361.00744   0.94830753 
   98000    253.49217   -975.81443    140737.05   -41850.105    3373.8076   -45223.913    361.37627   0.94927844 
   98100    247.48834   -874.63899    140552.56   -41900.704    3293.9007   -45194.604    361.37214   0.95052445 
   98200    252.54397   -823.84217    140515.84   -41877.828    3361.1877   -45239.016    361.31568   0.95077285 
   98300    252.45429   -834.16243    140577.97   -41834.562    3359.9941   -45194.557    361.32696   0.95035265 
   98400    253.63766   -561.87533    140749.14   -41774.266    3375.7439    -45150.01    361.90308   0.94919688 
   98500    250.93814   -1203.0404    140797.36   -41829.127    3339.8152   -45168.942    362.16807   0.94887177 
   98600    251.85369   -970.54141    140863.95   -41810.746    3352.0006   -45162.746    363.48722   0.94842323 
   98700    249.11245   -1134.6336    140814.14   -41865.009    3315.5165   -45180.526    363.49396   0.94875868 
   98800    248.36996   -1090.5607     140710.7   -41835.383    3305.6345   -45141.018    363.85336   0.94945615 
   98900    250.62912   -1210.6507    140723.83   -41840.325    3335.7024   -45176.027    364.63231   0.94936758 
   99000    254.38151    -1011.294    140572.69   -41776.967    3385.6442   -45162.611    365.53169   0.95038833 
   99100    250.76457   -1059.0563    140724.02   -41829.611    3337.5051   -45167.116    365.95094   0.94936629 
   99200    250.81868   -962.70409    140691.23   -41806.652    3338.2253   -45144.877    366.24831    0.9495876 
   99300    249.45953   -1218.6658    140752.35   -41816.426    3320.1359   -45136.562    367.08255   0.94917524 
   99400    251.31832   -1346.6287    140602.71   -41763.354    3344.8751   -45108.229    366.98788    0.9501854 
   99500    256.45888   -1185.4471    140466.69   -41751.227    3413.2924   -45164.519    366.70142   0.95110553 
   99600    246.08451   -1138.0071    140452.82   -41825.069    3275.2167   -45100.286    367.61381    0.9511994 
   99700    255.49382   -1057.7169    140318.52   -41767.121    3400.4482    -45167.57    367.21299   0.95210984 
   99800    251.31124    -1056.186    140399.07   -41833.435    3344.7809   -45178.216    367.44871   0.95156357 
   99900    247.46409   -1022.8892    140459.64   -41815.612    3293.5779    -45109.19    368.40203   0.95115322 
  100000    249.09439   -812.34659    140429.17   -41753.389    3315.2762   -45068.665    368.53699   0.95135961 
  100100    251.73625   -880.50926    140446.51   -41752.419    3350.4376   -45102.856    368.90668   0.95124216 
  100200     243.9906   -1168.6525    140474.43   -41722.432    3247.3482    -44969.78    369.62153    0.9510531 
  100300    253.62059   -863.65129    140469.56   -41710.986    3375.5169   -45086.503    369.20786   0.95108608 
  100400    253.07457   -1116.2584    140560.58   -41761.542    3368.2497   -45129.792    370.11862   0.95047017 
  100500    248.88111   -763.68191    140462.62   -41770.437    3312.4376   -45082.875    370.66416   0.95113306 
  100600    248.71466   -1317.8877    140491.93   -41786.309    3310.2223   -45096.531    371.96715   0.95093462 
  100681    250.93657   -1265.5243    140388.83   -41742.398    3339.7944   -45082.192    372.04468     0.951633 
Loop time of 77.7584 on 12 procs for 100000 steps with 4466 atoms

Performance: 555.567 ns/day, 0.043 hours/ns, 1286.034 timesteps/s
98.5% CPU use with 12 MPI tasks x no OpenMP threads

MPI task timing breakdown:
Section |  min time  |  avg time  |  max time  |%varavg| %total
---------------------------------------------------------------
Pair    | 56.862     | 58.935     | 60.873     |  13.4 | 75.79
Neigh   | 3.9293     | 4.019      | 4.132      |   3.4 |  5.17
Comm    | 9.0535     | 11.1       | 13.355     |  32.6 | 14.28
Output  | 0.19477    | 0.20188    | 0.27649    |   5.0 |  0.26
Modify  | 2.6757     | 2.7517     | 2.8003     |   2.3 |  3.54
Other   |            | 0.7504     |            |       |  0.97

Nlocal:        372.167 ave         387 max         365 min
Histogram: 4 1 2 1 1 1 0 1 0 1
Nghost:        960.917 ave         972 max         950 min
Histogram: 2 1 1 0 2 1 1 1 1 2
Neighs:        0.00000 ave           0 max           0 min
Histogram: 12 0 0 0 0 0 0 0 0 0
FullNghs:      10315.8 ave       10772 max       10062 min
Histogram: 4 0 2 1 1 2 1 0 0 1

Total # of neighbors = 123790
Ave neighs/atom = 27.718316
Neighbor list builds = 6248
Dangerous builds = 0

undump              1
unfix               2
unfix               3
unfix               4


write_data		data.${NAME}
write_data		data.liquid_ML_1000_250K
System init for write_data ...
Total wall time: 0:01:18
