LAMMPS (29 Oct 2020)
# create box with dimensions that match the carbon substrate dimension
# 0.0 49.22 xlo xhi
# 0.0 49.019635930410494 ylo yhi
# 0.0 10.062000000000001 zlo zhi
#
# Create water in the box, constrain the box to expanding only along z axis.



variable            NAME string liquid_ML_1000_250K
variable            TEMP string 250
variable            PRES string -1000
variable            TCOUPL string 5000.0
variable            PCOUPL string 10000.0
variable            TDAMP string 1000.0
variable            PDAMP string 2500.0

# Box Dimensions
#
variable	XDIM string 49.22
variable 	YDIM string 49.019635930410494
variable	ZDIM string 60.062


## Real units, atomic atom style (no bonded interactions)
#
units               real
atom_style          atomic


################################################
#######    Equilibrate Liquid Water    #########
################################################

log                 log.eq_${NAME}
log                 log.eq_liquid_ML_1000_250K
