
# read in water data
read_data data.liquid_ML_1000 group water extra/atom/types 1
Reading data file ...
  orthogonal box = (0.0000000 0.0000000 0.37431495) to (49.220000 49.019636 59.687685)
  2 by 2 by 3 MPI processor grid
  reading atoms ...
  4466 atoms
  reading velocities ...
  4466 velocities
  read_data CPU = 0.033 seconds

# remove area for graphite
region substrate block 0 ${XDIM} 0 ${YDIM} ${Z_LO} ${Z_HI}
region substrate block 0 49.22 0 ${YDIM} ${Z_LO} ${Z_HI}
region substrate block 0 49.22 0 49.019635930410494 ${Z_LO} ${Z_HI}
region substrate block 0 49.22 0 49.019635930410494 25 ${Z_HI}
region substrate block 0 49.22 0 49.019635930410494 25 35.062
delete_atoms region substrate
Deleted 741 atoms, new total = 3725

# Insert substrate
read_data data.graphite add append shift 0.0 0.0 ${Z_LO} group graphite offset 1 0 0 0 0
read_data data.graphite add append shift 0.0 0.0 25 group graphite offset 1 0 0 0 0
Reading data file ...
  orthogonal box = (0.0000000 0.0000000 0.37431495) to (49.220000 49.019636 59.687685)
  2 by 2 by 3 MPI processor grid
  reading atoms ...
  2760 atoms
  reading velocities ...
  2760 velocities
  read_data CPU = 0.004 seconds


# Define potential
# CHECK ON THIS %%%%%%%%%%%%
#
pair_style sw
pair_coeff * * MLC_e.sw mW C


# Delete water and ice atoms that are overlapping
#
delete_atoms overlap 2.5 water graphite
System init for delete_atoms ...
Neighbor list info ...
  update every 1 steps, delay 10 steps, check yes
  max neighbors/atom: 2000, page size: 100000
  master list distance cutoff = 7.76
  ghost atom cutoff = 7.76
  binsize = 3.88, bins = 13 13 16
  2 neighbor lists, perpetual/occasional/extra = 1 1 0
  (1) command delete_atoms, occasional, copy from (2)
      attributes: full, newton on
      pair build: copy
      stencil: none
      bin: none
  (2) pair sw, perpetual
      attributes: full, newton on
      pair build: full/bin/atomonly
      stencil: full/bin/3d
      bin: standard
Deleted 117 atoms, new total = 6368

# set timestep
#
timestep 10.0

# Define output
#
compute 1 all msd
thermo 50
thermo_style custom step temp press vol etotal ke pe c_1[4]

# Neighbor lists
#
neigh_modify delay 0 every 1 check yes


# Fix graphite atoms in place
# CHECK ON THIS %%%%%%%%%%%%%%%%%%%%
#
fix 1 graphite setforce 0.0 0.0 0.0
velocity graphite set 0.0 0.0 0.0

# Set fixes
#
fix 2 water momentum 10 linear 1 1 1 rescale
fix 3 all nph z ${PRES} ${PRES} ${PCOUPL}
fix 3 all nph z -1000 ${PRES} ${PCOUPL}
fix 3 all nph z -1000 -1000 ${PCOUPL}
fix 3 all nph z -1000 -1000 10000.0
fix 4 all temp/csvr ${TEMP} ${TEMP} ${TCOUPL} 837492
fix 4 all temp/csvr 235 ${TEMP} ${TCOUPL} 837492
fix 4 all temp/csvr 235 235 ${TCOUPL} 837492
fix 4 all temp/csvr 235 235 5000.0 837492


# Run 1.0 ns equilibration of water
#
dump 1 all atom 1000 eq.all.${NAME}.dump
dump 1 all atom 1000 eq.all.graphite_ML_1000atm_e.dump
run 100000
Neighbor list info ...
  update every 1 steps, delay 0 steps, check yes
  max neighbors/atom: 2000, page size: 100000
  master list distance cutoff = 7.76
  ghost atom cutoff = 7.76
  binsize = 3.88, bins = 13 13 16
  1 neighbor lists, perpetual/occasional/extra = 1 0 0
  (1) pair sw, perpetual
      attributes: full, newton on
      pair build: full/bin/atomonly
      stencil: full/bin/3d
      bin: standard
Per MPI rank memory allocation (min/avg/max) = 4.557 | 4.688 | 4.952 Mbytes
Step Temp Press Volume TotEng KinEng PotEng c_1[4] 
       0    135.20178    -1236.677    143108.12   -34353.732    2565.9699   -36919.702            0 
      50    144.49581   -2526.2168    142885.93   -34161.677    2742.3596   -36904.037   0.45649438 
     100    147.28935   -2786.9964    141912.55   -34052.275    2795.3777   -36847.652    0.8265775 
     150    152.09441   -1684.7985    140623.54   -33919.489    2886.5721   -36806.061    1.0832802 
     200    154.04724   -1706.9012    139778.33   -33779.319    2923.6345   -36702.954    1.4114307 
     250    157.39308   -1691.1246    139166.11   -33643.923    2987.1345   -36631.058    1.7700897 
     300    159.26545   -1587.0148       138596   -33496.782      3022.67   -36519.452    2.1690944 
     350    161.78032   -1618.6253    138065.25   -33330.125    3070.3992   -36400.524    2.5490538 
     400    161.45445   -1685.3035     137584.6   -33240.299    3064.2145   -36304.514    2.9491169 
     450    164.57258   -1614.0177    137165.85   -33123.508     3123.393   -36246.901    3.3704195 
     500    168.66057   -1320.9578    136857.04   -33007.292    3200.9782    -36208.27    3.6777051 
     550    167.31459   -1448.0121    136613.16   -32895.186    3175.4331   -36070.619    4.1608017 
     600    166.89742   -1409.2208     136393.4   -32770.659    3167.5156   -35938.174    4.6164071 
     650    165.92576   -1390.7572    136172.94   -32666.025    3149.0747     -35815.1    5.0600896 
     700    172.68487   -1134.5284    135969.06   -32527.635    3277.3546    -35804.99    5.7095843 
     750    171.67573   -1683.5826    135805.91   -32419.248    3258.2024   -35677.451    6.2065842 
     800    175.94091    -1528.031    135578.17   -32305.332    3339.1505   -35644.483    6.8621859 
     850    174.97937    -1132.196    135302.86   -32216.581    3320.9016   -35537.482    7.4909517 
     900    174.40238   -1179.3702     135048.9   -32111.701    3309.9509   -35421.652    8.1974305 
     950    180.53073   -1228.0123     134841.1   -32021.866    3426.2597   -35448.126    8.8745746 
    1000    180.59528   -1306.3191    134666.85   -31894.492    3427.4849   -35321.977    9.6729624 
    1050    179.91606   -888.42904    134531.65   -31806.006    3414.5942     -35220.6    10.281837 
    1100    182.25548   -1326.1242    134477.39   -31693.243    3458.9934   -35152.237    11.034951 
    1150    185.18975   -969.96648    134445.33   -31605.006    3514.6825   -35119.688    11.759444 
    1200    188.28034   -996.53363    134424.84   -31530.405    3573.3382   -35103.743    12.645937 
    1250    188.04852   -1081.4649    134352.54   -31445.235    3568.9386   -35014.173    13.495065 
    1300    184.89728   -1433.2011    134232.82    -31383.57    3509.1318   -34892.702    14.305604 
    1350    191.00121   -1134.9073    134068.37   -31272.909    3624.9771   -34897.886    15.337614 
    1400    192.40795   -1095.5927     133985.9   -31181.462    3651.6755   -34833.138    16.503684 
    1450    191.80237   -1261.1184    133924.63   -31086.944    3640.1822   -34727.126    17.626826 
    1500    191.64516   -1115.9699    133900.18   -31051.266    3637.1986   -34688.465    18.674482 
    1550    196.63817   -979.36901    133983.87   -30942.553      3731.96   -34674.513    19.913263 
    1600    196.18451   -701.33438    134181.71   -30876.254    3723.3501   -34599.604     20.99851 
    1650     195.7954   -1102.3559    134380.13   -30823.289    3715.9652   -34539.254     22.16936 
    1700    202.65022   -1100.6846    134545.69   -30759.845    3846.0616   -34605.907    23.248836 
    1750    201.75929   -1268.9111     134741.1   -30653.642    3829.1527   -34482.795     24.54948 
    1800    199.97384   -1271.6913    134856.29    -30618.95    3795.2671   -34414.218    25.719859 
    1850    205.15417   -911.13822    134925.73   -30538.314    3893.5835   -34431.897    27.016583 
    1900    203.94073   -1237.0883    135068.55   -30480.254     3870.554   -34350.808    28.459905 
    1950    206.53415   -1027.5898    135196.97   -30423.833     3919.774   -34343.607    29.818549 
    2000    208.58368   -1097.5167    135260.61   -30340.047    3958.6716   -34298.719    31.057042 
    2050    206.73309   -1534.9189    135312.15   -30294.276    3923.5496   -34217.826    32.180144 
    2100    205.25628   -1010.9911    135291.36   -30249.956    3895.5214   -34145.478    33.533249 
    2150    211.80849   -885.15538    135264.69   -30175.399    4019.8747   -34195.274    34.734872 
    2200    208.02907   -772.18188    135254.11   -30108.074    3948.1457    -34056.22    35.977068 
    2250    210.94972   -910.56755    135264.07   -30072.889    4003.5763   -34076.465     37.56537 
    2300       211.75   -1059.5916    135355.09   -30037.535    4018.7645     -34056.3    39.041605 
    2350    212.64088   -1375.4638     135504.2   -29975.735    4035.6724   -34011.407    40.312865 
    2400    207.81557   -1081.7387    135654.65   -29947.507    3944.0938   -33891.601    41.607036 
    2450    214.64007   -1208.0101    135848.98   -29952.756    4073.6148   -34026.371    43.111073 
    2500    214.33273   -1514.4338    136077.71   -29947.275    4067.7817   -34015.057    44.761659 
    2550    218.76944   -1559.6077    136268.78   -29862.637    4151.9852   -34014.622    46.377888 
    2600    216.31347   -830.93502    136360.78   -29861.488    4105.3739   -33966.862    47.788323 
    2650     213.1593   -1416.8906    136451.01   -29839.104    4045.5115   -33884.616    48.979317 
    2700    219.32737   -1147.2416    136562.48   -29796.227    4162.5741   -33958.801    50.321874 
    2750    212.89195   -1473.7902     136695.7   -29741.579    4040.4375   -33782.017    51.772939 
    2800    221.52218   -1229.7053    136769.38   -29739.461     4204.229    -33943.69    53.041896 
    2850    215.37748   -1029.9922    136855.04   -29699.999    4087.6098   -33787.608    54.416105 
    2900    216.67912    -1004.339    136945.76   -29672.826    4112.3135    -33785.14    56.029743 
    2950    216.79208   -1097.8778    137071.28   -29647.359    4114.4574   -33761.816    57.328252 
    3000    221.98466   -1121.7444    137162.95   -29632.695    4213.0064   -33845.702    58.669562 
    3050    218.82022    -1249.767    137152.41   -29595.371     4152.949    -33748.32    60.085147 
    3100    218.21659    -1306.516    137153.02   -29529.035    4141.4928   -33670.528    61.676472 
    3150    223.65056   -1061.9734    137202.43   -29488.746    4244.6232    -33733.37    63.442261 
    3200    223.13172   -1098.1396    137263.42   -29463.646    4234.7762   -33698.422    65.074356 
    3250    222.69207   -882.21202    137316.17   -29430.971    4226.4321   -33657.403    66.608646 
    3300    223.14416   -1245.6853    137381.45   -29413.736    4235.0123   -33648.748    68.251918 
    3350    229.31924   -1430.7184     137406.5   -29424.224     4352.208   -33776.432    70.002619 
    3400    223.82917    -1253.748    137395.72   -29427.754    4248.0129   -33675.767    71.751793 
    3450    222.17334   -995.24884    137421.85     -29445.7    4216.5873   -33662.288    72.900094 
    3500    222.23165   -1008.8102    137565.95   -29427.715     4217.694   -33645.409     74.26536 
    3550    224.18776   -1105.3161    137746.92   -29410.766    4254.8185   -33665.585    75.815858 
    3600    220.47011    -1077.952    137914.68   -29374.495    4184.2619   -33558.756    77.156788 
    3650    226.79449   -1470.3466    138091.16    -29343.71    4304.2912   -33648.001    78.845477 
    3700    221.53753   -1325.9292    138266.08    -29296.89    4204.5203    -33501.41    80.597567 
    3750    225.13404   -1002.7148       138383   -29215.467    4272.7779   -33488.245    82.002302 
    3800    226.84016   -883.61495    138514.65   -29206.674     4305.158   -33511.832     83.48003 
    3850    227.98974   -1772.0912    138660.65   -29153.862    4326.9757   -33480.838    85.618288 
    3900     230.4812   -1560.8208    138746.68    -29123.72    4374.2606   -33497.981    87.315024 
    3950    225.43872   -1116.7472    138775.29   -29120.345    4278.5603   -33398.905    89.451157 
    4000    224.87565   -933.45645    138735.79   -29136.475     4267.874   -33404.349    91.361924 
    4050    227.95137   -1263.1638    138753.11   -29120.331    4326.2475   -33446.579    93.231246 
    4100    224.72948   -879.20283    138785.82   -29106.779    4265.0997   -33371.879    95.248017 
    4150    229.20033   -969.69521    138802.91   -29120.349    4349.9513     -33470.3    97.385797 
    4200    225.21861   -1037.8645    138805.19   -29101.615    4274.3829   -33375.997    99.119102 
    4250    225.21969     -1167.79    138772.64   -29065.688    4274.4034   -33340.092    101.04879 
    4300    225.51591   -1360.6545    138772.55   -29053.004    4280.0253   -33333.029    103.03986 
    4350    228.89925   -1032.9481    138830.05   -29044.319    4344.2371   -33388.557    104.95659 
    4400    227.58258   -1314.4223    138936.23   -29025.557    4319.2483   -33344.806    106.19837 
    4450    230.90021   -1102.5047    139039.39   -28995.047     4382.213    -33377.26    107.23491 
    4500    226.57193   -1092.1159    139115.22   -28991.932    4300.0674   -33291.999    108.95972 
    4550    227.70433   -1379.5149    139145.32    -28973.21    4321.5589   -33294.768    111.11428 
    4600    229.67255   -1126.7761    139186.88   -28948.774    4358.9135   -33307.688    112.70407 
    4650    231.53173   -1077.6581    139272.13   -28921.948    4394.1985   -33316.146     114.4899 
    4700     232.1532   -1136.7642    139360.26   -28914.844    4405.9933   -33320.837    116.52348 
    4750    226.22347   -1133.9201    139470.21   -28931.891     4293.454   -33225.345    118.22233 
    4800    231.19417   -1448.5515    139528.29   -28897.507     4387.792   -33285.299    119.85385 
    4850    229.24695   -1378.5287    139498.45   -28868.804     4350.836    -33219.64    121.55565 
    4900    232.80909   -1141.7772     139490.2   -28870.287    4418.4413   -33288.728    122.96124 
    4950    233.06901   -1046.1913     139536.5    -28867.67    4423.3742   -33291.044    124.49403 
    5000    232.48959   -1500.6109    139642.24   -28839.936    4412.3775   -33252.314    126.24776 
    5050    232.82032   -1021.0479    139713.91   -28849.297    4418.6543   -33267.951    128.29995 
    5100    228.20899   -1229.7034     139785.3   -28844.051    4331.1368   -33175.187    129.35937 
    5150    231.55136   -1460.1594       139834   -28842.296    4394.5711   -33236.867    130.79336 
    5200    235.64756   -930.77895    139828.98   -28818.943     4472.312   -33291.255    132.00345 
    5250    236.08249   -1296.2375    139837.09   -28787.529    4480.5665   -33268.096    133.71622 
    5300    231.19231   -1128.8576    139860.45   -28744.488    4387.7567   -33132.245    135.88786 
    5350    228.58615   -991.89366    139856.19   -28732.617    4338.2949   -33070.912    137.60252 
    5400    232.98687   -1213.5542    139840.79   -28741.171    4421.8153   -33162.986    139.27467 
    5450    234.33319   -1274.5841    139832.75    -28719.33    4447.3668   -33166.697    141.01552 
    5500    238.77361   -1203.8022    139820.17    -28728.78    4531.6408   -33260.421    142.72267 
    5550    231.31026    -901.4523    139814.94   -28723.624    4389.9953   -33113.619    144.22244 
    5600    239.82669   -930.70753    139785.79   -28713.238    4551.6271   -33264.865    145.80184 
    5650    233.17937   -1275.6634    139798.74   -28702.636    4425.4687   -33128.105    148.36204 
    5700    232.19931   -638.60042    139834.71   -28664.009    4406.8683   -33070.877    150.52229 
    5750    233.38336   -1072.2404    139926.49   -28672.216    4429.3403   -33101.557    152.56718 
    5800    235.64103   -1220.7993    140021.32   -28673.902    4472.1882    -33146.09    154.64994 
    5850    234.58854   -1117.2032    140038.47   -28676.682     4452.213   -33128.895     156.3581 
    5900    236.99035   -1490.3988    140049.81   -28645.924    4497.7966    -33143.72     158.1533 
    5950    238.77126   -1297.4157    140036.07   -28637.911    4531.5961   -33169.507    160.04507 
    6000    237.42493   -1045.8269    140001.62   -28647.763    4506.0444   -33153.807    162.25919 
    6050    235.69914   -576.67347       139993   -28685.109     4473.291     -33158.4    163.94073 
    6100     235.7902   -987.07264    140046.31   -28679.868    4475.0193   -33154.887    165.17412 
    6150    235.88595   -1116.4872    140075.35   -28641.185    4476.8363   -33118.022    166.96474 
    6200    237.04653   -800.19571    140149.29   -28629.878    4498.8629   -33128.741    169.65321 
    6250    236.42591   -925.71112    140299.96   -28600.055    4487.0843   -33087.139    171.54765 
    6300    237.38701    -1304.544    140499.68   -28616.657    4505.3248   -33121.982    173.51893 
    6350    235.73625   -822.99604    140649.83   -28623.105    4473.9953   -33097.101    175.16283 
    6400    237.70537   -1421.0681    140747.67   -28578.708    4511.3669   -33090.074    177.76673 
    6450     238.9721    -893.4993    140751.32   -28582.967    4535.4079   -33118.375    179.91258 
    6500    236.52876   -1064.7102    140783.82   -28564.053    4489.0361   -33053.089    181.65153 
    6550    235.46566   -898.30228    140823.04   -28571.734    4468.8599   -33040.594    183.53268 
    6600    233.72248   -1283.6141    140922.79   -28624.684    4435.7764    -33060.46    186.14913 
    6650    231.95288   -1547.0184    141056.57   -28648.326    4402.1915   -33050.518    187.76597 
    6700    235.29854   -1128.0016     141155.9   -28659.973     4465.688   -33125.661     190.4698 
    6750    236.84184   -1023.3137    141249.93   -28667.707     4494.978   -33162.685    192.61048 
    6800    232.43515   -1160.4526    141355.01   -28664.853    4411.3444   -33076.197    194.80805 
    6850    235.33863   -1287.6953    141493.84   -28680.955     4466.449   -33147.404    196.90982 
    6900     231.2065   -1585.4258    141553.13    -28685.45     4388.026   -33073.476    198.43399 
    6950    231.42758   -1321.8351    141488.47   -28659.568    4392.2219    -33051.79    200.97616 
    7000    233.54853   -1265.9335    141398.61   -28647.441     4432.475   -33079.916    202.47679 
    7050    235.97212   -1048.1891    141285.29   -28625.464    4478.4718   -33103.936    203.82835 
    7100    237.43386   -925.56557    141219.97   -28604.915    4506.2138   -33111.129    205.36832 
    7150    233.07205   -1512.0323    141193.87   -28603.786    4423.4319   -33027.218    207.39714 
    7200    236.22191   -1340.4752    141116.67   -28595.312    4483.2126   -33078.525    209.59343 
    7250    240.01955   -1165.9644    140984.79   -28560.362    4555.2872   -33115.649    211.72443 
    7300    236.51435   -1486.5669    140851.88   -28582.633    4488.7628   -33071.396    213.07104 
    7350    236.36528   -1204.5034    140731.57   -28575.879    4485.9336   -33061.812     214.3445 
    7400    235.17218    -1221.578    140552.56   -28579.627    4463.2898   -33042.917    216.18014 
    7450    238.19256   -1223.1669    140372.42   -28579.512    4520.6132   -33100.125    217.36801 
    7500    235.66986   -870.58518    140292.08   -28595.403    4472.7354   -33068.138    218.83391 
    7550    238.74322   -941.63877    140262.54   -28633.695    4531.0641   -33164.759    220.11331 
    7600    239.12098   -1479.8892    140258.11   -28630.409    4538.2334   -33168.642    221.97613 
    7650     235.6253   -628.55598    140184.09   -28627.586    4471.8895   -33099.475    223.55867 
    7700    236.63264   -890.14994    140128.31   -28617.322    4491.0078    -33108.33    225.31302 
    7750    236.33868    -1191.522    140099.12   -28635.002    4485.4286    -33120.43    227.11378 
    7800    236.66205   -1146.3907     140095.8   -28665.896     4491.566   -33157.462    229.08614 
    7850    234.25492   -1283.1746    140115.18   -28627.641    4445.8814   -33073.523    231.04901 
    7900    236.11541   -908.22691    140111.34   -28631.441    4481.1912   -33112.632    233.06001 
    7950    236.60461   -418.18679     140097.4   -28632.322    4490.4757   -33122.798    234.82118 
    8000    237.37611   -1258.3508    140098.36   -28627.518    4505.1178   -33132.636    236.57442 
    8050     233.7028   -1427.6622    140062.82   -28650.712    4435.4029   -33086.115    238.03672 
    8100      236.017   -996.18321    139985.97   -28674.621    4479.3236   -33153.945    239.38576 
    8150    230.46208   -1214.1994     139915.8   -28701.404    4373.8978   -33075.302    241.06925 
    8200    238.04343   -1082.0494    139842.57   -28672.992    4517.7829   -33190.774    243.09999 
    8250    234.98017   -1011.4688    139798.75   -28680.442    4459.6459   -33140.088    245.25627 
    8300    242.03491   -1184.9843    139777.96   -28678.504    4593.5363    -33272.04    247.34136 
    8350    236.43611    -1206.181    139846.07   -28715.883    4487.2777   -33203.161    249.35674 
    8400    234.67516   -1491.0187    140003.29    -28713.36     4453.857   -33167.217    251.11151 
    8450    236.84678   -1238.0224    140194.08    -28693.01    4495.0719   -33188.082    253.52791 
    8500    238.56658   -992.15767    140473.76   -28672.828    4527.7117    -33200.54    254.02745 
    8550    236.91905   -1142.9032    140726.93   -28652.087    4496.4435   -33148.531    256.28247 
    8600    234.22904   -956.03578    140939.52   -28632.016    4445.3903   -33077.406    258.86785 
    8650    241.37571   -1068.0459    141123.38   -28600.843    4581.0255   -33181.869    260.97964 
    8700    235.26603   -1510.4652    141288.53   -28584.279    4465.0711    -33049.35     263.0724 
    8750    238.19886   -1538.9038    141355.84   -28552.946    4520.7327   -33073.679    265.00863 
    8800    236.60387   -1578.1574    141262.23   -28528.494    4490.4617   -33018.956    266.59119 
    8850    237.61297   -985.07837    141149.25   -28516.359    4509.6132   -33025.972    268.72052 
    8900    234.76282    -1767.427    141082.85   -28510.912    4455.5207   -32966.432    270.40788 
    8950    239.21538   -892.61228    140945.42   -28516.375     4540.025     -33056.4    271.85859 
    9000    239.31646   -948.99279    140889.37   -28509.215    4541.9435   -33051.158    273.95151 
    9050    238.46494   -910.36066    140908.02   -28529.304    4525.7825   -33055.086    275.24152 
    9100     238.2619   -1049.5111    140930.68   -28517.737    4521.9291   -33039.666    277.53793 
    9150    239.74234   -1540.2171    140905.28   -28521.351    4550.0261   -33071.377    278.99704 
    9200    238.27651   -953.63852    140919.41   -28498.922    4522.2063   -33021.129    281.50721 
    9250    233.85472   -1319.5079    140996.53   -28497.262    4438.2861   -32935.548    283.30119 
    9300    238.49754   -1357.2092    141049.55   -28542.257    4526.4014   -33068.659    284.94964 
    9350    235.39026   -1588.0398    141058.15   -28541.307    4467.4287   -33008.735    286.43517 
    9400    235.50657   -1245.1376    140987.72   -28552.104    4469.6363   -33021.741    288.25133 
    9450    242.99778   -1448.2679    140950.45   -28555.816    4611.8105   -33167.627    290.53164 
    9500     233.9414   -719.39994    140891.68   -28556.566    4439.9312   -32996.497     292.2881 
    9550     239.3673   -1228.6486     140785.6   -28577.217    4542.9084   -33120.125    294.30053 
    9600    235.87149   -815.81844    140636.68   -28570.533    4476.5619   -33047.095    296.41421 
    9650    237.80013   -1349.2773    140599.39   -28528.348    4513.1652   -33041.513    298.67032 
    9700    232.54327   -1202.0504    140691.61   -28555.923    4413.3963   -32969.319    300.99713 
    9750    235.23889    -1385.906    140825.47   -28583.233    4464.5559   -33047.789    302.52751 
    9800      234.935   -1100.0594    140961.76   -28586.203    4458.7884   -33044.992    304.23964 
    9850    236.95494    -1234.829    141062.84   -28557.268    4497.1246   -33054.393    305.87928 
    9900    234.97927   -1445.1738       141121    -28540.28    4459.6288   -32999.909     307.4313 
    9950    235.56569   -1435.8781    141044.91   -28545.482    4470.7582    -33016.24    308.94414 
   10000    234.49964   -1378.8195    140894.58   -28563.197    4450.5259   -33013.723     311.1646 
   10050    233.42161    -1054.223    140788.89   -28552.972    4430.0661   -32983.038    313.37399 
   10100    234.20335   -990.42749    140742.92   -28575.323    4444.9027   -33020.226    315.39138 
   10150    238.08198   -1014.1816    140693.53   -28559.819    4518.5145   -33078.333    317.17709 
   10200    237.29042   -1262.3229    140673.13   -28585.721    4503.4917   -33089.212    318.92798 
   10250    238.45109   -1068.9475    140567.82   -28544.225    4525.5197   -33069.745     320.3625 
   10300    236.11061   -1167.7192    140448.05   -28524.096    4481.1002   -33005.196     322.3737 
   10350    235.86435   -1371.6048    140382.21   -28547.225    4476.4266   -33023.652    325.01064 
   10400    235.70998   -1024.9293    140337.55   -28547.011    4473.4966   -33020.508    326.36881 
   10450    238.12731   -1234.0627    140306.27   -28523.336    4519.3749   -33042.711    327.42173 
   10500    241.72206   -773.17978    140232.62    -28522.84    4587.5988   -33110.439    328.78492 
   10550    239.91303   -1024.7756    140164.61   -28535.295    4553.2657   -33088.561    330.31099 
   10600    241.51902   -742.76525    140088.18   -28552.028    4583.7455   -33135.773    332.19967 
   10650    233.62186   -903.83329    140041.21   -28578.318    4433.8667   -33012.184    334.68596 
   10700     238.4577   -1267.4209    140015.89   -28596.858    4525.6453   -33122.503    336.00482 
   10750    242.56495   -1315.4926    139953.72   -28587.522    4603.5959   -33191.118    337.95854 
   10800    238.37939   -855.03972    139869.12   -28594.919     4524.159   -33119.078    340.20672 
   10850    236.17721   -871.43578    139848.79   -28613.151    4482.3642   -33095.515    341.70743 
   10900    236.43061   -1322.0143    139912.29   -28610.828    4487.1735   -33098.002    343.19118 
   10950    240.35825   -1028.3642    139973.13   -28629.557    4561.7154   -33191.273    344.04727 
   11000    237.64769    -1474.381    140054.83   -28644.042    4510.2721   -33154.314    346.34041 
   11050    235.37589   -1413.7102    140036.24   -28657.654    4467.1561    -33124.81    347.81793 
   11100    236.21271   -966.81343    139960.02   -28695.534     4483.038   -33178.572    349.47874 
   11150    234.73678   -1088.9329    139902.66   -28679.639    4455.0265   -33134.666    350.95209 
   11200     236.1881   -819.22335    139843.35   -28673.544    4482.5709   -33156.115    352.60723 
   11250    233.98605    -979.8266    139865.74   -28675.875    4440.7785   -33116.654    354.90946 
   11300    232.54909   -900.04202    139984.63   -28692.207    4413.5068   -33105.714    356.90126 
   11350    236.12159   -1261.5151    140129.49   -28693.801    4481.3086    -33175.11    358.62537 
   11400    240.46186   -854.72482    140280.67   -28694.782    4563.6818   -33258.464     360.0534 
   11450    235.71412   -1471.1764    140408.19   -28664.591    4473.5752   -33138.166    361.44202 
   11500    240.74984   -1533.1122    140480.92   -28620.786    4569.1472   -33189.933    363.55714 
   11550    237.18059   -1122.5656    140545.92   -28623.072    4501.4072   -33124.479    365.74858 
   11600    233.95526   -1387.3543    140613.47   -28659.249    4440.1942   -33099.443     366.8167 
   11650     232.7515   -1515.8927    140638.65   -28691.099    4417.3482   -33108.447    367.68477 
   11700    233.38043   -1177.4217    140610.12   -28674.716    4429.2845       -33104    370.34015 
   11750    232.32944   -1137.2256    140543.76   -28710.908    4409.3381   -33120.246    372.31575 
   11800    233.50107   -1476.8115    140423.66   -28744.677    4431.5741   -33176.251    374.22586 
   11850    235.59277    -1319.143    140230.84   -28755.258    4471.2722    -33226.53    375.70499 
   11900    231.18047    -1306.837    140009.51   -28739.329     4387.532   -33126.861    377.44921 
   11950    232.46575   -1483.5016    139732.16   -28758.585     4411.925    -33170.51    379.33287 
   12000    234.27348   -1195.0359    139448.58   -28768.274    4446.2336   -33214.508     380.3531 
   12050    236.36518   -1402.0038    139238.29   -28793.153    4485.9316   -33279.084    381.69762 
   12100    237.64725   -1586.2667    139109.31   -28761.145    4510.2639   -33271.409    383.69109 
   12150    234.98139   -1117.2952    139065.03   -28752.899     4459.669   -33212.568    384.59473 
   12200     234.0831   -1013.4211    139083.42   -28725.783    4442.6204   -33168.403    385.82553 
   12250    238.21895   -1056.4385    139092.06   -28738.891     4521.114   -33260.005    386.53564 
   12300    236.21052   -1023.4556    139117.26   -28697.721    4482.9964   -33180.718    388.33601 
   12350     237.7195   -925.50734    139192.71   -28711.943     4511.635   -33223.578      390.414 
   12400    234.68706   -1283.1362    139331.98   -28680.706    4454.0829   -33134.789    392.55196 
   12450    236.14886   -904.51531    139478.87   -28682.165    4481.8262   -33163.991    395.37544 
   12500    234.83624   -773.12567    139642.53   -28673.499    4456.9142   -33130.413    398.08316 
   12550    234.84989   -497.98639    139823.83   -28681.601    4457.1732   -33138.774    399.97512 
   12600    236.85784   -1352.2283     139968.8   -28687.469    4495.2817    -33182.75    401.18116 
   12650    232.54077   -1253.9146    139985.94   -28688.016    4413.3489   -33101.364    402.46375 
   12700    231.99579   -859.24707    139984.28   -28694.159    4403.0059   -33097.165    403.85011 
   12750    232.89733    -1058.233    139987.25    -28683.43    4420.1159   -33103.546    406.09806 
   12800    235.90595    -1464.616    140025.09   -28692.722     4477.216   -33169.938    407.66092 
   12850    237.66442   -882.55198     140086.5   -28701.389    4510.5896   -33211.979    410.06448 
   12900    235.21015   -1483.3279    140200.88   -28704.555    4464.0106   -33168.566    411.81625 
   12950    237.27771   -1250.7409    140326.94   -28706.219    4503.2504   -33209.469    413.03898 
   13000    236.85897    -755.7617    140462.57   -28659.789    4495.3032   -33155.092    414.65083 
   13050    235.87623   -1204.3529    140618.38   -28646.803     4476.652   -33123.455    417.43451 
   13100     234.5476   -1426.1813    140676.09   -28637.607    4451.4361   -33089.043    419.80626 
   13150    230.17333   -1341.2513    140586.01   -28658.103    4368.4177   -33026.521    421.39677 
   13200    236.52266    -1115.027    140505.89   -28619.233    4488.9204   -33108.153    423.54673 
   13250    238.28515   -1344.9223    140476.78   -28622.333    4522.3703   -33144.704    424.52099 
   13300    233.37749   -853.28579       140468   -28637.264    4429.2289   -33066.493    425.83546 
   13350    230.74367     -1326.99    140512.51   -28642.996    4379.2421   -33022.238    427.93563 
   13400    236.01773   -1097.8172    140473.67   -28626.489    4479.3375   -33105.826    429.86454 
   13450    235.65608   -654.32665    140436.28   -28620.228    4472.4738   -33092.702    431.48658 
   13500    232.07671    -1214.146    140448.48    -28630.29    4404.5415   -33034.832    432.49183 
   13550    239.10537   -1228.8212    140463.85   -28618.134    4537.9373   -33156.071      434.495 
   13600    237.25509   -1478.9996    140520.94   -28623.151    4502.8211   -33125.972    437.26614 
   13650    238.37583   -1044.6541     140611.8   -28651.865    4524.0913   -33175.957    439.54333 
   13700    233.05985   -908.67004    140698.03   -28671.117    4423.2004   -33094.317    440.19015 
   13750    232.53495   -1299.6622       140744   -28639.926    4413.2383   -33053.164    442.32835 
   13800    235.64229   -1380.8017    140754.92   -28642.929    4472.2121   -33115.141     444.1574 
   13850    234.20875   -1462.0622    140773.32   -28632.467    4445.0052   -33077.472     446.3427 
   13900    235.26827   -1198.2614    140720.71   -28639.465    4465.1136   -33104.579    449.22572 
   13950    233.79356   -999.48085    140568.97   -28640.083    4437.1253   -33077.208    450.54153 
   14000    235.25812    -1151.761     140374.7   -28658.858    4464.9209   -33123.778    452.53044 
   14050    235.46318   -776.54294    140232.68   -28668.515    4468.8127   -33137.327    453.07205 
   14100    236.16211   -1078.0149    140190.28   -28649.843    4482.0776   -33131.921    454.96314 
   14150    234.03587   -1110.7379    140150.91   -28661.301     4441.724   -33103.025    456.83105 
   14200    233.55429   -1181.4049    140096.63   -28689.981    4432.5843   -33122.565    458.73838 
   14250      232.907   -1740.3334    140019.97   -28703.615    4420.2994   -33123.915     459.7667 
   14300    237.26501   -1323.0071    139885.81   -28710.971    4503.0094    -33213.98    461.53615 
   14350     234.8193   -1187.2375    139797.47   -28722.605    4456.5927   -33179.198    464.62594 
   14400    235.25873   -1116.8138    139836.06   -28729.435    4464.9326   -33194.368    465.62851 
   14450    231.34528   -997.83638    139959.65   -28716.757    4390.6599   -33107.417    468.34304 
   14500    234.77898   -942.04355    140110.46   -28690.528    4455.8274   -33146.356    470.83982 
   14550    232.27459   -675.54185    140264.95   -28703.885    4408.2971   -33112.182     473.5736 
   14600    231.56456   -823.36632    140471.05   -28687.939    4394.8215   -33082.761    475.62053 
   14650    235.22869   -1222.9405    140670.13   -28640.103    4464.3624   -33104.465    479.01681 
   14700    234.53616   -1104.4836    140804.35   -28654.382     4451.219   -33105.601    481.50346 
   14750    237.23878   -1183.8043    140896.39   -28677.271    4502.5115   -33179.782    482.82317 
   14800     232.1521   -1312.5073    140955.92   -28638.782    4405.9723   -33044.754    484.97347 
   14850    234.41753   -1017.3403     140918.8   -28654.999    4448.9676   -33103.966    486.42307 
   14900    234.81993   -1282.3248    140915.28    -28667.54    4456.6046   -33124.144    489.22487 
   14950    232.41618   -1415.3298    140843.02   -28685.071    4410.9844   -33096.056    489.85413 
   15000     235.2593   -1469.7232    140677.36   -28707.886    4464.9434   -33172.829    491.51905 
   15050    233.65123   -1010.8641    140444.48   -28719.644     4434.424   -33154.068    492.49017 
   15100    233.06779   -1295.9326    140249.79   -28735.459    4423.3511    -33158.81    493.82901 
   15150    237.63963   -1480.3576    140121.88   -28750.583    4510.1191   -33260.702    494.96988 
   15200    230.97831   -722.72031    139976.49   -28776.482    4383.6953   -33160.178    496.41824 
   15250    229.35126    -1010.337    139893.43   -28770.516    4352.8158   -33123.331    498.21745 
   15300     232.3668   -657.74834    139865.73   -28748.059    4410.0472   -33158.106    498.94119 
   15350    229.59955   -1290.2127    139907.34    -28782.74     4357.528   -33140.268    499.68908 
   15400    229.69042   -990.06347    139946.37   -28817.552    4359.2526   -33176.804     502.0269 
   15450    231.10739     -1284.69    139983.16   -28874.892     4386.145   -33261.037    502.65096 
   15500    229.05691   -1041.6693    139946.04   -28883.144    4347.2294   -33230.374    503.67026 
   15550    227.45363   -1246.7374    139871.78    -28863.64    4316.8009   -33180.441    505.09631 
   15600    230.37114   -833.69972     139805.8   -28823.715    4372.1719   -33195.887    506.67803 
   15650    235.92583   -1158.1528    139690.08   -28792.226    4477.5933   -33269.819    507.91022 
   15700    234.04917   -1050.9888    139591.77   -28766.817    4441.9766   -33208.794    509.63432 
   15750    234.81492   -1393.4503    139539.92   -28756.139    4456.5096   -33212.649    510.56153 
   15800    235.73759   -1190.4944    139511.32   -28788.279    4474.0207     -33262.3    511.73617 
   15850    235.49584   -1302.7797    139493.76    -28773.35    4469.4326   -33242.782    513.11888 
   15900    230.19956   -1407.6989    139475.63    -28764.11    4368.9155   -33133.026    513.84368 
   15950    233.31397   -766.99052    139444.22   -28759.446    4428.0233    -33187.47     515.4923 
   16000    235.35014    -870.7981    139455.72   -28762.934    4466.6675   -33229.602    516.54187 
   16050    230.38864   -1341.6172     139452.4   -28750.005    4372.5041   -33122.509    517.07878 
   16100    235.59471   -620.51721    139454.28   -28772.803    4471.3091   -33244.112    518.38574 
   16150    236.74983   -1299.7858    139531.07   -28727.957    4493.2318   -33221.188    520.04411 
   16200    239.36481   -1378.4392    139640.69   -28687.636    4542.8611   -33230.497    522.55808 
   16250    231.65015    -855.1843    139785.11   -28700.557    4396.4459   -33097.003    524.62882 
   16300    236.25268   -1306.5751    139934.57   -28686.565    4483.7964   -33170.362    527.32656 
   16350    234.08557   -1024.9354    140024.03   -28676.252    4442.6673    -33118.92    529.38667 
   16400    234.56125   -884.05854    140068.13   -28702.914    4451.6952   -33154.609    531.52157 
   16450    232.25118   -1071.7835    140141.59   -28679.803    4407.8527   -33087.656    532.30661 
   16500    235.14982   -908.85907    140187.57     -28698.4    4462.8655   -33161.266    535.54192 
   16550    232.06724   -1339.3376    140289.26   -28714.713    4404.3618   -33119.075    537.96751 
   16600    229.54703   -1051.8563    140394.28   -28722.105    4356.5313   -33078.636    539.40632 
   16650     233.4181   -1602.6858    140484.35   -28731.788    4429.9996   -33161.787     541.3585 
   16700    229.91734   -1170.5965    140530.39    -28682.39    4363.5593   -33045.949    543.41418 
   16750    235.52481   -991.98952    140586.77   -28677.885    4469.9825   -33147.867    543.92797 
   16800    234.35772   -786.75555    140653.74    -28652.31    4447.8325   -33100.142    545.12268 
   16850    235.38059   -1466.6365    140737.57    -28638.05    4467.2453   -33105.295     546.4944 
   16900     233.7482   -1415.1547    140726.09   -28641.913    4436.2644   -33078.177     548.5164 
   16950    235.83374   -1117.2639    140666.47   -28657.147    4475.8455   -33132.992    550.17165 
   17000    231.58852   -1101.4821    140600.34   -28665.914    4395.2762    -33061.19    552.28431 
   17050    232.86762    -639.0343    140486.22   -28661.268     4419.552    -33080.82    553.23178 
   17100    234.82425   -1025.9199    140383.72   -28654.056    4456.6865   -33110.743    554.41378 
   17150     237.3061   -1454.5484       140288   -28654.616    4503.7893   -33158.405     556.3416 
   17200    236.48556   -1277.9973     140164.4   -28664.611    4488.2162   -33152.828    557.68748 
   17250    237.17825   -1152.0437    140056.58   -28699.122    4501.3628   -33200.485    558.94592 
   17300    230.81468    -1255.648    139927.34    -28733.22    4380.5898    -33113.81    560.12286 
   17350    233.09071   -829.96747    139772.51   -28730.826    4423.7861   -33154.612    562.42282 
   17400    232.10789   -1054.2602    139682.49   -28730.373    4405.1333   -33135.506    564.13038 
   17450    235.16184   -1046.0977    139571.18    -28766.14    4463.0937   -33229.234    565.89877 
   17500     234.9345   -1285.4841    139444.08   -28782.768     4458.779   -33241.547     567.8309 
   17550    235.81847   -1114.3982    139300.73   -28784.556    4475.5556   -33260.111    569.12538 
   17600    232.20173    -1436.963    139143.02   -28784.877    4406.9143   -33191.792    570.64573 
   17650     236.3237   -515.03282    138990.72   -28800.519    4485.1444   -33285.663    572.06345 
   17700    231.88029   -738.48159    138922.53   -28814.706    4400.8136   -33215.519    573.72053 
   17750    231.49758   -1171.1463    138937.26   -28842.956    4393.5503   -33236.506    575.78324 
   17800    231.88933   -1126.4548     138932.1   -28850.622    4400.9854   -33251.607    577.85859 
   17850    231.68618    -843.5415    138914.83   -28860.585    4397.1298   -33257.715     580.0903 
   17900    229.56886   -1174.0448     138923.1   -28867.002    4356.9454   -33223.948    581.63368 
   17950    231.54645   -1073.6791    138981.25   -28852.779    4394.4778   -33247.257     583.3339 
   18000    233.99629   -1194.2314    139038.22   -28882.701    4440.9728   -33323.674    584.49673 
   18050    234.43372    -1471.588    139082.51   -28897.042    4449.2748   -33346.317    586.69703 
   18100    230.61966    -1227.382    139104.87   -28885.908    4376.8886   -33262.796    587.70753 
   18150    227.92714   -1440.7276    139085.35    -28897.38    4325.7876   -33223.168    589.42963 
   18200    238.33623   -1345.4418    139065.46   -28907.786    4523.3398   -33431.126    590.90846 
   18250    229.80718   -1235.9061    139098.97   -28920.656    4361.4685   -33282.125    592.28864 
   18300    232.62553   -951.64573       139149   -28927.668    4414.9575   -33342.625    593.57928 
   18350    232.36489   -1250.3167    139160.35   -28902.241    4410.0109   -33312.252    594.99917 
   18400    232.61231   -1114.5502    139093.55   -28934.118    4414.7066   -33348.824    596.52307 
   18450    235.21809   -1383.1655    139062.86   -28907.512    4464.1612   -33371.674    599.62161 
   18500    237.26589   -1286.4214    139066.55   -28874.347     4503.026   -33377.373    601.30429 
   18550    232.36211   -722.03561    139064.75   -28875.785     4409.958   -33285.743    603.09247 
   18600    231.73927   -1076.1271    139097.39   -28863.807    4398.1373   -33261.945      604.377 
   18650    233.83589   -1194.7473    139183.36   -28842.515    4437.9287   -33280.444    606.55703 
   18700     234.2745   -752.21291    139262.29   -28822.943    4446.2531   -33269.196    607.51195 
   18750     230.8276    -954.7914    139404.83    -28769.89    4380.8348   -33150.725     608.1098 
   18800    230.88476   -716.12962    139548.77   -28760.536    4381.9198   -33142.456     610.1148 
   18850    234.90472    -1186.801     139718.7   -28784.475    4458.2139   -33242.689    611.61434 
   18900    233.28819   -1149.1265    139918.23   -28817.038     4427.534   -33244.572    612.40934 
   18950    231.13244   -1381.2337    140152.45   -28815.684    4386.6204   -33202.304    612.75644 
   19000     231.9006   -1155.3809    140341.46   -28789.972    4401.1992   -33191.171    613.69012 
   19050    233.78122    -1231.169    140536.64    -28818.38    4436.8911   -33255.271     613.8993 
   19100    233.64547   -1247.1183    140688.32   -28790.424    4434.3147   -33224.739    615.71085 
   19150     232.1869   -1079.9514    140765.53   -28781.238    4406.6329   -33187.871    617.63603 
   19200    231.62162   -1590.6673    140849.63   -28749.682    4395.9044   -33145.587     618.7337 
   19250    233.92107    -1577.256    140871.08   -28763.764    4439.5453   -33203.309    620.24201 
   19300    232.62207   -1596.5611    140868.57   -28733.039    4414.8918    -33147.93    621.00213 
   19350      231.743   -1725.5532    140818.19   -28715.144    4398.2082   -33113.352      622.279 
   19400    230.28626   -1205.0328    140721.84   -28698.453    4370.5609   -33069.014    623.02865 
   19450    230.02068   -953.83966     140618.8   -28691.132    4365.5206   -33056.652     624.3899 
   19500     234.6603   -1095.5642    140498.23   -28706.468     4453.575   -33160.043    626.54972 
   19550    235.96666   -961.01906    140398.27   -28722.525    4478.3682   -33200.894    627.39113 
   19600    235.19631   -1166.8562    140314.15   -28725.336    4463.7479   -33189.084    630.41391 
   19650    236.15285   -1055.7313    140221.46   -28710.559    4481.9019   -33192.461    632.43513 
   19700    231.54594   -806.69777    140154.08   -28726.637    4394.4681   -33121.105    634.45936 
   19750    235.80013   -812.43288    140068.41   -28704.468    4475.2076   -33179.676    635.55093 
   19800    233.90362   -1471.6833     139950.2   -28727.283    4439.2142   -33166.497    637.71996 
   19850    233.18732   -1010.9904    139795.44   -28722.757    4425.6196   -33148.377    639.56232 
   19900    233.33139   -1143.8287    139706.83   -28705.657    4428.3539   -33134.011    640.34467 
   19950    235.17142   -994.50826    139676.45   -28711.186    4463.2755   -33174.461    642.77462 
   20000    232.05498   -944.22019     139679.7   -28733.273    4404.1291   -33137.402     646.1661 
   20050    232.99301   -1478.0433    139768.97   -28750.931    4421.9318   -33172.863    648.19445 
   20100    230.67724   -1490.8686     139854.2   -28785.859    4377.9812    -33163.84    650.36777 
   20150    228.64336   -1573.7169    139910.08    -28749.35    4339.3807   -33088.731    652.17631 
   20200    235.66536   -1579.0223    139892.99    -28770.66    4472.6499    -33243.31    653.96217 
   20250    237.48972   -1148.9794    139865.84   -28783.063    4507.2742   -33290.338    655.31597 
   20300    234.63466   -998.78858    139915.26   -28745.003    4453.0885   -33198.092    657.32899 
   20350    234.60686   -559.41688    140007.87    -28729.16    4452.5608    -33181.72    658.68762 
   20400    234.46834   -1297.0277     140166.8   -28748.993    4449.9319   -33198.925    659.24252 
   20450    232.13363   -1240.1813    140269.54   -28753.436    4405.6218   -33159.058    660.30775 
   20500    238.16473   -863.12457    140358.91   -28747.697     4520.085   -33267.782    660.78543 
   20550    237.49885    -1439.879    140496.44   -28733.431    4507.4474   -33240.878    663.03171 
   20600    231.36439   -815.31427    140651.93   -28731.035    4391.0226   -33122.057    665.87757 
   20650    229.59552   -891.01189     140822.8   -28733.345    4357.4514   -33090.796    668.37806 
   20700    235.34409    -1547.854    141061.55   -28718.958    4466.5525   -33185.511    670.76375 
   20750    233.92222   -1222.5387    141269.05   -28708.636    4439.5671   -33148.203    672.83345 
   20800    230.62956   -1751.5652    141410.71   -28702.601    4377.0763   -33079.677    675.36927 
   20850    231.28507   -1364.1816    141407.91   -28670.329    4389.5172   -33059.846    677.08905 
   20900    231.43479   -1339.7056    141365.62   -28674.177    4392.3586   -33066.536    678.04376 
   20950    236.77994   -1564.9413    141222.59   -28703.155    4493.8033   -33196.959     680.2007 
   21000    232.09683   -1355.7889    140988.54   -28702.803    4404.9233   -33107.726    681.29224 
   21050    235.12886   -989.85815    140753.72   -28701.902    4462.4678    -33164.37    681.89362 
   21100    236.56084   -1105.6303    140538.74    -28705.05     4489.645   -33194.695    682.45021 
   21150    232.50319   -1226.8244    140342.73   -28692.868    4412.6357   -33105.504    684.23134 
   21200    233.09578   -924.36671     140173.3   -28702.888    4423.8822    -33126.77    685.31047 
   21250    239.03994   -1220.5014    140047.32   -28698.701    4536.6954   -33235.397    686.51482 
   21300    234.73963   -1170.0178    139959.39   -28700.897    4455.0807   -33155.977    686.90231 
   21350    237.37003   -931.01267    139928.12   -28699.827    4505.0024   -33204.829    687.29959 
   21400    236.16967   -1324.4126    139975.36   -28690.909    4482.2211    -33173.13    690.20959 
   21450    236.53325   -1401.9875    140054.19   -28668.625    4489.1214   -33157.746    692.86928 
   21500    233.77519   -1347.8083    140144.88   -28670.404    4436.7767   -33107.181    694.55926 
   21550    238.74862   -1310.4777     140274.7    -28656.76    4531.1666   -33187.927     696.4412 
   21600    238.53837   -1360.7515    140395.76   -28637.485    4527.1761   -33164.662       698.78 
   21650    237.79917   -1427.7549     140506.5   -28612.154     4513.147   -33125.301    700.18659 
   21700    236.04341   -1077.8052    140624.88   -28619.836    4479.8248   -33099.661    701.99935 
   21750    236.03448   -1018.0494     140771.4   -28599.808    4479.6554   -33079.463    704.91909 
   21800    231.50278   -1019.1776    140909.88   -28573.826    4393.6491   -32967.475    706.64148 
   21850     234.5986   -1346.3033    140970.33   -28589.297     4452.404   -33041.701    707.99366 
   21900    236.80524   -1687.2895     140946.3   -28583.043    4494.2834   -33077.327    709.53934 
   21950    235.16722   -1019.1544    140866.23   -28612.046    4463.1957   -33075.242    710.47955 
   22000    237.66939   -1200.7579    140770.84   -28594.099     4510.684   -33104.783    710.63208 
   22050    233.56076   -1139.4559    140647.82   -28580.817     4432.707   -33013.524    711.80872 
   22100    234.66123   -986.92542    140524.88   -28583.802    4453.5927   -33037.395    713.64437 
   22150    234.11731   -1022.5416     140377.8   -28569.563    4443.2698   -33012.833    713.20996 
   22200    238.98017   -1193.5136    140239.37   -28565.879    4535.5611    -33101.44    714.62994 
   22250    238.35616    -1663.592     140101.7   -28532.652    4523.7182    -33056.37    715.42462 
   22300    235.08788    -1481.381    139946.93   -28500.071    4461.6899   -32961.761    718.20599 
   22350    239.67445   -1067.5134    139799.21   -28541.316    4548.7376   -33090.053    720.73032 
   22400    235.01242   -1346.4992    139729.67   -28545.911    4460.2579   -33006.169    721.42929 
   22450     236.4637   -1030.6585    139741.22    -28535.87    4487.8014   -33023.672    723.36038 
   22500    241.26615   -1385.4496    139795.46   -28531.738    4578.9463   -33110.684    724.21164 
   22550    236.76293   -983.44609    139787.73   -28546.772    4493.4804   -33040.252    726.42576 
   22600    237.96288   -826.81484    139749.97   -28549.135    4516.2541   -33065.389    726.57506 
   22650    235.74471   -1011.7269    139735.24   -28554.068    4474.1558   -33028.223    727.71547 
   22700     242.4353   -1208.3299     139705.3   -28574.564    4601.1354   -33175.699    728.54236 
   22750      235.183   -625.81724    139676.78   -28602.511    4463.4952   -33066.007     730.1596 
   22800    235.69473   -1416.8119    139730.06   -28616.689    4473.2073   -33089.896    732.27234 
   22850    242.22619   -1285.3827    139734.48   -28608.487    4597.1666   -33205.653    733.97197 
   22900    234.22755   -1067.6836    139678.89   -28632.109    4445.3619   -33077.471    735.92504 
   22950    233.50539   -1404.1792    139616.14   -28641.306    4431.6562   -33072.962    738.43345 
   23000    238.17987   -1047.5317    139458.85    -28627.28    4520.3724   -33147.652    739.40266 
   23050    241.66915   -1435.3553    139297.58   -28618.623    4586.5948   -33205.217    741.64762 
   23100    238.35049   -1002.5682    139208.71   -28612.603    4523.6105   -33136.213    743.12495 
   23150      239.756   -1274.3413    139227.04   -28613.884    4550.2855    -33164.17     745.0642 
   23200    235.79122   -1041.0431    139283.36    -28618.63    4475.0386   -33093.668      747.347 
   23250    238.74084   -1275.4726    139411.73   -28639.364    4531.0189   -33170.382    748.93351 
   23300    239.42002   -1578.1475    139553.31   -28630.293    4543.9089   -33174.202    751.33033 
   23350    239.43547   -925.91649    139657.26   -28649.826    4544.2021   -33194.028    752.47171 
   23400    239.19313   -1154.4937    139799.79   -28643.959    4539.6028   -33183.562    754.80212 
   23450    232.89014   -975.40329    139993.06   -28682.009    4419.9796   -33101.988     756.5302 
   23500    230.83287    -1173.669    140231.72     -28679.4    4380.9349   -33060.335    758.88221 
   23550    238.05738   -1369.6426    140461.83   -28666.692    4518.0477    -33184.74    761.62123 
   23600    237.28275   -935.96524    140606.11   -28643.071     4503.346   -33146.417    762.51596 
   23650    235.78627   -913.53521    140776.08   -28598.336    4474.9446    -33073.28    764.74596 
   23700    234.32507   -621.25872    140929.76   -28598.401    4447.2128   -33045.614    767.54499 
   23750    232.92916   -1102.7648    141093.84   -28584.569    4420.7201   -33005.289    770.31197 
   23800    236.60411   -1193.1345     141265.4   -28562.003    4490.4662    -33052.47    771.63856 
   23850    238.68649   -1384.9032    141425.05   -28558.778    4529.9873   -33088.765    774.02627 
   23900    232.47937   -1470.4524    141489.25   -28583.523    4412.1835   -32995.706    776.69193 
   23950    237.39697   -1108.6118    141384.96   -28605.739    4505.5137   -33111.253    777.52694 
   24000    231.20914   -1223.8207    141204.69   -28605.161     4388.076   -32993.237    778.67566 
   24050    238.22677   -1242.6067    140953.19   -28591.482    4521.2625   -33112.744    779.28332 
   24100    236.75963   -1205.9456    140668.32   -28570.831    4493.4178   -33064.249    779.84091 
   24150    238.59187   -1870.8468    140407.38   -28595.745    4528.1916   -33123.936    781.00349 
   24200    232.37138   -1510.8854    140136.64   -28595.359    4410.1341   -33005.493    782.48862 
   24250    237.07825   -1037.2763    139852.49   -28607.328    4499.4648   -33106.793    782.40337 
   24300    238.76622   -957.53068    139631.28   -28630.383    4531.5006   -33161.883    785.17104 
   24350    236.55822   -924.74377    139430.01   -28632.789    4489.5952   -33122.385     787.4895 
   24400     236.3165   -1050.0949    139359.98   -28653.515    4485.0078   -33138.523     789.8957 
   24450    235.36405   -838.28155    139413.88   -28660.598    4466.9313    -33127.53    790.72664 
   24500     238.7791   -1376.4634    139581.36   -28646.586     4531.745   -33178.331    793.17364 
   24550    232.97639   -925.87069    139746.63   -28647.439    4421.6164   -33069.056    795.57619 
   24600    235.99238   -1154.9829    139963.13   -28624.045    4478.8564   -33102.902    797.85687 
   24650    237.36122   -1330.9938    140170.19    -28615.46    4504.8352   -33120.296    800.11802 
   24700    235.91156   -641.28657    140365.45   -28579.584    4477.3226   -33056.906    801.79889 
   24750    233.64954   -1311.9955     140638.7   -28543.068     4434.392    -32977.46    805.20419 
   24800    238.88264   -1351.4399    140843.63   -28534.203    4533.7101   -33067.913    806.56955 
   24850     238.9224   -1182.4154     140982.3    -28496.87    4534.4647   -33031.335     807.5573 
   24900    236.80721   -1193.6564    141178.85   -28522.182    4494.3208   -33016.503    811.13081 
   24950    235.31072   -1648.8763    141380.44   -28524.514    4465.9192   -32990.433    812.05482 
   25000    233.72843   -1277.7093    141415.13   -28550.135    4435.8892   -32986.024    813.31203 
   25050    237.29938   -893.05482    141378.66   -28539.195    4503.6616   -33042.856    816.23764 
   25100    236.97111   -837.78517    141368.46   -28529.595    4497.4315   -33027.026    819.55434 
   25150    237.31437   -1309.0193    141339.75   -28549.929    4503.9462   -33053.875    821.70151 
   25200    230.54032   -1282.0075    141269.34    -28592.17    4375.3828   -32967.553    822.43421 
   25250    235.20725   -1433.7457    141185.42   -28596.249    4463.9554   -33060.204    823.34989 
   25300    238.12975   -1561.2195    141055.62   -28625.642    4519.4211   -33145.063    825.21042 
   25350    239.19994   -1338.4319    140837.96   -28676.588    4539.7321    -33216.32    825.30722 
   25400    232.96954   -1645.1168    140666.13   -28648.009    4421.4865   -33069.496    826.69342 
   25450    236.36741   -1073.3635     140477.1   -28659.952     4485.974   -33145.926    827.80593 
   25500    238.13354   -997.80043    140294.18   -28634.372     4519.493   -33153.865      829.133 
   25550    230.64987   -1111.9747    140169.95   -28658.879    4377.4617   -33036.341    829.59433 
   25600    238.24099     -635.763    140066.02   -28690.568    4521.5323   -33212.101    830.59489 
   25650    235.55858   -874.66679    140010.63   -28701.189    4470.6234   -33171.812    831.09007 
   25700     236.0061   -1009.6533       139989   -28668.622    4479.1167   -33147.739    832.74524 
   25750    236.37509   -946.53957    140001.69   -28655.846    4486.1197   -33141.965    834.06627 
   25800    234.29253   -1167.4002    140076.57   -28659.972    4446.5951   -33106.567    835.82384 
   25850    239.15505   -981.30988     140180.7   -28634.003    4538.8801   -33172.883    837.43923 
   25900     236.6805   -1311.9974    140294.32   -28647.625     4491.916   -33139.541    838.80245 
   25950    232.31425   -923.01223    140382.02   -28640.294    4409.0498   -33049.343    840.41149 
   26000    232.06603   -1390.9868    140463.62   -28639.426    4404.3389   -33043.765    842.61781 
   26050    234.05263   -1538.7102    140433.19   -28725.574    4442.0421   -33167.616    843.97269 
   26100    234.56252   -886.23037    140363.28   -28704.161    4451.7192    -33155.88    845.06254 
   26150    229.92235   -1038.5485     140310.9   -28696.853    4363.6544   -33060.507    846.01299 
   26200    231.85212   -889.53738     140215.1   -28683.098    4400.2791   -33083.377    847.17728 
   26250    234.76516   -1014.1835    140114.11   -28720.058    4455.5652   -33175.623    849.22339 
   26300    231.20714   -1107.9273    139998.17   -28734.828    4388.0381   -33122.866    851.19987 
   26350    234.85196   -898.64257    139864.41    -28731.01    4457.2124   -33188.222    852.07465 
   26400    235.22534   -1439.2221       139715   -28732.032    4464.2988   -33196.331    853.78285 
   26450    230.43966    -1125.404    139535.73   -28711.405    4373.4723   -33084.877    854.36427 
   26500    235.16518   -1346.0452    139403.87   -28728.218    4463.1571   -33191.375    855.30199 
   26550    233.16668   -938.74821    139373.81   -28733.392    4425.2279   -33158.619    856.46957 
   26600    234.17962   -1300.8431    139388.44   -28719.013    4444.4523   -33163.465    857.99538 
   26650    234.08533   -966.21532     139421.5   -28709.514    4442.6627   -33152.177    859.50349 
   26700    237.75701   -987.02934    139525.75   -28707.363     4512.347    -33219.71     861.4502 
   26750    233.35225   -1403.1687    139655.73   -28713.371    4428.7499   -33142.121    863.40722 
   26800    235.35143   -847.25334    139769.51   -28735.045    4466.6918   -33201.737    865.08905 
   26850    240.53473   -451.23145    139903.35   -28698.447    4565.0647   -33263.511    867.93599 
   26900     236.1024   -1013.1032    140084.24   -28707.197    4480.9444   -33188.142    869.94796 
   26950    230.44436   -995.75169    140344.19   -28722.728    4373.5614   -33096.289    872.09829 
   27000    230.72255   -994.12888    140609.32   -28720.535    4378.8413   -33099.376    874.02144 
   27050    231.06295   -949.15507    140867.51   -28711.311    4385.3015   -33096.612    874.94474 
   27100    234.04152   -1049.3549    141080.72   -28717.208    4441.8314    -33159.04    877.33702 
   27150    234.32287    -1255.236    141243.04   -28715.921    4447.1709   -33163.092    880.07906 
   27200    233.92959   -1587.4795    141343.73   -28669.735    4439.7071   -33109.442    884.05343 
   27250    234.12652   -1100.0057    141322.29   -28666.899    4443.4445   -33110.344    885.03301 
   27300    234.32524   -1246.2882    141178.61    -28675.98    4447.2161   -33123.196     886.4522 
   27350    232.82785   -1069.8705    141008.58   -28647.693    4418.7973    -33066.49    886.53698 
   27400    237.96374   -1243.2931    140897.38   -28652.171    4516.2705   -33168.442    887.65447 
   27450    232.75637   -1096.2579    140777.06    -28657.13    4417.4408   -33074.571    888.72546 
   27500    238.20368   -1207.2024    140673.37   -28640.009    4520.8241   -33160.834    890.20757 
   27550    235.63347   -825.75316    140612.49   -28634.793    4472.0446   -33106.837    891.76647 
   27600    235.82397    -1059.401    140625.99   -28666.554      4475.66   -33142.214    893.54104 
   27650    231.87837   -992.73233    140684.61   -28673.147    4400.7773   -33073.925    894.86508 
   27700    232.71829   -1626.6811    140783.96   -28653.126    4416.7179   -33069.844    897.87952 
   27750    229.12971   -1017.4513    140814.94   -28639.528    4348.6109   -32988.139    899.32251 
   27800    234.90689   -1329.5021    140775.41   -28629.503    4458.2549   -33087.758    899.59751 
   27850     234.4799      -1414.5    140663.95   -28624.936    4450.1512   -33075.087    900.39251 
   27900    234.66653   -1201.3574    140471.71   -28636.202    4453.6932   -33089.895    901.11939 
   27950     237.3908   -1044.3474    140244.42   -28634.908    4505.3966   -33140.305    903.02497 
   28000    232.18438   -1338.6795    140069.68    -28635.58     4406.585   -33042.165    904.61363 
   28050    236.42109   -607.44511    139951.26   -28670.123    4486.9928   -33157.116    905.75143 
   28100    239.12148   -1140.3058    139928.64   -28666.241    4538.2429   -33204.484    908.12662 
   28150    236.00016   -1279.6588    139899.87   -28656.933    4479.0041   -33135.937     910.4198 
   28200    240.09671    -590.8933    139894.01   -28677.061    4556.7516   -33233.813    913.06007 
   28250    236.21153    -878.4724    140035.28   -28700.076    4483.0156   -33183.092    915.20267 
   28300    233.34445   -1021.7675    140134.11   -28694.868    4428.6017    -33123.47    918.07908 
   28350    235.64736    -1219.352    140149.17    -28683.05    4472.3083   -33155.359    920.74957 
   28400    233.62268   -1198.0732    140092.35   -28654.767    4433.8823   -33088.649    923.33883 
   28450    237.47235    -1435.271    139970.84   -28672.703    4506.9444   -33179.647    925.71623 
   28500    237.58102   -985.83876    139851.98   -28696.526    4509.0069   -33205.533    927.00018 
   28550    234.09554   -1323.4953    139730.77   -28706.437    4442.8566   -33149.294    930.02976 
   28600    234.61234   -1190.9541    139646.03   -28699.503    4452.6648   -33152.168    930.26662 
   28650    235.84223   -746.99952    139601.57   -28713.621    4476.0066   -33189.627    931.34278 
   28700    234.31207   -1734.8164    139631.91   -28721.163     4446.966   -33168.129    933.02012 
   28750    230.49656   -1859.4547    139639.72   -28726.993    4374.5521   -33101.545    933.74673 
   28800    238.32288   -1368.7359    139587.44   -28711.018    4523.0866   -33234.105    935.62001 
   28850    236.44312   -637.07444    139541.64   -28741.216    4487.4108   -33228.626    937.22924 
   28900    235.91035   -895.02129    139603.51   -28746.847    4477.2996   -33224.147    938.79567 
   28950    231.47742   -1013.8312    139670.18   -28757.217    4393.1676   -33150.385    940.34517 
   29000    234.06206   -1080.9791    139719.75   -28773.045    4442.2212   -33215.266    941.54314 
   29050    230.77148   -1086.9195    139760.73     -28784.8    4379.7699    -33164.57    943.81793 
   29100    235.30778   -1151.0623    139819.65   -28783.371    4465.8635   -33249.235    946.17617 
   29150    233.21561    -1095.478     139898.7   -28774.018    4426.1564   -33200.175    947.57465 
   29200    229.88302   -821.03397    139955.61   -28813.057    4362.9078   -33175.965    949.92713 
   29250    231.79216   -799.65684    139988.22   -28818.623    4399.1412   -33217.764    951.59259 
   29300    233.65561   -1057.1008    140098.83   -28808.325    4434.5073   -33242.832    953.14407 
   29350      230.983   -1425.0396    140212.72   -28809.277    4383.7843   -33193.061    954.64797 
   29400    231.99463   -1017.5179    140291.38   -28781.222    4402.9837   -33184.206    957.65027 
   29450    233.48616   -1261.6239    140407.71   -28760.624    4431.2912   -33191.915    960.36572 
   29500     236.2723    -1273.569    140527.23   -28746.472    4484.1688    -33230.64    959.73278 
   29550    232.51227   -1294.3297    140618.39   -28739.308    4412.8079   -33152.116    960.65019 
   29600    233.56973   -1044.7861    140689.94   -28714.784    4432.8773   -33147.661    962.08971 
   29650    237.04282   -1203.1919    140747.46   -28710.566    4498.7924   -33209.358    963.42725 
   29700    235.06665   -1425.0319    140764.71   -28691.725     4461.287   -33153.012       965.59 
   29750    234.52952   -1400.2248    140669.05    -28661.75     4451.093   -33112.843    967.88686 
   29800    234.89659   -1348.0327    140456.96   -28644.951    4458.0596    -33103.01    969.90649 
   29850    235.17952   -945.30839    140269.61   -28632.451    4463.4291    -33095.88    970.75082 
   29900    239.60427   -1356.5097     140115.2    -28623.72    4547.4057   -33171.126    971.93457 
   29950    234.67846   -1082.9496    140050.06   -28622.883    4453.9196   -33076.803    972.94039 
   30000    237.14275   -1078.3501     140048.9    -28623.85    4500.6889   -33124.539    974.41429 
   30050    239.72054   -1066.4041    140150.56   -28609.948    4549.6124    -33159.56    975.65648 
   30100    233.03054   -1234.4495    140337.96   -28608.908    4422.6441   -33031.552    976.03371 
   30150    233.59713   -1022.5011     140528.9   -28608.947    4433.3972   -33042.344    978.08525 
   30200    239.39227   -1259.8338    140702.87   -28620.108    4543.3823   -33163.491    980.76839 
   30250    237.38361    -1112.998       140808   -28673.198    4505.2602   -33178.458    982.79475 
   30300    233.70841   -1186.1166    140884.17   -28658.061    4435.5092   -33093.571    985.06344 
   30350    237.26811   -1693.9332    140879.55    -28684.04    4503.0683   -33187.108    987.22535 
   30400    233.42233   -1401.1985    140798.94   -28720.977    4430.0799   -33151.057    988.27276 
   30450    230.67541   -1062.1903     140696.5   -28697.367    4377.9466   -33075.314    988.89124 
   30500    233.75459   -1361.1381    140630.79   -28696.941    4436.3856   -33133.327    989.13763 
   30550    237.80581   -950.33123    140572.72   -28649.214    4513.2731   -33162.487    991.08328 
   30600      236.824   -1347.0752    140602.63   -28634.758    4494.6395   -33129.398    993.03455 
   30650    234.18126   -1079.1318    140591.36   -28620.812    4444.4835   -33065.295     994.0855 
   30700     241.2627   -1365.6208    140565.53   -28607.724    4578.8808   -33186.604    994.66511 
   30750    238.06543   -1163.6337    140578.54   -28598.136    4518.2003   -33116.336    996.16633 
   30800    234.40763   -1140.5465    140580.02   -28593.412    4448.7797   -33042.191    997.86962 
   30850    235.03634   -960.70162    140541.79   -28571.276    4460.7117   -33031.987    999.69592 
   30900    239.53594   -1176.5862    140471.63     -28588.8    4546.1089   -33134.908    1001.9496 
   30950    237.84487   -1178.0586     140400.9   -28604.324    4514.0144   -33118.338    1002.7506 
   31000    237.91652    -1108.256    140409.14   -28609.497    4515.3742   -33124.871    1004.9216 
   31050    234.05164    -802.4348    140473.05   -28612.525    4442.0234   -33054.548    1006.4891 
   31100    240.86972   -1369.9161    140587.56   -28582.179    4571.4224   -33153.602    1009.3603 
   31150    239.52479   -1372.3377    140613.01   -28606.959    4545.8973   -33152.856    1012.1174 
   31200    240.52505    -1221.611    140587.14   -28608.184     4564.881   -33173.065    1015.4392 
   31250    237.06094   -1505.3983    140503.59    -28602.61    4499.1364   -33101.746     1016.495 
   31300    236.26859   -1554.7782    140372.15   -28628.427    4484.0984   -33112.526    1017.7139 
   31350    236.99627   -971.77996     140209.8   -28607.444    4497.9089   -33105.353    1019.8556 
   31400    235.60763   -1204.8355    140102.12   -28626.383    4471.5543   -33097.937    1020.8792 
   31450    233.92034   -1221.8963    140082.72   -28648.741    4439.5314   -33088.272    1021.2843 
   31500    237.11648   -1424.7228    140135.35    -28674.18    4500.1905   -33174.371     1023.886 
   31550    233.06721   -1350.6287    140206.29   -28685.596      4423.34   -33108.936    1025.6981 
   31600     236.5695   -1383.8863     140235.5   -28659.285    4489.8093   -33149.094      1026.53 
   31650    235.76382   -838.56435    140196.65   -28648.441    4474.5186    -33122.96    1026.7714 
   31700    239.19831   -1186.4206    140145.78   -28602.774    4539.7011   -33142.476    1028.9679 
   31750    237.91944   -915.66394    140098.53   -28646.208    4515.4297   -33161.638    1031.6482 
   31800    235.65581   -777.64835    140072.32   -28641.497    4472.4687   -33113.966    1032.7179 
   31850    239.32434   -998.40954       140110   -28633.624    4542.0929   -33175.717    1033.9631 
   31900      239.294   -1280.7577    140127.64   -28612.775    4541.5173   -33154.292    1033.3341 
   31950    233.63247   -1456.9316    140145.46   -28598.282     4434.068   -33032.349    1034.1635 
   32000    239.76639   -955.25945     140201.7   -28611.307    4550.4826   -33161.789     1036.736 
   32050    239.31526   -1158.0807    140287.28   -28614.045    4541.9207   -33155.965    1038.9039 
   32100    235.92934   -1264.2307    140406.33    -28648.67      4477.66    -33126.33    1042.1605 
   32150     238.0684   -1756.8216    140483.21   -28661.811    4518.2567   -33180.067    1043.3212 
   32200    237.55492   -1177.1658    140409.55   -28621.672    4508.5115   -33130.183    1045.3635 
   32250    232.92927    -1702.157    140305.28    -28619.63    4420.7222   -33040.352    1047.4265 
   32300    235.62035   -953.96482    140164.28   -28626.846    4471.7957   -33098.642    1050.5049 
   32350    236.60074   -1316.8596    139998.44   -28664.066    4490.4023   -33154.468    1050.8127 
   32400    239.29684   -825.69478    139809.44   -28660.371     4541.571   -33201.942    1052.4623 
   32450    237.02144   -892.35479    139674.71   -28645.513    4498.3866     -33143.9    1052.5605 
   32500    238.91429   -1063.3707    139621.93   -28631.313    4534.3107   -33165.624    1052.8321 
   32550    237.14818   -1215.9562    139628.19   -28639.918    4500.7921    -33140.71    1053.7167 
   32600    238.52967   -1157.3924    139614.85   -28666.869    4527.0111    -33193.88    1055.8703 
   32650    234.24584   -960.05903    139618.66   -28646.454    4445.7091   -33092.163    1057.2775 
   32700    231.81295   -1040.9038    139618.98   -28659.976    4399.5358   -33059.511    1058.1536 
   32750    241.50875   -1338.3082    139631.54   -28647.872    4583.5504   -33231.422    1060.9461 
   32800    235.14886    -1090.767    139616.17   -28636.862    4462.8473    -33099.71    1064.5715 
   32850    238.00804   -1087.0565    139618.19   -28638.917    4517.1112   -33156.029    1065.6294 
   32900    238.35699   -1253.9715     139684.6   -28626.589    4523.7339   -33150.323    1066.3642 
   32950    239.70695   -1125.3237     139795.9    -28642.27    4549.3545   -33191.624     1066.836 
   33000    237.08247   -1253.3306    139928.97   -28623.985    4499.5449    -33123.53    1068.3439 
   33050    237.26436   -1325.4577     140037.3   -28644.367    4502.9971   -33147.364    1070.0335 
   33100    237.64509   -961.84903    140095.24   -28625.697    4510.2228    -33135.92    1072.7011 
   33150    235.71654   -861.60384    140203.19    -28619.42    4473.6212   -33093.041     1075.456 
   33200    238.36956   -934.81608    140325.42     -28619.4    4523.9724   -33143.372    1077.8214 
   33250    235.47836   -1138.1314    140448.07   -28590.633    4469.1008   -33059.734    1080.5184 
   33300    231.89485   -1369.8234    140506.82   -28583.723      4401.09   -32984.813    1081.6801 
   33350     236.2086   -1559.7842    140498.17   -28573.856    4482.9599   -33056.816    1083.6449 
   33400    238.56872   -1292.9184    140456.52    -28563.48    4527.7521   -33091.232    1085.3136 
   33450    239.18762   -1183.6015    140425.83   -28517.938    4539.4982   -33057.436    1086.9711 
   33500    240.77814   -932.60797    140418.56   -28470.878    4569.6845   -33040.562    1089.2849 
   33550    243.27705   -954.81289    140465.73    -28475.18    4617.1108   -33092.291    1091.3569 
   33600    233.98612   -944.11333    140558.96   -28478.911      4440.78   -32919.691     1093.472 
   33650    236.94568   -1352.6608    140674.29   -28487.642    4496.9488   -32984.591    1096.0195 
   33700    234.76931   -1286.7572    140791.53   -28505.334    4455.6439   -32960.978    1097.9365 
   33750    236.58281   -1243.4311    140911.46   -28513.846     4490.062   -33003.908    1100.2391 
   33800    234.89319   -1065.2541    141020.69   -28548.806     4457.995   -33006.801    1102.0998 
   33850    235.48812      -1350.9    141091.43   -28534.057    4469.2861   -33003.344    1104.5799 
   33900    238.23277    -1082.969     141086.9    -28547.23    4521.3762   -33068.606    1105.8904 
   33950    235.83796   -1149.3999    141123.64   -28547.943    4475.9257   -33023.869    1107.2439 
   34000    237.24672   -1175.6111    141198.94   -28562.078    4502.6623    -33064.74    1108.8518 
   34050    233.64574   -1227.7001    141264.21   -28575.832    4434.3198   -33010.152    1108.7987 
   34100    237.25369   -1260.0187    141293.07   -28569.887    4502.7946   -33072.682     1110.324 
   34150    236.42782   -1528.3607    141362.82   -28580.399    4487.1205   -33067.519    1111.0177 
   34200    234.62933   -1378.1515    141432.63   -28607.105    4452.9872   -33060.093      1112.64 
   34250    233.27641   -1546.6677    141474.97   -28630.979    4427.3104   -33058.289    1114.3234 
   34300    238.26577   -1509.8257    141442.85   -28632.182    4522.0026   -33154.185    1113.6456 
   34350     234.6759   -1124.3917    141345.96    -28651.29    4453.8711   -33105.162    1113.9971 
   34400    233.58796   -838.38624    141227.77   -28653.816    4433.2232    -33087.04    1114.8082 
   34450    229.68802   -976.74427    141143.97   -28665.101     4359.207   -33024.308    1116.0064 
   34500    232.34777   -683.78515    141057.27   -28645.706    4409.6859   -33055.392    1118.0671 
   34550    235.70967    -1067.302    141064.34   -28627.022    4473.4908   -33100.512     1118.568 
   34600    234.91853    -755.5041     141093.1   -28607.372     4458.476   -33065.848    1118.6879 
   34650    237.08614   -1221.3054    141106.86   -28603.305    4499.6146    -33102.92     1118.356 
   34700     237.3045   -1430.2724     141068.9   -28643.842    4503.7588   -33147.601    1118.8474 
   34750    231.67881   -1261.6453    140998.41   -28663.448    4396.9899   -33060.438    1119.7842 
   34800    232.80639   -1328.5758    140918.29   -28687.488    4418.3901   -33105.878    1120.3059 
   34850    234.43889   -1027.5965    140795.06   -28680.191    4449.3729   -33129.564    1121.9669 
   34900    233.12308   -1678.8376    140650.59   -28672.879    4424.4004   -33097.279    1122.7198 
   34950    233.48486   -1267.6875    140433.98   -28692.574    4431.2665    -33123.84     1120.754 
   35000    235.70077     -1232.54    140193.96   -28699.208     4473.322    -33172.53    1122.3747 
   35050     237.0014   -590.30882    139989.24   -28712.134    4498.0063    -33210.14    1121.7614 
   35100    233.90633    -945.5896    139817.68    -28705.29    4439.2656   -33144.556    1122.1075 
   35150      232.432   -1125.4909    139632.73   -28703.946    4411.2846   -33115.231    1123.2433 
   35200    234.14943    -988.9165    139481.69   -28718.018    4443.8792   -33161.897    1123.8237 
   35250    237.14064   -1148.2614    139471.09   -28694.492    4500.6489   -33195.141    1125.5476 
   35300    235.49241   -842.82164    139509.26   -28674.952    4469.3674    -33144.32    1125.9992 
   35350    234.13398    -1506.713    139585.84   -28672.383    4443.5861   -33115.969    1127.7981 
   35400    236.24841   -926.55445    139626.26   -28657.772    4483.7156   -33141.488     1129.364 
   35450    238.97045   -1331.8835    139657.84   -28684.027    4535.3765   -33219.404    1131.2099 
   35500    235.91403   -1327.6226    139683.75   -28682.834    4477.3693   -33160.203    1133.2591 
   35550    235.04476   -703.01015    139736.59   -28671.388    4460.8717    -33132.26    1135.5539 
   35600    234.00086   -800.16813    139843.91   -28663.039    4441.0596   -33104.099    1137.0199 
   35650    237.58399   -938.10376    139959.64   -28670.431    4509.0633   -33179.494    1138.1253 
   35700    233.60112   -859.36416    140023.47   -28650.057     4433.473    -33083.53    1140.7256 
   35750    232.77474   -949.96308    140094.22    -28637.11    4417.7893   -33054.899    1143.7365 
   35800    232.26842   -1343.7516    140204.07   -28655.686    4408.1799   -33063.866    1145.5066 
   35850    239.13783   -1326.1105    140292.47   -28644.328    4538.5532   -33182.881    1146.4944 
   35900    232.16088   -722.40905    140370.31   -28626.653     4406.139   -33032.792    1148.1294 
   35950     235.4225   -929.81245    140508.22   -28620.993    4468.0406   -33089.033    1149.7315 
   36000    238.29973   -1485.7888    140624.27   -28649.053    4522.6472   -33171.701    1151.5535 
   36050    235.41616     -1304.29    140691.14   -28641.585    4467.9204   -33109.505    1153.0904 
   36100    235.68143   -1395.4865     140748.2   -28644.361    4472.9548   -33117.315    1154.1818 
   36150    231.40372   -1245.0039    140822.07   -28652.016    4391.7689   -33043.785    1155.3086 
   36200    232.92994   -1110.4856    140838.08   -28661.028    4420.7349   -33081.763    1157.3614 
   36250    234.13591   -854.98535    140817.56   -28656.433    4443.6228   -33100.055    1158.4525 
   36300    230.73435   -1200.0696    140754.45   -28684.715    4379.0652   -33063.781    1159.8044 
   36350    232.33734   -1289.4348    140635.38   -28705.949     4409.488   -33115.437    1160.3652 
   36400    234.53134   -1355.8092    140541.17   -28664.225    4451.1274   -33115.352    1161.2461 
   36450    237.63247   -1427.8853    140433.72   -28612.323    4509.9834   -33122.307    1161.8973 
   36500    234.37743   -1371.2905    140299.55   -28605.617    4448.2065   -33053.824    1162.6326 
   36550    236.91888     -939.337    140137.46   -28641.608    4496.4402   -33138.048    1163.0932 
   36600    232.56643   -1180.6295    140028.53   -28675.004    4413.8359    -33088.84    1163.9406 
   36650    232.88081    -757.6722    139960.24     -28683.7    4419.8024   -33103.503    1165.1145 
   36700    238.03925   -804.10371    139967.73   -28712.152    4517.7034   -33229.855    1167.2313 
   36750    236.48574   -1257.2772    140046.48    -28705.49    4488.2197    -33193.71    1168.0902 
   36800    234.56024   -1177.1775    140124.06   -28676.282    4451.6759   -33127.957    1170.0069 
   36850    230.88757   -917.60807     140179.8     -28683.7    4381.9732   -33065.673     1171.304 
   36900    239.05758    -952.9473    140211.22   -28677.152    4537.0303   -33214.182    1172.3263 
   36950    235.43813   -1261.5695    140270.31   -28696.205    4468.3373   -33164.542    1175.7953 
   37000      232.925   -927.86729    140318.39    -28706.38    4420.6411   -33127.021    1177.8036 
   37050    231.03063    -1141.473    140341.27   -28677.436    4384.6882   -33062.124    1180.9688 
   37100    236.94382   -1102.1241    140413.13   -28645.335    4496.9135   -33142.248    1181.8978 
   37150    230.56663   -1411.5265    140532.18   -28633.606     4375.882   -33009.488    1183.2414 
   37200    232.80587   -1633.9354    140575.96   -28646.638    4418.3801   -33065.018    1183.3173 
   37250    234.24509   -1101.6446    140580.35   -28668.191    4445.6948   -33113.886    1183.7816 
   37300    234.44702    -1162.869     140668.6   -28656.976    4449.5272   -33106.503    1185.7377 
   37350    233.03339   -1044.1207    140767.47   -28659.658    4422.6982   -33082.357    1187.2084 
   37400    241.31023   -956.86324    140834.65   -28626.867    4579.7829    -33206.65    1188.6207 
   37450      234.488     -748.339    140895.32   -28617.869     4450.305   -33068.174     1190.383 
   37500    237.21991   -1723.8409    140981.42   -28622.051    4502.1533   -33124.205    1192.7842 
   37550    233.06481    -1360.228     140981.3   -28661.236    4423.2946   -33084.531    1194.7379 
   37600    236.15985   -1514.9768    140956.72   -28661.573    4482.0347   -33143.608      1196.51 
   37650    234.59869   -1314.4185    140920.67   -28653.185    4452.4057   -33105.591    1197.4481 
   37700    237.34346    -1388.615    140823.26   -28660.991    4504.4982   -33165.489    1198.9846 
   37750    237.10476   -1250.6393    140653.26   -28642.707    4499.9681   -33142.675    1199.5804 
   37800    236.20807   -889.64829    140467.98   -28615.704    4482.9498   -33098.654      1200.14 
   37850    240.02222   -880.37298    140266.08   -28642.436     4555.338   -33197.774    1200.6483 
[...]
   90850    235.51063   -1673.4774    139580.46   -28773.246    4469.7134   -33242.959    2702.6985 
   90900    232.42941   -1118.7788    139715.24   -28756.143    4411.2354   -33167.379    2703.6236 
   90950    232.54445   -870.96871    139747.38   -28758.665    4413.4187   -33172.083    2705.8638 
   91000    230.18359    -1171.058     139806.2   -28767.387    4368.6123   -33135.999    2706.0981 
   91050     233.1651    -1322.909    139812.18   -28786.849    4425.1978   -33212.047    2707.9615 
   91100    231.70165    -761.2523    139735.27   -28756.783    4397.4234   -33154.206    2710.5867 
   91150     232.9119   -1028.8557    139676.18   -28741.463    4420.3924   -33161.855    2710.6653 
   91200    238.33592   -584.28559    139622.23   -28753.833     4523.334   -33277.167    2710.6818 
   91250    231.94909   -1757.2173    139622.83    -28730.34    4402.1195    -33132.46    2710.4506 
   91300    233.08206   -959.40154    139618.72   -28735.214    4423.6219   -33158.836    2711.8752 
   91350    232.71621   -1130.0993    139645.21   -28741.245    4416.6784   -33157.923    2712.7552 
   91400    232.49189    -1113.383    139663.21   -28756.673    4412.4211   -33169.094    2713.0947 
   91450    233.28187   -1438.9545    139684.76   -28714.821    4427.4141   -33142.235    2714.8909 
   91500    228.57683   -1120.3835    139646.33   -28745.826     4338.118   -33083.944    2716.5486 
   91550    233.63037   -916.16151    139621.14   -28720.545    4434.0281   -33154.573    2717.2407 
   91600    231.93057   -1302.1085    139674.95   -28728.744     4401.768   -33130.512    2716.7577 
   91650    237.41666   -781.53175    139663.04   -28715.779    4505.8874   -33221.667    2719.6898 
   91700    231.60184   -1214.0688    139670.49   -28724.719     4395.529   -33120.248    2721.1594 
   91750    232.05234   -1225.2882    139690.79   -28706.995     4404.079   -33111.074    2724.6358 
   91800    233.03973   -1051.1272    139683.79   -28719.216    4422.8185   -33142.034    2725.3874 
   91850    231.47482   -1283.4473    139661.25    -28716.07    4393.1184   -33109.188    2725.4457 
   91900    234.49636   -686.06411    139641.07   -28704.054    4450.4636   -33154.518    2725.6075 
   91950    236.53446    -534.5955    139651.58   -28694.305    4489.1443   -33183.449      2726.57 
   92000    234.88016   -1521.3986     139659.6   -28737.828    4457.7477   -33195.575    2728.1884 
   92050    232.59672   -955.79837    139642.99   -28750.791    4414.4107   -33165.201    2727.9699 
   92100    234.65409   -1168.4968    139633.96   -28731.713    4453.4572    -33185.17    2727.2673 
   92150    235.53679   -1061.6038    139619.19   -28756.868    4470.2098   -33227.078    2729.9226 
   92200    237.20759   -1182.4561    139627.83   -28735.353    4501.9197   -33237.273    2731.3245 
   92250    236.91129   -1164.2466    139614.01   -28715.997    4496.2962   -33212.293    2733.2878 
   92300    235.52933   -1221.6005    139619.86   -28715.995    4470.0682   -33186.063    2736.3874 
   92350     235.8759   -986.00359    139613.29    -28689.31    4476.6457   -33165.955    2735.5432 
   92400    232.76419   -1108.4131    139635.69   -28708.779    4417.5892   -33126.369    2738.3235 
   92450     235.3642   -837.64569    139696.72   -28717.232    4466.9342   -33184.166    2738.5904 
   92500    232.38113   -1149.4439    139790.03   -28753.011     4410.319    -33163.33    2736.7218 
   92550     233.5473    -1383.293    139848.89   -28772.824    4432.4515   -33205.276    2739.8727 
   92600    238.18872   -1117.1817    139885.97   -28756.725    4520.5403   -33277.265    2742.9331 
   92650    236.22657   -1127.2051    139948.96   -28738.042    4483.3009   -33221.343    2745.6624 
   92700    236.82771   -1053.4266    139963.29   -28742.492    4494.7099   -33237.202    2747.0669 
   92750    234.23348   -1086.8172    139865.64   -28728.648    4445.4746   -33174.123     2747.584 
   92800    236.06171   -1359.5109    139745.88   -28726.704    4480.1722   -33206.876    2748.5992 
   92850    233.47395   -1140.0014    139570.38   -28699.784    4431.0596   -33130.843     2750.843 
   92900    239.16227    -1177.371     139371.3   -28706.491    4539.0172   -33245.508    2751.1099 
   92950    236.01575    -880.4623    139217.01   -28687.829       4479.3   -33167.129    2752.6374 
   93000     237.2694   -1024.3345    139086.01    -28643.35    4503.0926   -33146.443     2753.355 
   93050    237.29544   -1235.6823    139022.34   -28629.934    4503.5868   -33133.521    2755.5395 
   93100    236.33016   -1219.0224    139019.54   -28654.977    4485.2671   -33140.244    2759.0981 
   93150    234.60216   -751.90767    139090.58   -28674.043    4452.4717   -33126.514    2761.1223 
   93200     238.1014   -913.28686    139293.76   -28695.733     4518.883   -33214.616     2762.281 
   93250    234.76691   -822.46709    139537.71   -28683.958    4455.5983   -33139.556    2763.7476 
   93300    236.56845   -1381.3188    139808.92   -28674.937    4489.7895   -33164.727    2768.1248 
   93350    232.93494   -1048.9146    139994.39   -28677.511    4420.8298    -33098.34    2769.6819 
   93400    235.35117   -1591.6108    140086.31   -28647.348    4466.6868   -33114.035    2770.6835 
   93450    239.04735   -1225.5438    140152.13   -28657.588     4536.836   -33194.424    2771.3859 
   93500    236.81025   -1016.2344     140204.2   -28672.748    4494.3786   -33167.126    2772.4434 
   93550    237.61541    -1194.473    140241.19   -28642.596    4509.6594   -33152.256    2776.5301 
   93600    236.31498   -1023.4686    140233.64   -28624.156    4484.9789   -33109.135    2778.6095 
   93650    239.43583   -1155.5544    140183.78   -28614.474    4544.2089   -33158.683    2779.3488 
   93700    240.40688   -1057.5152    140111.21    -28587.89    4562.6383   -33150.529    2780.9907 
   93750    236.85896   -1285.0165    140092.36   -28613.867    4495.3029    -33109.17    2780.8242 
   93800    240.38549   -1276.2251    140070.07   -28635.927    4562.2323   -33198.159    2782.7716 
   93850    235.08792   -1486.8811    140006.18   -28636.069    4461.6907    -33097.76    2782.8096 
   93900    238.64535   -1139.5831    139961.87   -28644.926    4529.2066   -33174.133    2784.1555 
   93950    235.24999   -1214.7693    140018.56   -28635.504    4464.7667   -33100.271    2782.3413 
   94000    232.43863   -904.64646    140050.62    -28668.91    4411.4103   -33080.321    2785.3716 
   94050    232.17703   -945.05683    140026.81    -28720.03    4406.4456   -33126.475    2786.1771 
   94100      231.579    -1428.464     140033.2    -28726.65    4395.0956   -33121.746    2787.5091 
   94150    232.74419   -876.27288    140013.32   -28747.246    4417.2096   -33164.456    2787.5967 
   94200     232.0789   -1534.5548    140050.38   -28720.229     4404.583   -33124.812    2789.4028 
   94250     233.5813   -1120.5138    140016.99   -28681.177    4433.0969   -33114.274    2790.1527 
   94300    238.87462   -1290.5425    139932.07   -28684.861    4533.5579   -33218.418    2790.9761 
   94350    234.70581   -1026.9115    139824.48   -28709.143    4454.4388   -33163.581    2790.3369 
   94400    235.70081   -885.96315    139729.51   -28717.099    4473.3227   -33190.421    2792.1364 
   94450    238.43007   -808.18068    139687.12   -28712.569    4525.1208    -33237.69    2792.7375 
   94500    231.38764   -838.04816    139700.01   -28729.801    4391.4638   -33121.265    2794.3487 
   94550    233.89543   -956.96548     139687.1   -28722.602    4439.0588   -33161.661    2797.3896 
   94600    232.90169   -529.64199    139684.29   -28709.996    4420.1987   -33130.195    2797.6288 
   94650    232.67745   -1033.1833    139710.36   -28716.467    4415.9428   -33132.409    2799.7301 
   94700    232.07354   -1375.3854    139730.33   -28706.975    4404.4814   -33111.456    2801.7656 
   94750     236.0509   -1390.3668    139724.24   -28740.337     4479.967   -33220.304    2802.5022 
   94800    234.61059   -819.67341    139674.23   -28772.386    4452.6317   -33225.018    2804.5627 
   94850    230.00602   -1042.0101    139700.77   -28790.695    4365.2423   -33155.938    2805.9858 
   94900    232.07968   -718.47816    139784.86   -28790.029     4404.598   -33194.627    2808.2946 
   94950    235.09576   -662.10528    139865.36   -28766.885    4461.8395   -33228.725    2807.5084 
   95000    231.13946   -903.01171    140094.38   -28804.033    4386.7537   -33190.787    2808.4992 
   95050    232.21712   -1115.1031    140433.47   -28810.409    4407.2064   -33217.616     2812.292 
   95100    229.81139   -1100.1849    140753.25   -28781.147    4361.5485   -33142.696    2813.1171 
   95150    230.58715   -1714.8533    141045.15   -28751.176    4376.2715   -33127.447    2813.7704 
   95200    229.83747   -1449.8819    141261.95   -28751.086    4362.0434   -33113.129    2818.5297 
   95250    228.50016   -1043.9871    141442.88   -28760.688    4336.6629   -33097.351    2820.1191 
   95300    232.58027   -1625.8215    141618.37   -28770.869    4414.0985   -33184.967    2822.0702 
   95350     229.7891   -1360.8141    141763.53   -28761.919    4361.1255   -33123.044    2824.3828 
   95400    230.07401   -1534.1073    141865.28   -28731.825    4366.5327   -33098.357    2824.8305 
   95450    228.79603   -1096.1772    141930.87   -28714.948    4342.2781   -33057.227    2825.4577 
   95500    227.69884   -949.43648    141939.47    -28690.99    4321.4547   -33012.445    2825.9829 
   95550    230.44298   -1413.0069    141913.28   -28651.292    4373.5353   -33024.827    2828.7328 
   95600     230.3757   -1312.4087    141826.28   -28644.835    4372.2584   -33017.093    2830.7667 
   95650    233.68768   -1125.9431    141748.51   -28636.469    4435.1158   -33071.584    2831.9876 
   95700    229.72237   -1289.4193    141690.39   -28624.286    4359.8589   -32984.145    2834.5984 
   95750    232.50626   -1355.7432    141554.44    -28611.49    4412.6939   -33024.184    2838.1812 
   95800      229.321   -1463.1242    141423.38   -28608.501    4352.2414   -32960.742     2839.447 
   95850    236.58831   -1042.5669    141320.54   -28593.826    4490.1663   -33083.992    2838.9815 
   95900    235.78606    -1376.152    141235.23   -28608.406    4474.9406   -33083.346    2836.4069 
   95950    237.84891   -1289.2126    141099.08   -28586.404    4514.0912   -33100.495     2836.802 
   96000    234.52294   -855.87412    140930.07    -28586.14    4450.9681   -33037.109     2838.219 
   96050    234.90392   -1181.4647    140720.86   -28592.973    4458.1986   -33051.171    2838.5128 
   96100    236.92328    -762.3913    140483.32   -28633.404    4496.5236   -33129.928    2839.8373 
   96150    242.22247   -1109.3075    140229.12   -28654.218     4597.096   -33251.314    2840.2332 
   96200    236.69735   -1370.9652    140020.05   -28655.941    4492.2358   -33148.177    2840.6031 
   96250    234.66092   -1272.3869    139834.66   -28676.633    4453.5867   -33130.219    2839.8095 
   96300    237.32092   -867.59791    139700.33   -28653.758    4504.0704   -33157.828    2839.9068 
   96350    235.30031   -979.36149    139660.75   -28664.425    4465.7217   -33130.147    2843.3077 
   96400    234.64303   -1219.1876    139664.59   -28683.595    4453.2472   -33136.842    2844.2898 
   96450    233.31432   -1028.6725    139687.41   -28670.692    4428.0299   -33098.721    2845.2046 
   96500    234.77934   -980.73416    139717.89   -28653.853    4455.8343   -33109.687     2847.847 
   96550    230.65542   -948.88849     139758.7   -28677.222    4377.5671    -33054.79    2849.0715 
   96600    235.21766   -1240.8623    139830.73   -28720.252    4464.1531   -33184.405    2850.7338 
   96650    228.38906   -1329.5231    139858.71   -28734.069    4334.5543   -33068.624    2850.4744 
   96700    239.03781   -1234.3171    139840.83   -28740.616     4536.655   -33277.271    2851.2512 
   96750    232.44795    -1355.672    139824.26   -28772.199    4411.5873   -33183.786    2853.2393 
   96800    230.58222   -1112.3806    139814.05   -28794.392    4376.1778    -33170.57    2853.8335 
   96850    235.24758   -961.02285    139805.93   -28773.119     4464.721    -33237.84    2854.8195 
   96900    232.29577   -1381.1642    139842.87   -28760.715    4408.6991   -33169.414    2855.3116 
   96950    234.58882   -792.69649    139866.03   -28762.532    4452.2184    -33214.75    2855.6965 
   97000    235.90679   -1301.7752    139900.38   -28707.548    4477.2319    -33184.78    2858.8252 
   97050     240.1522   -693.00213    139946.36   -28700.592    4557.8048   -33258.397    2861.4421 
   97100    240.21441    -939.6113    140091.43   -28713.322    4558.9854   -33272.308    2861.7465 
   97150    235.90227   -1285.2543     140202.7   -28730.506    4477.1462   -33207.652    2863.9346 
   97200    236.70808   -1249.2488    140210.16   -28725.237    4492.4394   -33217.676     2863.986 
   97250    237.94417   -1163.2472    140139.14    -28724.02     4515.899   -33239.919    2868.3037 
   97300    239.39559   -1368.9556    140049.83    -28692.59    4543.4453   -33236.035    2868.4684 
   97350    235.54784    -1208.997    139998.89   -28673.135    4470.4196   -33143.554     2871.098 
   97400    235.54361   -1409.2762    139954.45   -28658.058    4470.3392   -33128.398    2871.4141 
   97450    235.71593    -1099.977    139862.22   -28647.171    4473.6097   -33120.781    2871.4035 
   97500    235.26011   -1529.7361    139770.19   -28650.014    4464.9586   -33114.972     2870.131 
   97550    239.18752   -1041.9568    139633.66    -28653.03    4539.4963   -33192.526    2869.3914 
   97600    234.39216   -1256.3211    139548.59   -28647.447    4448.4861   -33095.933    2871.0262 
   97650    237.15358   -1223.2593    139457.34   -28638.829    4500.8945   -33139.724    2873.5216 
   97700    236.41177   -894.93602    139439.35   -28639.891    4486.8159   -33126.707     2873.397 
   97750    241.58518   -911.05126    139532.93   -28639.266    4585.0011   -33224.267     2876.353 
   97800    239.97251   -800.61973    139717.62   -28650.111    4554.3945   -33204.506    2877.9417 
   97850    233.43137   -1174.6424     139870.7   -28649.374    4430.2513   -33079.626    2880.6932 
   97900    235.00133   -1795.7033    139972.13   -28637.997    4460.0474   -33098.044    2882.4328 
   97950    234.06738   -1326.0673    139977.09   -28624.251    4442.3222   -33066.573      2883.05 
   98000    234.86093   -1181.5177    139974.19   -28610.296    4457.3827   -33067.679     2885.641 
   98050    239.21823   -1102.0813    140016.53   -28622.862    4540.0791   -33162.941    2885.4135 
   98100     235.8639    -878.7991    140062.46     -28635.8    4476.4178   -33112.218    2886.0357 
   98150    235.18616   -1207.7793     140154.6   -28654.106    4463.5552   -33117.662    2887.2354 
   98200    232.42216   -1071.6402    140287.59   -28620.993    4411.0977   -33032.091    2891.3197 
   98250    241.37443   -1408.0489    140424.59   -28591.728    4581.0012   -33172.729    2895.3093 
   98300      235.499   -1322.9687    140513.49   -28585.922    4469.4926   -33055.414    2897.1442 
   98350    237.98396    -1536.177    140535.57   -28545.133    4516.6541   -33061.787    2897.1781 
   98400    237.86305   -1404.6133    140532.78   -28559.522    4514.3594   -33073.882    2899.0386 
   98450    235.81639    -1130.523    140471.68   -28591.559    4475.5163   -33067.075    2898.3073 
   98500    231.71805    -1214.549    140372.14   -28623.911    4397.7346   -33021.646    2897.8737 
   98550    234.07615   -1055.6334    140238.21   -28624.242    4442.4885    -33066.73    2898.5875 
   98600    230.23561   -1042.6314    140094.63   -28637.171    4369.5997   -33006.771    2900.6583 
   98650    238.18837   -1230.8089       139975   -28602.046    4520.5336   -33122.579    2900.9658 
   98700    234.88457   -771.83299    139912.09   -28604.744    4457.8314   -33062.576    2900.6821 
   98750    240.12584    -870.7637    139910.31   -28588.476    4557.3045    -33145.78    2902.0476 
   98800    237.35706   -1085.6399    139923.52   -28603.476    4504.7564   -33108.232    2904.5514 
   98850    237.08955   -783.13426    139877.97    -28611.97    4499.6793   -33111.649     2904.865 
   98900    238.57534   -959.50141    139915.45   -28625.424    4527.8779   -33153.302    2905.3304 
   98950     236.4197    -1128.617    140069.64   -28611.086    4486.9663   -33098.053    2906.7312 
   99000    236.64804    -980.7552    140246.23   -28609.585       4491.3   -33100.885    2907.0757 
   99050    235.85185   -764.24586    140432.88   -28640.872    4476.1893   -33117.061    2906.9241 
   99100    239.22868   -1756.9912    140603.04   -28613.611    4540.2775   -33153.888    2907.0923 
   99150    238.94079    -1576.935    140714.68   -28650.559    4534.8137   -33185.373     2908.381 
   99200     235.4448   -1317.3434    140699.13   -28684.684     4468.464   -33153.148    2910.5658 
   99250     234.4691   -985.03434    140569.65    -28720.65    4449.9462   -33170.596    2913.8581 
   99300    232.09518   -970.55089     140446.3   -28724.792     4404.892   -33129.684    2911.3126 
   99350    231.03666    -1219.807    140271.88   -28760.522    4384.8027   -33145.325    2913.6573 
   99400    233.29067   -1182.6511    140065.53    -28790.24     4427.581   -33217.821    2911.5023 
   99450    232.78865   -1196.6561    139939.16   -28783.765    4418.0534   -33201.818    2910.8362 
   99500    232.48125   -1177.3745    139859.11   -28782.319    4412.2193   -33194.538    2911.4081 
   99550    228.62193    -1026.939    139842.46   -28808.877    4338.9739   -33147.851    2912.4688 
   99600    233.70913   -1398.0005    139854.68   -28816.569     4435.523   -33252.092    2912.6892 
   99650    232.17472   -826.71957    139794.59   -28776.884    4406.4016   -33183.285    2911.3903 
   99700    239.77303   -1429.3238    139757.58   -28770.307    4550.6086   -33320.916    2911.1539 
   99750    233.04356   -1268.6859    139671.79   -28764.112    4422.8911   -33187.003    2911.8898 
   99800    236.56362   -1162.1811    139534.98   -28774.841    4489.6978   -33264.539    2912.2373 
   99850    231.12072   -1143.3525    139410.31   -28814.103    4386.3981   -33200.501     2915.042 
   99900    236.99764   -530.38026    139360.23   -28796.576    4497.9349    -33294.51     2916.193 
   99950    230.89825   -1040.5222       139393    -28782.65    4382.1758   -33164.826    2917.8167 
  100000    231.64346   -940.16196    139389.01   -28776.789    4396.3189   -33173.107    2917.3767 
Loop time of 714.627 on 12 procs for 100000 steps with 6368 atoms

Performance: 120.902 ns/day, 0.199 hours/ns, 139.933 timesteps/s
97.9% CPU use with 12 MPI tasks x no OpenMP threads

MPI task timing breakdown:
Section |  min time  |  avg time  |  max time  |%varavg| %total
---------------------------------------------------------------
Pair    | 72.227     | 227.68     | 551.93     |1441.3 | 31.86
Neigh   | 16.935     | 32.567     | 65.137     | 376.3 |  4.56
Comm    | 67.697     | 423.84     | 594.59     |1158.8 | 59.31
Output  | 0.25053    | 0.26085    | 0.34116    |   4.7 |  0.04
Modify  | 26.479     | 26.749     | 26.997     |   2.9 |  3.74
Other   |            | 3.536      |            |       |  0.49

Nlocal:        530.667 ave         914 max         346 min
Histogram: 8 0 0 0 0 0 0 0 1 3
Nghost:        1981.50 ave        2295 max        1827 min
Histogram: 8 0 0 0 0 0 0 0 2 2
Neighs:        0.00000 ave           0 max           0 min
Histogram: 12 0 0 0 0 0 0 0 0 0
FullNghs:      62457.5 ave      150296 max       20422 min
Histogram: 8 0 0 0 0 0 0 0 0 4

Total # of neighbors = 749490
Ave neighs/atom = 117.69629
Neighbor list builds = 16746
Dangerous builds = 0

# Create data file for import to other simulations
#
write_data data.${NAME}
write_data data.graphite_ML_1000atm_e
System init for write_data ...


Total wall time: 0:11:54
