
# read in water data
read_data data.liquid_ML_1000_250K group water extra/atom/types 1
Reading data file ...
  orthogonal box = (0.0000000 0.0000000 0.93784205) to (49.220000 49.019636 59.124158)
  2 by 2 by 3 MPI processor grid
  reading atoms ...
  4466 atoms
  reading velocities ...
  4466 velocities
  read_data CPU = 0.020 seconds

# remove area for graphite
region substrate block 0 ${XDIM} 0 ${YDIM} ${Z_LO} ${Z_HI}
region substrate block 0 49.22 0 ${YDIM} ${Z_LO} ${Z_HI}
region substrate block 0 49.22 0 49.019635930410494 ${Z_LO} ${Z_HI}
region substrate block 0 49.22 0 49.019635930410494 25 ${Z_HI}
region substrate block 0 49.22 0 49.019635930410494 25 35.062
delete_atoms region substrate
Deleted 780 atoms, new total = 3686

# Insert substrate
read_data data.graphite add append shift 0.0 0.0 ${Z_LO} group graphite offset 1 0 0 0 0
read_data data.graphite add append shift 0.0 0.0 25 group graphite offset 1 0 0 0 0
Reading data file ...
  orthogonal box = (0.0000000 0.0000000 0.93784205) to (49.220000 49.019636 59.124158)
  2 by 2 by 3 MPI processor grid
  reading atoms ...
  2760 atoms
  reading velocities ...
  2760 velocities
  read_data CPU = 0.019 seconds


# Define potential
# CHECK ON THIS %%%%%%%%%%%%
#
pair_style sw
pair_coeff * * MLC_e.sw mW C


# Delete water and ice atoms that are overlapping
#
delete_atoms overlap 2.5 water graphite
System init for delete_atoms ...
Neighbor list info ...
  update every 1 steps, delay 10 steps, check yes
  max neighbors/atom: 2000, page size: 100000
  master list distance cutoff = 7.76
  ghost atom cutoff = 7.76
  binsize = 3.88, bins = 13 13 15
  2 neighbor lists, perpetual/occasional/extra = 1 1 0
  (1) command delete_atoms, occasional, copy from (2)
      attributes: full, newton on
      pair build: copy
      stencil: none
      bin: none
  (2) pair sw, perpetual
      attributes: full, newton on
      pair build: full/bin/atomonly
      stencil: full/bin/3d
      bin: standard
Deleted 97 atoms, new total = 6349

# set timestep
#
timestep 10.0

# Define output
#
compute 1 all msd
thermo 50
thermo_style custom step temp press vol etotal ke pe c_1[4]

# Neighbor lists
#
neigh_modify delay 0 every 1 check yes


# Fix graphite atoms in place
# CHECK ON THIS %%%%%%%%%%%%%%%%%%%%
#
fix 1 graphite setforce 0.0 0.0 0.0
velocity graphite set 0.0 0.0 0.0


### NEW FOR TESTING

# Set fixes

fix             2 water momentum 10 linear 1 1 1 rescale
fix             3 water nve
fix             4 water temp/csvr ${TEMP} ${TEMP} 500.0 837493
fix             4 water temp/csvr 250 ${TEMP} 500.0 837493
fix             4 water temp/csvr 250 250 500.0 837493
fix             5 water press/berendsen z ${PRES} ${PRES} 1000.0 modulus 20000
fix             5 water press/berendsen z -1000 ${PRES} 1000.0 modulus 20000
fix             5 water press/berendsen z -1000 -1000 1000.0 modulus 20000

# Run 0.5 ns equilibration

timestep 5.0

dump		    1 all atom 2000 testeq.${NAME}-${TEMP}.dump
dump		    1 all atom 2000 testeq.graphite_ML_1000atm_e_250K-${TEMP}.dump
dump		    1 all atom 2000 testeq.graphite_ML_1000atm_e_250K-250.dump

reset_timestep  0

run	            100000
Neighbor list info ...
  update every 1 steps, delay 0 steps, check yes
  max neighbors/atom: 2000, page size: 100000
  master list distance cutoff = 7.76
  ghost atom cutoff = 7.76
  binsize = 3.88, bins = 13 13 15
  1 neighbor lists, perpetual/occasional/extra = 1 0 0
  (1) pair sw, perpetual
      attributes: full, newton on
      pair build: full/bin/atomonly
      stencil: full/bin/3d
      bin: standard
Per MPI rank memory allocation (min/avg/max) = 4.557 | 4.688 | 4.952 Mbytes
Step Temp Press Volume TotEng KinEng PotEng c_1[4] 
       0    141.55019   -1741.4456    140388.83   -33250.657    2678.4385   -35929.096            0 
      50    147.30013   -2016.9838    139793.69   -33358.349    2787.2398   -36145.589   0.35081171 
     100    149.30594   -2147.8345    139106.34   -33430.588    2825.1943   -36255.782   0.66898083 
     150    147.21207   -2335.4573    138250.68   -33545.401    2785.5736   -36330.974   0.98750078 
     200     149.5269   -2203.7497    137478.69     -33630.2    2829.3753   -36459.576    1.2924276 
     250    148.07727   -2001.4279    136929.68   -33680.238    2801.9451   -36482.183    1.4965219 
     300     147.5681   -1572.7943    136627.69   -33666.647    2792.3104   -36458.958    1.6385474 
     350    150.45413   -1426.2535    136362.57   -33684.577    2846.9205   -36531.497    1.8169854 
     400    145.45588   -1116.6207    136185.33   -33721.681    2752.3426   -36474.024    2.0209095 
     450    143.19011   -1630.9979    136014.64   -33741.675    2709.4693   -36451.144    2.1952409 
     500    146.04419   -1608.6654     135715.2   -33745.725    2763.4747     -36509.2    2.3543596 
     550    144.79737   -1204.5504    135488.58   -33780.276    2739.8823   -36520.158    2.4843958 
     600    144.15258   -1295.7729    135394.53   -33841.648    2727.6814    -36569.33    2.6150538 
     650    144.20021   -1279.1073    135364.48   -33892.092    2728.5827   -36620.675    2.7247651 
     700    142.36913   -1360.1022    135251.99   -33896.361    2693.9346   -36590.295     2.899456 
     750    146.54962   -1281.6774    135044.27   -33929.948    2773.0386   -36702.987     3.111402 
     800    144.16677   -1195.4134    134917.15   -33947.553    2727.9499   -36675.503    3.2547432 
     850    142.81742   -1452.4144    134800.73   -33991.076    2702.4173   -36693.493    3.3938303 
     900    143.60841   -1085.5362    134750.61   -34006.746    2717.3846    -36724.13    3.4957107 
     950    141.65305   -1183.0366     134752.3   -34015.796    2680.3848   -36696.181      3.64549 
    1000    140.84204   -1097.8516    134751.56   -34061.145    2665.0387   -36726.184    3.7586345 
    1050    142.45212   -1365.6381     134699.7    -34044.71     2695.505   -36740.215    3.9359282 
    1100    139.83681   -1433.8602     134601.9   -34088.283    2646.0176   -36734.301     4.056197 
    1150    142.22483   -1375.4828    134483.54   -34093.197    2691.2041   -36784.401    4.1939424 
    1200    141.97024   -1390.1364    134394.88   -34082.766    2686.3867   -36769.153    4.3461006 
    1250    140.78159   -1063.3964    134393.26   -34093.235    2663.8949    -36757.13    4.4514233 
    1300    141.59489   -1473.3116    134429.02   -34105.486    2679.2843    -36784.77    4.5923532 
    1350    141.76584   -1266.1229    134485.83    -34120.97     2682.519   -36803.489    4.6454415 
    1400    138.76924    -1305.933     134491.1   -34145.306    2625.8169   -36771.123    4.7605531 
    1450    141.09309   -1117.0197    134512.28   -34124.098    2669.7892   -36793.888    4.8532836 
    1500    141.42739   -1184.8236    134457.48   -34093.996    2676.1149   -36770.111    5.0084024 
    1550    140.40787     -1058.29    134381.77   -34145.479    2656.8233   -36802.302    5.1477928 
    1600    142.87139   -921.72017    134416.96   -34156.065    2703.4384   -36859.503    5.2409178 
    1650    143.31219   -1265.7223    134486.39   -34154.068    2711.7793   -36865.847    5.3405649 
    1700    137.97007   -1065.1556    134499.93    -34216.74    2610.6949   -36827.435    5.4441673 
    1750    140.72127    -961.6094    134455.09   -34225.143    2662.7535   -36887.896     5.517338 
    1800    134.96269   -1299.7634    134466.67   -34233.299    2553.7886   -36787.088    5.5633818 
    1850     143.3991    -1214.861    134437.57   -34184.476    2713.4239   -36897.899    5.6839016 
    1900    138.64605   -1252.9105    134414.32   -34233.978    2623.4858   -36857.464    5.7711622 
    1950    140.75408   -937.42866    134378.76    -34229.27    2663.3743   -36892.644    5.8773806 
    2000    139.49469   -1187.2525    134413.51   -34212.847    2639.5439   -36852.391    5.9399446 
    2050    144.36653   -888.62982    134356.89   -34157.852    2731.7298   -36889.582    6.0622546 
    2100    140.73093   -708.77129    134398.44   -34136.409    2662.9364   -36799.345     6.132786 
    2150    142.78736   -1112.7461     134451.2   -34127.983    2701.8485   -36829.831    6.1674835 
    2200    142.31916   -1235.3533    134358.84   -34135.369    2692.9891   -36828.358    6.3154538 
    2250    143.55968   -1193.3167    134359.58   -34125.407    2716.4624   -36841.869    6.4695161 
    2300    141.31602   -1214.5376    134251.09   -34199.223    2674.0074    -36873.23     6.592525 
    2350    142.52967   -1136.4908    134277.68   -34146.891    2696.9724   -36843.863    6.6874059 
    2400     141.2026   -892.24404    134309.15   -34177.381    2671.8613   -36849.242    6.7915415 
    2450    139.19615   -1007.8124    134326.55   -34185.752    2633.8949   -36819.647    6.8296183 
    2500    140.17604   -1383.2878    134298.76   -34193.077    2652.4365   -36845.513    6.9364873 
    2550    140.28515   -1464.6103    134233.53   -34216.944    2654.5012   -36871.445     7.130827 
    2600     140.4016   -1227.3776    134289.06   -34211.782    2656.7046   -36868.486     7.209056 
    2650    139.08688   -1149.3445     134353.5   -34256.535    2631.8273   -36888.362    7.3052938 
    2700    139.18195   -1364.8193    134288.03   -34217.326    2633.6263   -36850.952    7.4348715 
    2750    140.18121   -1347.3051    134221.73   -34201.724    2652.5344   -36854.259    7.5246093 
    2800    143.20713   -1290.9797    134191.44   -34177.662    2709.7915   -36887.453    7.6505541 
    2850    140.53746   -1022.8526    134165.03   -34157.712    2659.2754   -36816.987       7.7849 
    2900    141.48524    -1418.008    134111.63   -34148.485    2677.2096   -36825.695    7.9090944 
    2950    138.81232    -1295.555     134129.2   -34200.752     2626.632   -36827.384    7.9920817 
    3000    139.41842   -1294.0749    134051.74   -34226.779    2638.1008   -36864.879    8.0855272 
    3050    136.74805   -853.37612    134029.03   -34274.706    2587.5716   -36862.278    8.2239855 
    3100     139.2513   -1110.3082    134056.08   -34235.226    2634.9384   -36870.164    8.3786765 
    3150    137.36536   -1248.7253    134055.04   -34247.947    2599.2524   -36847.199    8.5549308 
    3200    138.21059   -1182.2095    134055.49   -34275.135    2615.2459   -36890.381    8.6356828 
    3250    136.39959   -1061.7867    134042.65   -34280.373    2580.9779   -36861.351    8.7170796 
    3300    138.82857   -1168.5278    134039.95   -34243.897    2626.9395   -36870.837    8.6931049 
    3350    138.94749   -1298.3942    134014.83   -34310.797    2629.1897   -36939.986    8.7687343 
    3400    136.11733   -1225.4589    133955.92   -34281.969     2575.637   -36857.606    8.9262643 
    3450    140.15764   -1196.9615     133966.9   -34231.322    2652.0884   -36883.411    9.0103778 
    3500    140.27076   -1051.8528    133943.58   -34254.891    2654.2288    -36909.12    9.1380775 
    3550    140.16171   -1219.5604    133933.67   -34188.744    2652.1654    -36840.91    9.2517517 
    3600    140.07981   -1190.0781    133896.06   -34208.284    2650.6157     -36858.9    9.3776366 
    3650    137.87874   -1380.0498    133849.78   -34210.823    2608.9666    -36819.79    9.5309483 
    3700    142.10808   -1287.0937    133795.31   -34173.405     2688.995     -36862.4    9.6494566 
    3750    144.07913   -1249.1585    133848.41   -34155.205    2726.2916   -36881.497    9.7048599 
    3800    139.79377   -1240.4311    133897.36   -34148.338    2645.2031   -36793.541     9.814186 
    3850    139.92322   -1123.8978     134005.6   -34180.821    2647.6526   -36828.473    9.9320553 
    3900    141.95273   -1298.0037    134061.34   -34188.611    2686.0553   -36874.667    10.070113 
    3950    138.98731   -1302.9762       134041   -34199.338    2629.9433   -36829.281    10.202939 
    4000    139.95476   -1288.8407    133965.68   -34193.547    2648.2495   -36841.796    10.315792 
    4050    140.43323    -1113.891    133905.98   -34173.815    2657.3031   -36831.118    10.518208 
    4100    138.39701   -1189.1205     133867.8   -34220.396    2618.7734   -36839.169    10.676985 
    4150    137.18187   -901.91844    133888.77    -34259.16    2595.7804    -36854.94    10.739909 
    4200    138.46761   -1124.0537    133931.52   -34272.819    2620.1093   -36892.928    10.734453 
    4250    137.97043   -1070.5333    133874.38   -34261.787    2610.7015   -36872.488    10.826792 
    4300    138.59914   -1223.2599    133843.71   -34215.439    2622.5982   -36838.037    10.979323 
    4350    142.86582   -1184.7773    133832.63   -34194.919    2703.3331   -36898.253    11.063369 
    4400    141.72404   -1134.0522    133793.15   -34169.846    2681.7281   -36851.574    11.201247 
    4450    141.96262    -1225.323    133795.07   -34201.827    2686.2425    -36888.07    11.243188 
    4500    139.48679    -1336.254    133814.92   -34197.603    2639.3945   -36836.998    11.322572 
    4550     142.6068   -1152.3053    133763.33   -34222.208    2698.4319    -36920.64    11.354978 
    4600     138.3002   -1119.1267    133759.29    -34216.56    2616.9417   -36833.501    11.443884 
    4650    139.55077   -1241.2296    133667.23   -34224.029    2640.6051   -36864.634    11.532228 
    4700    141.93147   -1174.5207    133670.27   -34213.541    2685.6531   -36899.194     11.56198 
    4750    140.31122   -1273.6444    133669.46   -34172.453    2654.9945   -36827.448    11.616957 
    4800    140.34965   -1034.4771    133616.96   -34178.364    2655.7216   -36834.085    11.751239 
    4850    140.15058   -1234.3515    133646.32   -34164.004    2651.9549   -36815.959     11.88132 
    4900    141.55286   -1250.3148    133601.18   -34148.532     2678.489   -36827.021    11.956399 
    4950     143.9247   -1096.0678    133568.27   -34107.319    2723.3695   -36830.688    12.049557 
    5000    139.02421   -1320.9271    133552.62   -34162.267    2630.6414   -36792.908    12.125291 
    5050    143.59921   -1136.4716    133577.78    -34143.03    2717.2104   -36860.241    12.286251 
    5100    139.90996   -1406.0019     133573.3   -34161.289    2647.4017   -36808.691    12.448866 
    5150      142.553    -1151.806    133561.53    -34150.44    2697.4139   -36847.854    12.533078 
    5200    143.07759   -1390.1906    133641.01   -34140.126    2707.3403   -36847.466    12.646756 
    5250     143.0798   -1058.0285    133633.93   -34162.093    2707.3821   -36869.475    12.753039 
    5300    142.94225   -1089.5899    133788.31   -34122.147    2704.7794   -36826.927    12.814808 
    5350    145.56657    -1219.434    133847.23   -34102.287    2754.4373   -36856.724    12.909026 
    5400    141.45437   -1011.5699    133933.07   -34098.713    2676.6253   -36775.338    12.987901 
    5450    144.54964   -1149.3359    133938.45   -34032.273    2735.1946   -36767.468    13.106757 
    5500    144.84797   -1154.2732    133925.08   -33967.748    2740.8397   -36708.588    13.215815 
    5550     145.0189   -1251.1741    133880.65   -33990.334    2744.0741   -36734.408    13.272019 
    5600    144.22264   -1409.8251    133827.19   -33976.123    2729.0071    -36705.13    13.455389 
    5650    145.64605   -1296.7041    133768.47   -33968.657    2755.9411   -36724.598    13.549584 
    5700    141.65674   -1240.0901    133816.19     -34043.2    2680.4547   -36723.655    13.653171 
    5750    145.05499   -1475.0848    133792.15   -34010.839    2744.7569   -36755.596    13.727412 
    5800    142.27545   -1128.2527    133740.06    -34044.29    2692.1621   -36736.452    13.902158 
    5850    140.66479   -1204.1814    133685.37   -34087.261    2661.6847   -36748.946    14.117276 
    5900    139.11567   -1296.8896    133689.91   -34085.067    2632.3721   -36717.439    14.312227 
    5950     141.4938   -1311.0229    133761.46   -34065.933    2677.3715   -36743.304    14.445106 
    6000     140.6855   -1124.5979    133806.57   -34044.686    2662.0766   -36706.763    14.557833 
    6050    140.97731   -1104.2876    133776.24   -34070.387    2667.5983   -36737.986     14.68728 
    6100    141.62668   -1223.3886    133768.13   -34099.186    2679.8859   -36779.072    14.823011 
    6150    140.90338   -1328.7831    133706.75   -34097.317    2666.1994   -36763.516    14.956805 
    6200    137.26643   -1322.5453    133630.25   -34147.001    2597.3803   -36744.382    15.206061 
    6250    138.07147   -1239.5769    133704.01    -34171.72    2612.6135   -36784.333    15.366087 
    6300    141.90684   -1130.0721    133801.49   -34169.997    2685.1872   -36855.184    15.405894 
    6350    140.63109   -823.44988    133777.43   -34154.205    2661.0472   -36815.253    15.466719 
    6400    140.58853   -1213.0371    133792.13   -34149.025    2660.2417   -36809.267    15.596874 
    6450      141.022   -1255.5742    133752.25    -34144.29     2668.444   -36812.734    15.678387 
    6500    143.30519   -1183.9626    133699.52   -34104.628    2711.6469   -36816.275      15.7894 
    6550    143.80352   -1105.5479    133721.77   -34122.907    2721.0765   -36843.983    15.852062 
    6600    138.33078   -1158.1739    133722.84   -34172.085    2617.5202   -36789.605    15.958164 
    6650    142.67629   -1480.4324    133731.16   -34135.564    2699.7467   -36835.311    16.074761 
    6700    143.36536    -1137.298    133712.68   -34143.341    2712.7855   -36856.127    16.199447 
    6750    142.38304   -1373.6827    133744.31   -34131.699    2694.1978   -36825.897    16.340209 
    6800    143.28384   -1061.2581    133807.38   -34162.523     2711.243   -36873.766    16.396822 
    6850    139.20421   -1372.0567    133781.32    -34189.97    2634.0474   -36824.017     16.51021 
    6900    141.80417   -1037.0002    133765.31   -34145.034    2683.2444   -36828.278    16.507808 
    6950    144.40216     -1248.75    133751.62   -34074.555     2732.404   -36806.959    16.519434 
    7000    144.09254   -1263.6461    133721.55   -34070.771    2726.5453   -36797.317    16.636235 
    7050    144.65866   -1175.4884     133709.1   -34039.105    2737.2575   -36776.363    16.722447 
    7100    142.79847   -1414.4117    133705.56   -34035.579    2702.0586   -36737.638    16.822488 
    7150    143.02562   -1223.1633    133653.07    -34037.51    2706.3568   -36743.867    16.973761 
    7200    141.00856   -1121.4577    133616.66   -34061.872    2668.1898   -36730.062    17.098953 
    7250    141.07983   -1254.5366    133540.85   -34102.195    2669.5383   -36771.733    17.194314 
    7300    144.34399   -1211.9462    133608.24   -34107.673    2731.3033   -36838.976    17.244107 
    7350    141.34648   -1477.9384       133621   -34146.208    2674.5839   -36820.792    17.346399 
    7400    139.42521   -1073.6883    133560.96   -34124.473    2638.2292   -36762.702    17.352994 
    7450     142.5453   -1036.3592    133614.05   -34159.458    2697.2681   -36856.726    17.413922 
    7500     142.4712   -1008.3295    133649.55   -34150.147     2695.866   -36846.013    17.488321 
    7550    140.50716   -743.39065    133796.01   -34119.682     2658.702   -36778.384    17.575834 
    7600    145.96115   -1096.1507    133833.19   -34085.487    2761.9035    -36847.39    17.686387 
    7650    143.86126   -1245.7385     133772.3    -34077.25     2722.169   -36799.419    17.823366 
    7700    144.65493   -1103.6373    133803.89   -34047.326    2737.1869   -36784.513    17.892333 
    7750    143.37329   -1357.0215    133716.44    -34053.27    2712.9356   -36766.206    18.073749 
    7800    142.15941   -1037.2571    133646.71   -34063.043    2689.9662   -36753.009    18.332371 
    7850    142.03116   -939.22431     133703.6    -34032.85    2687.5395    -36720.39    18.494854 
    7900    142.92624   -1135.6232    133674.97   -34039.147    2704.4763   -36743.624    18.543673 
    7950    142.42463   -1175.2566    133635.56   -34081.602    2694.9847   -36776.587    18.670383 
    8000    142.63488   -1156.7887    133684.68    -34107.94    2698.9631   -36806.903    18.761011 
    8050    140.15384   -1103.9896    133698.09   -34148.327    2652.0165   -36800.343     18.92135 
    8100    143.18827   -1015.1514    133677.85   -34174.982    2709.4345   -36884.416    19.136005 
    8150    141.51509   -1032.7857    133755.61   -34191.781    2677.7743   -36869.555    19.247287 
    8200     140.9008   -1002.1282    133744.98   -34170.249    2666.1507     -36836.4    19.325562 
    8250    141.59394   -1167.6031    133714.02   -34166.629    2679.2664   -36845.895    19.496016 
    8300    139.91021   -1194.1726    133674.61   -34219.593    2647.4065       -36867    19.684165 
    8350    140.27577   -1295.2536     133611.1   -34230.107    2654.3236   -36884.431      19.7942 
    8400    141.84446   -1155.6025    133635.74   -34162.938    2684.0066   -36846.945    19.927959 
    8450    138.41862   -1080.3845     133607.2   -34205.751    2619.1824   -36824.933    20.092781 
    8500    142.83362   -1131.0855     133616.2   -34171.405    2702.7238   -36874.129    20.202605 
    8550    142.51204   -872.06576    133657.22   -34221.702    2696.6388   -36918.341    20.190376 
    8600     139.1521   -1138.8697     133673.3   -34223.859    2633.0613   -36856.921    20.203233 
    8650    140.71576   -1302.3385    133590.17   -34249.559    2662.6492   -36912.208    20.235584 
    8700    139.84735   -1239.2639    133531.45   -34189.119    2646.2171   -36835.336    20.328249 
    8750    138.18825   -1001.7682     133550.7   -34232.962    2614.8232   -36847.785    20.426649 
    8800    140.90563   -1109.6075    133594.92   -34170.079    2666.2421   -36836.321    20.611605 
    8850     142.6892   -1002.1023    133622.61   -34151.582    2699.9911   -36851.573     20.60435 
    8900     141.5244   -1216.0656    133664.24   -34161.813    2677.9504   -36839.763    20.601546 
    8950    139.18564   -959.56285    133632.72   -34154.864     2633.696    -36788.56    20.770015 
    9000    143.85488   -1147.2721    133631.31   -34139.123    2722.0483   -36861.172     20.97251 
    9050    144.92583   -1053.5054    133591.52   -34102.736    2742.3129   -36845.049    21.174986 
    9100    142.33609   -1252.1283    133626.48   -34123.369    2693.3095   -36816.678    21.298898 
    9150    140.71978   -1029.1367    133706.46     -34113.8    2662.7253   -36776.526    21.337453 
    9200    142.27674   -1219.3796    133802.11   -34149.062    2692.1863   -36841.248    21.386035 
    9250    141.29038   -1473.1517    133752.99   -34138.395    2673.5223   -36811.917    21.473218 
    9300    139.58114   -1125.4099    133721.64   -34153.232    2641.1798   -36794.412    21.623714 
    9350    138.38805   -1050.0443    133674.64   -34188.212    2618.6039   -36806.816    21.727193 
    9400    143.92405   -1090.6509    133750.99   -34171.966    2723.3571   -36895.323    21.768071 
    9450    141.96975   -847.08694    133757.18   -34170.558    2686.3775   -36856.936    21.768697 
    9500    142.47611   -1187.3834    133704.93    -34158.75    2695.9589   -36854.709    21.806182 
    9550    140.70698    -1014.998    133679.82   -34268.265    2662.4832   -36930.748    21.765939 
    9600    139.70841    -1314.741       133733   -34282.164     2643.588   -36925.752    21.905085 
    9650    139.38648   -1443.0379    133660.41   -34269.839    2637.4964   -36907.336     22.07024 
    9700    139.34774   -1145.6802    133530.48   -34239.393    2636.7634   -36876.157    22.234275 
    9750    142.01004   -1183.7766    133590.92   -34213.771    2687.1399   -36900.911    22.335916 
    9800     139.1286   -1107.1065    133635.52   -34234.045    2632.6168   -36866.661     22.43803 
    9850    139.30139   -1382.3408    133691.92   -34241.541    2635.8862   -36877.427    22.629487 
    9900    138.86013   -1185.2986     133653.3   -34260.206    2627.5367   -36887.743    22.676871 
    9950    138.99096   -1174.7885    133651.82   -34275.701    2630.0123   -36905.713    22.828201 
   10000    140.77003   -1006.8945    133594.63   -34302.565    2663.6762   -36966.242    22.850259 
   10050    140.41469   -1173.0788    133534.05   -34297.691    2656.9524   -36954.643    22.924708 
   10100    138.41607   -1140.1857    133522.13   -34295.883    2619.1341   -36915.017    22.989415 
   10150    140.10762   -1049.0445    133554.65   -34297.228     2651.142    -36948.37    23.238773 
   10200    141.59313   -1131.6078    133600.49   -34211.774     2679.251   -36891.025    23.254371 
   10250    141.39755   -1184.8132    133693.76   -34168.494    2675.5503   -36844.045    23.370722 
   10300    140.87212   -1133.9126    133760.87   -34181.545    2665.6079   -36847.153    23.522013 
   10350    138.80331    -1098.784    133781.85   -34186.673    2626.4616   -36813.135    23.638559 
   10400    143.73155   -1230.4865    133808.67   -34201.037    2719.7146   -36920.752    23.785862 
   10450     143.4686   -1125.8954     133797.4   -34184.463     2714.739   -36899.202    23.908053 
   10500    141.62785   -1262.0904     133680.4   -34226.366     2679.908   -36906.274    23.966404 
   10550    138.32979    -1271.664    133689.84   -34228.674    2617.5016   -36846.175    24.048789 
   10600    138.69079   -1207.1539     133540.2   -34248.136    2624.3324   -36872.469    24.179594 
   10650    140.31939   -1097.0168    133601.24   -34244.387     2655.149   -36899.536     24.19587 
   10700    143.73034   -1241.1664    133539.42   -34171.871    2719.6917   -36891.563    24.297768 
   10750    141.54889    -851.9384    133580.73   -34172.453    2678.4138   -36850.867    24.351289 
   10800    142.67385   -1055.7091    133595.36   -34173.255    2699.7005   -36872.956    24.329969 
   10850    142.15458   -1186.4011    133574.78   -34179.148    2689.8749   -36869.023    24.415775 
   10900    141.89948   -1279.2702    133545.76   -34158.524    2685.0478   -36843.572     24.48782 
   10950     142.2483   -1078.8825    133508.68   -34178.656    2691.6483   -36870.305    24.460593 
   11000    138.53704   -1188.6442    133490.59   -34151.501    2621.4232   -36772.924    24.602932 
   11050    140.08446   -1172.3047    133575.95   -34131.967    2650.7036    -36782.67    24.682698 
   11100    139.49511   -1073.2428    133553.33   -34150.262    2639.5519   -36789.814    24.733284 
   11150    140.60296   -909.67697    133600.57   -34177.054    2660.5148   -36837.569    24.842763 
   11200    138.33769   -1192.1548    133698.92   -34200.899     2617.651    -36818.55    24.884268 
   11250    140.34691   -1121.7895    133805.13   -34163.551    2655.6697    -36819.22    24.914552 
   11300    142.76969   -997.94845     133837.4   -34157.573    2701.5142   -36859.088    25.011218 
   11350     140.7569   -1044.6871    133857.62   -34125.793    2663.4276    -36789.22    25.087767 
   11400    142.79127   -1277.8378    133864.51   -34109.534    2701.9225   -36811.457    25.212146 
   11450    140.35495   -1237.9559       133810   -34107.143     2655.822   -36762.965    25.281828 
   11500    140.54202    -1065.503    133748.97   -34168.519    2659.3617    -36827.88    25.371141 
   11550    139.96168    -1028.868    133762.35    -34163.62    2648.3804   -36812.001    25.589293 
   11600    140.64083   -896.01652    133886.88   -34154.112    2661.2313   -36815.344    25.719539 
   11650    140.19391   -1215.1345    133864.35   -34184.886    2652.7747   -36837.661    25.810846 
   11700    136.73147   -1231.5807    133807.05   -34174.358    2587.2578   -36761.616    25.835608 
   11750    137.63643   -1502.3987    133678.86   -34171.366    2604.3816   -36775.747    25.903593 
   11800    136.87407   -1423.6944    133585.07   -34194.969    2589.9561   -36784.926    25.914495 
   11850    138.11265   -1360.8071    133544.06   -34196.456    2613.3927   -36809.848    25.931386 
   11900    142.19702   -1037.7416    133423.66   -34168.229     2690.678   -36858.907    26.054912 
   11950    140.24522   -1073.2665    133412.56   -34185.056    2653.7456   -36838.801    26.231467 
   12000    138.95574   -1296.2799    133384.12   -34186.448    2629.3458   -36815.793    26.303427 
   12050    139.87675   -1205.6713    133357.28   -34165.365    2646.7734   -36812.139    26.290582 
   12100    141.41186   -1237.4922    133405.91   -34177.195    2675.8209   -36853.016    26.488841 
   12150    140.86312   -1080.3432    133398.47   -34197.506    2665.4376   -36862.944    26.698367 
   12200    143.62359   -1074.1905     133490.2   -34134.005    2717.6716   -36851.677    26.676695 
   12250    141.52083   -910.66125    133634.16   -34125.091    2677.8829   -36802.973    26.737618 
   12300     142.8903    -1202.545    133653.12   -34115.369    2703.7963   -36819.165    26.957254 
   12350    143.73977   -810.43624    133708.69   -34124.689    2719.8702   -36844.559    26.959665 
   12400    142.06461   -1243.2892    133724.05   -34143.609    2688.1724   -36831.782    27.124496 
   12450    144.45704   -1038.1031    133701.02   -34115.211    2733.4425   -36848.653    27.275433 
   12500    140.92302   -1050.2809    133708.17   -34187.629     2666.571     -36854.2    27.325137 
   12550    142.17901   -1293.1238    133648.49   -34195.597    2690.3372   -36885.934     27.50283 
   12600    141.04078   -1308.6535    133609.84   -34131.276    2668.7994   -36800.075    27.709711 
   12650    140.94934   -1367.2113    133457.68   -34104.186     2667.069   -36771.255    27.769265 
   12700    141.26849   -1417.3271    133394.83   -34133.053     2673.108   -36806.161    27.831991 
   12750     139.0797   -1018.4257    133393.41   -34190.226    2631.6915   -36821.917    27.889904 
   12800    141.06577   -1134.5718    133428.27   -34202.349    2669.2722   -36871.621    28.007815 
   12850    139.65488   -1402.7446    133480.44   -34182.191    2642.5752   -36824.766    28.047889 
   12900    142.63274   -1281.9594    133499.01   -34153.921    2698.9227   -36852.844     28.20889 
   12950    140.77785    -1266.126    133605.84   -34141.691    2663.8241   -36805.515    28.323819 
   13000    139.78671   -1061.5707    133561.75   -34159.692    2645.0696   -36804.762    28.411085 
   13050    137.45921   -1360.9393    133596.86   -34178.904    2601.0282   -36779.932    28.494754 
   13100    139.95078   -1257.4224    133562.31   -34147.487    2648.1742   -36795.661     28.58651 
   13150    141.85807   -1387.4662    133497.51   -34103.295    2684.2643    -36787.56    28.579796 
   13200    142.61508   -1146.0059    133495.36    -34071.05    2698.5886   -36769.639    28.734146 
   13250    143.32596   -1213.8918    133479.78   -34071.225      2712.04   -36783.265    28.909424 
   13300    142.34099   -1281.6448    133482.87   -33995.531    2693.4022   -36688.933    29.073843 
   13350    141.61644   -1415.3161     133442.1   -33985.623    2679.6922   -36665.315    29.179496 
   13400    141.90924   -1445.1423    133277.76   -34012.219    2685.2325   -36697.452    29.324605 
   13450    139.92858   -1013.8013    133207.99   -34044.377     2647.754   -36692.131    29.506276 
   13500    142.27901   -1208.3326    133226.71   -34040.168    2692.2294   -36732.398    29.625253 
   13550    143.93201   -1358.8571    133184.18   -34029.977    2723.5077   -36753.485    29.771354 
   13600    143.98613   -1212.9852    133207.42   -34041.227    2724.5318   -36765.758     29.84567 
   13650    141.43448   -1365.5503    133214.85    -34027.42    2676.2491    -36703.67    29.948534 
   13700    142.77475   -1214.8221    133186.22   -34044.071    2701.6099   -36745.681    30.099982 
   13750    140.80226   -779.05054    133230.11   -34075.701     2664.286   -36739.987    30.187714 
   13800    140.31253   -1500.3955    133248.29   -34023.578    2655.0192   -36678.597     30.34599 
   13850     142.7144   -954.48329    133269.11   -33987.403    2700.4679   -36687.871    30.473198 
   13900    144.99202   -1046.7834    133317.92   -33944.554    2743.5655    -36688.12     30.50666 
   13950    146.26214   -1148.1506    133424.18   -33907.219    2767.5988   -36674.818    30.480986 
   14000     143.6558   -1216.5411    133424.68   -33967.157    2718.2812   -36685.438     30.67632 
   14050    147.37941    -1423.181    133341.02   -33970.839      2788.74   -36759.579     30.76302 
   14100    144.99934   -1238.2383    133280.59   -33976.908     2743.704   -36720.612     30.95419 
   14150    142.32115   -910.78504    133243.61   -34002.286    2693.0267   -36695.313    31.080291 
   14200    143.55094   -1258.0117    133215.46   -34030.722     2716.297   -36747.019    31.155974 
   14250    140.51549   -1360.2485    133128.73   -34109.598    2658.8597   -36768.457    31.306411 
   14300    141.10525   -1142.4679    133097.62   -34120.783    2670.0193   -36790.803     31.45497 
   14350    141.80502   -1258.0342    133070.36   -34096.291    2683.2604   -36779.551    31.642746 
   14400    141.02481   -936.95705    133062.08    -34101.45    2668.4972   -36769.947    31.792118 
   14450    140.11811   -1261.0132    132925.87   -34134.989    2651.3404   -36786.329    31.907473 
   14500    141.45585   -1428.0678    132814.44    -34147.36    2676.6533   -36824.014    32.060669 
   14550     139.6463   -982.67259    132806.81   -34149.411    2642.4127   -36791.824    32.198595 
   14600    141.25861     -901.627    132976.59   -34147.313    2672.9212   -36820.234    32.426768 
   14650     139.7636   -1018.5309    133089.56   -34099.678    2644.6324   -36744.311    32.585024 
   14700    141.31057   -997.04958    133200.05   -34097.634    2673.9043   -36771.538    32.732168 
   14750    144.46646   -1390.1973    133222.74   -34037.575    2733.6207   -36771.196     32.87359 
   14800    142.85844   -1120.0097    133131.67   -34030.552    2703.1935   -36733.745    32.867871 
   14850    141.30215   -1192.7936    133178.87   -34031.274     2673.745   -36705.019    33.073701 
   14900    142.23909   -1131.7291    133185.68   -34047.693    2691.4739   -36739.167    33.020576 
   14950    143.78175   -1091.4523     133299.1   -34043.545    2720.6645    -36764.21    33.019225 
   15000    142.64379   -1085.9684    133377.21   -34022.748    2699.1318    -36721.88    33.113309 
   15050    140.89912   -1303.9473    133317.94   -34057.813    2666.1189   -36723.932    33.431466 
   15100    144.34449   -1126.0315    133332.91   -34037.673    2731.3128   -36768.986    33.657992 
   15150    142.70729   -1128.3218    133405.91   -34043.653    2700.3334   -36743.986    33.678906 
   15200    143.97965   -1281.6188    133440.25   -34071.069    2724.4092   -36795.478    33.852545 
   15250    140.92552   -1107.2527    133463.68   -34064.106    2666.6183   -36730.724    33.995813 
   15300    142.18893   -1183.9813    133448.16   -34070.869    2690.5249   -36761.394    34.066713 
   15350    141.57912   -1290.5641    133419.69   -34111.018    2678.9858   -36790.004     34.03488 
   15400    140.94316   -1230.1851    133422.95    -34147.14    2666.9522   -36814.093    34.100764 
   15450    143.06695   -896.57763    133457.15   -34161.444    2707.1388   -36868.583    34.267661 
   15500    143.20853   -1113.0193    133446.21   -34169.458    2709.8178   -36879.276    34.322555 
   15550    142.91812   -1094.2658    133603.76   -34133.596    2704.3227   -36837.918    34.311168 
   15600    141.85693   -1159.1771    133691.33   -34122.593    2684.2426   -36806.836    34.284378 
   15650    143.02267   -1266.7139    133745.94   -34188.806     2706.301   -36895.107    34.421919 
   15700    138.75314    -1338.841    133753.56   -34221.444    2625.5122   -36846.956    34.479856 
   15750    139.83972   -1315.1499    133763.78   -34213.524    2646.0726   -36859.596    34.479752 
   15800    142.30032   -1154.0468    133756.22   -34220.662    2692.6326   -36913.294    34.489182 
   15850    142.47524   -1063.8164    133782.47   -34256.656    2695.9424   -36952.598    34.542872 
   15900    141.61836   -1315.2151     133762.1   -34243.894    2679.7284   -36923.622    34.593168 
   15950     142.4417   -1197.1384    133754.19   -34256.626    2695.3079   -36951.934    34.672107 
   16000    143.46524   -1181.4318    133812.66   -34166.416    2714.6755   -36881.092    34.848612 
   16050    143.85152   -902.69109     133754.6   -34167.673    2721.9846   -36889.658    34.941588 
   16100    141.21185   -1284.1569    133842.75   -34180.477    2672.0364   -36852.514    34.984045 
   16150    141.06049   -1184.1368    133909.39   -34143.669    2669.1722   -36812.841    35.093344 
   16200    139.14159   -1121.4841    133849.23   -34218.267    2632.8625    -36851.13    35.263296 
   16250    141.27083   -1293.2353    133759.19   -34226.096    2673.1524   -36899.249    35.389548 
   16300    137.59983   -1033.2939    133785.18   -34270.836     2603.689   -36874.525    35.600216 
   16350    140.32665   -1069.9721    133864.27   -34213.421    2655.2864   -36868.707    35.662676 
   16400     143.2355    -1373.874    133857.03   -34207.993    2710.3282   -36918.322    35.798397 
   16450    140.79532   -1162.7373    133858.64   -34257.892    2664.1547   -36922.046     36.00905 
   16500     141.9365   -1339.2137    133875.74   -34224.603    2685.7482   -36910.351    36.067308 
   16550    142.25986   -983.39528    133901.81   -34237.852     2691.867   -36929.719    36.312234 
   16600    140.85926   -1167.4807    133977.47   -34207.072    2665.3646   -36872.437    36.415182 
   16650    138.62611   -1320.6441    133931.38   -34200.392    2623.1085     -36823.5    36.633708 
   16700    142.66906   -868.63634    133951.02   -34142.434    2699.6099   -36842.044    36.663544 
   16750    142.72023   -1016.7952    134047.67   -34154.132    2700.5782    -36854.71    36.832618 
   16800    140.31252   -1102.0882    134018.68   -34174.699    2655.0191   -36829.718    36.926796 
   16850    140.90461   -1288.5247     134034.3    -34200.81    2666.2226   -36867.033    36.961263 
   16900    142.70934   -1324.6669    134088.43   -34176.973    2700.3721   -36877.345    37.087618 
   16950    140.83004   -1123.8135    134111.12   -34144.907    2664.8117   -36809.719      37.2121 
   17000    143.23292   -947.45934    134018.06    -34163.64    2710.2794    -36873.92    37.287261 
   17050     143.0715   -1181.4512    134038.99   -34138.082     2707.225   -36845.307    37.336257 
   17100    145.77223   -1151.7569    134033.03   -34096.401    2758.3286    -36854.73    37.371554 
   17150    141.54308   -1211.2143    134051.97   -34071.463    2678.3039   -36749.767    37.563215 
   17200    144.08407   -1167.8948    134014.69   -34039.431     2726.385   -36765.816    37.705926 
   17250    141.80595   -1317.3149    133943.51   -34069.429    2683.2779   -36752.707    37.900594 
   17300    141.00979   -1151.3319    133897.46   -34117.417    2668.2129    -36785.63    38.022719 
   17350    139.62475   -1009.1272    133845.59    -34119.53    2642.0049   -36761.535    38.138513 
   17400    143.07112   -1330.7042    133821.37   -34116.024    2707.2177   -36823.242    38.187115 
   17450    141.31031   -1182.5731    133852.75   -34128.279    2673.8994   -36802.178    38.282776 
   17500    139.27976   -1068.7787    133816.35   -34158.849     2635.477   -36794.326    38.403496 
   17550    141.28228   -1026.1666    133904.91   -34149.684     2673.369   -36823.053    38.423825 
   17600    140.63982   -1011.6441    133958.58   -34142.973    2661.2123   -36804.185    38.580513 
   17650    145.05893   -916.18247    133932.23   -34083.731    2744.8315   -36828.562    38.618967 
   17700    142.54616   -1209.3419    134012.71   -34107.151    2697.2844   -36804.436    38.714032 
   17750     142.8838   -1191.4779    134082.69   -34106.348    2703.6733   -36810.021    38.698345 
   17800     138.6538   -1455.7701    134047.65   -34097.435    2623.6324   -36721.067    38.888967 
   17850    143.36917   -1226.2788    134010.49   -34058.645    2712.8575   -36771.503    38.895914 
   17900    144.43535   -1331.2639    134001.22   -34069.294    2733.0319   -36802.326    39.066554 
   17950    143.34901   -1164.3329    134035.68   -34066.304    2712.4761   -36778.781    39.207503 
   18000    143.48193   -1105.2091    133911.69   -34044.396    2714.9912   -36759.387    39.378579 
   18050    143.17962   -1237.5706    133938.49   -34037.073    2709.2708   -36746.344    39.463311 
   18100    143.52789   -1346.1846    133978.34   -34043.879    2715.8609    -36759.74    39.403145 
   18150    141.60384   -1192.9162    134032.21   -34064.748    2679.4537   -36744.202    39.454427 
   18200    140.74278   -1326.9182     134082.7   -34027.984    2663.1604   -36691.144    39.632601 
   18250    143.12222   -899.69446    134074.68   -34069.397    2708.1847   -36777.581    39.705295 
   18300    142.28906   -1208.4979    134162.16   -34076.507    2692.4196   -36768.927    39.887079 
   18350    139.81644   -1370.6381       134159     -34108.6    2645.6322   -36754.232    40.048976 
   18400    142.20499   -1085.1467     134147.7   -34128.929    2690.8288   -36819.758    40.230743 
   18450     140.7491   -1315.0108    134109.39   -34124.034    2663.2801   -36787.314    40.148013 
   18500    139.39562   -1395.9691    134039.77   -34112.355    2637.6692   -36750.024    40.307541 
   18550     142.1195   -1111.7234     133897.2   -34130.827    2689.2112   -36820.038    40.440945 
   18600    141.37796   -1088.7282    133821.79    -34149.88    2675.1795   -36825.059    40.526721 
   18650    139.56443   -979.61173    133871.15   -34161.864    2640.8635   -36802.727    40.622126 
   18700    140.85462   -685.67192    133864.03   -34142.902    2665.2768   -36808.179    40.660324 
   18750      140.829   -1228.5223    133886.31    -34166.53    2664.7921   -36831.322    40.741791 
   18800    143.26201   -1264.8334    133938.27   -34218.748    2710.8299   -36929.578    40.948809 
   18850    143.98972   -1194.3656    133951.55    -34214.07    2724.5996    -36938.67    41.025859 
   18900    142.50325   -904.13237    134007.97    -34205.47    2696.4725   -36901.942    41.065624 
   18950    143.09368    -1052.392    134063.76   -34150.995    2707.6446    -36858.64    41.220641 
   19000    139.99921   -1327.0163    134042.78   -34197.951    2649.0906   -36847.042    41.292695 
   19050    139.56112   -1004.2227    134045.61   -34248.413     2640.801   -36889.214     41.37706 
   19100    142.71178   -1241.7754    134046.52   -34173.024    2700.4182   -36873.443    41.521205 
   19150     143.8418   -1185.8098    134056.13   -34098.272    2721.8007   -36820.072    41.757015 
   19200    145.06414    -1209.109     133945.5    -34124.65    2744.9302    -36869.58    41.989249 
   19250    143.66951   -1042.2565    133885.83   -34144.436    2718.5406   -36862.977    41.998606 
   19300     143.3921   -964.95279    133951.78   -34145.066    2713.2914   -36858.357    42.104557 
   19350    141.36024   -1063.9804    133959.93   -34179.653    2674.8442   -36854.498    42.262266 
   19400    143.56849   -1047.9961    134014.75   -34123.024    2716.6291   -36839.653    42.366225 
   19450    142.96949   -803.61957    134048.69   -34086.081    2705.2948   -36791.376    42.487694 
   19500    143.09889   -1075.9661    134147.06   -34135.981    2707.7433   -36843.724    42.629711 
   19550    138.77269   -1440.0736    134157.91   -34219.266    2625.8821   -36845.148    42.490986 
   19600    139.80525    -1458.144     134123.7    -34234.03    2645.4203    -36879.45    42.547588 
   19650    141.85381   -1293.9162    134017.95   -34192.193    2684.1837   -36876.377    42.738108 
   19700    143.58419   -1164.2953     133932.4   -34173.591    2716.9262   -36890.517    42.906306 
   19750    141.38722   -1247.3619    133915.42   -34224.801    2675.3548   -36900.156    43.133184 
   19800     140.4117   -958.86773    133903.08   -34286.416    2656.8959   -36943.312    43.232845 
   19850    140.58967   -1166.8281     133931.2   -34210.662    2660.2634   -36870.925    43.323415 
   19900    140.41992   -1174.4023    133877.69   -34203.868    2657.0514   -36860.919    43.476129 
   19950    141.46379   -1060.1771     133914.9    -34208.16    2676.8036   -36884.964    43.551136 
   20000    142.40377   -1109.0574    133856.94    -34285.82      2694.59    -36980.41    43.599915 
   20050    139.64671    -1228.457     133921.5   -34257.215    2642.4205   -36899.635    43.685214 
   20100    140.84625   -1081.8285    133949.83   -34231.491    2665.1184    -36896.61    43.693178 
   20150    140.69277   -1163.8017    133968.58   -34205.256    2662.2143    -36867.47    43.670512 
   20200    141.16617   -1260.0666    133997.92   -34210.489    2671.1719   -36881.661    43.672538 
   20250    143.49566    -717.8791    134052.68   -34138.675    2715.2511   -36853.926    43.814776 
   20300    142.20017   -1494.2595     133972.1   -34173.764    2690.7376   -36864.501    43.965389 
   20350    142.46311   -1070.9564    133912.43   -34161.527    2695.7129    -36857.24     44.19682 
   20400    142.10758   -1122.7916     134041.6   -34140.611    2688.9856   -36829.596     44.28937 
   20450    140.74146   -855.70871    134058.47   -34159.274    2663.1355    -36822.41     44.26751 
   20500     140.6441   -1153.9896    134120.43   -34172.064    2661.2934   -36833.358    44.415869 
   20550    142.96289   -1241.1274     134169.7   -34147.458    2705.1698   -36852.628    44.433675 
   20600    139.14673   -1199.6708    134208.47   -34160.068    2632.9597   -36793.027    44.688397 
   20650    142.80386   -1076.0252    134230.64   -34129.976    2702.1607   -36832.136    44.874806 
   20700    141.30055   -989.94045    134357.04   -34182.699    2673.7147   -36856.414    44.943649 
   20750      139.249   -1085.0758    134414.62   -34244.368    2634.8949   -36879.263    45.008511 
   20800    140.09663   -1319.6387    134439.28   -34215.655    2650.9339   -36866.589    44.983483 
   20850    139.36653   -1235.9798    134421.08   -34214.124     2637.119   -36851.243    45.039598 
   20900    141.05896   -1126.4821    134427.48    -34218.44    2669.1433   -36887.583    45.208809 
   20950    140.97646   -1169.3238     134459.3   -34227.595    2667.5822   -36895.177    45.425619 
   21000    138.72419   -1333.1967    134435.95   -34247.043    2624.9645   -36872.008    45.621474 
   21050    142.06577   -1244.4119    134395.39     -34236.7    2688.1945   -36924.894    45.706223 
   21100    140.58231   -958.89807    134400.04   -34272.466    2660.1241    -36932.59    45.900063 
   21150    138.15416    -1231.907    134369.13   -34299.877    2614.1782   -36914.055     45.91856 
   21200    138.79823   -1332.3346    134367.74   -34297.031    2626.3654   -36923.396     45.94166 
   21250    137.09255   -1351.8109    134343.54   -34337.153    2594.0902   -36931.243    46.108848 
   21300     139.9113   -936.44989    134367.27   -34317.521    2647.4271   -36964.948    46.243047 
   21350    140.30368   -1274.0249     134421.5   -34291.755    2654.8518   -36946.607    46.318391 
   21400    141.29325   -1066.9677    134439.25   -34254.763    2673.5766    -36928.34    46.416185 
   21450    142.07919   -1102.5166     134497.3   -34290.084    2688.4483   -36978.532    46.429523 
   21500     141.1551   -1196.8089    134404.55   -34250.709    2670.9625   -36921.671    46.479296 
   21550    144.09246   -1358.7313    134302.98    -34240.52    2726.5438   -36967.063    46.582481 
   21600    140.60533   -1195.4113    134255.62   -34232.366    2660.5597   -36892.926    46.655788 
   21650      141.651   -1051.9613    134202.46   -34243.192    2680.3461   -36923.539    46.759858 
   21700    140.16507   -966.11238     134187.9   -34263.942    2652.2289   -36916.171    46.960543 
   21750    142.55837   -1113.6079    134151.72   -34266.599    2697.5154   -36964.114    47.084925 
   21800    141.59746   -941.72009    134145.04    -34285.46    2679.3329   -36964.793    47.108387 
   21850    141.45737   -1218.2496    134025.59   -34226.404    2676.6822   -36903.086    47.302903 
   21900    141.97596   -777.31501    134141.11   -34206.134     2686.495   -36892.629    47.392449 
   21950    139.55494   -1239.4516    134200.28   -34175.452    2640.6841   -36816.136    47.565202 
   22000    140.48891   -1436.0184    134228.13   -34232.998    2658.3567   -36891.354    47.614251 
   22050    142.93373   -1035.7982    134220.37   -34234.948    2704.6181   -36939.566    47.697085 
   22100    138.58726   -1517.4894    134100.42    -34258.28    2622.3734   -36880.654    47.810625 
   22150    140.77752   -1187.6514    134150.12   -34248.596    2663.8178   -36912.414    47.907518 
   22200    140.85476   -1041.7166    134219.95   -34255.899    2665.2794   -36921.178    47.903138 
   22250    140.31892   -1517.1124     134146.4   -34252.577    2655.1401   -36907.717    48.085692 
   22300    141.92792   -1139.3916    134084.43   -34189.828     2685.586   -36875.414    48.034886 
   22350    141.91355   -1196.9477    134046.59   -34167.686    2685.3141       -36853     48.04777 
   22400     141.9386   -1046.2134    134105.55   -34176.442     2685.788    -36862.23    48.252554 
   22450    141.42767   -992.53122    134082.23   -34165.334    2676.1201   -36841.454    48.195999 
   22500    142.74909   -1232.2346    134076.28   -34126.832    2701.1243   -36827.957    48.271843 
   22550    144.37892   -1167.6061     134044.4   -34156.431    2731.9642   -36888.395     48.34245 
   22600    140.69416    -1123.634    134127.37    -34174.88    2662.2405    -36837.12    48.301126 
   22650    144.14707   -1106.8654    134164.61    -34135.58    2727.5772   -36863.158    48.331493 
   22700    144.33882   -842.17024    134236.35   -34119.899    2731.2055   -36851.104    48.290744 
   22750    142.01069   -1510.3786    134229.17   -34135.294    2687.1522   -36822.446    48.404608 
   22800    141.41057    -1583.887    134149.58   -34207.975    2675.7966   -36883.772    48.499605 
   22850    141.13263   -1063.0729    134048.24   -34213.341    2670.5374   -36883.878    48.572402 
   22900    139.48009    -1407.688    134057.88   -34184.858    2639.2677   -36824.126    48.742748 
   22950    143.72538   -1081.8633    134068.91   -34178.311    2719.5979   -36897.909    48.891676 
   23000    142.18451   -1057.2999    134081.48   -34180.112    2690.4412   -36870.553    48.942807 
   23050    140.26781   -1300.7181    134036.59    -34199.33     2654.173   -36853.503    49.057328 
   23100    142.45996   -1119.6418    133961.05   -34182.431    2695.6533   -36878.085     49.09732 
   23150    141.81017   -1344.6146    133905.41   -34194.308    2683.3579   -36877.666    49.219746 
   23200    141.56286   -1164.2328    133931.21    -34225.72    2678.6782   -36904.399    49.268274 
   23250    140.18555   -1037.5887    133948.41   -34195.598    2652.6166   -36848.215    49.428712 
   23300    142.24291   -1229.1938    133918.23   -34195.949    2691.5462   -36887.495    49.403785 
   23350     139.9624   -1128.1458     133954.2   -34210.732    2648.3941   -36859.126    49.432287 
   23400    142.01747   -1227.5092    133998.54   -34211.363    2687.2803   -36898.643    49.512141 
   23450    138.84397   -941.87553    134071.74   -34272.125     2627.231   -36899.356    49.570143 
   23500    138.64677   -1096.3521    134186.65   -34189.994    2623.4994   -36813.493    49.680171 
   23550    140.96019   -936.61994    134226.92   -34173.757    2667.2744   -36841.032    49.607355 
   23600    142.14544   -1185.0529    134323.06   -34189.064    2689.7019   -36878.766    49.723603 
   23650    141.96984   -1279.5959    134280.93   -34190.044    2686.3793   -36876.423    49.876531 
   23700    142.73322   -1287.1066    134331.81    -34177.51    2700.8241   -36878.334    50.020969 
   23750    140.74436   -1239.6092     134320.8   -34179.053    2663.1905   -36842.243    50.284521 
   23800    139.08339   -1121.2771    134376.72   -34184.875    2631.7612   -36816.636    50.423016 
   23850    141.97015   -1189.9878    134372.41   -34199.653     2686.385   -36886.038    50.656674 
   23900     142.1801   -1089.9503    134424.17   -34230.023    2690.3577   -36920.381    50.679617 
   23950    140.28493   -1302.7007    134380.04   -34175.836     2654.497   -36830.333    50.702983 
   24000    141.59851   -1139.1344    134296.31   -34220.246    2679.3528   -36899.599     50.69732 
   24050    143.31455   -1091.4693    134252.19   -34195.555     2711.824   -36907.379    50.662238 
   24100    143.55956   -1304.4803    134179.11   -34219.281    2716.4601   -36935.742    50.843347 
   24150    140.78787   -1275.0693     134151.2   -34274.296    2664.0138    -36938.31    50.872727 
   24200    140.16214   -1299.1755    134085.54     -34243.1    2652.1736   -36895.273     51.00461 
   24250    141.21358   -1169.9895    134092.87   -34230.505    2672.0692   -36902.574    51.088184 
   24300    144.16356   -1033.9684    134218.06   -34197.987    2727.8892   -36925.876     51.21393 
   24350    142.05463     -1199.06    134300.42   -34200.561    2687.9836   -36888.545    51.404432 
   24400    141.38394   -1275.6002    134305.89   -34203.471    2675.2926   -36878.764    51.420552 
   24450    138.60768   -1262.9385    134245.69   -34203.922    2622.7597   -36826.682    51.459499 
   24500    140.75866   -1167.4684    134266.64   -34251.161     2663.461   -36914.622    51.411463 
   24550    140.17835   -1175.8726    134297.08   -34237.407    2652.4804   -36889.887    51.695548 
   24600    140.66737   -1230.6337    134154.75    -34235.94    2661.7336   -36897.674    51.716751 
   24650    139.69764   -1273.8084    134123.52    -34225.56    2643.3842   -36868.944    51.873868 
   24700    142.12196   -1166.1566    134102.42   -34173.046    2689.2576   -36862.304    51.912773 
   24750    139.16261   -1174.3521    134085.55   -34197.206    2633.2602   -36830.467    51.900265 
   24800    140.52551   -1466.7822    134051.24   -34224.132    2659.0493   -36883.181    51.921993 
   24850    142.33672   -1156.2594    134021.04   -34162.881    2693.3214   -36856.202    51.932249 
   24900    141.70932   -1355.7848    134025.77    -34165.92    2681.4495   -36847.369     51.93174 
   24950    143.21116   -983.94157    133981.37   -34172.853    2709.8676    -36882.72     51.97422 
   25000    142.87114   -1120.5567    133944.38   -34204.617    2703.4337   -36908.051    51.966896 
   25050    145.56307   -1183.5997    133879.43    -34150.21    2754.3709   -36904.581    52.091786 
   25100    142.48876   -1022.1222    133933.01   -34151.895    2696.1982   -36848.093     52.23923 
   25150    143.87245   -910.36313    133993.89   -34170.543    2722.3807   -36892.924    52.319236 
   25200    143.18126   -1143.4148    134009.23   -34207.494    2709.3018   -36916.796      52.3922 
   25250    138.99291   -1051.2408    133983.49   -34243.837    2630.0492   -36873.886    52.498667 
   25300    143.68962    -1301.948    133973.08   -34151.597    2718.9212   -36870.519    52.639285 
   25350    141.29231   -1418.8536     133918.6   -34148.998    2673.5588   -36822.556    52.695506 
   25400    138.64784    -1135.283    133822.07   -34175.245    2623.5198   -36798.765     52.62781 
   25450    138.34627   -1338.2113    133721.03   -34217.608    2617.8133   -36835.421    52.788338 
   25500    141.10135    -1241.804    133656.81   -34220.211    2669.9455   -36890.156    52.877254 
   25550    140.30322   -952.58144    133784.73   -34144.223    2654.8431   -36799.066    52.904332 
   25600    144.20022   -1213.3871    133859.42   -34117.737    2728.5829    -36846.32    53.027128 
   25650    141.60954   -1405.1486    133836.11   -34149.498    2679.5615   -36829.059    53.241727 
   25700    143.18306   -1323.5606     133766.5   -34123.032    2709.3359   -36832.368    53.264243 
   25750    143.31987    -1155.189    133703.44   -34183.383    2711.9246   -36895.307    53.442019 
   25800    139.78079   -1097.7983    133689.24   -34232.798    2644.9577   -36877.755    53.572062 
   25850    140.04512   -1108.4006    133735.16   -34231.446    2649.9593   -36881.405    53.726093 
   25900      140.208   -916.68498    133802.82   -34258.405    2653.0413   -36911.446    53.797477 
   25950    141.72987   -1109.7887    133791.94   -34258.576    2681.8384   -36940.414    53.869917 
   26000    141.13769   -1257.5014    133774.51   -34301.938    2670.6331   -36972.571    54.059094 
   26050    138.48872   -1174.5363    133693.67   -34302.486    2620.5088   -36922.995    54.093351 
   26100    138.47513   -1275.1911    133697.96   -34341.163    2620.2517   -36961.415    54.123602 
   26150    138.93195   -1195.8934    133675.11   -34268.305    2628.8956   -36897.201    54.222916 
   26200    138.98447   -1261.4778    133692.94   -34226.225    2629.8895   -36856.114    54.416422 
   26250    145.55536   -1001.5859    133676.25   -34193.727     2754.225   -36947.952    54.542594 
   26300    141.29955   -1153.0166    133702.71   -34224.905    2673.6959   -36898.601    54.811946 
   26350     143.0336   -1061.4755    133665.95   -34187.101    2706.5079   -36893.608    54.932609 
   26400    141.06233   -1181.0176    133701.63   -34189.947     2669.207   -36859.154    54.990382 
   26450    140.16852   -1259.1449    133666.69    -34173.96    2652.2944   -36826.254    55.178606 
   26500    140.88367   -1249.0995    133681.15   -34168.534    2665.8265    -36834.36    55.305764 
   26550    139.80616   -1185.9788    133677.55   -34167.728    2645.4377   -36813.166    55.447656 
   26600     140.2322   -1172.5247    133621.02   -34135.437    2653.4993   -36788.936    55.418775 
   26650    142.44066   -1174.0962    133577.65   -34139.609    2695.2882   -36834.897    55.349214 
   26700    143.71472   -847.84306    133630.55   -34121.132    2719.3961   -36840.528    55.316115 
   26750    144.13067     -1311.92    133682.97   -34124.136    2727.2667   -36851.403    55.465262 
   26800    140.90553   -1035.8034     133606.5    -34204.76    2666.2401   -36871.001    55.418857 
   26850    141.51791   -1064.7749    133555.03   -34189.341    2677.8277   -36867.169    55.534929 
   26900    142.37884   -1096.3367     133636.3    -34183.27    2694.1184   -36877.388    55.763981 
   26950     141.3961   -935.93744    133655.48   -34201.603    2675.5228   -36877.126    55.920413 
   27000    141.79649   -1009.1127    133678.58   -34224.168     2683.099   -36907.267    56.080936 
   27050    145.65217   -1240.6994    133764.59   -34171.696    2756.0569   -36927.753    56.256982 
   27100    139.65961   -1101.7508    133831.77   -34183.894    2642.6647   -36826.558    56.404503 
   27150    141.82228   -764.18774    133919.38   -34169.294     2683.587   -36852.881    56.348047 
   27200    136.85881   -1160.8509    133936.32   -34218.702    2589.6673   -36808.369     56.38222 
   27250    141.18106   -1073.8146    133945.88   -34200.698    2671.4538   -36872.152    56.436716 
   27300    141.00332   -1311.8552    133886.99   -34252.674    2668.0906   -36920.764    56.613538 
   27350     139.0961   -1198.7135    133761.04   -34225.636    2632.0017   -36857.638    56.674201 
   27400    141.56526   -778.91445    133858.18   -34237.337    2678.7236   -36916.061    56.666514 
   27450    140.65665   -1429.3437    133896.78   -34245.991    2661.5308   -36907.522    56.680757 
   27500    139.61333   -1210.4713    133799.96   -34181.396    2641.7889   -36823.184    56.909297 
   27550    141.26145   -1343.3289    133672.17   -34206.823    2672.9748   -36879.798    57.108983 
   27600    141.48938   -1227.0444     133595.1   -34192.971    2677.2877   -36870.258    57.139825 
   27650    145.24202   -1409.5782    133559.43   -34165.235    2748.2959   -36913.531    57.395696 
   27700    142.13738    -1114.674    133526.76   -34150.656    2689.5495   -36840.206    57.542347 
   27750    140.57375   -1227.4608    133546.69   -34155.798    2659.9621    -36815.76    57.612887 
   27800    140.67254   -1091.6105    133550.22   -34153.557    2661.8314   -36815.389    57.704719 
   27850    142.94464    -1318.319    133555.38   -34196.147    2704.8245   -36900.972    57.887395 
   27900    142.20612   -1121.6485    133632.14   -34174.344    2690.8501   -36865.194    58.147624 
   27950    142.10641   -1228.9265    133620.04   -34211.612    2688.9634   -36900.575    58.147108 
   28000    144.99867    -1215.954    133629.69   -34185.015    2743.6913   -36928.706    58.161192 
   28050    144.01468   -1037.4493       133662   -34161.481    2725.0721   -36886.553    58.305241 
   28100    142.00668   -931.54127    133727.88   -34228.053    2687.0763    -36915.13     58.55041 
   28150    141.03267   -1157.9476    133754.88   -34227.476    2668.6459   -36896.122    58.784664 
   28200     138.7484    -1095.827    133760.29   -34248.278    2625.4225   -36873.701    58.791917 
   28250    142.97188   -889.69946    133823.45   -34207.137      2705.34   -36912.477    58.859173 
   28300    140.30306   -1053.1732    133824.77   -34169.515    2654.8401   -36824.355    58.960384 
   28350    141.82769   -1069.9882    133768.72   -34165.781    2683.6893    -36849.47    59.017202 
   28400     142.8112   -1025.6677    133777.73   -34139.628    2702.2996   -36841.927    59.141239 
   28450    144.03636   -1144.4107    133720.25   -34186.156    2725.4823   -36911.638     59.23487 
   28500    140.39964   -1328.5853    133655.59     -34208.5    2656.6675   -36865.168    59.295811 
   28550    142.66061   -1204.5429    133636.38   -34243.611      2699.45   -36943.061    59.444204 
   28600    141.52413   -1092.8644    133687.96   -34241.948    2677.9454   -36919.894    59.793403 
   28650    141.64293   -1211.8337    133722.94   -34233.441    2680.1934   -36913.634    59.766351 
   28700     143.7981   -1267.1566    133717.67   -34230.391    2720.9738   -36951.365    59.739828 
   28750    141.43717   -1150.6935    133650.36   -34261.648    2676.2998   -36937.947    59.725581 
   28800     138.7534    -959.5276    133718.88   -34296.581    2625.5172   -36922.098    59.882922 
   28850    138.91671   -1139.7782    133740.32   -34312.314    2628.6074   -36940.922    59.990943 
   28900    140.69823   -923.11703    133813.27   -34283.913    2662.3176   -36946.231    59.896589 
   28950    140.44658    -1047.965    133730.69   -34322.704    2657.5558    -36980.26    60.151491 
   29000    136.97104   -1005.9595    133690.26   -34310.067     2591.791   -36901.858     60.34414 
   29050    140.93944   -978.50181    133729.55   -34267.114    2666.8818   -36933.996    60.455204 
   29100    137.46374   -1262.5141    133688.67   -34283.502     2601.114   -36884.616    60.661907 
   29150    139.55756   -1002.9597    133731.12   -34248.014    2640.7335   -36888.748    60.610535 
   29200    142.30601    -1251.113    133696.26   -34257.389    2692.7402   -36950.129    60.696106 
   29250    140.97304   -1312.2736    133656.04   -34267.714    2667.5176   -36935.232    60.773272 
   29300    141.43243   -1025.4679    133718.86   -34230.382    2676.2101   -36906.592    60.835019 
   29350    142.34479   -968.94862     133744.3   -34223.002     2693.474   -36916.476    60.903404 
   29400    141.74151   -1582.0647    133717.74   -34209.281    2682.0587    -36891.34    61.027424 
   29450    141.67433   -995.94928    133801.06    -34163.21    2680.7875   -36843.997    61.259358 
   29500    142.93216   -1129.0754     133948.2   -34163.433    2704.5884   -36868.022    61.377525 
   29550    140.50495   -947.04183    133905.51   -34215.548    2658.6603   -36874.208    61.457765 
   29600    142.61839   -984.09606    133933.32   -34226.749    2698.6512     -36925.4    61.609381 
   29650    142.00657   -1111.9556    133968.27   -34214.656    2687.0742    -36901.73    61.689629 
   29700    140.14186   -1297.5023    133988.81   -34174.975    2651.7898   -36826.765    61.834189 
   29750    139.45962   -1168.9748    133988.78   -34233.775    2638.8804   -36872.655    61.861393 
   29800    139.63764   -1246.5727    134047.72   -34217.788    2642.2489   -36860.037    61.933458 
   29850    140.71647   -1172.1442    134110.59   -34225.959    2662.6626   -36888.622     62.11171 
   29900    139.15199   -1206.4608    134046.27   -34252.546    2633.0593   -36885.605    62.078816 
   29950    140.88388   -1242.9969    134008.59   -34266.425    2665.8304   -36932.255     62.04516 
   30000    138.22768   -1090.4631    134021.83   -34244.266    2615.5693   -36859.835    62.133185 
   30050    140.06964   -1227.2106    134023.01   -34277.145    2650.4232   -36927.568    62.102411 
   30100    140.75485   -1021.3067    133968.57   -34248.658    2663.3888   -36912.047    62.032053 
   30150    141.05516   -1190.5339    133930.51   -34234.121    2669.0715   -36903.192    62.182763 
   30200    140.25368   -1037.9608    133956.79   -34266.612    2653.9056   -36920.517    62.267788 
   30250    140.11236   -1283.5342    134004.44    -34267.65    2651.2316   -36918.882    62.445597 
   30300    140.41428   -949.12526    133968.17   -34235.258    2656.9445   -36892.202    62.470158 
   30350    141.26082   -1095.3084    134096.92    -34209.69    2672.9629   -36882.653    62.527176 
   30400    142.46978   -1279.3847    134026.15    -34190.81    2695.8391   -36886.649    62.684718 
   30450    142.53019    -1123.495    134024.79   -34167.621    2696.9822   -36864.603    62.805813 
   30500    143.64283   -1058.9257    134089.34   -34115.412    2718.0359   -36833.447    62.857048 
   30550    141.42835   -1077.3809    134084.96   -34089.618    2676.1329   -36765.751    62.891509 
   30600    140.39721   -1245.9382    134062.91   -34133.174    2656.6216   -36789.796    62.872343 
   30650    139.94513   -1041.7521    134039.05   -34169.527    2648.0672   -36817.594    63.093361 
   30700    138.57218   -1300.1667    133949.58   -34207.856    2622.0879   -36829.944    63.184598 
   30750    141.10539   -1504.0291    133862.15   -34206.632     2670.022   -36876.654    63.389214 
   30800    140.21369   -1060.3342    133902.27   -34251.924     2653.149   -36905.072    63.492198 
   30850    142.28207   -1424.3966    134008.57   -34210.162    2692.2872   -36902.449    63.688863 
   30900    141.18726   -1278.5106    133974.65   -34210.202    2671.5711   -36881.773    64.023523 
   30950    139.19664   -1086.7719    134050.41   -34260.619    2633.9042   -36894.523    63.965144 
   31000    139.31472   -1094.0947    134096.31   -34211.789    2636.1386   -36847.928    64.046638 
   31050    139.76588   -1066.4992    134179.74   -34247.272    2644.6755   -36891.947    64.201656 
   31100    138.52207   -1254.3437    134159.67   -34271.513    2621.1399   -36892.653    64.289135 
   31150     140.4792   -1249.4642    134178.06   -34240.047    2658.1729    -36898.22    64.366154 
   31200    140.30825   -1208.6527    134146.98   -34234.502    2654.9382   -36889.441    64.252898 
   31250    139.05704   -1049.8364    134209.56   -34216.915    2631.2626   -36848.178    64.275496 
   31300    140.39692   -1138.3207    134202.03   -34200.319    2656.6161   -36856.935    64.335941 
   31350    142.11147    -1256.697    134157.07   -34227.508    2689.0591   -36916.567    64.487791 
   31400    140.62001   -1261.1555    134219.29   -34201.077    2660.8375   -36861.914    64.622782 
   31450    144.19807   -1168.0121    134266.75    -34164.06    2728.5422   -36892.602    64.741486 
   31500    142.89574   -1464.4651    134287.85   -34121.894    2703.8992   -36825.793    64.737435 
   31550    146.92137   -1436.4557    134252.95   -34133.978     2780.073   -36914.051    64.953047 
   31600    141.97552   -1485.9074    134278.25   -34116.681    2686.4866   -36803.167    65.030621 
   31650     142.7376   -1474.4464    134263.32   -34110.143    2700.9068    -36811.05    65.296816 
   31700    140.68915   -1179.2018    134298.71   -34169.155    2662.1457     -36831.3    65.377317 
   31750    141.15508   -1377.4274    134405.44   -34182.234    2670.9622   -36853.197    65.527465 
   31800    142.65343   -1272.5954    134254.21   -34198.576    2699.3141    -36897.89    65.568472 
   31850    141.76929   -1381.4561    134218.83   -34151.183    2682.5843   -36833.767    65.572392 
   31900    140.59669   -1390.4485    134145.45   -34197.422    2660.3962   -36857.819    65.646693 
   31950    141.31344   -973.36284    134095.87   -34188.851    2673.9587    -36862.81    65.699589 
   32000    144.05481   -1216.6437    134110.68   -34114.083    2725.8314   -36839.915    65.626114 
   32050    141.12093   -1333.1055    134006.61    -34185.86     2670.316   -36856.176    65.861354 
   32100    144.04687   -1162.9487    133850.16   -34185.346    2725.6812   -36911.027    65.910908 
   32150    138.35141   -1303.5623    133843.59   -34186.687    2617.9105   -36804.598    66.019317 
   32200    143.40482   -1342.2431    133818.32    -34160.02    2713.5321   -36873.553    66.045611 
   32250    138.34437   -1137.6572    133847.62   -34210.761    2617.7774   -36828.539     66.11339 
   32300    139.70566   -1376.1205    133810.62   -34249.777     2643.536   -36893.313     66.09446 
   32350    141.59297   -1154.8542    133797.59   -34195.724    2679.2479   -36874.972     66.19738 
   32400    141.15814   -1289.3152    133748.68   -34190.017      2671.02   -36861.037    66.300404 
   32450    141.48519   -1314.1383    133721.32   -34156.025    2677.2086   -36833.234    66.361358 
   32500    141.31554   -1190.5231    133694.37   -34148.854    2673.9984   -36822.852    66.402374 
   32550    143.53302   -1283.5893    133660.04   -34133.769    2715.9579   -36849.727    66.445354 
   32600    138.10153   -1254.3599    133651.15   -34175.712    2613.1824   -36788.894    66.425518 
   32650    142.37231   -1627.2635    133666.66   -34172.289    2693.9947   -36866.284    66.559431 
   32700    140.60496   -1364.0152    133586.13   -34158.244    2660.5527   -36818.797    66.660118 
   32750    138.86122   -1436.3518    133536.36   -34151.945    2627.5574   -36779.502    66.869068 
   32800    141.50463   -1092.2771    133561.97   -34142.872    2677.5764   -36820.449    66.997566 
   32850    139.98815   -1005.9731    133642.88   -34152.441    2648.8813   -36801.323    66.950932 
   32900    141.45003   -1247.7738     133700.8    -34169.17    2676.5431   -36845.713    67.032512 
   32950    137.76516   -1051.0985    133735.89   -34199.795    2606.8175   -36806.612    67.256112 
   33000    140.94047   -938.22571    133778.14   -34154.252    2666.9013   -36821.153    67.328691 
   33050    143.45055   -1181.3859    133800.57   -34118.989    2714.3975   -36833.386    67.331199 
   33100    138.53348   -1283.6387    133730.31   -34197.468    2621.3557   -36818.824    67.503224 
   33150     142.2265   -978.79133     133699.5   -34166.886    2691.2357   -36858.122    67.452215 
   33200    142.11087   -1092.7633    133744.22   -34205.391    2689.0478   -36894.439    67.562308 
   33250    141.75812   -1058.9538    133799.82   -34227.483     2682.373   -36909.856    67.729185 
   33300    142.23285   -1003.6875    133827.11   -34191.214    2691.3559   -36882.569    67.840529 
   33350    141.33393   -1223.7482    133852.41   -34179.793    2674.3463   -36854.139    67.995438 
   33400    142.85535   -1209.1102    133878.14   -34220.204    2703.1349   -36923.339    68.103153 
   33450    142.15367    -1023.108    133841.72   -34203.492    2689.8576    -36893.35    68.211752 
   33500    138.52561   -1335.1144    133790.69   -34210.593    2621.2069     -36831.8    68.219698 
   33550    141.77758   -986.37221    133810.93   -34268.972    2682.7412   -36951.714    68.196972 
   33600    139.53808   -1096.4564    133807.97   -34273.721     2640.365   -36914.086    68.283119 
   33650     139.8783   -931.67061    133868.69    -34274.51    2646.8026   -36921.312    68.349338 
   33700     139.3607   -1122.4866    133860.25   -34242.175    2637.0085   -36879.183    68.451698 
   33750    141.47402   -1022.3236    133881.34   -34210.023    2676.9971    -36887.02    68.469533 
   33800    144.63816   -744.10237    133917.94   -34158.804    2736.8695   -36895.674    68.575085 
   33850    143.23768   -938.28303    133939.55   -34154.391    2710.3695   -36864.761     68.67797 
   33900    141.41225   -1284.6626    133982.31   -34204.006    2675.8284   -36879.834    68.730648 
   33950    145.16297   -904.89292    134039.38   -34212.928    2746.8001   -36959.728     68.90537 
   34000    141.14282   -1115.4493    134091.52   -34190.402    2670.7302   -36861.132    69.060132 
   34050    140.69121   -1130.3567    134232.93   -34219.136    2662.1848   -36881.321    69.300839 
   34100    141.70442   -1141.4566    134289.86   -34212.947    2681.3569   -36894.304    69.492902 
   34150    142.73812   -1154.0779    134307.25   -34209.759    2700.9167   -36910.675    69.582676 
   34200    143.13767   -1141.3282       134333   -34176.121    2708.4771   -36884.598    69.625124 
   34250    142.29629    -1169.217    134376.33   -34197.412    2692.5563   -36889.969     69.59832 
   34300    141.54857   -1328.7871     134377.1   -34245.343    2678.4079   -36923.751    69.723878 
   34350    142.91746    -1385.415    134336.53   -34266.834    2704.3103   -36971.144    69.651455 
   34400    140.61193   -1000.4427    134315.18   -34287.733    2660.6846   -36948.418    69.608263 
   34450    140.36636   -1577.1473    134345.83   -34284.014    2656.0379   -36940.052    69.744326 
   34500    140.87677   -1327.9153    134287.33   -34311.977    2665.6958   -36977.673    69.851459 
   34550    142.91037   -1289.7244    134253.47   -34317.192    2704.1761   -37021.368    69.956326 
   34600    139.75985   -1344.3438    134204.42   -34302.674    2644.5613   -36947.235    69.947368 
   34650    143.45834   -1035.6527    134157.31   -34265.221    2714.5448   -36979.766    69.963211 
   34700    142.46504   -1620.4592    134109.93   -34232.037    2695.7494   -36927.786    69.972341 
   34750     141.2144   -1283.6245    134074.24   -34286.265    2672.0847    -36958.35    70.264652 
   34800    139.42127   -1201.4366    134095.55   -34329.089    2638.1546   -36967.244    70.374532 
   34850    139.68556   -1234.9158    133989.82   -34312.628    2643.1556   -36955.783    70.428344 
   34900    137.72101   -1132.6733    133951.52   -34315.168    2605.9821    -36921.15    70.631549 
   34950    135.31939   -1020.7817    134006.14    -34374.37    2560.5382   -36934.909     70.85202 
   35000    139.85839   -1318.4699    134136.94   -34360.048    2646.4259   -37006.474    70.791239 
   35050    138.98703   -1396.7604    134198.29   -34322.095    2629.9378   -36952.033    71.024047 
   35100    137.58459   -965.59248    134142.22   -34329.147    2603.4007   -36932.548    71.008499 
   35150     137.5028   -1168.1361    134164.92   -34345.115     2601.853   -36946.968    71.075702 
   35200    139.28338   -1045.0784    134207.96   -34405.084    2635.5455   -37040.629    71.233458 
   35250     141.2084   -1290.9268    134254.58   -34353.258    2671.9711   -37025.229    71.214121 
   35300    140.93112   -963.08434    134259.78   -34301.644    2666.7244   -36968.368    71.259045 
   35350    136.77407   -1223.8996    134273.24   -34342.199    2588.0639   -36930.263    71.228341 
   35400    139.78261   -1287.2403    134288.29   -34283.327    2644.9921   -36928.319    71.154349 
   35450     138.7477   -1164.9019    134338.25   -34285.938    2625.4093   -36911.347    71.161421 
   35500    141.01743   -1290.7209    134342.98   -34294.529    2668.3574   -36962.887    71.427404 
   35550     138.9748   -1243.2002    134289.66   -34287.923    2629.7064   -36917.629    71.390399 
   35600    139.34981   -1020.2045    134322.83   -34264.469    2636.8025   -36901.272    71.508455 
   35650    142.95787   -1269.9831    134362.69   -34166.311    2705.0748   -36871.385    71.418285 
   35700    142.60951   -1126.5663    134312.85   -34175.323    2698.4831   -36873.806    71.434993 
   35750    139.95762   -1305.7452    134371.41   -34213.371    2648.3036   -36861.674    71.382438 
   35800    142.63397   -1243.8452    134361.04   -34221.708    2698.9459   -36920.654     71.13478 
   35850    141.19002   -1054.0992    134374.78   -34163.404    2671.6232   -36835.027    71.261092 
   35900    140.68972    -1038.781    134385.86   -34139.034    2662.1566    -36801.19    71.303141 
   35950    142.75569   -1100.8764    134344.82    -34128.69    2701.2492   -36829.939    71.363652 
   36000    139.68661   -1092.2883    134322.85   -34164.789    2643.1756   -36807.964    71.456316 
   36050    140.92984   -1301.0932    134248.02   -34142.653    2666.7001   -36809.353    71.365869 
   36100    143.85047   -1082.2494    134301.06   -34102.706    2721.9648   -36824.671    71.425704 
   36150    141.75103   -991.84646    134387.78   -34036.113    2682.2389   -36718.352    71.451671 
   36200    142.01204   -1226.4042    134435.94   -34107.787    2687.1778   -36794.965    71.620777 
   36250     143.2635   -1108.6762     134373.6   -34072.699    2710.8581   -36783.557    71.591981 
   36300    144.38382   -1148.7343    134354.77   -34087.826    2732.0569   -36819.883    71.611423 
   36350    144.27281    -1392.229    134263.54   -34106.213    2729.9564   -36836.169    71.720716 
   36400    139.63737   -1461.0069    134223.73   -34135.391    2642.2438   -36777.634     71.75026 
   36450    144.29384   -1090.1157    134235.77   -34171.795    2730.3544   -36902.149    71.800905 
   36500    142.69877   -1315.0325    134091.72    -34125.73    2700.1721   -36825.902    72.093466 
   36550    139.81768   -1207.3029    134025.46   -34185.043    2645.6555   -36830.699    72.265766 
   36600    142.07667   -1062.3574    133966.33   -34187.267    2688.4006   -36875.667    72.411322 
   36650    140.42595   -1066.1497    134013.92   -34236.315    2657.1654   -36893.481     72.70354 
   36700     139.6307    -1228.934     134029.3   -34220.969    2642.1175   -36863.087    73.032312 
   36750    139.52702   -1255.8675    134029.24   -34202.653    2640.1556   -36842.808    73.153562 
   36800    139.87214   -1213.4327    133972.22   -34201.778    2646.6862   -36848.465    73.241438 
   36850     142.0776   -1135.0844    133935.85   -34215.856    2688.4182   -36904.274    73.595507 
   36900    139.57182   -1110.1203    133950.48    -34224.74    2641.0034   -36865.743    73.584884 
   36950    139.12682   -1269.8626    133939.89   -34288.065     2632.583   -36920.648    73.629986 
   37000    139.39673   -1354.7229    133841.46   -34317.398    2637.6904   -36955.088    73.818032 
   37050    137.78985   -1069.3976    133812.68   -34300.172    2607.2847   -36907.456    73.857552 
   37100    140.28518   -1002.6434    133791.32   -34304.668    2654.5017    -36959.17    73.878902 
   37150    139.52341   -1038.4243    133789.55   -34291.532    2640.0874   -36931.619    73.906339 
   37200    137.84296   -1241.2746    133751.71   -34284.897    2608.2896   -36893.187    73.885215 
   37250    139.39975   -819.30365    133803.77   -34274.769    2637.7475   -36912.517    73.845656 
   37300    141.50348   -1365.1731     133824.2   -34239.506    2677.5547    -36917.06    73.951591 
   37350    138.12389   -1245.7142    133730.86   -34265.922    2613.6055   -36879.528    73.777703 
   37400    138.03059   -1201.6244     133743.8   -34319.801    2611.8399   -36931.641    73.808445 
   37450    137.87491   -1063.7517       133747   -34303.454    2608.8942   -36912.348    73.725365 
   37500    142.11226   -1051.9681    133797.75   -34248.995    2689.0742    -36938.07    73.952697 
   37550    138.96016   -1280.7557    133794.98   -34236.239    2629.4295   -36865.669    74.049653 
   37600    141.52331   -1336.9093    133715.22    -34191.44    2677.9298    -36869.37    74.281737 
   37650     142.5077   -1182.0876     133735.1   -34194.029    2696.5567   -36890.586    74.438256 
   37700    140.73239   -1233.7366    133760.71   -34170.844    2662.9639   -36833.808     74.63189 
[...]
   34250    255.54265     -144.529    887111.01   -27343.089    4835.4246   -32178.513    23663.499 
   34300    247.79599   -71.204485    895511.19   -27332.274    4688.8409   -32021.115    24146.987 
   34350     252.5781   -51.132265     904276.2   -27340.047    4779.3288   -32119.376    24644.133 
   34400    249.37807   -124.90271    912946.45   -27364.331    4718.7773   -32083.108    25146.712 
   34450    248.63667   -37.702427    921485.08   -27337.641    4704.7483   -32042.389    25642.813 
   34500    249.50291   -97.046473    930440.64   -27347.954    4721.1395   -32069.093    26162.842 
   34550    250.06937    -31.92952     939442.2    -27377.65    4731.8581   -32109.508    26703.358 
   34600    247.77503   -59.285689     948615.4   -27414.287    4688.4443   -32102.731    27254.072 
   34650    255.49992   -1.0393571    957748.31    -27395.83     4834.616   -32230.446    27817.302 
   34700    254.58942   -91.508878    967363.05   -27386.419    4817.3873   -32203.807    28413.155 
   34750    249.80576   -47.715872    976898.82   -27393.809    4726.8702   -32120.679      29005.7 
   34800    249.89452    -59.33476    986541.79   -27405.418    4728.5496   -32133.968    29612.967 
   34850     246.0039   -76.519216    996428.07   -27406.113    4654.9307   -32061.044     30245.77 
   34900    246.70218   -49.760357      1006667   -27420.904    4668.1436   -32089.047    30901.365 
   34950    254.70305   -40.694935    1016801.2   -27390.452    4819.5375   -32209.989    31553.871 
   35000     249.8029   -59.494142    1027038.4   -27375.165     4726.816   -32101.981    32227.373 
   35050     249.2495     4.559918    1037344.1   -27392.289    4716.3445   -32108.633    32911.739 
   35100    252.53524    -15.89804    1048005.7   -27414.427    4778.5177   -32192.945    33622.892 
   35150    249.76978   -75.611017    1058774.3   -27435.882    4726.1893   -32162.071    34359.096 
   35200    253.57164   -109.55752      1069704    -27437.75    4798.1288   -32235.879    35115.738 
   35250    246.57532   -34.028032    1080707.7   -27405.582    4665.7431   -32071.325    35886.874 
   35300    248.60145   -46.589323    1092022.6   -27383.674    4704.0819   -32087.756    36686.166 
   35350    251.26247   -2.5506503    1103637.7    -27363.25    4754.4342   -32117.684    37513.958 
   35400    241.67639   -24.238879    1115268.7   -27404.047    4573.0446   -31977.092    38353.785 
   35450    251.66599   -81.136366    1126967.6    -27368.21    4762.0697    -32130.28    39206.939 
   35500    250.38095    23.011763    1138927.9   -27344.815     4737.754   -32082.569    40080.306 
   35550    249.09622   -40.219418    1151264.4   -27369.425     4713.444   -32082.869    40991.703 
   35600    252.02632   -48.357157    1163543.9   -27341.509    4768.8879   -32110.397    41913.682 
   35650    247.97428   -24.021115    1176129.4    -27311.96    4692.2145   -32004.175    42869.226 
   35700    252.65802    6.5266658    1188911.5   -27347.572    4780.8411   -32128.414    43849.971 
   35750    249.04601   -19.813748    1201921.1   -27364.154    4712.4939   -32076.648    44864.108 
   35800     250.2732    -82.75214    1215127.2   -27370.806    4735.7151   -32106.521    45904.493 
   35850    251.49873   -50.162558      1228381   -27339.761    4758.9047   -32098.666    46960.074 
   35900    249.87112   -26.339806    1242140.3    -27312.96    4728.1068   -32041.067    48073.109 
   35950    251.54481   -54.694968    1255909.5   -27336.173    4759.7767    -32095.95    49203.659 
   36000    249.54927   -26.479455    1270235.9   -27357.601    4722.0168   -32079.618    50381.459 
   36050    250.53015   -20.713432    1284527.6   -27396.533    4740.5771    -32137.11     51562.07 
   36100      249.299   -73.700842    1298891.4   -27365.342    4717.2811   -32082.623     52775.87 
   36150    252.62183   -65.956566    1313665.2    -27355.73    4780.1564   -32135.887    54041.848 
   36200    248.67131   -24.755715    1328628.3   -27366.405    4705.4038   -32071.809     55336.99 
   36250    250.70824   -15.412089    1343868.4   -27351.465     4743.947   -32095.412    56668.774 
   36300    249.81845   -17.224758    1359548.3   -27388.989    4727.1103   -32116.099    58072.732 
   36350    251.75664   -44.114656    1375677.2   -27369.787    4763.7851   -32133.572    59522.794 
   36400    251.81222   -86.102826    1391961.6   -27389.008    4764.8366   -32153.844    60998.018 
   36450    244.93375   -35.504744      1408100   -27366.721    4634.6811   -32001.402    62472.959 
   36500    246.27838   -43.248988    1424596.8   -27359.993    4660.1244   -32020.117    64015.017 
   36550    248.77171   -30.613007    1441457.9   -27337.415    4707.3036   -32044.719    65619.006 
   36600    254.94531   -30.141119      1458789   -27316.308    4824.1217    -32140.43    67278.024 
   36650    253.63777   -64.415524    1476461.8   -27325.544      4799.38   -32124.924    68998.144 
   36700    248.13625   -79.371292    1494338.3    -27321.97    4695.2794   -32017.249    70762.967 
   36750    256.26185   -33.179978    1512561.8   -27353.412    4849.0334   -32202.445     72577.14 
   36800    251.89432   -48.413996    1530931.7   -27337.362    4766.3902   -32103.752    74433.135 
   36850     254.6652   -50.116428    1549862.1    -27338.77    4818.8213   -32157.591    76368.518 
   36900    251.94748     -40.5471    1569378.4   -27359.397    4767.3961   -32126.793    78397.516 
   36950    248.29055     -26.2478    1588984.4   -27364.169    4698.1991   -32062.368    80446.656 
   37000    244.09807   -21.501754    1608956.3   -27402.443    4618.8681   -32021.311    82564.465 
   37050    245.73129   -25.889949    1629347.2    -27413.22    4649.7723   -32062.992    84751.453 
   37100    249.04712   -20.222559    1649830.2   -27390.149    4712.5149   -32102.664    86983.675 
   37150    252.23522   -29.031532    1670936.4   -27394.756    4772.8408   -32167.597    89335.332 
   37200    258.15451   -31.438779    1692538.7   -27411.823    4884.8467    -32296.67    91763.928 
   37250    253.01826   -3.6859412    1714314.2   -27398.375    4787.6576   -32186.032    94231.801 
   37300    251.86775   -36.030326    1736909.2   -27429.828    4765.8874   -32195.715    96825.035 
   37350    250.41906   -3.8672781    1759615.1   -27406.151    4738.4752   -32144.627    99479.599 
   37400    250.84782   -27.112178    1783013.6   -27403.141    4746.5881   -32149.729     102244.7 
   37450    254.78088   -51.605288    1806681.5   -27430.269    4821.0102   -32251.279    105078.61 
   37500    249.88524    2.3232861      1830535   -27415.117    4728.3741   -32143.491     107997.1 
   37550    253.13681   -57.465081    1855659.3   -27409.995    4789.9009   -32199.896    111070.34 
   37600    251.53477    -23.68835    1880937.2   -27424.125    4759.5867   -32183.712    114221.97 
   37650    251.42243   -25.864444    1906401.6   -27401.433    4757.4609   -32158.893    117444.52 
   37700    254.52731   -2.7402765    1932570.7   -27398.584    4816.2121   -32214.796    120803.15 
   37750    245.57032   -1.1183858    1959216.3   -27406.675    4646.7264   -32053.402    124265.45 
   37800    249.59455   -23.749057    1986523.4   -27438.301    4722.8736   -32161.174    127886.71 
   37850    248.62477   -38.759202    2014385.6   -27461.752    4704.5232   -32166.275    131625.54 
   37900    247.37441   -27.688008    2042678.4   -27473.639    4680.8637   -32154.503    135480.06 
   37950    250.51009   -6.6497242    2071849.7   -27480.359    4740.1976   -32220.556    139519.28 
   38000     244.4992   -22.009518    2101610.6   -27481.429    4626.4584   -32107.888    143689.15 
   38050    248.85892   -53.202348      2131594   -27486.345    4708.9539   -32195.299    147953.17 
   38100    247.46325   -16.695444    2162453.2   -27503.578    4682.5446   -32186.123    152412.07 
   38150    251.33392    27.418634    2194239.3   -27467.521    4755.7862   -32223.307    157087.56 
   38200    244.64457   -21.330504      2226553   -27470.897    4629.2091   -32100.106    161902.63 
   38250    251.06355   -1.2498011    2259464.3    -27537.83    4750.6702     -32288.5     166899.8 
   38300     250.5462    7.2943089    2293382.4   -27554.691    4740.8809   -32295.572    172115.31 
   38350    247.89602    -3.794686    2328227.1   -27572.102    4690.7336   -32262.836     177548.9 
   38400    245.07659   -43.556203    2363773.3   -27582.356    4637.3839    -32219.74    183139.68 
   38450    254.45265   -31.369441    2399472.5   -27533.177    4814.7994   -32347.977    188870.98 
   38500    244.55807   -43.010998    2436139.6   -27541.609    4627.5723   -32169.182    194846.34 
   38550    245.71768   -2.0786722    2473751.6   -27569.506    4649.5146   -32219.021    201097.67 
   38600    245.08325   -16.345448      2512875   -27568.367    4637.5099   -32205.877    207686.21 
   38650    248.82004    -6.883795    2552276.8   -27552.334    4708.2181   -32260.552    214415.79 
   38700    241.51782   -11.911431    2592812.9   -27519.916    4570.0442    -32089.96    221457.52 
   38750    249.00822   -23.397712    2634304.1   -27510.083    4711.7788   -32221.862    228805.23 
   38800     250.0093   -4.3822919    2676570.1    -27513.83    4730.7216   -32244.552    236426.38 
   38850    246.98879   -20.030879    2720272.6   -27517.385    4673.5668   -32190.951    244419.16 
   38900    245.95785   -20.226462    2764756.7   -27515.121    4654.0593    -32169.18    252708.99 
   38950    250.25175   -18.073924    2810254.6   -27490.926    4735.3091   -32226.236    261333.87 
   39000    251.13055   -11.256505    2856781.4   -27503.297    4751.9381   -32255.236    270301.42 
   39050    253.61224   -3.5633056    2905043.5   -27496.609    4798.8969   -32295.506    279728.17 
   39100    246.12455   -24.874498    2954311.2   -27500.233    4657.2136   -32157.446    289530.73 
   39150    244.84859   -25.401952    3004642.6   -27459.281    4633.0695   -32092.351    299743.65 
   39200    248.16748   -13.070127    3056372.2   -27462.518    4695.8703   -32158.389    310435.89 
   39250     250.3629   -30.491885    3109659.6   -27487.486    4737.4124   -32224.899    321595.95 
   39300    248.48017   -28.332936    3164326.6   -27554.135    4701.7871   -32255.922    333246.49 
   39350    241.20421   -22.972152    3220028.9   -27553.636      4564.11   -32117.746    345348.89 
   39400      243.539   -22.502483    3277019.1   -27555.163    4608.2894   -32163.453    357957.37 
   39450    241.36467   -6.6739916    3335602.2   -27536.833    4567.1462   -32103.979    371203.61 
   39500    244.12033   -3.2407132    3396071.3   -27535.331    4619.2893    -32154.62    385116.48 
   39550    248.44384   -9.0728153    3458205.8   -27548.641    4701.0996    -32249.74    399693.46 
   39600    246.79374   -16.748302    3522001.2   -27554.965    4669.8761   -32224.842    414940.11 
   39650    249.93616   -4.7877096    3587722.6   -27533.045    4729.3375   -32262.383    430956.26 
   39700     251.3575  0.079967811    3655583.5     -27567.8    4756.2324   -32324.032    447749.04 
   39750    248.11254   -25.153154      3725289   -27580.529    4694.8307   -32275.359     465329.8 
   39800    242.00874   -25.759101      3796566   -27604.211    4579.3335   -32183.544     483647.4 
   39850    252.46206  0.028798706      3869844   -27548.679    4777.1331   -32325.812    502867.74 
   39900    248.99991   -20.714238    3945142.1   -27559.064    4711.6217   -32270.686    523013.58 
   39950     250.1858   -18.779742    4022502.7   -27523.916    4734.0612   -32257.978     544170.9 
   40000    250.38974   -9.9366012    4102475.5   -27484.303    4737.9204   -32222.224    566519.43 
   40050    249.45751   -8.8092208    4185225.6   -27458.001    4720.2805   -32178.281    590073.08 
   40100     250.5015    1.8745928    4270335.9   -27485.262    4740.0349   -32225.297    614794.58 
   40150    250.04591   0.68854596    4358223.1   -27475.753    4731.4143   -32207.167    640867.37 
   40200    251.95411   -4.9767546    4448860.4   -27479.965    4767.5215   -32247.487       668277 
   40250    250.23391   -8.5297461    4541809.3   -27403.324    4734.9717   -32138.296    696966.47 
   40300    249.71589   -18.238391    4637707.7   -27411.733    4725.1695   -32136.903    727187.81 
   40350    250.05747   -23.907581    4736568.2   -27384.698     4731.633   -32116.331    759078.05 
   40400    253.79109   -9.8050069    4838842.3   -27398.934    4802.2812   -32201.215    792786.68 
   40450    255.48801   -3.9982224    4944893.3   -27387.424    4834.3906   -32221.815    828498.61 
   40500    251.42592   -18.512654    5054542.8   -27437.106    4757.5272   -32194.633    866240.51 
   40550    247.34184   -8.6033749    5167279.8   -27449.282    4680.2475    -32129.53    905872.56 
   40600    246.83594    -20.67211    5283772.5   -27433.899    4670.6746   -32104.573    947811.88 
   40650    251.36319    -16.31769    5403840.5   -27439.075      4756.34   -32195.415    992090.56 
   40700    250.94917   -4.1154157    5528315.3   -27406.277    4748.5059   -32154.783    1039034.6 
   40750    246.52086   -8.5130777    5657566.4   -27419.164    4664.7126   -32083.877      1088918 
   40800    249.34191   -9.0072829    5791440.2   -27442.186     4718.093   -32160.279    1141922.6 
   40850    247.71983    -9.736817      5929896   -27445.257    4687.3997   -32132.657    1197957.4 
   40900    251.78545   -3.1902961    6073196.8   -27411.883    4764.3301   -32176.213    1257429.4 
   40950    255.84224   -3.0080305    6222137.2   -27390.615    4841.0934   -32231.708    1320702.7 
   41000    250.52178   -10.116107    6377109.3    -27400.51    4740.4188   -32140.928    1388143.4 
   41050    244.35933    -6.033415    6537342.1   -27421.015    4623.8117   -32044.827    1459612.5 
   41100    250.37479   -7.5144378    6703191.6   -27401.991    4737.6375   -32139.629    1535477.1 
   41150    249.32909   -18.936382      6875360   -27354.167    4717.8505   -32072.017    1616344.4 
   41200    249.89667    3.6983868    7054202.4   -27366.559    4728.5904    -32095.15    1702584.9 
   41250    245.95324   -9.3850064    7240732.9   -27351.775    4653.9721   -32005.747    1794930.7 
   41300    246.19888   -12.459422    7434037.4   -27339.416    4658.6201   -31998.036    1893186.4 
   41350    247.15154   -7.0389868    7635488.7   -27332.007    4676.6464   -32008.653    1998461.8 
   41400    250.88364   -7.3521948    7845795.2    -27338.85    4747.2659   -32086.116    2111427.1 
   41450    253.78977   -4.5018848    8064618.5   -27375.034    4802.2563    -32177.29    2232150.4 
   41500    248.24618    -7.185697      8292904   -27401.544    4697.3594   -32098.904    2361681.1 
   41550    250.38801   -1.9547852    8530002.8   -27406.024    4737.8875   -32143.911    2500017.8 
   41600    246.75986   -1.9403114    8778271.2   -27431.292     4669.235   -32100.527      2649220 
   41650    248.62393    -2.436696    9037993.7   -27424.098    4704.5073   -32128.605    2809827.8 
   41700    248.37308   -6.9291286    9308485.3   -27436.134    4699.7607   -32135.895    2982072.4 
   41750     247.9526     -8.30857    9590953.1    -27436.89    4691.8044   -32128.695    3167546.1 
   41800    250.06283   -1.8292682    9886508.5   -27410.601    4731.7344   -32142.336    3367627.4 
   41850    253.85765     2.716639     10196902   -27406.194    4803.5407   -32209.735    3584392.1 
   41900    253.11408   -1.9102596     10522700   -27450.855    4789.4708   -32240.326    3819053.5 
   41950    253.31576   -3.2753598     10862963   -27468.539     4793.287   -32261.826    4071974.7 
   42000    250.58574   -7.9736857     11220074   -27447.043    4741.6289   -32188.672    4346256.9 
   42050    247.09407   -10.015588     11594970   -27454.264     4675.559   -32129.823    4643904.2 
   42100    247.23499   -6.1659544     11989156   -27451.931    4678.2256   -32130.157    4967464.8 
   42150    254.81882    -4.581082     12403296   -27394.001    4821.7282   -32215.729    5319104.1 
   42200    254.39158   -3.1114985     12839949   -27377.407    4813.6438   -32191.051    5702999.9 
   42250    253.67587   -3.8875944     13300018   -27393.542    4800.1011   -32193.643    6121757.1 
   42300     252.9278    -4.534696     13785785   -27430.913    4785.9459   -32216.859    6580112.2 
   42350    249.24574   -1.4308536     14297948   -27428.201    4716.2732   -32144.474    7081218.8 
   42400    256.22711   -8.4687952     14838582   -27418.649    4848.3761   -32267.025    7630124.7 
   42450    248.60349   -4.9650627     15411653   -27415.377    4704.1205   -32119.498      8234392 
   42500    255.48909   -2.7473356     16017889   -27437.614    4834.4111   -32272.025    8898637.5 
   42550    246.49449    -6.300943     16660272   -27432.782    4664.2136   -32096.996    9630610.6 
   42600    249.88253   -3.5137162     17341904   -27417.123    4728.3228   -32145.446     10439017 
   42650    248.58467   -4.1071899     18066391   -27425.757    4703.7644   -32129.522     11334010 
   42700    250.40166   -2.0731825     18837373   -27405.986    4738.1459   -32144.132     12326750 
   42750    248.45437   -3.0810414     19659022   -27438.303    4701.2988   -32139.602     13430702 
   42800    251.21328   -2.5661953     20535623   -27458.058    4753.5034   -32211.561     14660615 
   42850    250.80338   -3.3582161     21471550   -27440.437    4745.7472   -32186.184     16033182 
   42900     247.0089   -1.1363597     22473094   -27456.228    4673.9474   -32130.175     17570220 
   42950    248.28142   -3.9179195     23546414   -27432.022    4698.0262   -32130.048     19295456 
   43000    251.17541   -3.7982492     24698188   -27435.504    4752.7869    -32188.29     21236695 
   43050    254.48826  -0.63746393     25936637   -27433.181    4815.4733   -32248.654     23427897 
   43100    252.83458  -0.27036988     27270755    -27439.43     4784.182   -32223.612     25908901 
   43150    252.09042   -3.4674972     28711768    -27478.26    4770.1008   -32248.361     28728713 
   43200    247.41065   -2.1928357     30269529   -27496.683    4681.5494   -32178.233     31940524 
   43250    247.91868   -2.3481415     31956956   -27470.262    4691.1623   -32161.424     35611648 
   43300     249.6353   -2.1872118     33787889   -27450.081    4723.6446   -32173.726     39820927 
   43350    256.59398   -3.7068015     35782164   -27397.539     4855.318   -32252.857     44673460 
   43400      255.382   -2.6538337     37959092    -27408.76    4832.3848   -32241.145     50288777 
   43450    251.09008   -1.8780904     40341420   -27411.465    4751.1722   -32162.637     56814626 
   43500    250.85093   -1.7194238     42954728    -27430.96     4746.647   -32177.607     64430589 
   43550    251.83649   -1.7270632     45829729    -27401.09    4765.2959   -32166.386     73362656 
   43600    256.24421   -1.7607977     49002758   -27341.229    4848.6996   -32189.928     83893901 
   43650    253.12093  -0.63623137     52518864   -27342.157    4789.6004   -32131.757     96388543 
   43700    257.64635   -2.6491862     56428403   -27359.719    4875.2312    -32234.95 1.1129873e+08 
   43750    259.21031    -1.439473     60789518   -27340.758    4904.8247   -32245.582 1.2919599e+08 
   43800    256.55604   -2.1936691     65678791   -27312.955    4854.6002   -32167.556 1.5084624e+08 
   43850     259.4383  -0.66841422     71181392   -27239.627    4909.1389   -32148.766 1.7721822e+08 
   43900    259.01019   -1.9598115     77407306   -27162.368    4901.0381   -32063.406 2.0961687e+08 
   43950    264.01287   -1.2777897     84489686   -27163.439    4995.6997   -32159.139 2.4977816e+08 
   44000    266.35364   -1.0638767     92591197   -27131.995    5039.9922   -32171.987 3.0003105e+08 
   44050    265.77852  -0.89494621 1.0191818e+08   -27064.746    5029.1095   -32093.855 3.6358633e+08 
   44100    268.