LAMMPS data file via write_data, version 29 Oct 2020, timestep = 100000

6368 atoms
2 atom types

0.0 49.22 xlo xhi
0.0 49.019635930410494 ylo yhi
1.7166294910502522 58.34537050894921 zlo zhi

Masses

1 18.015
2 12.01

Atoms # atomic

63 1 2.181674612257912 1.690192733757433 3.938379396766034 1 0 0
4995 1 24.399429162327504 2.574268773804989 16.29969312948795 0 1 0
4744 1 0.41858255187470805 14.102708997394773 7.554363900825238 1 0 0
3 1 6.486149760584101 1.291576022379512 5.552504667084118 0 1 1
1650 1 15.807506937973915 23.970453646140122 8.294225544443483 0 0 0
2 1 7.100002131106446 1.9902726644512132 3.11997979126941 0 1 0
262 1 9.740323342844764 3.7647592993479813 5.371012565892625 0 0 0
292 1 10.740206999280632 3.5385387338770586 2.7254071055001274 0 1 0
1864 1 10.268962619969559 1.0419910599048183 5.909630697954357 0 1 0
6250 1 15.08438116507463 2.3853973362355685 2.238089011628503 0 1 1
1439 1 19.206547017213126 2.5789428134544403 4.5728144288821415 0 1 1
4699 1 2.3226426520681787 12.60312054477748 2.089081858415538 1 0 0
4715 1 0.8613359735159649 17.953295069672944 3.1098945170992858 1 0 0
4839 1 23.108037621015914 11.353468200474378 10.382404766543068 0 0 0
3468 1 1.4443368110360137 4.510023259841624 4.525338888610918 1 0 1
295 1 3.651460718546567 12.154797467089994 20.540527644510643 1 0 0
241 1 10.375648045940476 24.25577733364011 16.361216634842577 0 0 0
213 1 3.5975674819744 4.886456715329369 6.054262316913292 1 0 0
1522 1 4.667892212972121 6.455039760388959 3.417788030793928 1 0 1
1594 1 7.08155024884534 7.171407485877643 5.125190867260819 1 0 1
3477 1 17.684683674632275 24.117382037832424 6.165523723849103 0 0 0
37 1 9.213735280308388 8.219585117941305 3.5263886686615002 0 0 0
193 1 7.744635092982624 5.13003943916239 6.5808096523151045 0 0 0
281 1 13.326654745444252 13.567354126108084 19.796638691497282 1 0 0
83 1 13.37447662236937 4.363911954243427 2.7650743279032137 0 0 0
89 1 13.824203557611177 5.163777521916189 5.447270903808922 0 0 0
1746 1 20.16509540455236 5.102632428267596 5.867217250677038 0 1 1
4957 1 17.9119137553038 7.59371272483358 3.768817816096495 0 1 0
4897 1 17.81039052187561 6.270423799358583 6.359041072135886 0 1 1
3545 1 0.4206701842764686 24.37986550248773 9.362404427272054 1 0 0
1929 1 24.308893311688337 5.73009433940209 10.820171297454062 0 1 0
4842 1 21.626801089343168 6.377001987269136 3.6168532418423127 0 1 0
3221 1 2.5136607782475617 8.790429453547171 3.7146996281523004 0 1 0
146 1 3.4753505254382016 7.660169788230928 6.330484004557344 0 1 0
1583 1 1.9343818751404989 11.250661389253214 4.438736750371254 0 0 1
100 1 3.870363490345997 11.268605116350443 6.607782871835743 0 0 0
221 1 11.548341488185262 8.883509311616171 5.056034803606156 0 0 0
87 1 12.297266884975974 11.394022963924675 4.1269111039048685 0 0 1
1502 1 15.394951527684285 8.132197075243882 2.897331035579013 0 1 1
1672 1 14.116388249832461 7.9010663537090435 5.3284281663281785 0 1 1
6 1 15.00712484077945 12.19565056048132 3.898201724691613 0 0 0
134 1 19.039426730857194 9.941935504848812 4.680691298316903 0 0 1
86 1 19.384323115810396 11.493325932691624 2.4056762026004206 0 0 0
3014 1 21.633742993003555 8.718309536299898 5.294483434969413 0 0 0
1511 1 23.233080232684713 10.029166406917337 3.272632804915689 0 0 1
294 1 1.6840864145157866 16.590919228018343 5.847059377242636 0 0 0
160 1 4.465030411428426 14.367649720159479 2.8471367216608607 0 0 0
1586 1 4.349093579935697 15.63220121340835 5.078456104465291 0 0 1
3338 1 6.618445846217132 13.54346714958614 5.688540556287489 0 0 0
1959 1 9.353148325388213 16.971198247082874 6.989609880457903 1 0 0
1607 1 10.398974866343856 15.309083507287305 4.574821195398197 1 0 1
1585 1 10.518097020407387 12.739290528659987 5.630317484252344 0 1 1
1376 1 12.322133536136773 13.059298645012758 7.7375944895028965 0 0 0
92 1 15.129206718704395 15.590816329910727 3.7819624815954285 0 0 1
2973 1 23.846263707261805 1.9297936570202663 6.3029400113644805 0 1 1
56 1 20.51496384821757 13.594047812393747 4.109910887427962 0 0 1
140 1 18.75516386979802 15.091929580565605 5.801666545727973 0 0 0
21 1 21.62537189718098 15.915646772198144 3.44448536869752 0 0 0
1816 1 22.966921277885394 23.795158821815473 9.245890018604197 0 0 0
1834 1 18.708628315158013 0.32764641425631374 16.714249820378534 0 1 0
1963 1 3.4189612966229923 18.963722123343825 2.4987874863606105 0 0 0
2049 1 20.513715150037466 14.533727468733753 20.052677936137744 0 0 0
167 1 6.407101339073948 17.349190864231055 5.750529124907465 0 0 0
112 1 5.3314397393317785 19.670991945600882 4.493148300497127 0 0 0
1803 1 7.857433060766827 19.743272676477766 3.333429811527461 0 0 0
114 1 11.76353386782276 19.093095565825916 4.104235657421105 0 0 0
177 1 9.669097260855619 19.133578896194575 5.468971255698586 0 0 0
1582 1 12.793053547588306 16.622563058490186 4.873273670360037 0 0 0
120 1 17.33366325167539 19.552174528870516 1.9435203089437942 0 0 1
178 1 16.1171794749683 21.011930676052323 3.8515793079059764 0 0 0
4833 1 19.485559339104565 17.439049231573062 2.2325157291628965 0 1 1
103 1 17.679942336224943 17.014493283303782 4.1614620370981665 0 0 0
3214 1 23.14708076801544 17.258044790902645 5.627723022700462 0 1 1
3502 1 23.088698505130612 19.992839847433522 5.909464835453237 0 0 0
1697 1 1.6987658764945825 23.82856385329226 5.321997298697392 0 0 0
1619 1 1.320786422099893 22.347030454084695 2.829455634927733 1 0 0
1676 1 4.605544372862238 23.47450054016051 5.567055237472229 1 0 0
113 1 8.296770689558318 22.303580547517456 2.948403534853272 0 0 0
3578 1 23.063013258375957 17.58318773851837 12.4296377992388 0 0 0
49 1 9.518627690157057 23.508379568279693 5.364618019801308 0 0 0
4812 1 11.816614148757001 23.77656149938217 3.8953754512243477 0 0 1
50 1 9.647424755347867 21.46889895174777 7.11044532451195 0 0 0
1712 1 13.19077991770516 21.487737321446808 4.346408288968907 0 0 0
3425 1 17.140373931392347 23.746700580325637 3.5151446503121946 0 0 0
200 1 17.899824320141153 2.8489038261855337 2.119179645491916 0 0 0
95 1 19.494233464657125 6.368867840273941 1.7292342265936198 0 0 0
3172 1 9.277504255938297 5.710775226393697 2.3468375081884387 0 1 1
1805 1 14.839792798499671 24.30228580214062 16.917269671400902 0 0 0
392 1 21.47595672262086 4.1301932806382 19.518933208111424 0 0 0
3290 1 23.17539278515455 20.773731915557917 3.141442044743467 0 0 0
3252 1 23.970780439124574 23.37394087011807 3.659615545969424 0 0 0
427 1 17.0782305580013 22.355107956321916 17.099778567982273 0 0 0
3144 1 6.232238106058234 24.403339430413325 3.369048712522273 0 0 1
3408 1 1.1197952300288974 3.695205529548768 9.740472569465693 1 0 0
3350 1 8.0209092035503 3.066574068491983 9.452805372787985 0 0 0
137 1 10.177335431322811 1.6282383720834017 8.47698691329054 0 0 0
138 1 12.608245168914918 3.0259175766724513 8.757539228397892 0 0 1
1794 1 14.089139374168026 0.8606065251071041 8.253824957278582 0 0 0
1251 1 18.22477828691726 0.6793047020321895 6.424278987338587 0 1 1
1569 1 16.093023259985088 2.821727705410575 8.90462348509067 1 0 0
1444 1 18.727946066856333 1.716601588070363 8.869324032838978 0 1 1
4683 1 20.341471238653423 3.7493771385288044 9.47178801961039 0 0 1
147 1 23.84799570569316 0.005385350580320945 10.43004773423094 0 0 0
3648 1 0.11324235514976419 8.148927221164767 2.0432317340006634 1 0 1
3325 1 3.639839650960022 4.681644635152148 9.22780198136595 1 0 0
269 1 3.5811172001503895 7.332542173128598 10.033178313725307 0 0 0
130 1 5.799755520658014 3.339824487204648 7.264811955578236 0 1 0
165 1 8.44030606026577 6.229351859094201 9.04446887439913 0 0 1
3129 1 11.77005224760147 4.933965920221668 7.092811158068872 0 1 1
3407 1 11.115806832830573 6.973137055983728 8.801008569685024 0 0 0
1961 1 12.501005800338248 6.6307089385177465 11.07270592445269 0 1 0
3065 1 15.57306026190185 5.193403631060523 7.655609233028489 0 1 1
1576 1 14.593835973553748 7.300102570319919 9.497164237188981 0 1 0
4958 1 19.176094033199266 7.701943423813821 8.230210538631063 0 1 0
170 1 16.478149029123784 6.045381689065362 11.600553975149818 0 0 0
158 1 19.053292842898138 6.088741473610775 10.359355537212132 0 0 0
5061 1 22.082068855954343 4.0373306940929705 7.436357802470227 0 1 0
3027 1 23.219849338889798 6.245977889654921 8.423209825580189 0 0 0
1521 1 1.726892094556625 8.072790829818683 8.264025673475025 0 0 1
3366 1 2.114484117950698 10.85702173786724 9.195682538025075 1 0 1
3559 1 6.266686352568657 8.223470430303552 9.665705925833178 0 0 0
15 1 5.771293897850691 9.07453956462101 6.990121693249016 0 0 1
91 1 8.154185260306425 11.237354832629183 6.787361152284542 0 0 0
1499 1 10.550135236321177 9.475700244319293 7.5204485356060236 0 0 0
145 1 12.771378561365106 10.46728018251445 8.771674630492488 0 0 0
329 1 14.904825041516089 9.31828814173755 7.3288323100670665 0 0 0
163 1 16.752355580788286 11.145314694749072 6.037479248332856 0 0 1
1602 1 17.354927303783406 9.701899077406882 9.117910900672353 0 0 0
3317 1 19.479114987242863 11.266890072513672 7.737669940184095 0 1 0
1473 1 21.524584047270647 9.371631252233174 8.088397718005497 0 1 1
4792 1 22.68351509179174 8.398753782204555 10.724204399593182 0 0 1
135 1 21.98841988242039 11.961082459822611 5.7187790502540565 0 1 0
465 1 5.733270144842325 7.967238761848778 20.42401376073004 0 0 0
24 1 3.433513344364642 13.968477855657618 7.139347183283184 0 0 0
1612 1 21.05955116772263 0.6716825401421155 3.048117814128057 0 0 1
185 1 3.776879550281136 13.330211600535657 10.081508921891487 0 0 0
247 1 6.0002344474903495 14.725083480735384 8.298901649355315 0 0 0
82 1 8.223714161725015 12.927660273554723 8.902658556755764 0 0 0
1937 1 10.634933321847576 14.269375484049055 9.873203369002843 1 0 0
236 1 8.407686186941522 16.25748300060072 10.174493844874071 1 0 0
115 1 16.147142962905473 13.97938694940551 6.1541888661014195 0 0 0
149 1 14.861051451735518 13.92522527389201 8.745375117947995 0 0 0
3343 1 14.766268007179402 16.469822035884366 9.54659049883795 0 0 0
284 1 17.527482922635148 16.52182140754758 10.337910743168878 0 0 1
27 1 19.933078425608013 15.515720484935928 8.341934688580757 0 0 0
1926 1 23.832451161558975 13.289241259013277 7.486474395425947 0 0 0
4675 1 22.55964481854796 16.077754504769388 8.026403590880403 0 0 1
3274 1 20.56765844868001 12.650627634281696 9.715565322384844 0 0 0
3299 1 3.4223219075655518 17.99828311999292 9.771232244512051 1 0 0
3429 1 1.0700667526401924 17.67637543680237 8.326861721478124 0 0 0
356 1 3.0488708887422256 20.458053464179194 11.106479406826168 0 0 0
6314 1 6.078421313183253 17.710695284712497 8.636819277050117 1 0 0
1751 1 6.965142925659146 19.600122876925283 10.221119492268583 0 0 0
156 1 11.485439496359442 16.96519948366439 9.136122395868053 0 0 0
210 1 12.538463819185578 20.992587483984202 6.978245863648056 0 0 0
40 1 13.382788625500272 18.19691287332532 7.216040056344212 1 0 0
161 1 17.262952583961287 19.207127772230077 5.677527111489685 0 0 0
44 1 16.08096997897684 18.83751351899094 7.963633394863102 0 0 0
4771 1 19.453575080234558 18.55708914183021 8.588695072209731 0 0 0
245 1 19.892495309098035 20.29693052405221 6.375979634827999 0 1 1
3275 1 23.671945074031967 18.114745066722385 9.609684482482876 0 0 0
172 1 23.430659162478424 20.884569114336966 8.762206661325786 0 1 0
3404 1 20.775041943894024 19.261573867132253 11.07333999748061 0 0 0
176 1 0.7143214978620441 22.397705754627435 7.540216483978907 0 0 0
324 1 23.560331282673268 9.106341307189357 14.121934369237529 0 0 0
1843 1 13.144478255969616 10.816948052137619 20.366651010906725 0 1 0
1910 1 3.0322267958574796 21.7717769610912 8.659123903328931 0 0 0
183 1 5.268761048385213 21.37924682254333 7.100242924432686 0 0 0
367 1 7.300302368742642 21.86909487005492 9.110884265189117 1 0 0
379 1 12.422114808045889 3.288223776164359 20.4213851176621 0 1 0
1507 1 1.5459551802260385 5.782999730365476 2.082003542189833 0 0 0
116 1 9.940841505432767 22.98961542572253 9.763187215444091 0 0 0
166 1 12.713346944006418 21.701955237780705 11.038608127612207 0 0 0
305 1 14.607112313648598 21.531021074329967 8.849309259991845 0 0 0
3670 1 19.581443821151826 22.667588222353352 7.476252323295248 0 0 0
3479 1 18.247191266719 22.298964600982913 9.99349507310454 0 0 0
3244 1 21.106151084641688 22.156739310419873 10.891763825163864 0 0 1
1801 1 12.08489418678222 22.942395822640812 20.375193983971954 0 0 0
80 1 2.005389151065129 1.3591207107563268 13.53081266839442 0 0 0
129 1 0.3638871454724111 3.2598786184127273 12.299650723621125 0 0 0
1624 1 14.278135796361289 24.250900500581018 12.214675092368514 0 0 1
265 1 5.542813591540533 3.5425895415012536 11.450625423132225 0 1 0
271 1 6.87666021468652 0.951829883580328 13.115143701981916 0 0 0
85 1 8.752331205024289 2.765267973686746 12.387686630094294 0 0 0
208 1 11.638365405946159 2.2353903302695266 13.41091869207713 0 0 0
220 1 11.490856580975809 3.1894464770024027 15.900429332842279 1 0 0
327 1 13.025534541704952 3.6803484213237865 11.440973058481399 0 0 0
415 1 16.055749360275435 2.4161794742648874 14.216061085850974 0 0 0
196 1 15.961544496455792 3.5366296901029854 11.639314266215228 0 0 0
3231 1 18.60427378674105 2.2303808737052337 14.911550376061626 0 0 0
240 1 23.757126178613866 13.45312677580615 19.967093978016443 0 0 0
139 1 20.54687752555205 0.9914575196039623 13.265812401788521 0 0 0
3554 1 22.637781275071298 0.7535089156804313 14.89159763531188 0 1 0
1659 1 22.058701408031645 2.0660483307783433 11.009040937795302 0 1 0
350 1 0.9830875685777893 5.858819201657886 12.906253687763288 1 0 0
219 1 3.4594409338043386 7.3313517251640326 12.842821931877314 0 0 0
30 1 1.1498062983612405 6.0336945494119565 15.777605930464862 0 0 0
144 1 5.787824128970712 5.760262608385863 13.222709455001526 0 0 0
75 1 8.512120695488752 5.771637996753177 12.128289242089137 1 0 0
1617 1 10.458804990741777 7.168973386223649 13.258683786206541 0 0 1
326 1 10.778047531918656 5.73695481582555 15.82128626873591 0 0 0
346 1 15.989833586067553 7.092828521328885 13.950381416641243 0 0 0
354 1 15.331884685347402 5.029583117098655 15.668476360420954 0 0 0
217 1 13.725538706565201 8.446904143278129 13.366732583177107 0 0 0
194 1 21.064582451348933 5.488493187746776 14.050555885683737 0 1 0
225 1 16.571992456383427 22.51300230232787 19.90934797120569 0 0 0
351 1 23.155325250883873 3.8519500410260656 12.943394760030714 0 0 0
3488 1 1.7036300117150205 11.21057488387749 12.055718134979413 1 0 0
3287 1 3.946009156662287 10.11956038334383 12.949030495114416 1 0 1
3413 1 3.7527950309354594 9.609302102144955 15.798622633679622 0 0 0
59 1 6.572927867137555 9.73893540592002 11.865411869814677 0 0 0
211 1 9.895485297231144 12.568822919709742 13.706769319567838 0 0 0
99 1 9.251700675694835 9.860187169215926 13.205872750440037 0 0 1
218 1 15.307868951885352 12.403344542868739 11.088478651579061 0 0 0
215 1 13.147975863017528 10.928430058756687 11.502147284826403 0 0 1
1915 1 13.092781482593505 9.10780722817012 15.782142344989044 0 1 0
79 1 18.364032772722457 8.92065739858494 13.768807728705202 0 0 1
3587 1 17.37149639470339 10.393364385999245 11.754552856992374 0 0 0
5096 1 20.35853886805209 7.594979285681442 12.33871015288328 0 0 0
231 1 18.401435614933728 18.330644746614958 20.563052460691342 0 0 0
3524 1 21.45407808570092 10.623130263489152 12.735424006902706 0 0 0
516 1 22.74036803849822 18.176843390855552 20.009061586070082 0 0 0
235 1 1.7691983090659844 13.75818510764275 13.293231237267658 0 0 0
168 1 3.4290411864651698 15.877323617577892 11.607552552179818 0 0 0
289 1 6.327839489353624 12.374362264991507 10.825816030264775 0 0 0
298 1 7.978816486505873 16.52329621968846 12.84805246061129 0 0 0
287 1 7.413560111992049 13.776263657021913 13.195361691017876 1 0 0
230 1 11.757940997451389 13.354325712680586 11.973587625741821 0 0 0
418 1 12.984447631475437 15.479139922553307 13.420020654655557 0 0 0
1853 1 15.436894532503008 14.04837237596483 13.455939557993627 0 0 0
22 1 17.908360457993 15.4101955911945 12.72665319196753 0 1 0
286 1 19.0758731927743 12.553762779717202 12.17151562929657 0 0 0
5120 1 0.10708029562349698 22.975311738536142 16.654238184752963 1 0 0
2003 1 21.287233330199136 13.954453860363488 16.741977308427654 0 0 0
3441 1 21.50729927071203 13.521038392902812 13.858070441670751 -1 0 0
1409 1 10.540541597158994 15.65735542365935 1.8660636201421967 0 0 1
106 1 5.24578150371308 17.409334939921695 13.346062049965719 0 0 0
239 1 5.164383995807337 19.729012063513412 12.153354485125629 0 0 0
238 1 9.34615555445733 18.998791738481184 11.969707038126282 0 0 0
25 1 11.03070999381661 19.839627664222423 10.031523740547659 0 0 1
19 1 13.168330157881382 17.444927047213653 11.374845474410233 0 0 0
499 1 14.669745921926 19.60813290178544 11.703272385037607 0 0 0
232 1 17.29716775492611 19.610501164758137 10.689039334783276 0 0 0
5260 1 18.892008260615494 18.46572859256592 12.793230932974897 0 0 0
128 1 18.85341211829127 19.54239122051789 15.448754147679518 0 0 0
378 1 23.2521374206477 19.96616583760388 13.902094113775734 1 0 0
169 1 20.813075349613282 16.105765629114913 13.312241382417598 0 0 0
308 1 18.23073389998205 13.055638577543922 19.483251089330132 0 0 0
3442 1 1.0374939094477726 20.91008288833777 12.85207914923249 0 0 0
1869 1 1.9535341610349362 21.501611206433747 15.405849297275855 0 0 0
1913 1 4.212148195157451 0.9316811587445399 11.773898145765832 0 1 0
184 1 3.981497947313009 23.28487928046938 14.497964621099284 0 0 0
224 1 6.207390912299612 21.98744254548538 13.46604377001978 0 0 0
285 1 7.7464160587308415 21.02223324047897 15.88461433735986 0 0 1
199 1 9.924954645659522 20.775737492143755 14.062798938471579 0 0 0
52 1 6.111103895421204 23.633566236418414 10.989183459763193 0 0 0
101 1 8.918857907894111 22.78083848000817 12.516513300773484 0 0 0
291 1 14.679236978092788 20.605805884375357 14.332939027963256 0 0 0
4 1 15.558263296992408 23.168562254033564 14.421232832410647 0 0 0
121 1 18.125668969884593 23.503327256058032 12.814303761955037 0 0 1
268 1 19.401987122284098 22.562757337678168 14.897828393925947 0 0 0
3276 1 21.949848475908524 22.59370826923257 13.606662953350828 0 0 0
398 1 0.5689251928290202 3.690513901354047 19.469659769492246 0 0 0
1922 1 2.9068470004175153 1.5864749225119916 16.213035823536217 0 1 0
3520 1 0.816900650960523 3.096666481439529 16.829238557742492 1 0 0
2124 1 7.041647333017425 0.9456386886604986 16.029423653397068 0 1 0
260 1 5.283889740366375 3.0721836075893147 16.982753873114014 0 0 0
278 1 5.247429881086543 2.9878805648986537 19.847345865780433 1 0 0
279 1 9.486094476468665 1.6804300203004423 17.202699238950593 0 0 0
261 1 9.900390977567394 2.6460958010804783 19.896291975487063 0 0 0
195 1 14.129389890172726 2.0153882321911154 16.18715334663006 0 1 0
498 1 14.245630757809671 1.6635442101706677 19.10407121942258 0 1 0
280 1 8.573349905247019 11.610182798061201 20.509585446149444 0 0 0
4898 1 19.045350101202207 0.9243664719206279 19.59699737114764 0 1 0
3412 1 3.1259565336955046 4.5245089796366145 20.4454190537468 1 0 0
141 1 24.354025752017975 6.823570503586914 2.382971142526732 0 0 0
1802 1 3.480600758354314 24.056425422552834 10.353161235234083 0 0 0
4974 1 0.6393544837133638 1.3603471437947663 8.520294332378064 0 0 0
62 1 3.1822914236132145 7.213616722363977 19.87232172932814 1 1 0
3398 1 3.6061932215030077 7.221728302362381 17.158953326705888 0 0 0
206 1 5.602520130426921 5.738816155557183 15.987320084052865 0 0 0
143 1 5.310922371447005 0.8526108486673519 9.098034318467711 0 1 0
1577 1 8.039575438262178 6.5796545865241125 16.88488987305182 0 0 1
390 1 8.212304418628609 6.597568337921367 19.510806808341755 0 0 0
323 1 12.631526179894754 6.170688071468165 19.582389114594363 0 0 0
212 1 13.26524826866805 6.403491773608363 16.910013025279298 0 0 1
282 1 19.699339679301797 4.499815849181439 16.30912375373038 0 0 0
2035 1 17.213720054923797 5.288127886966769 20.30141798263814 0 1 0
1924 1 17.3765304894218 5.672488605434298 17.40118128340985 0 1 0
365 1 21.41193285143316 1.5165596433759756 20.52180708805217 0 0 0
5136 1 20.483525145983492 17.135750530401783 19.25373198943367 0 1 0
2070 1 23.510196838594855 4.880458276169779 17.454443915185266 0 1 0
272 1 22.435025818545476 6.97035734623257 16.07827499261476 0 0 0
159 1 1.4432094578795245 10.731422952646778 16.919478020187338 1 0 0
152 1 1.1313298747850846 10.842503459145172 19.5545549688354 0 0 0
369 1 6.04561353284947 10.539512347162532 19.712471700357884 0 0 0
288 1 6.131401532526138 10.512068515214375 16.694645711748784 0 0 0
222 1 10.678418613220773 10.082270953980775 19.478787272380295 1 0 0
343 1 8.394164125690862 9.097464724054715 15.797723535408629 0 1 0
198 1 10.733057866566568 10.041367779146908 16.750772850783903 1 0 0
233 1 12.179968106883914 20.427998065460667 15.640654107482995 0 0 0
266 1 15.608579614875149 9.27734209216619 19.54795219459032 0 0 0
207 1 15.25271590436299 10.158795494991129 16.914537280385055 0 0 0
332 1 17.425249556477954 8.399324320117017 16.426792203446947 0 0 0
1940 1 19.982397084066513 11.189874351749445 15.310169766111823 0 0 0
3614 1 0.8114965743166609 22.827659100621915 19.65252362349553 0 0 0
3507 1 22.885831186243927 9.944450564997677 18.112178384740048 0 1 0
1575 1 7.513150464509235 15.34933752438822 3.5952064065861045 0 0 1
3333 1 20.21211161382825 8.876642473257723 16.833078504371056 0 1 0
3411 1 1.699220221058124 13.729447313030416 16.031995982702114 0 0 0
479 1 4.269058377831896 14.570640127430606 19.504878489220506 0 0 0
3469 1 4.306561894045036 14.59100157856093 16.745631577154587 1 0 0
88 1 6.682440562890233 13.129111617480232 15.823823914214453 0 0 0
319 1 20.327587337158434 8.869863685510659 19.853108788686665 0 1 0
1994 1 8.505281737378573 14.064677672085152 19.86993063426816 1 0 0
148 1 10.845814691390368 12.704997609800692 16.195026599284297 0 0 0
296 1 8.710853645414842 14.198184339750915 17.100835696398576 0 0 0
297 1 15.655430619235817 12.633673496318938 15.792961852932647 0 0 0
359 1 13.322980126756594 13.537835591707578 17.025535942689622 0 0 0
301 1 12.61214096878595 22.52615372748314 17.545811020332422 0 0 0
426 1 7.775467613745724 23.35631260495731 20.04111944591666 0 0 0
171 1 17.888079602173836 15.799089150376105 15.864365297453398 0 0 0
3392 1 18.15277591597483 13.122425599932868 16.681045051117906 0 0 0
386 1 23.478283779420902 12.406259725562832 16.92267882633164 0 1 0
3216 1 23.261679663298946 4.110576224047326 2.0324945926102895 0 0 0
3472 1 21.062618854961038 22.480284157756433 20.38865408906626 0 0 0
430 1 2.3344047107961146 18.666684322432626 16.6483239351056 0 0 0
1866 1 2.424505948997212 18.694723505121406 19.59832908330562 0 0 0
175 1 4.554503560219584 17.130075862934753 15.862919147419557 0 0 0
237 1 6.79406109835342 18.53784101252927 16.900012390051323 1 0 0
1976 1 7.2690055632948125 18.12598727498936 19.70511170516979 0 0 0
1874 1 11.416510220493235 17.802816226960974 19.687975946270406 0 0 0
303 1 11.318160373306984 18.059805752137233 16.800776417469834 0 0 0
1949 1 8.781532384883981 16.915471722825345 15.93861938850871 0 0 0
3424 1 12.993112109652309 16.161734185738283 16.12094908193062 0 0 0
460 1 15.900470446825205 17.269039175850022 19.745653326728377 0 0 0
179 1 15.717382178539795 17.092119581695215 16.847183997020835 0 0 0
3480 1 20.287352043511277 17.01485900579783 16.28449052347805 0 0 0
3414 1 16.200896230442837 19.607516965922585 16.21166135035664 0 0 1
1939 1 7.799330738955994 23.72863293879847 17.243505800815107 0 0 0
3225 1 22.67475468495943 20.503274260863403 19.07672533280231 0 0 1
181 1 21.751602871022804 19.728586571237336 16.433785163299525 0 0 0
276 1 23.89335976964931 13.004621445069263 12.661334176051854 0 0 0
214 1 18.05350747759505 10.38364932596509 20.479644700668995 0 0 0
331 1 10.521839728137241 7.640062090739712 20.244002839379736 1 0 0
254 1 0.5239076342355246 1.0771576863397332 20.28712301188643 0 0 0
300 1 15.866011069016103 14.530177642912584 20.39993764640065 0 0 0
425 1 16.880296134247775 2.7188758972004266 20.449409194823243 0 0 0
1670 1 4.160527939703141 0.08272882155627315 5.257984186889805 0 0 0
81 1 6.5108301778926885 4.701801117613959 2.2902113857355895 1 0 0
309 1 14.15020562732898 21.45911151104579 20.59186075383574 0 0 0
3527 1 5.008151721362593 0.09882219356074015 20.442080161261618 0 0 0
353 1 11.090703401032375 15.128408568149364 20.563191440977082 0 0 0
397 1 0.5232406713635591 3.593855879581011 24.306288333350537 0 0 0
389 1 0.4365747884375837 1.108821944817331 23.153963708121097 1 0 0
5054 1 6.725889436572629 15.625507996219348 20.91038236467013 0 0 0
290 1 5.309401816740375 2.935228909424518 24.446846359342803 0 0 0
391 1 7.768359007461392 4.050733087089962 23.59980428119058 1 0 0
1419 1 20.581056074658726 23.84203568798418 36.35491341997991 0 0 0
1290 1 3.637053582096666 23.557536577531373 35.77282468144506 0 0 0
411 1 9.917447826625782 2.6669462983074737 23.971389517385767 0 0 0
376 1 12.451335228190585 3.4189678907137715 23.249631227729683 0 1 0
384 1 14.373831357837027 1.9511354608580127 24.122662952738654 0 0 0
4608 1 23.87247719590885 11.864883607162776 38.976996471147686 0 0 0
2095 1 18.78847573356798 0.6361895122165112 23.8159563001561 0 1 0
341 1 16.995867550887567 2.621424653073467 23.18497772656859 0 0 0
318 1 21.529744293514906 1.77547981270695 23.389852295510874 0 0 0
1246 1 11.529655751169164 0.18775448984119258 36.408821029186015 0 1 0
342 1 3.2943615406691675 4.24718212124783 23.27856049014211 0 0 0
3658 1 3.7022457324805083 6.814421514739191 24.1270853241493 0 0 0
2074 1 4.934676986691833 19.654987375422035 20.710466727255515 1 0 0
548 1 5.822375211790736 8.242154579375287 23.109908761291276 0 0 0
515 1 8.022844286115854 6.6843868613858035 24.207399158405778 0 0 0
338 1 10.427431944566 7.3933207162901144 22.927488363454493 0 0 0
3677 1 20.518845698488008 23.605063943212684 24.33559591346367 0 0 0
439 1 12.543956300831203 6.107021098134891 24.42935701503511 0 1 0
401 1 15.128796430387755 6.950199767661951 23.523917237939617 0 0 0
421 1 0.6075731244417883 20.19466650494717 23.58414265159472 1 0 0
226 1 19.923345335189964 6.250420557355453 23.59650993413404 1 0 0
315 1 17.25376920600703 5.328667107530396 24.094001613420456 0 0 0
1796 1 22.07359373088722 4.603364199922498 23.695918289987343 0 0 0
3565 1 24.27066506821816 6.663405465855681 23.51223974017221 0 0 0
1280 1 0.12627031607097086 4.7958991353696305 35.83284807036452 1 0 0
3600 1 1.3886742808465025 8.238269587059202 23.380738835458086 1 0 0
380 1 1.9858974941831848 10.766338494577303 24.135649586278696 1 0 0
1296 1 18.149643003121263 22.151473614715776 36.63603879752921 0 0 0
3675 1 4.100683893758291 11.822653478499339 23.08159455890401 1 0 0
445 1 6.374975588708961 10.58180099987086 24.358649203242447 0 0 0
383 1 10.87762763773155 9.873560872987373 23.842844846734682 0 1 0
409 1 8.832497420681065 11.605273367764083 23.427853768722375 0 0 0
347 1 13.415478984313095 10.712384832247583 23.2260446724151 0 0 0
394 1 15.67211558993036 9.383034879239407 24.07140987035236 0 0 0
4464 1 11.272061199713365 0.3067853128834441 39.323756258196966 0 0 0
306 1 17.895897817953873 10.434715437300744 23.322788307909033 0 0 0
3609 1 20.121314271625415 8.84254885968159 24.042159086261886 0 0 1
3517 1 19.721802959905617 6.310929778227787 20.964524157760327 0 0 0
1562 1 0.7603807169527237 8.32977121752822 35.711781984340575 1 0 0
404 1 22.74792710613793 9.306181164334722 23.863657365135648 0 0 0
3537 1 1.011049775699041 8.495697870439194 20.736997103005987 0 0 0
6000 1 22.838384280204586 22.159687988299225 36.154879091698476 0 0 0
3621 1 2.533112946136522 15.907658626755289 23.395073194866285 1 0 0
2891 1 15.808195672216762 23.131378957330842 35.544730418413195 0 0 0
310 1 4.27702829723178 14.089204088958795 24.315959032336064 0 0 0
417 1 6.557654354918449 15.19082952693909 23.605635897209698 0 0 0
311 1 2.8473169421584865 23.996858600283584 23.661174222696694 0 0 0
368 1 9.173434401585189 14.158456804234005 24.50598603021415 0 0 0
355 1 11.415424841014591 15.219470063914137 23.384833427329188 0 0 0
3459 1 23.728746204803347 4.660564896377115 21.114779902221862 0 0 0
493 1 13.480455317877936 13.305777513619342 24.05641803243015 0 0 0
313 1 15.800820868243758 14.143882478972474 23.226806642004345 0 0 0
1962 1 23.520139270057864 0.49482949488830336 24.276703334376684 0 1 0
413 1 18.322948283359636 13.064783609033821 24.032709727794153 0 0 0
340 1 20.3665601002625 14.785076391401612 22.877106104921044 0 0 0
482 1 22.637956245814102 23.062528056599906 22.83507471233122 0 0 0
549 1 22.784848263081404 14.06121232045045 24.206050892900805 0 0 0
5343 1 13.387105085234987 22.189035017590633 36.35023810886452 1 0 0
1943 1 13.614054874833123 18.490034538039996 20.85226237780802 0 0 0
422 1 2.6318843803999816 18.63268920947259 24.37996508804349 0 0 0
491 1 0.5609780561383125 20.261144634061285 20.723630660145144 0 0 0
78 1 23.269074860633545 9.301375684228276 20.811220831661327 0 0 0
1936 1 4.8705468622769486 19.604459846822735 23.36123991064229 1 0 0
1933 1 6.8392896884331265 17.865691406556646 24.097837546814088 0 0 0
420 1 24.314502943631386 16.325916922159415 24.534659365785306 0 0 1
360 1 9.336135397705869 19.1985771519195 23.82794073966608 0 0 0
293 1 11.48533863687902 17.919938753522604 24.26527684860076 0 0 0
373 1 5.000670769938767 0.5851922082207021 23.28947989037167 0 0 0
412 1 13.90475156604999 18.901147490116504 23.721703996997363 0 0 0
1977 1 15.829689653051124 16.64215016042853 24.295753842380122 0 0 0
440 1 17.972097563698792 18.490016209996103 23.313495269074288 0 0 0
1424 1 15.208805164773366 19.199198318831428 39.26118182022498 0 0 0
502 1 20.288094215715063 17.232381161617607 24.21792015135059 0 0 0
3586 1 22.763859669660697 18.493104375079714 23.15332627379946 0 0 0
408 1 7.671763661811676 3.9567508040228554 20.743429036961167 0 0 0
5118 1 0.3258808148496201 22.99720671885743 24.14118003747053 1 0 0
119 1 7.546076354786777 23.275696331943234 24.39753936483306 0 0 0
12 1 5.047174507863281 22.439286282296223 24.050031827429713 0 0 0
345 1 9.612952357260308 19.09211419844784 21.15306056070551 0 0 0
2117 1 9.917261604424548 22.07940572510573 23.910717472526095 0 0 0