LAMMPS data file via write_data, version 29 Oct 2020, timestep = 100000

6349 atoms
2 atom types

0.0 49.22 xlo xhi
0.0 49.019635930410494 ylo yhi
2.308120914616673 57.75387908538311 zlo zhi

Masses

1 18.015
2 12.01

Atoms # atomic

1561 1 0.9451953302095996 2.099653279382729 4.457853306229883 0 0 0
1693 1 3.787661842666623 1.5743817123804624 4.411127426949319 0 1 0
4991 1 7.234314996430775 22.52696331634562 19.78563403121454 0 1 0
4860 1 8.61180479737192 22.65379244608649 11.287462124118674 0 0 0
4776 1 19.937550752849248 8.47704825917467 4.3584533548523865 0 1 0
128 1 4.458368785588344 5.389269856908775 2.436649612117022 1 0 1
1567 1 7.21732245995256 1.7295712624947601 7.999512547954787 0 0 0
1569 1 9.842220925510262 3.4446240093705813 3.826908880590808 0 1 1
4686 1 12.102517697373607 3.373953410889822 5.475907241296859 0 0 1
1514 1 13.58068321146331 1.3920815437137675 4.051829969842072 0 1 0
1978 1 18.14177777850758 23.37904776045833 17.27552847039496 0 1 1
6265 1 17.658629105267668 1.9293491898797912 7.169318462634834 0 0 0
3455 1 0.2867451753848811 14.408872962797286 10.331381485166766 1 0 0
3548 1 20.94187849912321 1.9682088181244086 5.975500881861064 0 0 0
174 1 16.971396647986733 24.007566716244835 13.712592672654166 1 0 0
3564 1 2.978819429877904 7.6021144051772325 3.5565005071707123 1 1 0
126 1 1.750328575745664 5.239945054567518 5.098236731288775 0 1 0
3386 1 1.3804688060119916 5.836030001513186 7.899636250617011 1 0 0
213 1 4.3238423278806115 3.957204022550669 5.370061511811027 0 0 0
1812 1 6.057460588507882 8.591559896873477 4.171536059291193 0 0 0
217 1 8.192812314842374 7.1043991046178 6.137194408145261 0 1 0
186 1 9.070139887002865 6.136277430127548 3.6385399014879614 1 0 1
144 1 8.118372547402865 1.2162226999390824 3.6322713071457553 0 0 0
2854 1 13.840371230564738 5.47368957304639 5.8212667467241275 0 0 0
1464 1 16.45346880913879 4.743037091837323 4.466243720209084 1 1 1
142 1 19.053031454711768 4.406706159724935 5.633088330358232 1 0 0
3687 1 17.51452813748518 6.999525094840325 3.7031449069235975 1 0 1
3393 1 20.388980243077317 5.16475507408621 7.81324549442974 0 0 0
6215 1 22.48802679054772 7.7530926245779845 4.800912991827362 0 0 1
319 1 20.443549757893926 1.1951308648632328 3.363789330301797 0 0 0
1513 1 22.58861812958031 7.128041182930307 7.348217099752615 0 0 1
3310 1 2.225680737933231 8.6787901945549 6.18970888723589 1 1 0
1460 1 2.963220818159673 12.224554691388548 5.3640482772065035 0 0 1
4587 1 24.58393389930816 16.877000478571986 4.290692441661946 0 0 1
6280 1 2.209791150558749 0.13050521638193358 13.993191861663904 0 1 0
4988 1 5.646450041023649 10.966919612473648 5.652637377695896 1 0 0
1533 1 12.273782363452728 10.366303877437696 5.881135975027881 0 0 0
194 1 9.865918371124497 11.83783585371959 7.233137584693653 1 0 0
1783 1 16.06052701729909 9.208955719022391 3.9700584121452263 0 0 0
4707 1 13.334057844205145 8.035900774574186 4.633742653050752 0 0 0
69 1 14.471779050843876 11.739506797645456 7.895089398517843 0 1 0
3201 1 21.154878450789496 12.713943550965741 4.526160531860917 0 0 0
3303 1 1.2247235828037322 16.847544567031434 19.34751571685873 1 0 0
68 1 0.9068008812571432 15.700517768373013 7.919345054362378 0 0 0
4890 1 8.374634616101755 0.3488173428457092 12.54208093511338 1 1 0
99 1 3.207499428407893 14.369264778334196 6.724849740371758 0 0 0
1719 1 22.95778313115893 24.301941704805678 11.496705635130098 0 0 1
3192 1 8.077491866426751 12.238877157179594 5.097474991993609 0 1 0
4714 1 10.589960067066306 15.018737357114809 4.710877420714864 1 0 1
25 1 7.948454756333355 15.208434425953577 4.6321118317770775 0 0 0
4617 1 15.044384654395335 14.94257413104503 4.878069946910994 0 0 1
1339 1 12.948109365625868 13.451653488841446 5.951898409619838 1 0 1
1577 1 20.055134446142077 10.77758461819318 2.6517988648001314 0 0 0
1478 1 18.629960890920803 13.732800051506274 5.743523369695028 0 0 1
1270 1 22.14430203882915 17.39382974108363 5.50970852909322 0 0 1
4883 1 15.86148817020302 21.745718783298074 3.159273577927448 0 0 0
1391 1 2.2698251634412676 18.205028747358288 4.300455732060773 1 0 1
1650 1 21.33451615172787 20.23543254668363 19.75112323486189 0 0 0
3665 1 4.530832997759606 15.681647814976051 3.6074629713012696 0 0 0
1420 1 7.313124154285937 21.31697467419039 4.138360999022403 0 0 1
3664 1 10.896143309273075 17.678022906804742 4.182157502163129 0 0 0
1708 1 8.795386597908855 16.101254089790842 7.542593190797299 1 0 0
1583 1 13.497591820516913 18.50803705056958 3.419271405786162 0 0 1
1279 1 13.10833247281724 19.778433556544066 7.64488422067609 1 0 0
1599 1 17.732587948730092 19.942350784778554 4.408357999252884 1 0 1
381 1 0.6141048630077768 14.197315252422756 19.81930416107845 0 0 0
226 1 21.994824573145326 18.785572516971953 3.134718021029818 1 0 0
6244 1 13.191462376366538 21.278973361163363 11.286193054669582 0 0 1
1944 1 21.667002563112835 19.125195304490763 7.752956595334127 0 0 1
370 1 4.1170378574374 24.383801144473125 5.194106281596925 1 0 0
97 1 1.642062600507605 20.958786197211815 3.0737101199284576 0 1 0
16 1 17.755392050388828 0.16432705393037955 4.60755400438377 0 0 1
361 1 5.700457222672589 23.60970942715157 2.978490157282975 1 0 0
4675 1 13.963719988542078 22.099722243282905 5.235979420243996 0 0 0
4435 1 9.704006716401581 21.008016339425364 5.702957834938752 0 1 1
363 1 24.40085403993344 19.466549888345202 12.401933562813628 0 0 0
1408 1 6.239974572504285 20.34105113584556 18.501391045808994 0 0 1
5249 1 15.362877329726306 3.1261884612080095 2.5704315240578715 0 0 1
1452 1 10.60000892736432 18.639971247383496 6.801773685918075 0 0 1
1866 1 20.93467717382257 1.0333360589778857 15.49183525730568 1 1 0
4544 1 20.444782829578365 20.839464978871685 4.322111830301905 0 0 0
3370 1 0.8557960245201233 14.822261866102593 15.175817225301758 1 0 0
4940 1 21.222758188246754 21.69887360130123 6.991275982324075 0 0 0
3002 1 7.780626685589213 10.257238738241888 2.7280164486043468 0 0 1
3277 1 22.142547575258956 0.2253155384504313 11.423636304621256 0 1 0
3076 1 23.293058520811453 3.3827049536441907 6.983707245165677 0 0 1
1596 1 1.9180503432045481 3.7132884848948065 10.90028840845211 0 1 0
1745 1 3.611709065903462 3.6521820840212116 8.723514436212433 0 1 0
2033 1 0.7310866350370352 19.82589820844831 6.352108282423577 0 0 0
480 1 10.227135172573899 3.656333668532351 9.953896093911702 0 0 0
3435 1 8.8661595827567 4.349980858984103 7.073573678659502 1 0 0
3244 1 11.68880113613525 22.39033216304807 3.8725365499116284 1 0 1
82 1 11.20813493863503 2.2264486550061133 7.732157180679919 0 1 0
3238 1 12.820165735468349 16.66013379311138 19.424514838312845 0 0 0
10 1 19.846166863798043 0.9429176426111147 10.125786064272571 0 0 0
6149 1 15.067839024452669 2.936820792447704 10.049428516334416 0 1 1
2821 1 0.728799367233678 0.7309974539061219 6.803313744614649 0 1 1
4836 1 1.2335003002390346 17.565628273566915 15.4933174738684 0 0 0
3285 1 0.6134056827878472 7.828262283676993 12.100755309397572 1 0 0
1458 1 3.825149488720306 7.181182590041536 8.060092042659374 0 0 1
3361 1 23.522688423557284 23.092516165020523 7.172526514385304 0 0 0
1967 1 5.8814097577463045 5.396275654511929 7.501106668696349 0 0 1
203 1 6.735454560560968 7.041130076203723 11.313570727649216 1 1 0
3540 1 7.484536849743683 4.475305848894126 9.909296983651684 1 0 0
3477 1 11.819215480015776 6.038749294288086 10.152605656874249 0 1 0
3060 1 14.253426626942437 5.385316881736833 8.81742242241278 0 0 1
2826 1 17.110629656358206 5.180184495333951 10.56440738195476 0 0 1
4468 1 15.705512861555851 8.050308536065069 8.846891078606387 0 0 1
4697 1 21.23008270165342 4.52557898044686 13.353900344446778 0 0 1
2856 1 21.57768173147803 3.536331732719045 9.640273236103837 0 1 1
3242 1 19.159799639121218 3.4523018146376288 11.626501283061042 0 1 1
5066 1 16.701656632016746 1.0372103258394532 14.54917842531564 1 0 0
1570 1 17.239405264382057 13.880506008493532 2.9480262343028363 0 0 1
178 1 3.0440746781254577 11.19849486245233 10.116698475706752 0 0 0
276 1 8.425719024025193 24.03855832671554 7.350228930090093 0 0 0
5205 1 6.944943219564692 9.47928355721671 9.69614871886085 0 0 0
311 1 8.199548372739919 14.05809621372418 9.989147136494227 0 0 0
1637 1 4.821677829917374 9.984701347198845 8.13372421856338 0 1 1
358 1 9.23260672589771 9.117873094711259 8.009115858401909 0 0 1
198 1 11.135915618110367 8.73437706742265 9.750821704279055 0 0 0
5993 1 10.906502862616502 13.5417200192776 9.416804455815274 1 0 1
309 1 19.09335662358289 8.72570784086943 7.002406294335971 0 0 0
1667 1 12.674086075181009 11.084464138928697 10.03094599605156 0 0 0
3248 1 14.423834108523097 9.286665070465899 11.294840721432614 1 1 1
3200 1 18.68192042494868 6.848883284130144 8.942891546848372 1 0 1
4850 1 20.56743908083978 7.8076507935936865 10.6621225800208 -1 0 0
539 1 20.748986931405526 11.106273263531456 7.105673740518357 0 0 1
293 1 17.28118107977349 10.09055673872394 10.544354793601716 0 0 0
360 1 16.479234596151315 9.695678503940304 6.735648370481965 0 0 0
5002 1 2.927978868762141 13.298275283611463 2.920834183668807 1 0 0
3348 1 22.074701844114944 9.29694942827383 8.907519784752424 0 1 0
1549 1 23.282223770947866 14.390493120080254 3.029826888367874 1 1 1
6202 1 22.6794246002098 22.74874411849782 3.7740300228509764 0 -1 1
102 1 3.4275545813340034 13.820988980410485 9.565976430528462 1 0 1
238 1 4.264634685928077 15.881064785409556 11.967260982890808 0 0 1
110 1 5.695861994092893 15.24984849008223 9.414894036233747 0 0 1
148 1 5.834696306223007 16.800974075453613 13.71401955066938 0 0 0
1750 1 11.830744928624185 15.401233288326273 7.501950410294568 0 0 0
52 1 11.205832869401805 19.818275524710092 9.907435236975708 0 0 0
3115 1 14.818765555921017 13.641287008166566 10.111368037604219 0 0 1
223 1 14.663029427122854 15.976027309489586 8.611013390242118 0 1 0
288 1 12.545814193858996 14.445667690492023 11.673277847683979 0 0 0
1603 1 16.76975184236401 14.387865426059204 7.444905872939402 1 0 1
4807 1 18.241278296647213 12.15244036321111 8.866707851363232 0 0 0
1679 1 20.391320561149392 13.596041950572612 10.418257046558985 0 0 0
4913 1 22.06976400691929 13.523588355424481 8.191202394903698 0 0 1
1483 1 4.102763827501874 19.521493758998783 13.331037283315366 0 0 1
3169 1 3.786013679765453 18.84755623083782 10.463492303451607 0 0 1
5134 1 2.4339760775903434 18.21288433371632 8.067027839019893 0 0 0
3293 1 5.800652858120098 15.784618887155483 6.558052191939213 1 0 0
4821 1 4.342308873403836 18.031268528531953 6.229316762138735 1 0 0
3203 1 7.596142579147728 19.121601879930605 13.074846997832573 0 0 1
4929 1 6.492633550890496 17.998616932292276 10.45778979984609 1 0 0
1720 1 11.505638069463458 22.56421694165776 8.117112232028028 1 0 1
3483 1 9.940058501404517 20.282432609041425 12.31898374869071 1 1 0
1600 1 14.280587263795256 17.683661468815117 6.141025792216794 1 0 0
232 1 16.459490400874245 19.270399400856885 6.550842141122231 1 0 0
3352 1 17.64323397443408 24.318556334698965 4.19281362135881 0 0 1
3369 1 18.505484307853926 20.058896623436294 10.498938246175777 0 0 0
196 1 20.508981479971673 15.319482539776613 6.892992869047804 0 1 0
5069 1 23.270229379252356 17.81130052932111 9.793352782763401 -1 0 0
1497 1 19.10008950013129 18.846176672858626 8.202695771559963 0 0 1
4953 1 3.2200277893717857 21.585559459912915 9.875727001108961 1 0 0
1758 1 4.070701078033237 22.01764731229863 7.464444398284964 0 0 1
1782 1 7.74787010531629 18.996246953549356 8.310278001854897 0 0 0
3710 1 0.4726901539271245 10.978753530136036 6.629205990108326 1 0 1
1232 1 5.9154604307152185 20.236181397790173 6.5147445435493605 0 0 0
1666 1 8.94584494339371 21.559951873898683 8.695291280615667 0 0 0
403 1 15.556801891679982 24.30430944307803 17.341315629981587 0 0 0
15 1 0.23913205052896438 11.712797322292412 9.298397571453108 0 1 0
500 1 14.50767235454934 24.009473223304518 7.466672972832896 0 0 0
1799 1 19.548742816489643 23.39582914452045 2.6187306440916505 0 0 0
5302 1 18.23836283976471 0.4638798626030812 18.717397454370488 0 1 0
1763 1 24.453250533479565 22.39169309822588 9.819847894955984 0 1 0
1834 1 22.07538855108295 20.687237549842077 10.192664920010406 0 0 0
3176 1 4.669323298700251 1.2771173904831055 14.699062576391617 0 1 1
1451 1 15.125949158384998 16.34514860462573 2.3926812713266004 0 0 0
1713 1 1.102242228837513 2.8533401188981324 17.29202592670938 0 0 0
2024 1 21.734613900645712 22.979562974849365 20.590111187892546 1 1 0
1558 1 5.539618541212877 3.5851280398048857 13.348441236707352 0 0 1
362 1 5.371737941847828 2.8259992137948324 10.8563580897451 0 1 0
3281 1 10.449105100144033 2.36609312984588 12.565193538269265 1 0 0
104 1 9.897306155538683 4.217690890331283 14.669572357840162 0 0 1
6001 1 17.958172095883764 17.734778290920183 2.785574262530001 0 0 1
1939 1 14.874028708374722 2.31033175095593 13.054613372568717 1 1 0
2099 1 14.50689037691401 4.011280291591917 15.448425407842914 0 1 0
4859 1 12.39188334829157 12.140189357188651 18.960264074881394 0 1 0
3473 1 1.5426510853326312 17.211695642670374 10.971160269589284 1 0 0
4767 1 22.80666215767963 2.385763090296527 13.573514481177765 0 1 1
4674 1 1.9140372233203948 22.38282980013202 5.608738759966734 0 0 1
3211 1 23.50276620546982 3.749599031510496 16.057061277291297 0 0 1
3406 1 3.081916183350944 4.875360857261235 13.272336358115773 1 0 0
3541 1 3.746241201953736 7.237509345335019 12.07286169006332 1 1 0
55 1 4.0035999408308856 9.204702307124238 14.002905918290681 0 0 0
3193 1 1.5147432851104443 5.212169766700645 15.610247561903792 1 0 0
137 1 7.23955516751797 4.919181933314825 15.027501280795574 0 0 1
369 1 6.231069489112688 8.55169408933199 15.484670676649548 0 1 0
355 1 9.917184790225587 9.147206111341792 11.98160324368312 0 0 1
23 1 11.257823897190999 6.81598739711819 14.098550852549328 0 0 1
3609 1 8.032213856604344 7.390595935385334 13.656485461657544 0 0 0
2067 1 11.953633055009734 3.68549691255824 16.496122193115376 0 1 0
6291 1 15.463329659285787 5.4487761218261745 12.87887177550162 0 1 0
130 1 13.359253886998614 7.003509085409125 12.146905161849023 0 1 0
139 1 12.115498953790814 8.3935490020203 16.246861270417604 0 1 1
4742 1 16.931192244796076 7.3820962236290315 14.255087200287145 0 1 1
4939 1 22.38672726436131 8.460575635077817 15.245377484209646 0 1 0
375 1 22.34873114078819 5.686823147714334 11.115646561731365 0 0 0
3232 1 10.803000372966267 24.250536122453575 12.22239162886556 0 0 0
5040 1 23.967183017789885 12.561206121977646 5.5249971443243675 0 1 0
1707 1 2.255624857857851 9.234157130729672 16.286539055641686 0 1 0
433 1 4.468133744996526 11.615656562394738 12.519269077835942 1 0 0
3374 1 6.914036118252688 11.969591736971196 11.33349708193301 1 0 0
27 1 8.747547802442053 11.38719663074598 12.925327218581877 0 0 1
3233 1 10.52636494989693 13.583853695895142 13.285351470536053 1 0 0
400 1 10.843823664635176 17.06919371291016 10.15927232127715 1 1 0
1262 1 15.0872899327492 10.710008394826783 13.742802570904226 0 0 1
3343 1 14.56033743714817 8.495643412030349 15.190583888589524 0 0 0
1330 1 18.82194002037819 9.03237935912667 12.61829832390137 0 0 0
294 1 19.389952827137503 11.183384931434713 14.147336440070395 0 0 0
3335 1 17.210790878455903 12.933543932504257 13.694982237306245 0 0 0
3 1 23.690409301737727 9.955969906162144 12.93327950938305 0 0 1
1409 1 3.5850605496073915 13.635320448602846 13.997315551470622 0 0 1
3482 1 8.59675223951192 15.544044943539461 14.389334732603551 0 0 0
1895 1 6.0470655537351625 14.506688239043319 15.418230145084653 0 0 0
493 1 8.501072757915534 16.145400817636443 11.774006757744218 0 0 1
1952 1 14.596607782250292 15.640833352016337 15.129593807765145 0 1 0
160 1 12.178873696616765 11.259014511501794 13.093190270623314 0 0 1
1416 1 18.609064486868572 16.237804655850333 8.93683521987537 1 0 1
346 1 17.115174649698886 16.377034060926004 11.42688618300228 0 0 0
3507 1 17.154234497367483 13.78287037202695 11.181391913195199 0 1 1
2026 1 21.413829618633375 16.22006071743045 11.034548088893386 0 0 0
1445 1 17.30301743070784 15.381546671659065 15.217838008190393 0 0 0
1848 1 21.761960680714232 11.89603589427374 12.58540539135237 0 0 1
84 1 21.744337952382782 13.851025887963713 15.135425443840035 0 0 0
5115 1 20.73042580281479 16.407261336215242 15.917342565443118 0 0 0
344 1 6.362451223847565 21.72939726265283 12.993373216627095 0 1 0
6249 1 3.7918835669753173 18.319249644175446 15.827620488372887 0 0 0
3273 1 19.2301342325908 8.659857997105034 19.641019800482102 0 0 0
1765 1 13.279422527527837 16.964150241074847 12.854765215204985 0 1 0
465 1 9.825053212547513 17.31286946726733 15.930770887048235 0 0 0
202 1 11.585667146076045 18.762610191202274 14.237091986647066 0 0 0
1786 1 15.89325718151035 20.533715507978442 11.190974839354032 0 0 0
1303 1 14.908225213847835 17.780012830364658 10.785036805564316 0 0 1
1847 1 15.118295464701136 19.72592857235038 16.29577148088847 0 0 0
1921 1 19.219337253660516 19.18864517267187 16.217989261168917 0 -1 0
3355 1 18.75986748653558 17.321541252947153 13.777437569800714 0 0 0
227 1 19.031660920006203 21.896715938580297 14.771036011519483 0 0 0
4781 1 23.07750192078535 14.69790598758044 12.804449838450168 0 0 0
67 1 20.341374026477233 18.61339884828872 12.08986270163958 0 0 0
5172 1 2.8752804714279243 22.092576901668657 13.714943937279713 0 0 0
230 1 4.371009271863415 23.39914460994515 11.791572657531143 1 0 0
3166 1 2.867995826799021 20.97024693064052 16.676710138248716 0 0 1
86 1 10.749774647842669 23.211100481799217 16.339076429615957 0 0 1
1714 1 7.864541487108619 23.30998002120408 15.043928269187122 1 0 1
133 1 10.467303955861707 11.482712395861544 3.633126226504789 1 0 1
298 1 12.105080189604761 22.275774981256905 13.801245343838222 0 0 0
359 1 12.475027927107506 20.472664089678315 16.501972955199385 0 1 0
4879 1 15.935813997480267 21.3489683983861 8.266888529023246 0 0 1
4873 1 16.908759285564845 19.568545798546236 13.712872737079213 -1 0 0
4973 1 19.928712193998223 22.506599677898727 10.962427548066389 0 0 0
1680 1 21.40202456201631 22.73049839603917 13.728764179417553 0 0 0
235 1 22.082423657678092 19.88270339284811 13.986517456505915 0 0 0
1852 1 4.1932681673993315 1.7001188126101712 17.70652911131774 0 0 0
5157 1 2.0128391297820527 2.398368621965896 19.97020446341155 1 1 1
3715 1 16.92042735939974 23.71057320338474 10.87193018951875 1 1 0
4863 1 6.517803336481503 2.1869046060710398 18.994254992928433 0 1 0
1721 1 3.4560844559380923 20.831091671765446 19.227371595843437 0 0 1
1881 1 11.843920347296288 0.8128456935303551 20.38919629927442 0 1 0
250 1 11.242940005765657 1.3624404599753417 17.924632210225724 0 1 1
3678 1 9.250832023077386 0.16306251724913473 7.458744734284667 1 1 1
3466 1 19.870216512547223 24.06125998837849 8.360823594419351 1 0 0
5289 1 14.241823424868974 4.38830644045647 18.740520931721484 1 1 0
169 1 10.31754196706601 7.453381112478001 20.118841882336564 0 0 0
3052 1 18.467420748059993 2.1644586426131984 16.434302086158006 0 0 1
1774 1 17.123747576347725 4.390653475233634 17.663528486857896 0 1 0
5038 1 22.82001046535308 3.6113279667321945 19.648477210587256 -1 1 0
377 1 22.46517686458686 1.587970759879138 17.830497532548154 0 0 0
119 1 14.01479363479052 23.58690332077243 10.103393451724749 0 0 0
95 1 2.4416735179593743 7.377120333296906 19.637012724119653 0 0 0
1776 1 6.717363690847964 0.3976306741833719 10.350208988424207 0 0 0
1466 1 6.029374562579916 0.23678817595947824 5.645346603492839 0 1 0
2075 1 3.237253688153584 6.709947665251588 17.01535007572216 0 1 0
1888 1 7.01311332217024 6.796189732618771 19.82227689208791 0 1 0
5219 1 14.455645624867488 8.594017549465907 19.688797796689098 0 1 0
416 1 10.238654401820822 10.636145357233952 17.00938186159331 0 0 0
4977 1 6.114390665806207 6.416775091256507 17.219113932497756 0 1 0
1764 1 11.621142890239291 6.091055682339684 17.60022029175783 0 1 0
1716 1 7.428067256966816 4.239859978910162 20.451811435321453 0 1 1
2015 1 15.609111622350202 9.593137801718399 17.425711877954992 1 1 0
38 1 18.663468220636876 4.3583896773492805 19.97927731421064 1 1 0
3381 1 18.456481617471777 6.187728532748047 16.20374172130831 1 1 0
3195 1 18.287454483795617 8.708297786806071 17.0118874842663 0 0 0
2092 1 21.205218234765862 6.045735722784598 15.632593964571733 1 1 0
1781 1 20.870844105570505 4.968091936261681 18.552395949722797 0 0 0
3402 1 16.85883972736057 17.83091701422591 18.63837136984488 0 0 0
152 1 2.6229940990178084 12.001266574877672 16.429227177630267 0 0 0
5226 1 3.4795927954172616 9.856876818590733 19.069628660754677 0 0 0
1969 1 12.407897059633962 0.7649031976787211 13.628379990027536 0 0 0
5152 1 3.500852572066431 0.8838325199356206 7.585617756241186 1 1 0
3542 1 8.081513298950501 10.705604177717078 15.585101132679613 0 0 0
3555 1 14.62351447173625 1.5985736585462196 20.220199893919094 0 0 0
229 1 11.094967155184815 13.264730222779084 16.405570244998238 0 0 0
3209 1 13.741033970631836 12.938510757410643 15.393227880400058 1 1 0
45 1 14.154875408631213 24.047840641353172 14.617921448499901 0 0 1
280 1 13.80221686497402 1.1521868261311499 8.455917669506176 0 0 0
1762 1 17.97038487364324 12.67832254186112 18.47688904897645 0 1 1
300 1 20.477629333427426 10.175250269507208 16.224999268472228 0 0 0
3339 1 20.724563841405484 12.2624964455661 17.537957974979854 0 0 0
3190 1 17.420639731778213 11.124198232209254 2.5409350847581154 -1 0 0
1831 1 24.158708638984844 8.45719162719933 19.88641441547774 0 0 0
3476 1 18.824863966441814 22.81759499240753 20.131369553858953 1 1 0
3536 1 14.853954519569562 12.06994327836615 17.93877636109862 0 0 0
201 1 4.824807608645301 12.928456254778906 18.438423046856393 0 1 0
387 1 4.208157173328416 15.914799374432079 19.42241462335384 0 0 0
153 1 7.148431272591815 12.629381995387323 17.254469603997205 0 0 0
1364 1 8.782942262215181 13.963901136229353 18.948764566606112 0 0 1
334 1 10.868745597626749 15.62324551279227 17.616840164346 0 0 0
1611 1 14.409859092282266 17.298233246640365 17.37352735629778 0 0 0
3030 1 6.184563426694043 23.490583754561666 17.349375195525663 0 0 0
3512 1 0.12377001483493899 18.269405666902053 13.21638995900493 1 0 0
2833 1 17.03504839247393 0.9681475641288113 11.133090580215628 1 0 0
312 1 22.962655879241527 3.6583255992334527 3.097036202409187 0 0 0
37 1 18.60306093550451 15.563879412921892 17.865530467679307 0 0 1
292 1 23.473964457563117 12.796242162720452 19.197980115949264 0 0 1
3127 1 23.609141256127874 6.286202114046209 2.491379061203481 0 0 0
3416 1 5.542999467294031 16.521105238030067 17.132428094367157 1 0 0
1808 1 7.803094647632755 18.089709894556737 17.494442661851537 0 1 0
1791 1 0.4671517020438444 21.08510397311631 12.973668474824292 0 0 0
224 1 23.56292203212895 0.739538568639281 8.920298653789185 0 0 0
3528 1 11.990285194182405 21.676377203652425 19.248164272085717 0 0 0
326 1 14.37438753131041 22.69036326410489 19.666548447585548 0 1 0
270 1 14.401349112222627 5.9488009809428135 20.66353008661952 0 0 0
5179 1 8.140652903015145 16.591941828468613 19.771750286084362 0 0 0
2107 1 17.211229562894495 20.507436172999327 17.80619254551859 0 0 0
3527 1 22.707510599757093 17.48004659929906 17.70779935575872 1 1 0
5026 1 21.955845704643263 20.075672118149882 17.110783867200134 0 0 1
351 1 24.503810141707554 5.358210305600824 13.415121415403343 0 0 0
1913 1 15.346909513928471 0.5820114149322637 6.185977320473421 1 0 0
3530 1 24.08837193200776 13.707260519131504 16.468520416465743 0 0 0
371 1 21.705510437013967 7.04581253997237 20.2074062129852 0 0 0
1633 1 1.3677629102177447 0.9867593137948292 11.255048066347355 0 0 0
3503 1 11.45480364394408 7.239961322297659 2.756249419756562 0 0 0
4775 1 0.5069911979933399 21.606588185402714 10.085371575420883 1 0 1
320 1 24.336098257638138 9.254596285901115 10.40127165929076 0 0 0
418 1 19.140257419976724 18.310838580285264 20.734511979847824 0 0 0
4934 1 0.11493754722845524 0.7476183985530346 15.652087437766282 1 0 0
4980 1 0.24705278943072412 5.70516642279234 10.483171734230176 1 1 0
1966 1 24.290800659861073 10.023070523430153 4.454262078613409 0 0 1
70 1 1.8188069453482139 11.827093611759198 20.761488316125366 1 0 0
4839 1 0.014203968150079883 12.629537062945277 17.190779968102994 0 0 0
283 1 9.677708717137767 11.618200512426199 20.570205244806164 0 0 0
4798 1 21.907633850181593 10.67227118066604 20.19078115596973 -1 1 1
417 1 16.99020364820665 15.119435763387964 20.472500594503003 0 0 0
1893 1 3.954476683038184 4.38777257920059 20.38926621087402 0 1 0
1976 1 15.367240498307849 13.009405465311975 20.60380352005528 0 0 0
3610 1 5.511267498758322 10.982247975177948 20.73697777100481 0 1 0
2998 1 11.091631087643503 13.887608410523951 2.3204439628850437 0 0 1
5279 1 2.061999316090122 2.797159650426852 23.6948245563035 0 1 0
508 1 22.56173540150297 13.862899248267174 36.32635226140492 0 1 0
6089 1 23.60741183447881 3.3209549716435958 36.155519087585006 0 0 0
1955 1 5.841617003328012 1.1181994905875174 23.58036804049273 0 1 0
1899 1 5.965833753110825 3.54163076934374 22.55228549460388 0 1 0
1885 1 9.133330643069824 2.2046191384958984 23.873387274678468 0 1 0
356 1 7.8955030828468935 23.638694278366973 24.2906784280736 1 0 0
1499 1 13.958975606931762 1.2493069890700987 23.086001784626987 0 1 1
1794 1 15.863196871962632 2.5928885111806594 24.461639838015948 0 1 0
378 1 18.017383680737602 5.0813721509530465 23.601514039628434 0 1 0
205 1 23.129928900773617 2.2552113264383458 24.053904237586693 0 0 0
3411 1 20.613131229842114 3.9280102727590323 23.600187513716055 0 0 0
17 1 3.359528576917772 0.5469191960853735 23.400005223541356 0 0 0
2893 1 21.46504825965858 1.386644201128475 35.881540702765825 0 1 0
1717 1 3.3709294985176754 8.13227708273618 23.875063570548043 0 0 0
127 1 3.7599246496880894 4.883398768221369 24.289602401679126 0 1 0
1751 1 8.594575385081365 5.011201007399617 23.67519239983533 1 1 0
129 1 9.995054335763712 7.831572393111695 24.043984465112096 0 0 0
2016 1 14.614446004666807 8.18219442182856 24.39376620782798 0 1 0
1730 1 11.933958154357464 5.524430516312757 24.270743324430327 0 1 0
3036 1 17.114134828592906 24.324247524607586 35.930467779444285 1 0 0
4689 1 24.291814119077493 6.629459820416552 35.787966292587484 -1 0 0
419 1 11.788296199888944 2.671367568757226 24.06206707237743 0 0 0
258 1 7.337195641806407 19.83175867829312 21.56785186769557 0 1 0
1953 1 15.012471157435463 5.502188195286719 23.46421790871979 0 1 0
3510 1 19.13390314614511 7.535051860621553 23.821125822069117 0 0 0
5055 1 2.4603491258394623 18.229163647146738 23.711233557903622 1 0 0
6230 1 0.5847136814645651 8.080326478745832 38.13188201403162 1 1 0
3109 1 21.379503576558804 6.44182133082387 22.822795775302897 0 1 1
409 1 24.578380575680168 17.397388991268894 24.474947304543868 0 0 0
269 1 2.417812691117572 12.366656550469342 23.398702540211694 1 0 0
380 1 4.80095682666596 10.751320910722303 23.71225437613904 0 0 0
1889 1 6.069726985073968 6.770370976294558 23.621083709179675 0 1 0
4878 1 7.46335997715693 9.189681376390716 23.575195978306525 1 1 0
1790 1 5.056371868718283 23.20765266524197 21.24251631469294 0 0 0
1836 1 12.190500787662268 9.433366510792464 23.527014373700574 0 0 0
2101 1 12.150610567834109 11.890799881897458 24.272159938131 0 1 0
1971 1 16.253959373493974 10.209073618977714 20.92727666616699 0 0 0
247 1 16.02625561589971 10.277598343406463 23.803221785966716 0 1 0
5097 1 5.804428649644127 0.24719513046868827 20.912163743754526 1 1 0
3613 1 18.607348240852982 10.572615197722286 24.009050291311492 -1 1 0
3570 1 10.104459015614461 3.0893793515956474 21.16047060449856 0 0 1
509 1 3.3895167977486462 14.694691074331853 24.37084463773716 0 0 0
1901 1 6.216424262718101 14.87330193778154 23.967238525790155 0 1 0
354 1 21.59588531872845 1.7919348804338449 21.45784710312269 0 0 0
273 1 10.99926752067529 16.141496278587066 23.82179510263897 0 1 0
5224 1 7.463877343753934 12.401839762166096 23.707630261490333 0 1 0
214 1 10.50872957385413 13.322371926142969 22.588192068212585 0 0 0
3725 1 23.990309531147222 7.017094571688355 23.92907923563405 -1 1 0
376 1 19.16265758069872 11.262214753546877 21.01824746583427 0 0 0
352 1 17.03328785109396 15.635196490519697 23.679893728854132 1 0 0
3095 1 13.839038798749742 15.732630477476055 23.475741091398866 0 1 1
191 1 18.577698520977552 13.221689581572488 24.201118642022863 0 1 0
1422 1 14.819870718770398 0.22607443800374108 35.85339606612817 1 0 -1
3556 1 2.4205669077531082 22.31419008121281 36.66563698180309 0 0 0
1735 1 21.78250596942896 10.810433605235596 23.176024172441 0 0 0
2868 1 7.956035100367232 14.241431103683244 38.3889649626277 0 0 0
3324 1 4.972544179383657 17.590722885219485 24.084600797363176 0 0 0
4609 1 5.187535259448494 11.987163184925754 38.82867459004572 1 0 0
274 1 14.934701978190871 17.43755590054467 21.216220711041913 0 0 0
540 1 9.167588221510517 18.859499031940164 24.377901640358132 0 0 0
3228 1 6.495999509203072 19.907932917277797 24.323745765773456 1 0 0
2023 1 12.650356435824852 18.95865584077205 23.829595599273514 0 0 0
3437 1 23.857367764397615 9.910866813112262 24.565266103638198 0 1 0
1999 1 14.38052718748682 24.344611508310955 23.54903821755306 0 0 0
411 1 15.616515695028417 18.284591253912904 24.094015954418406 0 0 0
5185 1 12.2322985709157 21.58332552643617 24.18814941872016 0 0 0
340 1 18.817685767254712 17.7192835768163 23.738603724107588 0 0 0
291 1 20.976154846233044 14.950859954900372 23.89385444965051 0 0 0
1907 1 17.650834671568344 20.76851901399855 23.94844143650269 0 1 0
336 1 0.9384069264387958 16.027835557458975 24.329320942842894 0 0 0
159 1 23.11589585465849 13.29933939834054 23.59284177115967 1 0 0
5308 1 6.181143049817334 3.8211781806985643 38.60052832047691 1 1 0
2838 1 17.529585725734492 20.52142396818326 21.214042109174002 0 -1 1
2122 1 13.701484810915721 21.865027644767633 36.10721334433598 0 0 0
3682 1 2.700444588627904 22.94653545172296 23.753550675960245 1 0 0
290 1 17.745272926925534 6.9058342105918955 21.14900312192782 0 0 0
1917 1 14.724643189558781 20.505272371257288 21.192968163350812 0 0 0
2039 1 5.5010945393698725 22.4539345227924 24.016848755647256 0 1 0