LAMMPS data file via write_data, version 16 Mar 2018, timestep = 6000000

6750 atoms
2 atom types

0.0000000000000000e+00 4.9219999999999999e+01 xlo xhi
0.0000000000000000e+00 4.9019635930410494e+01 ylo yhi
3.4145493125603466e-01 5.9720545068741913e+01 zlo zhi

Masses

1 18.015
2 12.01

Atoms # atomic

3000 1 3.2229555737773694e+00 1.7390499374717716e+00 2.5586174511465574e+00 1 2 1
6349 1 6.8378077277762006e-01 1.9835022630321253e+00 1.6781412252583745e+00 2 0 1
6546 1 3.2641826005042094e+00 1.8557152624811255e+00 5.2028798736037478e+00 1 -1 1
1370 1 7.7559802535083797e+00 1.9664962298938160e+00 1.5818636576314755e+00 1 3 1
3141 1 6.5674166298316443e+00 4.0164774371724619e+00 5.1234927976130678e+00 -2 1 1
4715 1 1.0395325795430731e+01 1.9863211661315661e+00 2.4865419345758988e+00 0 -1 1
6680 1 1.0914850771103984e+01 2.0284588686563514e+00 5.1307476779547780e+00 -1 2 1
5672 1 5.0635862282423083e-01 6.2559858373848662e+00 1.5384759429930226e+00 1 -1 1
1526 1 2.7820183432787839e+00 6.1093333439322555e+00 2.4369358969177739e+00 0 -4 0
2267 1 3.0871481242933401e+00 6.2652780364582492e+00 5.1375807786131906e+00 -2 5 1
3535 1 4.4776470822803516e+00 4.0947603541649604e+00 1.7197993900256960e+00 3 1 0
2122 1 7.0098575968917487e+00 4.2487135921847514e+00 2.6735665360891736e+00 2 -2 0
1491 1 4.5426933725887482e+00 8.0508833518328355e+00 1.8255105193913872e+00 1 1 1
3572 1 8.4498470568594115e+00 6.6370622357331888e+00 1.8305848837986203e+00 2 -1 0
5438 1 1.0925616009144031e+01 6.7965971284433282e+00 2.6733915389528820e+00 2 0 0
4871 1 1.0709467738338443e+01 6.4733313287376850e+00 5.2802705254772144e+00 0 -1 1
2242 1 1.1952067524216783e+01 4.2017911414397480e+00 1.7950561226740993e+00 1 -2 1
1624 1 3.3534982727752616e+00 1.0385283584160209e+01 2.4407862676042025e+00 -4 0 0
5439 1 7.5378186059077790e-01 1.0567526064787213e+01 1.5446700841572354e+00 1 2 0
1934 1 3.5205715416164991e+00 1.0637741390433165e+01 5.2749692176651592e+00 0 1 0
2095 1 6.9957472353196142e+00 8.8539440933079607e+00 2.6274838167744226e+00 1 -1 0
3036 1 8.1357229525440911e+00 1.1151418393904118e+01 1.4982787478296020e+00 3 -1 1
217 1 1.0585489274110927e+01 1.1417679411682080e+01 2.3921668353228589e+00 1 -3 0
1509 1 1.2092612929295450e+01 9.1777542521662774e+00 1.8128367403368153e+00 -2 3 1
1929 1 1.0580734886643171e+01 1.1012387355258548e+01 5.1427365509482152e+00 1 1 0
114 1 8.8343332666679963e-01 1.7905086428508630e+00 8.9042765113474331e+00 2 -1 1
1760 1 8.1451125626217236e-01 1.2055452141856431e+00 6.3328524402794821e+00 3 1 1
225 1 5.8165458492567303e+00 2.0439452481337437e+00 9.8720393415567766e+00 3 1 0
1951 1 8.1313627174619665e+00 1.9579476832549951e+00 8.6959580083536459e+00 0 2 0
405 1 4.1944976236005633e+00 3.8460027306114459e+00 6.2952118592483934e+00 2 1 0
1409 1 8.2530772532821874e+00 1.9382733426772281e+00 5.8932474307229370e+00 0 2 1
1982 1 7.4721637547886333e-01 5.9239777964251648e+00 6.2319673747992503e+00 4 -1 0
3142 1 7.3472930698597272e-01 5.9537898074738393e+00 9.0989056133113433e+00 -1 1 1
577 1 4.5027789804876521e+00 4.2202360083310468e+00 8.9082356670315708e+00 -2 0 1
1420 1 5.4870630108666942e+00 6.2807617751802827e+00 9.7334741721434010e+00 1 0 1
1559 1 8.0566914601294801e+00 6.4037882708461735e+00 6.1847417798890527e+00 1 -2 1
5469 1 8.2133917793616362e+00 6.5505447343465288e+00 8.7028461334772445e+00 1 -1 0
5050 1 9.3879456360303521e+00 4.1102956402173554e+00 9.6461458430759670e+00 0 1 0
4732 1 1.1800184204231607e+01 4.4286101747957503e+00 8.7773528146828728e+00 -2 0 1
5402 1 1.2000808224759522e+01 4.3289581787578637e+00 6.2832861041971322e+00 -1 2 0
3419 1 1.9884783288104184e+00 8.4954152375097554e+00 9.7088842258054555e+00 0 0 0
268 1 1.1111774244164407e+00 1.0617651500823573e+01 6.5166129127303716e+00 3 1 1
3730 1 7.4250313517363242e-01 1.0518533986697319e+01 8.8575542882705651e+00 2 -2 0
4691 1 6.7195720570496444e+00 8.5995652073912154e+00 5.3957875096450252e+00 2 0 1
3489 1 4.4708597639290364e+00 8.5264501513996862e+00 8.7523145595514098e+00 -4 -1 1
1788 1 5.9827113703874835e+00 1.0667625474278154e+01 9.7923265787900515e+00 3 -2 1
6589 1 4.2790239045170653e+00 8.4458750468362691e+00 6.2553441784575261e+00 -2 -1 1
5434 1 8.0490351495595398e+00 1.0944595966246469e+01 6.2227179581484791e+00 0 -1 0
515 1 1.1923955951758940e+01 8.9976305477362644e+00 6.3494289205420484e+00 0 4 1
4900 1 8.5404235787636011e+00 1.1159097091081028e+01 8.9761610395863425e+00 0 2 0
5110 1 9.9828963444788297e+00 8.6125545262444785e+00 9.6705811555948848e+00 0 1 1
3935 1 1.2290735300254614e+01 8.7408103431387207e+00 9.0019256291267613e+00 -4 -1 0
3496 1 2.0649274025532844e+00 3.9960557102712793e+00 1.0257491136578704e+01 1 -2 0
6445 1 3.3666671339906449e+00 1.5039765272122720e+00 1.3380522934957909e+01 -2 2 1
1542 1 2.2151637114096392e+00 3.8712648978925688e+00 1.3040578599138897e+01 0 3 1
6512 1 5.7991156627713956e+00 2.0044801103361731e+00 1.2595459074106758e+01 0 0 1
6652 1 1.0837001770482455e+01 1.6739158479476741e+00 1.3632775284522317e+01 0 3 1
5069 1 9.4675940968723395e+00 4.0784880224552111e+00 1.2461610497298320e+01 2 0 0
6621 1 3.1535336126923901e+00 6.2050601555253895e+00 1.3863933606874122e+01 -3 2 0
6557 1 7.0139253750377435e+00 4.0909052595924615e+00 1.3456061716563873e+01 0 1 0
3581 1 5.5739767170723589e+00 6.3814870708328355e+00 1.2481224136053001e+01 1 2 1
436 1 1.0870219596174277e+01 6.3484651916316315e+00 1.3367017621440731e+01 2 2 0
5059 1 1.8856659238398943e+00 8.2461551760833789e+00 1.2480175748104401e+01 3 0 1
1560 1 3.0555275797616157e+00 1.0644021180777257e+01 1.3044205546562116e+01 1 -1 1
3527 1 5.6337341071670988e+00 1.1005845272485766e+01 1.2251814997391486e+01 3 3 0
3156 1 6.8373536854774333e+00 8.7234183213232246e+00 1.3093796670259332e+01 -1 2 1
1488 1 9.5449897794054532e+00 8.6485430809943011e+00 1.2522482108435087e+01 -1 2 1
5462 1 1.1135839721110978e+01 1.0670232109000812e+01 1.3423717829613933e+01 1 0 0
5535 1 3.1791946515427463e+00 1.4485501024524896e+00 1.6155083551771128e+01 2 1 1
5081 1 2.0659624454990322e+00 3.9599597466813465e+00 1.9703588171587505e+01 -1 -1 1
5499 1 1.9066644730482971e+00 3.7284630688079989e+00 1.6931843491572131e+01 0 5 0
5645 1 5.6509507483556369e+00 1.6979273648696707e+00 1.7226269299243739e+01 -1 0 1
522 1 6.8735017673768137e+00 3.9392462733915061e+00 1.5987271126505226e+01 0 2 1
4814 1 5.6419025430047167e+00 1.5318804445286147e+00 2.0056274320993897e+01 2 5 1
6721 1 1.0660274619403653e+01 1.6249801265363657e+00 1.6184786551102412e+01 3 1 1
1642 1 9.4064625933062072e+00 3.7910158537774823e+00 1.7205595007604249e+01 0 0 0
3354 1 3.2382023962510722e+00 5.8707365857141713e+00 1.6319414755503082e+01 -1 -2 0
1941 1 5.7295574076860731e+00 6.0704345032668252e+00 1.7025887855402033e+01 -1 1 0
3133 1 5.8927502164779337e+00 6.0639531119826149e+00 1.9664340930588782e+01 2 -1 1
3255 1 1.0905722103998000e+01 5.8144858743070111e+00 1.6233287009080712e+01 -1 -1 1
5549 1 9.4124493202649155e+00 4.2407055588734268e+00 1.9840626545372928e+01 0 1 0
215 1 2.2051940565774788e+00 8.4639054739771211e+00 1.9678501922365491e+01 2 -2 0
5185 1 1.7371878154587672e+00 8.4316814456281559e+00 1.7134818835407966e+01 -1 -1 0
6333 1 3.1801431917846306e+00 1.0349711450309945e+01 1.5921317364616609e+01 1 -1 1
65 1 6.6553536275262264e+00 8.3304093692648689e+00 1.6000877539760019e+01 -2 -1 1
274 1 5.7152049988311537e+00 1.0395296501546962e+01 1.6997681384559183e+01 5 0 0
5476 1 5.8399563376988830e+00 1.0369706057212625e+01 1.9704039038821158e+01 1 -1 0
3692 1 9.3203793786443754e+00 8.4955818902246989e+00 1.6992459320349166e+01 0 1 0
1937 1 1.0797149022737958e+01 1.0574043862459050e+01 1.6215829208458882e+01 1 -1 0
3303 1 9.7122364396104963e+00 8.4587387590023635e+00 1.9564732938423671e+01 0 -1 1
1864 1 7.0795057676073592e-01 1.6914676413099421e+00 2.0783349575411037e+01 -2 -1 0
1432 1 6.3139993116471449e-01 1.3904247669037355e+00 2.3342449939185400e+01 3 1 1
3701 1 2.1738485823121079e+00 3.6731837449197560e+00 2.4294172015276537e+01 1 -1 0
5606 1 5.5171639284449654e+00 1.6891337256129937e+00 2.4178622269759590e+01 -2 1 1
3318 1 4.4853025668982500e+00 3.8169164773673452e+00 2.3216321217312018e+01 -2 -1 1
5100 1 4.5177807463630844e+00 3.9127700387714826e+00 2.0492421640473992e+01 2 -3 0
1761 1 8.1762072411051765e+00 1.6950606579962741e+00 2.0437051092406161e+01 3 1 1
5386 1 8.1826852751344212e+00 1.6610975760621256e+00 2.3236008568622594e+01 0 0 1
1748 1 9.5517800709291460e+00 4.0370451883689871e+00 2.4292200861453633e+01 0 4 0
1516 1 1.1980711488457318e+01 2.9308839015207255e-02 2.3215859176927278e+01 -1 -2 1
4860 1 9.6685046226882287e-01 5.7712597700889718e+00 2.3218513566039547e+01 -1 1 1
2152 1 7.8395075310326867e-01 6.1360415907692083e+00 2.0589938976300637e+01 2 2 0
3273 1 5.5971860083860978e+00 6.0591947509904527e+00 2.4237345711793502e+01 -4 0 1
1368 1 8.2513205940575354e+00 6.4267486454175167e+00 2.0655703431578960e+01 0 -1 1
77 1 8.3368757455198814e+00 6.4496702497707226e+00 2.3370421474189133e+01 -3 4 0
1315 1 1.2054041772150152e+01 4.3232523652641657e+00 2.0622116702923485e+01 1 0 1
5585 1 1.1819654592385820e+01 4.2614543965278058e+00 2.3261404151878669e+01 0 3 1
244 1 2.3731995908550814e+00 8.4285610331354821e+00 2.4029919816364032e+01 0 0 0
1583 1 4.4960763516621333e-01 1.0638755897428840e+01 2.0650507151722941e+01 1 1 1
157 1 7.9821878240835931e-01 1.0390443643050894e+01 2.3172948505372815e+01 1 0 0
3817 1 4.8616740057137262e+00 8.4576049497444430e+00 2.3460947842281850e+01 1 0 1
1850 1 4.7489950742816776e+00 8.2644386296421342e+00 2.0669633244554305e+01 3 0 0
2148 1 6.0526919702817876e+00 1.0893092125593933e+01 2.3912669383940070e+01 0 1 0
2251 1 8.5544313458213725e+00 1.1143191484776487e+01 2.2969363916738260e+01 -1 1 1
1782 1 8.5273683636045270e+00 1.0472559409682679e+01 2.0306648844939961e+01 -1 1 0
2304 1 9.6646087804219292e+00 8.6991809848414583e+00 2.3981621521319763e+01 0 3 1
3171 1 1.2071173804784824e+01 8.8240438799904943e+00 2.2971365163933481e+01 -3 1 1
3383 1 1.2103423264389702e+01 8.8955962411022416e+00 2.0550808027461031e+01 -2 -1 1
618 2 0.0000000000000000e+00 2.8417180249513345e+00 2.6802836034525530e+01 0 0 0
620 2 0.0000000000000000e+00 0.0000000000000000e+00 2.6802836034525530e+01 0 0 0
622 2 1.2305000000000001e+00 7.1042950623783474e-01 2.6802836034525530e+01 0 0 0
629 2 1.2305000000000001e+00 2.1312885187134998e+00 2.6802836034525530e+01 0 0 0
631 2 2.4610000000000003e+00 2.8417180249513345e+00 2.6802836034525530e+01 0 0 0
633 2 2.4610000000000003e+00 0.0000000000000000e+00 2.6802836034525530e+01 0 0 0
635 2 3.6915000000000004e+00 7.1042950623783474e-01 2.6802836034525530e+01 0 0 0
650 2 3.6914999999999996e+00 2.1312885187134998e+00 2.6802836034525530e+01 0 0 0
652 2 4.9220000000000006e+00 2.8417180249513332e+00 2.6802836034525530e+01 0 0 0
654 2 4.9220000000000006e+00 0.0000000000000000e+00 2.6802836034525530e+01 0 0 0
656 2 6.1524999999999999e+00 7.1042950623783407e-01 2.6802836034525530e+01 0 0 0
679 2 6.1524999999999999e+00 2.1312885187134989e+00 2.6802836034525530e+01 0 0 0
681 2 7.3829999999999991e+00 2.8417180249513345e+00 2.6802836034525530e+01 0 0 0
683 2 7.3829999999999991e+00 0.0000000000000000e+00 2.6802836034525530e+01 0 0 0
685 2 8.6134999999999984e+00 7.1042950623783407e-01 2.6802836034525530e+01 0 0 0
716 2 8.6134999999999984e+00 2.1312885187135002e+00 2.6802836034525530e+01 0 0 0
718 2 9.8440000000000012e+00 2.8417180249513332e+00 2.6802836034525530e+01 0 0 0
720 2 9.8440000000000012e+00 0.0000000000000000e+00 2.6802836034525530e+01 0 0 0
722 2 1.1074500000000002e+01 7.1042950623783330e-01 2.6802836034525530e+01 0 0 0
761 2 1.1074500000000002e+01 2.1312885187135002e+00 2.6802836034525530e+01 0 0 0
623 2 0.0000000000000000e+00 7.1042950623783341e+00 2.6802836034525530e+01 0 0 0
625 2 0.0000000000000000e+00 4.2625770374269996e+00 2.6802836034525530e+01 0 0 0
627 2 1.2305000000000001e+00 4.9730065436648339e+00 2.6802836034525530e+01 0 0 0
642 2 1.2305000000000001e+00 6.3938655561404980e+00 2.6802836034525530e+01 0 0 0
644 2 2.4610000000000003e+00 7.1042950623783341e+00 2.6802836034525530e+01 0 0 0
646 2 2.4610000000000003e+00 4.2625770374269996e+00 2.6802836034525530e+01 0 0 0
648 2 3.6914999999999996e+00 4.9730065436648339e+00 2.6802836034525530e+01 0 0 0
671 2 3.6914999999999996e+00 6.3938655561404980e+00 2.6802836034525530e+01 0 0 0
673 2 4.9220000000000006e+00 7.1042950623783341e+00 2.6802836034525530e+01 0 0 0
675 2 4.9220000000000006e+00 4.2625770374269978e+00 2.6802836034525530e+01 0 0 0
677 2 6.1524999999999999e+00 4.9730065436648339e+00 2.6802836034525530e+01 0 0 0
708 2 6.1524999999999999e+00 6.3938655561404980e+00 2.6802836034525530e+01 0 0 0
710 2 7.3830000000000009e+00 7.1042950623783341e+00 2.6802836034525530e+01 0 0 0
712 2 7.3829999999999991e+00 4.2625770374269996e+00 2.6802836034525530e+01 0 0 0
714 2 8.6135000000000002e+00 4.9730065436648339e+00 2.6802836034525530e+01 0 0 0
753 2 8.6135000000000002e+00 6.3938655561404980e+00 2.6802836034525530e+01 0 0 0
755 2 9.8440000000000012e+00 7.1042950623783341e+00 2.6802836034525530e+01 0 0 0
757 2 9.8440000000000012e+00 4.2625770374270004e+00 2.6802836034525530e+01 0 0 0
759 2 1.1074500000000002e+01 4.9730065436648339e+00 2.6802836034525530e+01 0 0 0
800 2 1.1074500000000002e+01 6.3938655561404980e+00 2.6802836034525530e+01 0 0 0
667 2 2.4610000000000003e+00 8.5251540748539991e+00 2.6802836034525530e+01 0 0 0
669 2 3.6915000000000004e+00 9.2355835810918343e+00 2.6802836034525530e+01 0 0 0
636 2 0.0000000000000000e+00 1.1366872099805333e+01 2.6802836034525530e+01 0 0 0
700 2 3.6914999999999996e+00 1.0656442593567499e+01 2.6802836034525530e+01 0 0 0
638 2 0.0000000000000000e+00 8.5251540748539991e+00 2.6802836034525530e+01 0 0 0
640 2 1.2305000000000001e+00 9.2355835810918343e+00 2.6802836034525530e+01 0 0 0
663 2 1.2305000000000001e+00 1.0656442593567498e+01 2.6802836034525530e+01 0 0 0
665 2 2.4610000000000003e+00 1.1366872099805333e+01 2.6802836034525530e+01 0 0 0
702 2 4.9220000000000006e+00 1.1366872099805333e+01 2.6802836034525530e+01 0 0 0
747 2 7.3829999999999991e+00 1.1366872099805333e+01 2.6802836034525530e+01 0 0 0
749 2 7.3830000000000009e+00 8.5251540748539991e+00 2.6802836034525530e+01 0 0 0
745 2 6.1524999999999999e+00 1.0656442593567499e+01 2.6802836034525530e+01 0 0 0
706 2 6.1524999999999999e+00 9.2355835810918343e+00 2.6802836034525530e+01 0 0 0
704 2 4.9220000000000006e+00 8.5251540748539991e+00 2.6802836034525530e+01 0 0 0
792 2 8.6134999999999984e+00 1.0656442593567498e+01 2.6802836034525530e+01 0 0 0
798 2 1.1074500000000002e+01 9.2355835810918343e+00 2.6802836034525530e+01 0 0 0
794 2 9.8440000000000012e+00 1.1366872099805333e+01 2.6802836034525530e+01 0 0 0
839 2 1.1074500000000002e+01 1.0656442593567498e+01 2.6802836034525530e+01 0 0 0
796 2 9.8440000000000012e+00 8.5251540748539956e+00 2.6802836034525530e+01 0 0 0
841 2 1.2304999999999998e+01 1.1366872099805333e+01 2.6802836034525530e+01 0 0 0
751 2 8.6134999999999984e+00 9.2355835810918343e+00 2.6802836034525530e+01 0 0 0
619 2 0.0000000000000000e+00 1.4208590124756650e+00 3.0030999999999089e+01 0 0 0
621 2 0.0000000000000000e+00 0.0000000000000000e+00 3.0030999999999089e+01 0 0 0
628 2 1.2305000000000001e+00 3.5521475311891644e+00 3.0030999999999089e+01 0 0 0
630 2 1.2305000000000001e+00 2.1312885187134998e+00 3.0030999999999089e+01 0 0 0
632 2 2.4610000000000003e+00 1.4208590124756650e+00 3.0030999999999089e+01 0 0 0
634 2 2.4610000000000003e+00 0.0000000000000000e+00 3.0030999999999089e+01 0 0 0
649 2 3.6914999999999996e+00 3.5521475311891644e+00 3.0030999999999089e+01 0 0 0
651 2 3.6914999999999996e+00 2.1312885187134998e+00 3.0030999999999089e+01 0 0 0
947 2 0.0000000000000000e+00 2.8417180249513345e+00 3.3259163965480013e+01 0 0 0
948 2 0.0000000000000000e+00 0.0000000000000000e+00 3.3259163965480013e+01 0 0 0
949 2 1.2305000000000001e+00 7.1042950623783474e-01 3.3259163965480013e+01 0 0 0
953 2 1.2305000000000001e+00 2.1312885187134998e+00 3.3259163965480013e+01 0 0 0
954 2 2.4610000000000003e+00 2.8417180249513345e+00 3.3259163965480013e+01 0 0 0
955 2 2.4610000000000003e+00 0.0000000000000000e+00 3.3259163965480013e+01 0 0 0
956 2 3.6915000000000004e+00 7.1042950623783474e-01 3.3259163965480013e+01 0 0 0
964 2 3.6914999999999996e+00 2.1312885187134998e+00 3.3259163965480013e+01 0 0 0
653 2 4.9220000000000006e+00 1.4208590124756650e+00 3.0030999999999089e+01 0 0 0
655 2 4.9220000000000006e+00 0.0000000000000000e+00 3.0030999999999089e+01 0 0 0
678 2 6.1524999999999999e+00 3.5521475311891644e+00 3.0030999999999089e+01 0 0 0
680 2 6.1524999999999999e+00 2.1312885187134989e+00 3.0030999999999089e+01 0 0 0
682 2 7.3829999999999991e+00 1.4208590124756659e+00 3.0030999999999089e+01 0 0 0
684 2 7.3829999999999991e+00 0.0000000000000000e+00 3.0030999999999089e+01 0 0 0
965 2 4.9220000000000006e+00 2.8417180249513332e+00 3.3259163965480013e+01 0 0 0
966 2 4.9220000000000006e+00 0.0000000000000000e+00 3.3259163965480013e+01 0 0 0
967 2 6.1524999999999999e+00 7.1042950623783407e-01 3.3259163965480013e+01 0 0 0
979 2 6.1524999999999999e+00 2.1312885187134989e+00 3.3259163965480013e+01 0 0 0
980 2 7.3829999999999991e+00 2.8417180249513345e+00 3.3259163965480013e+01 0 0 0
981 2 7.3829999999999991e+00 0.0000000000000000e+00 3.3259163965480013e+01 0 0 0
715 2 8.6134999999999984e+00 3.5521475311891657e+00 3.0030999999999089e+01 0 0 0
717 2 8.6134999999999984e+00 2.1312885187135002e+00 3.0030999999999089e+01 0 0 0
719 2 9.8440000000000012e+00 1.4208590124756659e+00 3.0030999999999089e+01 0 0 0
721 2 9.8440000000000012e+00 0.0000000000000000e+00 3.0030999999999089e+01 0 0 0
760 2 1.1074500000000002e+01 3.5521475311891644e+00 3.0030999999999089e+01 0 0 0
762 2 1.1074500000000002e+01 2.1312885187135002e+00 3.0030999999999089e+01 0 0 0
982 2 8.6134999999999984e+00 7.1042950623783407e-01 3.3259163965480013e+01 0 0 0
998 2 8.6134999999999984e+00 2.1312885187135002e+00 3.3259163965480013e+01 0 0 0
999 2 9.8440000000000012e+00 2.8417180249513332e+00 3.3259163965480013e+01 0 0 0
1000 2 9.8440000000000012e+00 0.0000000000000000e+00 3.3259163965480013e+01 0 0 0
1001 2 1.1074500000000002e+01 7.1042950623783330e-01 3.3259163965480013e+01 0 0 0
1021 2 1.1074500000000002e+01 2.1312885187135002e+00 3.3259163965480013e+01 0 0 0
624 2 0.0000000000000000e+00 5.6834360499026637e+00 3.0030999999999089e+01 0 0 0
626 2 0.0000000000000000e+00 4.2625770374269996e+00 3.0030999999999089e+01 0 0 0
641 2 1.2305000000000001e+00 7.8147245686161639e+00 3.0030999999999089e+01 0 0 0
643 2 1.2305000000000001e+00 6.3938655561404980e+00 3.0030999999999089e+01 0 0 0
645 2 2.4610000000000003e+00 5.6834360499026637e+00 3.0030999999999089e+01 0 0 0
647 2 2.4610000000000003e+00 4.2625770374269996e+00 3.0030999999999089e+01 0 0 0
670 2 3.6914999999999996e+00 7.8147245686161639e+00 3.0030999999999089e+01 0 0 0
672 2 3.6914999999999996e+00 6.3938655561404980e+00 3.0030999999999089e+01 0 0 0
950 2 0.0000000000000000e+00 7.1042950623783341e+00 3.3259163965480013e+01 0 0 0
951 2 0.0000000000000000e+00 4.2625770374269996e+00 3.3259163965480013e+01 0 0 0
952 2 1.2305000000000001e+00 4.9730065436648339e+00 3.3259163965480013e+01 0 0 0
960 2 1.2305000000000001e+00 6.3938655561404980e+00 3.3259163965480013e+01 0 0 0
961 2 2.4610000000000003e+00 7.1042950623783341e+00 3.3259163965480013e+01 0 0 0
962 2 2.4610000000000003e+00 4.2625770374269996e+00 3.3259163965480013e+01 0 0 0
963 2 3.6914999999999996e+00 4.9730065436648339e+00 3.3259163965480013e+01 0 0 0
975 2 3.6914999999999996e+00 6.3938655561404980e+00 3.3259163965480013e+01 0 0 0
674 2 4.9220000000000006e+00 5.6834360499026637e+00 3.0030999999999089e+01 0 0 0
676 2 4.9220000000000006e+00 4.2625770374269978e+00 3.0030999999999089e+01 0 0 0
707 2 6.1524999999999999e+00 7.8147245686161639e+00 3.0030999999999089e+01 0 0 0
709 2 6.1524999999999999e+00 6.3938655561404980e+00 3.0030999999999089e+01 0 0 0
711 2 7.3829999999999991e+00 5.6834360499026637e+00 3.0030999999999089e+01 0 0 0
713 2 7.3829999999999991e+00 4.2625770374269996e+00 3.0030999999999089e+01 0 0 0
976 2 4.9220000000000006e+00 7.1042950623783341e+00 3.3259163965480013e+01 0 0 0
977 2 4.9220000000000006e+00 4.2625770374269978e+00 3.3259163965480013e+01 0 0 0
978 2 6.1524999999999999e+00 4.9730065436648339e+00 3.3259163965480013e+01 0 0 0
994 2 6.1524999999999999e+00 6.3938655561404980e+00 3.3259163965480013e+01 0 0 0
995 2 7.3830000000000009e+00 7.1042950623783341e+00 3.3259163965480013e+01 0 0 0
996 2 7.3829999999999991e+00 4.2625770374269996e+00 3.3259163965480013e+01 0 0 0
752 2 8.6135000000000002e+00 7.8147245686161639e+00 3.0030999999999089e+01 0 0 0
754 2 8.6135000000000002e+00 6.3938655561404980e+00 3.0030999999999089e+01 0 0 0
756 2 9.8440000000000012e+00 5.6834360499026637e+00 3.0030999999999089e+01 0 0 0
758 2 9.8440000000000012e+00 4.2625770374270004e+00 3.0030999999999089e+01 0 0 0
799 2 1.1074500000000002e+01 7.8147245686161639e+00 3.0030999999999089e+01 0 0 0
801 2 1.1074500000000002e+01 6.3938655561404980e+00 3.0030999999999089e+01 0 0 0
997 2 8.6135000000000002e+00 4.9730065436648339e+00 3.3259163965480013e+01 0 0 0
1017 2 8.6135000000000002e+00 6.3938655561404980e+00 3.3259163965480013e+01 0 0 0
1018 2 9.8440000000000012e+00 7.1042950623783341e+00 3.3259163965480013e+01 0 0 0
1019 2 9.8440000000000012e+00 4.2625770374270004e+00 3.3259163965480013e+01 0 0 0
1020 2 1.1074500000000002e+01 4.9730065436648339e+00 3.3259163965480013e+01 0 0 0
1041 2 1.1074500000000002e+01 6.3938655561404980e+00 3.3259163965480013e+01 0 0 0
637 2 0.0000000000000000e+00 9.9460130873296642e+00 3.0030999999999089e+01 0 0 0
639 2 0.0000000000000000e+00 8.5251540748539991e+00 3.0030999999999089e+01 0 0 0
662 2 1.2305000000000001e+00 1.2077301606043163e+01 3.0030999999999089e+01 0 0 0
664 2 1.2305000000000001e+00 1.0656442593567498e+01 3.0030999999999089e+01 0 0 0
666 2 2.4610000000000003e+00 9.9460130873296642e+00 3.0030999999999089e+01 0 0 0
668 2 2.4610000000000003e+00 8.5251540748539991e+00 3.0030999999999089e+01 0 0 0
699 2 3.6914999999999996e+00 1.2077301606043163e+01 3.0030999999999089e+01 0 0 0
701 2 3.6914999999999996e+00 1.0656442593567499e+01 3.0030999999999089e+01 0 0 0
957 2 0.0000000000000000e+00 1.1366872099805333e+01 3.3259163965480013e+01 0 0 0
958 2 0.0000000000000000e+00 8.5251540748539991e+00 3.3259163965480013e+01 0 0 0
959 2 1.2305000000000001e+00 9.2355835810918343e+00 3.3259163965480013e+01 0 0 0
971 2 1.2305000000000001e+00 1.0656442593567498e+01 3.3259163965480013e+01 0 0 0
972 2 2.4610000000000003e+00 1.1366872099805333e+01 3.3259163965480013e+01 0 0 0
973 2 2.4610000000000003e+00 8.5251540748539991e+00 3.3259163965480013e+01 0 0 0
974 2 3.6915000000000004e+00 9.2355835810918343e+00 3.3259163965480013e+01 0 0 0
990 2 3.6914999999999996e+00 1.0656442593567499e+01 3.3259163965480013e+01 0 0 0
703 2 4.9220000000000006e+00 9.9460130873296642e+00 3.0030999999999089e+01 0 0 0
705 2 4.9220000000000006e+00 8.5251540748539991e+00 3.0030999999999089e+01 0 0 0
744 2 6.1524999999999999e+00 1.2077301606043163e+01 3.0030999999999089e+01 0 0 0
746 2 6.1524999999999999e+00 1.0656442593567499e+01 3.0030999999999089e+01 0 0 0
748 2 7.3830000000000009e+00 9.9460130873296642e+00 3.0030999999999089e+01 0 0 0
750 2 7.3830000000000009e+00 8.5251540748539991e+00 3.0030999999999089e+01 0 0 0
991 2 4.9220000000000006e+00 1.1366872099805333e+01 3.3259163965480013e+01 0 0 0
992 2 4.9220000000000006e+00 8.5251540748539991e+00 3.3259163965480013e+01 0 0 0
993 2 6.1524999999999999e+00 9.2355835810918343e+00 3.3259163965480013e+01 0 0 0
1013 2 6.1524999999999999e+00 1.0656442593567499e+01 3.3259163965480013e+01 0 0 0
1014 2 7.3829999999999991e+00 1.1366872099805333e+01 3.3259163965480013e+01 0 0 0
1015 2 7.3830000000000009e+00 8.5251540748539991e+00 3.3259163965480013e+01 0 0 0
791 2 8.6135000000000002e+00 1.2077301606043163e+01 3.0030999999999089e+01 0 0 0
793 2 8.6134999999999984e+00 1.0656442593567498e+01 3.0030999999999089e+01 0 0 0
795 2 9.8440000000000012e+00 9.9460130873296642e+00 3.0030999999999089e+01 0 0 0
797 2 9.8440000000000012e+00 8.5251540748539956e+00 3.0030999999999089e+01 0 0 0
838 2 1.1074500000000002e+01 1.2077301606043163e+01 3.0030999999999089e+01 0 0 0
840 2 1.1074500000000002e+01 1.0656442593567498e+01 3.0030999999999089e+01 0 0 0
1016 2 8.6134999999999984e+00 9.2355835810918343e+00 3.3259163965480013e+01 0 0 0
1037 2 8.6134999999999984e+00 1.0656442593567498e+01 3.3259163965480013e+01 0 0 0
1038 2 9.8440000000000012e+00 1.1366872099805333e+01 3.3259163965480013e+01 0 0 0
1039 2 9.8440000000000012e+00 8.5251540748539956e+00 3.3259163965480013e+01 0 0 0
1040 2 1.1074500000000002e+01 9.2355835810918343e+00 3.3259163965480013e+01 0 0 0
1061 2 1.1074500000000002e+01 1.0656442593567498e+01 3.3259163965480013e+01 0 0 0
1062 2 1.2304999999999998e+01 1.1366872099805333e+01 3.3259163965480013e+01 0 0 0
203 1 3.3288033128357983e+00 1.8195612045352203e+00 3.5931928012070472e+01 2 0 -1
394 1 2.1260507098549999e+00 4.0308686672619203e+00 3.9039899011652849e+01 2 0 -1
326 1 1.9478188997617043e+00 3.9682570466731408e+00 3.6277083905381787e+01 0 0 -1
3812 1 5.8372126365928425e+00 1.7846855761023477e+00 3.6836306840318628e+01 1 0 -1
3640 1 6.0523953461159605e+00 1.4559220941722382e+00 3.9456280370482574e+01 5 1 -1
6675 1 7.4046478135772773e+00 3.9024346294066001e+00 3.6361322581286402e+01 -2 0 -1
3830 1 9.7595096245779391e+00 4.0031459223378407e+00 3.9476842596551180e+01 -2 -2 -1
6342 1 1.0034899554022541e+01 3.7450499799886177e+00 3.6524879651356741e+01 2 7 0
1403 1 1.1362103230509476e+01 1.6493234942265573e+00 3.5554782810037850e+01 -1 -1 0
3278 1 3.8964142234479295e+00 5.9601295847612556e+00 3.5630390336930247e+01 2 3 -1
4957 1 6.0993391401235861e+00 6.2352672826490139e+00 3.6917059521874805e+01 3 3 -1
5257 1 6.1701634357770008e+00 6.3779872454643414e+00 3.9446199972604049e+01 0 3 -1
1650 1 9.9245880815881886e+00 8.1092583995511944e+00 3.6721302670876241e+01 2 2 0
3308 1 1.1353490823134019e+01 6.0369085219060326e+00 3.5925263280542325e+01 -1 2 -1
4731 1 2.2618364891638403e+00 8.3024186212425573e+00 3.6515511021166787e+01 2 1 0
5634 1 2.2687044841631767e+00 8.4888670748761221e+00 3.9373179754597061e+01 -2 1 -1
5273 1 3.6367884430652233e+00 1.0326132657114492e+01 3.5790339429622051e+01 0 1 -1
3845 1 7.1250411407264158e+00 8.2910501896126032e+00 3.5755709452600726e+01 1 -1 -1
5591 1 6.1604224989371517e+00 1.0632797563149129e+01 3.6523196811232893e+01 5 1 0
3413 1 6.1743098521060640e+00 1.0517180645964446e+01 3.9069626148015615e+01 -1 -4 -1
2140 1 9.7995292353366885e+00 8.2724906179327107e+00 3.9398814891463232e+01 -1 1 -1
3400 1 1.1301828373740864e+01 1.0101407247043293e+01 3.6009214166581245e+01 -1 2 -1
5395 1 3.1301485076490074e+00 1.7866643201413879e+00 4.0121675437423207e+01 4 3 -1
1817 1 7.5914950996014785e-01 2.0102714098328400e+00 4.3969897503127513e+01 0 2 -1
6682 1 3.2552796941108046e+00 1.7203681740701353e+00 4.2887736100511603e+01 -1 0 -1
2227 1 7.1372770274576114e+00 3.8678807059300673e+00 3.9944375698121519e+01 -1 2 -1
6529 1 7.1480253754162781e+00 3.8924438598731097e+00 4.2495798451061660e+01 3 -3 0
5471 1 4.6047215416696412e+00 3.9864657317127152e+00 4.3519421003094479e+01 -1 3 -1
21 1 8.1907315517608836e+00 1.9940081721218066e+00 4.3806641541778248e+01 0 0 -1
3188 1 1.0933549317155244e+01 1.4869794691224032e+00 4.0379430723936039e+01 0 1 -1
5177 1 1.0698754562585538e+01 1.8653855350056336e+00 4.3020835333723184e+01 0 3 -1
3029 1 3.6290201893922123e+00 6.2230300703035351e+00 4.0322656912835939e+01 1 1 0
5130 1 3.5937760116551170e+00 6.5154129793460642e+00 4.2749858263019433e+01 -1 0 -1
3792 1 7.5341748836588962e-01 6.6583508566145122e+00 4.3944218713308956e+01 0 2 -1
5595 1 8.1942595388911386e+00 6.2416356692250723e+00 4.3665925440547227e+01 -1 2 -1
5306 1 1.0918286670278118e+01 5.9135379951215787e+00 4.3011339450838690e+01 0 1 -1
3181 1 1.1052617225197874e+01 6.1721760682825435e+00 4.0542928358134375e+01 -1 1 0
6470 1 1.2172273611040717e+01 7.7447193796263285e+00 4.4273702058032299e+01 1 0 0
3509 1 3.7512822873275615e+00 1.0477237775233975e+01 4.0249017638595973e+01 -1 1 0
6424 1 9.2664381382936456e-01 1.0751988849844233e+01 4.3568056199147463e+01 2 2 0
1931 1 3.4542330321673900e+00 1.0838750718416694e+01 4.2988281190030776e+01 -3 -1 -1
3848 1 5.0456868687023935e+00 8.5808596524815286e+00 4.4050418955834701e+01 3 -1 -1
5446 1 7.4036200110376038e+00 8.5762380347408573e+00 4.0479671604985214e+01 2 -1 -1
3180 1 7.3564265625825618e+00 8.7691743112499587e+00 4.3008047807709119e+01 1 1 0
3754 1 1.1588333101722691e+01 1.0329518528858713e+01 4.2982542771042759e+01 -1 1 -1
5437 1 1.1420509830316808e+01 1.0189774986695966e+01 4.0542194693372608e+01 0 4 -1
2016 1 8.9540960253361597e+00 1.0822124897240931e+01 4.4187422287598451e+01 1 2 -1
3516 1 5.9539178157982819e-01 1.7330257015924466e+00 4.6720661571988913e+01 0 2 -1
2167 1 5.8002888940803929e+00 1.9401675498118187e+00 4.7277652027056106e+01 -1 0 -1
1830 1 8.4574739053268164e+00 2.2073905598645958e+00 4.6376605213115610e+01 1 0 -1
1744 1 9.9392719921155166e+00 3.9873344777150685e+00 4.7392137114118441e+01 1 2 -1
1809 1 1.9757785841923867e+00 4.2146882109359431e+00 4.7075825735359842e+01 1 0 -1
3680 1 9.7275268717281371e-01 6.6232526646306100e+00 4.6524022296978259e+01 1 -1 -1
3452 1 2.0999281787716759e+00 4.0875220862541282e+00 4.9755661680177099e+01 4 0 -1
1802 1 4.4691478089135410e+00 4.1531536561115141e+00 4.6200289595304923e+01 4 4 0
1627 1 5.8991516117978717e+00 6.1290660779975354e+00 4.7427616928917217e+01 -1 2 0
2145 1 8.6955899391939724e+00 6.4543145342984216e+00 4.6416119097084689e+01 -1 0 -1
488 1 1.9712043942141428e+00 8.6269865665741250e+00 4.7607004919031723e+01 2 2 -1
2184 1 9.7346372506521117e-01 1.0654351598486452e+01 4.6357791962624816e+01 0 -3 -1
89 1 4.6222478588776603e+00 8.3670285517615159e+00 4.7032973128173282e+01 1 -2 -1
6731 1 6.1605836488402677e+00 1.0428435040652518e+01 4.7602184935631030e+01 1 -1 0
3319 1 1.0004470131595864e+01 8.4987148771191450e+00 4.7616754031153903e+01 3 2 -1