
# Create simulation box and atoms

read_data data.graphite_substrate_500
  orthogonal box = (0 0 -0.518223) to (49.22 49.0196 60.5802)
  4 by 4 by 4 MPI processor grid
  reading atoms ...
  6750 atoms
  reading velocities ...
  6750 velocities
group water type 1
3990 atoms in group water
group graphite type 2
2760 atoms in group graphite

# Define potential

pair_style sw
pair_coeff * * mWC.sw mW C
Reading potential file mWC.sw with DATE: 2019-02-27


# Fix graphite atoms in place

fix 5 graphite setforce 0.0 0.0 0.0
velocity graphite set 0.0 0.0 0.0


# Equilibration of molecular water

# Add velocity/set timestep

velocity	    water create ${TEMP} ${SEED} rot yes dist gaussian
velocity	    water create 225 ${SEED} rot yes dist gaussian
velocity	    water create 225 20701 rot yes dist gaussian
timestep	    5.0

# Define output

compute			1 water msd
compute			3 water temp
thermo	    	50
thermo_style	custom step temp press vol etotal ke pe c_1[4] c_3

# Neighbor lists

neigh_modify    delay 0 every 1 check yes

# Set fixes

fix             1 water momentum 10 linear 1 1 1 rescale
fix             2 water nve
fix             3 water temp/csvr ${TEMP} ${TEMP} 500.0 ${SEED}
fix             3 water temp/csvr 225 ${TEMP} 500.0 ${SEED}
fix             3 water temp/csvr 225 225 500.0 ${SEED}
fix             3 water temp/csvr 225 225 500.0 20701
fix             4 water press/berendsen z ${PRES} ${PRES} 1000.0 modulus 20000
fix             4 water press/berendsen z -500 ${PRES} 1000.0 modulus 20000
fix             4 water press/berendsen z -500 -500 1000.0 modulus 20000

# Run 0.5 ns equilibration

dump		    1 all atom 2000 ${DIR}/eq.${NAME}-${TEMP}.dump
dump		    1 all atom 2000 run_14/eq.${NAME}-${TEMP}.dump
dump		    1 all atom 2000 run_14/eq.het_freeze_14-${TEMP}.dump
dump		    1 all atom 2000 run_14/eq.het_freeze_14-225.dump

reset_timestep  0

run	            100000
Neighbor list info ...
  update every 1 steps, delay 0 steps, check yes
  max neighbors/atom: 2000, page size: 100000
  master list distance cutoff = 7.76
  ghost atom cutoff = 7.76
  binsize = 3.88, bins = 13 13 16
  1 neighbor lists, perpetual/occasional/extra = 1 0 0
  (1) pair sw, perpetual
      attributes: full, newton on
      pair build: full/bin/atomonly
      stencil: full/bin/3d
      bin: standard
Per MPI rank memory allocation (min/avg/max) = 4.083 | 4.203 | 4.508 Mbytes
Step Temp Press Volume TotEng KinEng PotEng c_1[4] c_3 
       0    132.98637   -1273.0418    147415.06    -35990.25    2675.3515   -38665.602            0          225 
      50    171.06414   -1308.1964     146935.5   -36422.969    3441.3805   -39864.349   0.86344931    289.42388 
     100      163.339   -1272.1649    146478.53   -36858.709    3285.9702   -40144.679    1.9265998     276.3537 
     150    160.87747   -1275.8055    146071.48   -37183.632    3236.4504   -40420.083    2.7943853    272.18903 
     200    156.64938   -1456.4462    145703.05   -37397.986    3151.3918   -40549.378    3.5678749    265.03551 
     250    155.45224   -1250.7976    145238.49   -37635.878    3127.3084   -40763.186    4.2840074    263.01007 
     300     150.7624   -1164.0913    144857.96   -37827.385    3032.9605   -40860.345    4.9022556    255.07531 
     350    148.37676   -1038.3947    144534.65   -37985.618    2984.9676   -40970.586    5.4788718    251.03905 
     400    148.63598   -1086.6511    144270.42    -38170.28    2990.1825   -41160.462      6.08831    251.47763 
     450    145.65431   -944.03337    144085.28   -38305.459    2930.1986   -41235.658    6.7022056    246.43292 
     500    142.60365    -1137.973    143882.35   -38474.273    2868.8271     -41343.1    7.2412098    241.27151 
     550    140.31068   -1047.9932    143624.92   -38570.973    2822.6983   -41393.671    7.6561916    237.39202 
     600    140.10403   -930.64033    143473.52   -38686.818     2818.541   -41505.359    8.1907727    237.04239 
     650    138.65103   -973.83098     143300.8   -38769.618    2789.3104   -41558.928    8.7042365    234.58406 
     700    136.98509   -1160.4527    143187.51   -38848.213    2755.7958   -41604.008    9.0948493    231.76545 
     750    139.25325   -725.97133    143052.29   -38859.045    2801.4254    -41660.47    9.4882573    235.60295 
     800    136.97832   -870.63899    142941.94   -38980.047    2755.6596   -41735.707    9.8199789    231.75399 
     850    135.73871    -852.4506    142845.41   -39020.508    2730.7217   -41751.229    10.255086    229.65669 
     900    136.23271   -915.50678    142738.19   -39092.991    2740.6598   -41833.651    10.633843     230.4925 
     950    136.63215   -799.85113    142648.55   -39129.895    2748.6956    -41878.59    10.998911    231.16832 
    1000    133.34894   -700.94114     142580.1   -39145.244    2682.6455   -41827.889    11.375411    225.61343 
    1050    134.78412   -612.54171    142565.75   -39185.663    2711.5178    -41897.18    11.648115    228.04162 
    1100    132.30757   -753.40061    142503.98   -39225.496    2661.6958   -41887.192    11.973217    223.85153 
    1150    132.02872   -728.25607       142470   -39226.661     2656.086   -41882.747    12.274337    223.37975 
    1200    133.89906    -968.5856    142434.07   -39217.805    2693.7126   -41911.517     12.55965    226.54419 
    1250    135.40116   -877.11346    142391.24   -39232.604     2723.931   -41956.535    12.796474    229.08559 
    1300    136.13788   -935.99063     142323.5   -39283.659     2738.752   -42022.411    13.055032    230.33205 
    1350    134.45182   -559.23521    142270.44   -39343.586    2704.8327   -42048.419    13.454871     227.4794 
    1400    131.35417   -787.79714    142268.74   -39348.426    2642.5158   -41990.942    13.684088    222.23848 
    1450    134.25674   -768.93609    142246.92   -39346.348    2700.9082   -42047.257     13.96574    227.14935 
    1500    132.31349   -608.12644    142344.76   -39383.075     2661.815    -42044.89    14.069697    223.86156 
    1550    132.05563   -694.80909    142300.35   -39410.131    2656.6273   -42066.759     14.32319    223.42527 
    1600    133.69184   -665.33102    142269.08   -39410.768    2689.5438   -42100.312     14.69041    226.19358 
    1650    132.40239   -648.55922    142303.86   -39451.597    2663.6034     -42115.2    14.861377    224.01197 
    1700    132.05719   -581.47369    142360.16   -39473.631    2656.6587   -42130.289    15.250303    223.42792 
    1750    132.57782   -711.90791    142362.03   -39473.773    2667.1326   -42140.906    15.591988    224.30877 
    1800    131.84541   -655.13735    142290.76   -39477.461    2652.3983   -42129.859    15.910124     223.0696 
    1850    135.20708   -429.51233    142315.96   -39442.388    2720.0268   -42162.415     16.01637    228.75723 
    1900     132.7093   -749.98556    142341.62     -39460.5    2669.7776   -42130.278    16.341017    224.53123 
    1950    133.58561   -509.13701    142351.27   -39480.971    2687.4067   -42168.378    16.636047    226.01385 
    2000    131.67663   -673.45611    142370.99   -39505.445    2649.0028   -42154.447    16.917681    222.78405 
    2050     132.0469   -678.42832    142410.12   -39463.751    2656.4519   -42120.203    17.209998    223.41052 
    2100     134.4504   -794.18443    142405.67   -39454.853    2704.8042   -42159.657    17.440483      227.477 
    2150    132.04896   -662.01492    142416.52   -39490.543    2656.4932   -42147.036    17.668504    223.41399 
    2200    131.66061   -715.44112    142392.79   -39442.593    2648.6806   -42091.273     17.85275    222.75695 
    2250    131.13668     -950.929    142346.77   -39482.109    2638.1405    -42120.25    18.123661    221.87051 
    2300    134.15931   -643.39606    142217.38   -39473.892    2698.9482    -42172.84    18.527615     226.9845 
    2350    132.58262   -672.15742    142241.42   -39437.178    2667.2292   -42104.407    18.772715     224.3169 
    2400    131.78109   -477.67023    142269.81   -39450.618    2651.1044   -42101.723     18.97017    222.96079 
    2450    132.87004   -707.57384    142295.35   -39429.802    2673.0114   -42102.813    19.125425    224.80319 
    2500    132.59081   -627.16242    142311.82   -39475.438    2667.3938   -42142.831    19.305666    224.33075 
    2550    130.87735   -921.48278    142323.92   -39425.169    2632.9234   -42058.092    19.529988    221.43174 
    2600    132.51577   -780.64746     142279.1   -39414.572    2665.8842   -42080.456    19.770757    224.20379 
    2650    133.89369   -645.33186    142309.56   -39396.259    2693.6046   -42089.864    20.182046    226.53511 
    2700    132.78752   -716.08137    142294.35   -39422.392    2671.3513   -42093.743    20.560622    224.66358 
    2750    132.36164    -497.8144    142307.82   -39440.309    2662.7835   -42103.093    20.812872    223.94301 
    2800    133.53678   -389.53544    142425.22   -39475.257    2686.4245   -42161.682    21.026579    225.93125 
    2850    130.87252   -755.98651    142443.17   -39448.167    2632.8262   -42080.993    21.305766    221.42358 
    2900    131.61041   -676.04227    142398.26   -39451.826    2647.6708   -42099.496     21.53651    222.67202 
    2950    132.79182   -744.20459    142377.68   -39454.393    2671.4378   -42125.831    21.839045    224.67085 
    3000     130.0987   -561.31733    142327.34   -39454.798    2617.2589   -42072.057    22.203863    220.11435 
    3050    130.49847    -629.1112    142324.46   -39438.102    2625.3013   -42063.404    22.516896    220.79072 
    3100    134.18217   -425.11874    142382.51   -39425.442    2699.4081    -42124.85    22.830226    227.02318 
    3150    138.66165   -480.57337    142494.35    -39356.82     2789.524   -42146.344    23.072003    234.60203 
    3200    135.66895   -451.92173    142535.88   -39432.437    2729.3184   -42161.756    23.284278    229.53867 
    3250    135.07691    -585.0974    142569.24   -39405.433    2717.4081   -42122.841    23.366282      228.537 
    3300    135.87498   -722.95812    142624.95   -39376.579    2733.4631   -42110.042    23.488577    229.88724 
    3350    136.99764   -599.29717    142591.15   -39425.815    2756.0483   -42181.863    23.638006    231.78668 
    3400    134.54712   -548.18441    142635.81   -39470.602      2706.75   -42177.352    23.829591    227.64065 
    3450    135.22911   -403.23546    142650.92   -39417.935    2720.4699   -42138.404    24.024293    228.79451 
    3500    136.11807   -813.62547    142736.14   -39424.052    2738.3535   -42162.406    24.128215    230.29853 
    3550    132.55385   -493.16993    142713.06   -39459.476    2666.6503   -42126.126    24.418468    224.26821 
    3600    135.12242   -664.48979    142712.98   -39407.411    2718.3236   -42125.734    24.742041    228.61399 
    3650    134.98594   -717.84787     142662.1   -39419.635    2715.5779   -42135.213    25.168043    228.38308 
    3700    137.40935   -665.77999    142637.24   -39416.863    2764.3308   -42181.194    25.369859    232.48325 
    3750    133.87306   -559.22613    142660.93   -39457.869    2693.1896   -42151.059    25.573262     226.5002 
    3800    134.90141   -756.91666    142649.36   -39461.074    2713.8774   -42174.951    25.800021    228.24007 
    3850     134.6841   -653.82859    142675.75   -39475.569    2709.5055   -42185.074    25.956202    227.87239 
    3900    135.14197    -540.6511    142708.02   -39500.226    2718.7168   -42218.943    26.137498    228.64707 
    3950    134.15274   -579.58063    142758.48   -39538.466    2698.8161   -42237.282     26.22319    226.97339 
    4000    134.01799   -539.63636    142781.17   -39545.455    2696.1051    -42241.56    26.423948     226.7454 
    4050    133.61344   -740.74669    142767.04   -39575.348    2687.9667   -42263.315     26.43457    226.06095 
    4100    133.68978   -644.99269    142714.69   -39525.076    2689.5024   -42214.579    26.644964     226.1901 
    4150    134.35263   -870.17687    142649.99   -39484.138    2702.8373   -42186.975    26.877057    227.31158 
    4200    133.63577   -650.01592    142653.09   -39489.895    2688.4159   -42178.311    27.185199    226.09872 
    4250    135.91145   -599.52358    142598.77   -39533.803    2734.1967   -42267.999    27.247286    229.94895 
    4300    133.74863    -534.9898    142631.52   -39535.638    2690.6863   -42226.325    27.460249    226.28967 
    4350    135.87166   -675.39362    142613.72   -39487.555    2733.3964   -42220.951    27.593798    229.88164 
    4400    135.78172   -744.83849    142649.83   -39484.483     2731.587    -42216.07    27.637914    229.72946 
    4450    134.69942   -691.95595    142708.93   -39505.234    2709.8138   -42215.048    27.985682    227.89831 
    4500    133.27022   -752.31068    142751.41    -39488.57    2681.0619   -42169.632    28.262443    225.48025 
    4550    135.37641    -661.8773    142741.53   -39528.812    2723.4332   -42252.245     28.50421    229.04372 
    4600    133.87217   -576.27866     142767.7   -39526.737    2693.1716   -42219.909     28.68432    226.49869 
    4650     136.1817   -632.13766    142776.99   -39512.129    2739.6336   -42251.762    28.690503    230.40619 
    4700    134.18109   -553.92628    142817.79   -39459.133    2699.3863   -42158.519    28.809044    227.02135 
    4750    134.66421     -677.673    142769.01   -39520.268    2709.1056   -42229.374    28.953884    227.83875 
    4800    134.26745   -796.17283    142814.98   -39517.266    2701.1237    -42218.39    29.098353    227.16747 
    4850    135.41424   -715.41309    142733.13   -39532.977    2724.1942   -42257.171    29.244668    229.10772 
    4900    131.89656   -580.32874    142784.88   -39569.914    2653.4274   -42223.341     29.29676    223.15616 
    4950    133.11227   -649.03376    142862.35   -39572.489    2677.8844   -42250.373    29.421773    225.21302 
    5000    132.93078   -809.36124    142857.97   -39631.304    2674.2333   -42305.537    29.657573    224.90595 
    5050     135.7762   -659.32517    142744.89   -39629.254    2731.4759    -42360.73    30.008136    229.72012 
    5100    131.40959   -649.43852    142709.51   -39676.386    2643.6306   -42320.017    30.339695    222.33224 
    5150    131.25658   -654.75182    142674.52   -39671.613    2640.5526   -42312.165    30.529522    222.07337 
    5200    130.21593   -757.83946    142591.57   -39660.696    2619.6173   -42280.313    30.812887    220.31269 
    5250    131.74328   -402.87722    142551.16   -39618.793    2650.3437   -42269.137    30.972098    222.89681 
    5300    135.74099   -606.15706    142578.49   -39622.826    2730.7676   -42353.594    31.166412    229.66055 
    5350    136.16024   -757.50852    142535.01    -39581.76    2739.2018   -42320.961    31.306259    230.36988 
    5400    135.91775   -396.94519    142526.33   -39562.503    2734.3235   -42296.826    31.490828    229.95961 
    5450    136.45023   -620.38296     142611.5   -39588.742    2745.0357   -42333.778    31.782748    230.86052 
    5500    133.50113   -615.61454    142707.04   -39569.314    2685.7073   -42255.021     32.03842    225.87093 
    5550    134.95415   -670.04057    142724.45   -39621.441    2714.9384   -42336.379    32.402699     228.3293 
    5600    130.03684   -695.42394    142725.23   -39661.286    2616.0144     -42277.3    32.641456    220.00968 
    5650    131.55372    -660.0187    142697.58   -39656.552    2646.5304   -42303.083    32.934257    222.57611 
    5700    132.05345   -573.24075    142727.81   -39617.206    2656.5836    -42273.79    33.168655     223.4216 
    5750    133.19688    -381.6211    142826.45    -39581.15    2679.5865   -42260.737    33.252525    225.35616 
    5800    134.98743   -549.24432    142939.17   -39582.369    2715.6079   -42297.977    33.402754    228.38561 
    5850    131.95991    -444.1859    143004.04   -39570.968    2654.7018    -42225.67    33.406911    223.26334 
    5900    134.21197   -538.56273     143083.7   -39572.389    2700.0076   -42272.397    33.558125    227.07361 
    5950    134.92273   -519.53641    143098.09    -39602.55    2714.3063   -42316.856     33.62273    228.27614 
    6000    131.75685   -700.51746    143131.48   -39630.791    2650.6168   -42281.408    33.857884    222.91978 
    6050    133.34844   -554.66862    143180.81   -39589.652    2682.6355   -42272.287    34.095736    225.61259 
    6100    132.99479    -636.1514    143195.81   -39548.552     2675.521   -42224.073    34.333783    225.01425 
    6150    132.96737   -800.53722    143158.35    -39580.02    2674.9693    -42254.99    34.711344    224.96786 
    6200    133.05097   -660.89636    143049.27    -39542.17    2676.6512   -42218.821    34.950566     225.1093 
    6250    134.92685   -860.46043     143028.6   -39554.188    2714.3892   -42268.577    34.960749    228.28311 
    6300    132.37959   -776.70056    142986.99   -39541.102    2663.1447   -42204.247    35.239627    223.97339 
    6350    133.13377    -799.9606    142982.27   -39526.328    2678.3169   -42204.645    35.573763    225.24939 
    6400    131.74309   -516.33341    143011.73   -39555.861      2650.34   -42206.201    35.934362     222.8965 
    6450    134.43533   -705.44838    142997.11   -39562.374     2704.501   -42266.875    35.992763     227.4515 
    6500    136.72615   -716.80202    143060.19   -39518.525    2750.5865   -42269.111    36.090105    231.32735 
    6550    135.32547   -473.47981    143089.56   -39504.251    2722.4083    -42226.66    36.366068    228.95753 
    6600    134.70278   -671.09263    143131.19   -39548.792    2709.8815   -42258.674    36.760619    227.90401 
    6650    131.55928   -626.38459    143126.18   -39512.367    2646.6421   -42159.009    36.865597     222.5855 
    6700    140.47792   -585.53139    143123.92   -39487.659    2826.0628   -42313.722     37.13115    237.67498 
    6750    134.83798   -598.29083    143130.46    -39510.54    2712.6013   -42223.142    37.434992    228.13275 
    6800    135.89759   -518.36931    143209.29   -39592.914    2733.9181   -42326.832    37.728451    229.92551 
    6850    134.55439   -768.85762    143173.82   -39597.914    2706.8961    -42304.81    38.004426    227.65293 
    6900    135.58935   -531.14591     143203.7   -39574.804     2727.717   -42302.521    38.143358    229.40399 
    6950    134.55637   -699.59215    143289.73   -39579.532     2706.936   -42286.468    38.319934    227.65629 
    7000     136.0284    -875.7456     143278.3   -39515.014    2736.5496   -42251.563    38.438777    230.14683 
    7050    131.97494   -771.05241    143328.75   -39524.691    2655.0041   -42179.695    38.574649    223.28875 
    7100    133.65953   -705.47936    143264.37   -39519.169    2688.8938   -42208.063    38.729118    226.13892 
    7150    130.75358   -848.68437    143190.21   -39602.039    2630.4335   -42232.472    38.976698    221.22234 
    7200    131.98323   -814.55723    143146.17   -39630.862    2655.1709   -42286.033     39.23353    223.30278 
    7250    131.71605      -781.04    143106.32   -39585.433    2649.7959   -42235.229    39.455188    222.85074 
    7300    132.90969   -538.57774    143116.08   -39553.434    2673.8089   -42227.242    39.823981    224.87026 
    7350    135.16867   -684.42158    143087.31   -39524.875     2719.254   -42244.129    40.096951    228.69225 
    7400    135.98959   -897.00568    143021.72   -39541.112    2735.7689   -42276.881    40.490685    230.08116 
    7450    132.67056    -584.0982    143019.72   -39557.588    2668.9982   -42226.586    40.746397    224.46568 
    7500    133.45601   -530.77516    143015.43   -39525.074    2684.7995   -42209.874    40.840287    225.79459 
    7550    135.15315   -744.77495    143067.67   -39532.476    2718.9418   -42251.418    40.998546    228.66599 
    7600    133.99615   -669.11454    143084.62   -39535.819    2695.6658   -42231.485    41.186516    226.70845 
    7650    132.56866   -779.38052    143102.63   -39549.261    2666.9483   -42216.209    41.433312    224.29328 
    7700    132.06389   -675.77606    143046.43   -39544.571    2656.7936   -42201.365    41.602389    223.43925 
    7750    132.34602   -639.11894    143021.77   -39602.305    2662.4694   -42264.774    41.728148     223.9166 
    7800    134.69943   -635.29081    143003.91   -39610.939     2709.814   -42320.753    41.913792    227.89833 
    7850    133.78262   -617.21672    143017.33   -39593.438    2691.3702   -42284.809    42.092777    226.34719 
    7900    132.24415   -494.34533    143019.14   -39601.743      2660.42   -42262.163    42.387409    223.74424 
    7950    132.55323   -611.18042    143043.59   -39636.596    2666.6379   -42303.233    42.474566    224.26717 
    8000    132.49438   -725.66323    143011.39   -39624.928     2665.454   -42290.382    42.722602    224.16761 
    8050    130.76937   -685.06305     142990.5   -39642.314    2630.7511   -42273.065    42.933107    221.24906 
    8100    133.83857     -662.392    142975.15   -39604.608    2692.4956   -42297.104    43.143934    226.44184 
    8150    131.92984   -525.60295    142998.97   -39629.292    2654.0968   -42283.389    43.372624    223.21245 
    8200    127.05584   -703.37127    142944.93   -39635.737    2556.0443   -42191.781    43.727243    214.96613 
    8250    130.23337   -781.75359    142936.67    -39640.39    2619.9681   -42260.358    43.909515    220.34219 
    8300    132.68945   -815.50723    142897.14   -39601.411    2669.3783   -42270.789    44.049444    224.49765 
    8350    133.95253   -702.38314    142832.67    -39600.35    2694.7884   -42295.138      44.2191    226.63466 
    8400    133.90151   -891.37055    142807.85   -39645.252    2693.7619   -42339.014    44.299507    226.54833 
    8450    132.44182    -635.1897    142826.99   -39721.096    2664.3966   -42385.492    44.515828    224.07868 
    8500    130.81623   -665.92444     142849.2    -39714.77    2631.6939   -42346.463    44.752854    221.32834 
    8550    131.50379   -766.95064    142886.91   -39700.534    2645.5258   -42346.059    44.980024    222.49162 
    8600    130.65672    -550.5544    142803.47   -39695.911    2628.4849   -42324.396    45.195794    221.05847 
    8650    132.07579   -654.61714    142885.24    -39649.75    2657.0329   -42306.782    45.347283    223.45938 
    8700    132.94448   -809.24981     142854.5   -39641.399    2674.5088   -42315.908    45.566643    224.92913 
    8750    134.77633   -633.47538    142860.71   -39572.729    2711.3611    -42284.09     45.85177    228.02845 
    8800    133.95082   -660.25475     142866.7   -39572.063    2694.7538   -42266.817    46.115399    226.63175 
    8850    133.48694    -768.3731    142900.48   -39574.277    2685.4217   -42259.699    46.476912    225.84691 
    8900    135.81132   -622.21974    142899.51   -39560.895    2732.1825   -42293.077    46.776873    229.77955 
    8950    135.54644   -620.74832    143011.62    -39597.63    2726.8537   -42324.484    47.002697    229.33139 
    9000     134.4423   -718.93037    143017.49   -39617.079    2704.6412    -42321.72    47.134847    227.46329 
    9050    134.37387   -522.59538    143095.11   -39626.665    2703.2646    -42329.93    47.290537    227.34752 
    9100    136.50528   -749.90863    143154.93   -39639.813    2746.1432   -42385.956    47.389976    230.95365 
    9150    134.10674   -868.29244    143149.73   -39642.322    2697.8905   -42340.213    47.565704    226.89555 
    9200    133.46362   -622.04965    143067.69   -39637.496    2684.9527   -42322.448    47.841318    225.80747 
    9250    133.71614   -515.48455    143070.57   -39633.849    2690.0327   -42323.882    47.874885     226.2347 
    9300     133.9284   -776.79272    143047.27   -39630.742    2694.3029   -42325.045    47.997516    226.59383 
    9350    133.45842   -595.57662    143025.76   -39573.046     2684.848   -42257.894    48.177262    225.79866 
    9400     134.1236   -670.92478    143008.05   -39584.301    2698.2298   -42282.531    48.236242    226.92408 
    9450    133.03308   -694.26686    142957.19   -39587.698    2676.2914    -42263.99    48.376315    225.07904 
    9500     136.3322   -518.41929     142934.5    -39579.18    2742.6612   -42321.841     48.50474    230.66082 
    9550    136.22374   -646.83239    142934.14   -39560.893    2740.4794   -42301.372    48.875224    230.47732 
    9600    136.44786   -628.84317    142945.11   -39536.073     2744.988   -42281.061    48.959866     230.8565 
    9650    134.83071   -663.58476    142961.42   -39540.388     2712.455   -42252.843    49.181012    228.12045 
    9700    131.61673   -678.46922    142959.91   -39633.577    2647.7978   -42281.375    49.186206     222.6827 
    9750    135.15306   -767.58295     142866.9   -39599.909    2718.9399   -42318.849    49.296408    228.66582 
    9800    132.91742   -527.01058    142828.59   -39645.495    2673.9645   -42319.459    49.487229    224.88335 
    9850    135.12405   -649.15968    142859.83   -39613.763    2718.3564    -42332.12    49.701801    228.61675 
    9900    133.06239   -640.69387    142864.29   -39579.393     2676.881   -42256.274    49.831003    225.12863 
    9950    133.02408   -557.19665    142911.98   -39569.657    2676.1102   -42245.767    49.932994     225.0638 
   10000    134.69661   -803.77836    142916.43   -39573.942    2709.7573   -42283.699    50.148481    227.89356 
   10050    134.54661   -657.63475    142958.69   -39581.909    2706.7397   -42288.648    50.330206    227.63978 
   10100    135.30491   -561.65747    142970.87   -39592.216    2721.9947   -42314.211     50.60837    228.92274 
   10150    134.45483   -627.52592    142970.63   -39628.591    2704.8932   -42333.484    50.895065    227.48449 
   10200    134.20013   -476.97166    143028.96   -39634.169    2699.7694   -42333.939    50.931609    227.05357 
   10250    133.70035    -503.0122    143082.64   -39613.318     2689.715   -42303.033    51.135635    226.20799 
   10300    133.73121   -670.64843    143061.32   -39644.828    2690.3359   -42335.164    51.397451     226.2602 
   10350    133.12459   -725.21384       143060   -39659.364    2678.1322   -42337.496    51.628845    225.23386 
   10400    135.43997   -573.77799    143001.79   -39633.646    2724.7118   -42358.358    51.797592    229.15125 
   10450    135.42945   -440.96914    143034.24   -39610.973    2724.5003   -42335.474    51.830064    229.13346 
   10500    133.89559   -558.43004    143054.98   -39604.569    2693.6428   -42298.212    51.915429    226.53831 
   10550    134.70128   -583.65111    143092.01   -39636.528    2709.8512   -42346.379    52.087262    227.90146 
   10600     134.6675   -608.73407    143168.94   -39634.738    2709.1718    -42343.91    52.356368    227.84432 
   10650    133.79356   -544.00968    143145.19    -39645.18    2691.5903    -42336.77    52.552991    226.36569 
   10700    132.89891   -684.14968    143209.53   -39662.455     2673.592   -42336.047    52.698165    224.85202 
   10750    132.62293   -622.56347    143220.84   -39689.912    2668.0401   -42357.952    52.845178     224.3851 
   10800    131.35314    -648.0913    143262.44   -39680.888     2642.495   -42323.383    53.086887    222.23673 
   10850    133.55235   -697.89758    143234.39   -39674.988    2686.7377   -42361.726    53.441558    225.95759 
   10900    128.94154   -666.83031    143170.85   -39721.972    2593.9798   -42315.952    53.567111    218.15654 
   10950    133.89312   -666.12044    143105.06   -39713.181    2693.5932   -42406.774    53.720829    226.53414 
   11000    130.24217   -766.44612    143090.46   -39737.379    2620.1453   -42357.524    53.879566    220.35709 
   11050    130.89902    -601.4519    143090.57   -39728.126    2633.3593   -42361.485    54.070627     221.4684 
   11100    130.78912   -666.12705    143150.08   -39753.152    2631.1483     -42384.3    54.338121    221.28246 
   11150    131.32724   -751.81212    143158.37   -39726.299    2641.9741   -42368.274    54.528744    222.19292 
   11200    134.36473   -769.28483    143095.01    -39671.92    2703.0807       -42375    54.730912    227.33205 
   11250    130.67483    -798.0406    143085.55    -39673.07    2628.8492    -42301.92     55.07908    221.08911 
   11300    130.85071   -816.29868    143029.54    -39691.18    2632.3875   -42323.567     55.28108    221.38668 
   11350    131.56656    -485.9645    143047.04   -39712.765    2646.7886   -42359.554    55.569433    222.59783 
   11400    129.62205   -735.71535    143168.61    -39703.99    2607.6699    -42311.66     55.86484     219.3079 
   11450    133.11636   -878.63423    143196.79   -39637.965    2677.9667   -42315.932    56.198874    225.21994 
   11500    134.24343   -677.82696    143191.12    -39630.92    2700.6406   -42331.561    56.523438    227.12683 
   11550    130.11137    -601.4737    143222.11   -39683.681    2617.5138   -42301.194    56.862172    220.13578 
   11600    131.86271   -634.91321    143244.07   -39660.437    2652.7463   -42313.183    57.021291    223.09888 
   11650    133.68486   -854.88806    143240.92   -39650.965    2689.4034   -42340.368    57.147026    226.18178 
   11700    135.28894   -639.34473    143319.32   -39619.849    2721.6734   -42341.523    57.325932    228.89572 
   11750    134.73153   -724.72283    143359.77   -39605.382    2710.4599   -42315.842    57.431449    227.95265 
   11800    135.44863   -668.10245    143364.79   -39572.928    2724.8861   -42297.814    57.580479    229.16591 
   11850    136.86583   -807.21564    143376.69   -39600.294    2753.3966   -42353.691    57.909038    231.56368 
   11900    133.66482   -674.19851    143355.67   -39604.909    2689.0003   -42293.909     58.25661    226.14788 
   11950    131.99114   -777.06572    143372.68   -39583.714      2655.33   -42239.044    58.517467    223.31617 
   12000    133.47863   -681.42385    143345.97   -39631.348    2685.2547   -42316.603    58.768021    225.83287 
   12050    131.58704   -824.66471    143314.04   -39621.506    2647.2005   -42268.706    58.857241    222.63246 
   12100    130.05618   -688.24181    143279.83   -39602.432    2616.4034   -42218.836    58.895847     220.0424 
   12150    135.09565   -716.69311    143295.32   -39593.479     2717.785   -42311.264    58.948552     228.5687 
   12200    131.89061   -791.90182     143250.2   -39620.081    2653.3077   -42273.388    58.941854    223.14609 
   12250    133.90852   -671.13099    143219.13    -39619.05     2693.903   -42312.953    59.032981     226.5602 
   12300    131.51552   -735.23151    143215.45   -39556.795    2645.7619   -42202.557    59.380636    222.51148 
   12350    135.28375   -757.45936    143192.88   -39515.429     2721.569   -42236.998    59.714227    228.88694 
   12400    132.46519   -640.65051     143131.7   -39536.036    2664.8668   -42200.902    60.004469    224.11822 
   12450    135.64667   -516.73399    143201.05   -39471.022    2728.8701   -42199.892    60.088816    229.50097 
   12500    136.36285    -718.6136    143254.31   -39458.007    2743.2779   -42201.285    60.268758    230.71268 
   12550    134.33628   -838.16987    143238.44   -39431.045    2702.5085   -42133.553    60.321327    227.28393 
   12600    135.99026   -740.24891     143208.6   -39430.509    2735.7823   -42166.291    60.400293    230.08229 
   12650    132.70841   -652.31794    143209.98   -39452.272    2669.7596   -42122.032    60.636678    224.52971 
   12700    138.31934   -621.73785    143221.96   -39389.143    2782.6376   -42171.781    60.872684    234.02287 
   12750    136.43031   -677.99607    143163.63   -39412.605    2744.6349    -42157.24    61.129517    230.82681 
   12800    135.40065   -818.22234    143168.31   -39497.112    2723.9209   -42221.033    61.604385    229.08473 
   12850    133.81765   -785.44654    143130.64   -39534.107    2692.0748   -42226.182    61.910168    226.40644 
   12900    131.77013   -802.76041    143162.19   -39549.112    2650.8838   -42199.996    62.391827    222.94224 
   12950    129.68023   -580.64369    143098.23   -39565.838    2608.8403   -42174.678    62.552325    219.40633 
   13000    134.36763   -724.05083    143120.42   -39547.357     2703.139   -42250.496    62.560834    227.33695 
   13050    133.07641   -662.73795    143111.28   -39549.877    2677.1629   -42227.039    62.651991    225.15234 
   13100    134.25519   -825.73034    143030.27   -39556.617    2700.8771   -42257.494    62.817109    227.14673 
   13150    134.58927   -708.71934    142934.98    -39589.15    2707.5979   -42296.748    63.188183    227.71195 
   13200    133.23384   -814.12432    142905.28   -39572.586      2680.33   -42252.916    63.653292    225.41869 
   13250    135.30092   -744.47323    142884.62   -39551.982    2721.9145   -42273.896    63.743675    228.91599 
   13300    134.57456   -742.44085    142862.28   -39533.383     2707.302   -42240.685    63.951331    227.68707 
   13350    132.88421   -503.62846    142865.44   -39537.679    2673.2964   -42210.976    64.263406    224.82716 
   13400    132.01014   -593.76146    142901.78   -39595.031    2655.7123   -42250.743    64.575091    223.34832 
   13450    133.81003    -830.0313    142838.27   -39581.522    2691.9215   -42273.443    64.885414    226.39355 
   13500    131.81485   -761.87549    142808.95   -39646.292    2651.7835   -42298.076    65.100001     223.0179 
   13550     132.7699   -716.49465    142803.95    -39582.04    2670.9968   -42253.037    65.323573    224.63376 
   13600    133.52384   -817.83605    142856.16   -39585.973    2686.1641   -42272.138    65.585872    225.90935 
   13650    133.00111   -483.50678    142796.23   -39601.528     2675.648   -42277.176    65.792141    225.02493 
   13700    134.07076   -590.30098    142821.76   -39579.125    2697.1669   -42276.291    65.744169    226.83469 
   13750    133.93292   -513.85841    142933.63   -39557.059    2694.3938   -42251.453    66.034368    226.60148 
   13800    130.89673    -683.4226    142914.06   -39586.258    2633.3133   -42219.572    66.235417    221.46454 
   13850    133.94138   -667.56648    142924.42   -39580.843     2694.564   -42275.407    66.667155    226.61579 
   13900    131.54074   -766.39945    142946.76   -39633.044    2646.2691   -42279.313    67.115761    222.55413 
   13950     128.9658    -662.3033    142933.29   -39650.204    2594.4678   -42244.672    67.565692    218.19759 
   14000    131.14506   -646.62233    142906.86   -39663.777     2638.309   -42302.086    67.773201    221.88468 
   14050    130.75912   -777.68172    142888.07   -39621.298    2630.5449   -42251.843    67.747209    221.23171 
   14100    134.72372   -930.72889    142796.77   -39618.086    2710.3026   -42328.389    67.999348    227.93943 
   14150    131.69376   -763.99766    142690.64   -39636.671    2649.3475   -42286.018    68.236116    222.81303 
   14200    131.19709   -734.04372    142661.51   -39591.212    2639.3557   -42230.568    68.505963    221.97271 
   14250    134.16371   -629.70115    142651.34   -39576.028    2699.0367   -42275.064     68.78361    226.99194 
   14300    132.11205   -629.61692    142692.68    -39586.27    2657.7624   -42244.033     69.02493    223.52074 
   14350    133.38994   -671.26956    142568.13   -39595.766    2683.4705   -42279.236    69.351551    225.68281 
   14400    133.78615   -570.48295    142531.95   -39550.314    2691.4411   -42241.755    69.679407    226.35315 
   14450    133.28581   -578.91414     142593.4   -39522.366    2681.3755   -42203.742    69.939005    225.50662 
   14500    133.98131   -734.50861    142624.58   -39554.789    2695.3672   -42250.157    69.991865    226.68334 
   14550    134.44168   -518.10813    142601.24   -39531.171    2704.6288     -42235.8    70.161727    227.46225 
   14600    133.35941   -609.72594    142600.41   -39553.887    2682.8563   -42236.743    70.587246    225.63116 
   14650    132.75915   -761.76406    142596.96   -39530.695    2670.7804   -42201.475      70.9564    224.61556 
   14700    134.37957   -537.50335    142615.88   -39481.421    2703.3793     -42184.8    71.454079    227.35716 
   14750    136.07511   -511.78851    142596.71   -39494.542    2737.4893   -42232.031    72.071202    230.22585 
   14800    137.26231   -563.19063    142683.26   -39473.958    2761.3728   -42235.331    72.423336    232.23448 
   14850    137.74166   -731.16582     142678.4   -39453.376     2771.016   -42224.392    72.793052    233.04549 
   14900    136.37453   -616.36516     142702.5   -39441.177    2743.5128   -42184.689    73.138826    230.73244 
   14950    134.14739   -720.19571    142643.29   -39469.554    2698.7084   -42168.262    73.237143    226.96433 
   15000    134.11791   -452.86404    142518.84   -39485.963    2698.1153   -42184.078    73.200415    226.91446 
   15050    136.01942   -705.54032    142590.18    -39505.21     2736.369   -42241.579    73.459836    230.13163 
   15100    134.92825   -569.96992    142587.66   -39503.451    2714.4172   -42217.869      73.4691    228.28547 
   15150    134.95724   -580.68251    142566.33   -39530.456    2715.0006   -42245.457    73.752068    228.33453 
   15200    133.29562   -563.16771    142553.23   -39547.831    2681.5729   -42229.404    74.117534    225.52322 
   15250    136.60564   -605.42545    142576.86   -39541.556    2748.1623   -42289.718    74.464097    231.12346 
   15300    134.71426   -797.15946     142532.5   -39521.267    2710.1124   -42231.379    74.752765    227.92342 
   15350    133.41871   -810.82288    142486.69   -39541.292    2684.0492   -42225.341    75.214707    225.73148 
   15400    132.40231   -600.57156    142489.05   -39574.068    2663.6017    -42237.67     75.53297    224.01183 
   15450    133.56163   -502.18136    142505.46   -39578.291    2686.9244   -42265.216    75.703788    225.97329 
   15500    133.89547   -470.22092    142549.78   -39540.585    2693.6404   -42234.226     75.74863    226.53811 
   15550    132.23006   -607.72509    142585.45   -39591.901    2660.1365   -42252.038    75.792721    223.72039 
   15600    135.21928   -592.22624    142624.97   -39579.429    2720.2721   -42299.701    75.972297    228.77787 
   15650    133.83566   -757.87272    142695.77   -39571.999    2692.4371   -42264.436     76.20799    226.43692 
   15700    135.08374    -547.9761    142712.62     -39604.3    2717.5453   -42321.845    76.345514    228.54854 
   15750    133.93558   -655.08855    142683.47   -39576.478    2694.4473   -42270.926    76.396215    226.60597 
   15800    133.24261   -871.83248    142719.74   -39607.196    2680.5065   -42287.703    76.546233    225.43354 
   15850    131.88681   -696.85184    142642.65   -39610.292    2653.2311   -42263.524    76.788997    223.13965 
   15900    131.20227    -735.4937    142676.93   -39525.447      2639.46   -42164.907    76.977857    221.98148 
   15950    134.36754   -699.89925    142600.47     -39561.2    2703.1373   -42264.338    77.232728    227.33681 
   16000    132.88247   -738.24627    142535.73   -39552.149    2673.2613   -42225.411    77.315432    224.82421 
   16050     132.9913   -812.59197    142544.17   -39540.545    2675.4507   -42215.996    77.326802    225.00834 
   16100    136.15289   -785.03196    142557.73   -39531.819    2739.0541   -42270.873    77.351511    230.35745 
   16150     133.1292   -681.43419    142496.73   -39583.545     2678.225   -42261.769    77.424187    225.24166 
   16200    133.48656   -645.43302    142498.35   -39588.712    2685.4142   -42274.126    77.657111    225.84628 
   16250    134.37608   -874.09335    142474.19   -39596.683     2703.309   -42299.992    77.742117    227.35125 
   16300    134.33852   -551.94904    142493.76   -39576.509    2702.5535   -42279.062    77.788835    227.28771 
   16350    132.00788   -536.40926    142634.73   -39624.278    2655.6669   -42279.945    77.596806     223.3445 
   16400    130.13534   -652.74191    142644.38   -39623.766    2617.9961   -42241.762    77.591499    220.17634 
   16450    132.95019   -528.54167    142686.63   -39617.504    2674.6238   -42292.128    77.639538    224.93879 
   16500    131.74534   -684.18613    142675.31    -39603.95    2650.3851   -42254.335    77.751824    222.90029 
   16550    133.40293   -776.67026    142719.44   -39639.863    2683.7317   -42323.595    77.810627    225.70478 
   16600    128.90451   -683.86178    142770.84   -39654.099    2593.2349   -42247.334    78.106327     218.0939 
   16650    131.38195   -828.74804     142731.2   -39637.162    2643.0747   -42280.237    78.258365    222.28548 
   16700    132.62536   -769.80294    142706.56    -39590.08    2668.0889   -42258.169    78.422058    224.38921 
   16750    134.17197   -795.32492    142722.21   -39600.491    2699.2029   -42299.694    78.608011    227.00593 
   16800    133.94878   -591.94151    142732.34   -39613.384    2694.7129   -42308.097    78.874753    226.62832 
   16850    133.23059   -589.48536    142731.25   -39602.655    2680.2646   -42282.919    79.081345     225.4132 
   16900    131.76619   -702.43195    142745.01   -39626.194    2650.8047   -42276.998    79.083249    222.93558 
   16950     133.1717   -698.31908    142708.45   -39640.324      2679.08   -42319.404    78.834297    225.31357 
   17000    132.54395   -529.37318    142729.76    -39597.41    2666.4511   -42263.861    78.852825    224.25147 
   17050    134.09211   -485.46154    142777.96   -39562.971    2697.5963   -42260.567     78.94004    226.87081 
   17100    133.34465   -612.24614    142782.07   -39580.078    2682.5592   -42262.637    79.063661    225.60617 
   17150    133.21456   -409.31073    142844.73    -39540.48    2679.9421   -42220.422    79.203387    225.38608 
   17200    133.39547   -725.77984    142889.48   -39538.606    2683.5817   -42222.187    79.521533    225.69216 
   17250    136.03676   -453.25494    142858.66   -39530.007    2736.7177   -42266.725    79.610194    230.16096 
   17300     129.7675   -606.62175    142854.55   -39610.783     2610.596   -42221.378    79.908159    219.55398 
   17350    133.61953   -755.18915    142823.84   -39628.444    2688.0892   -42316.534     80.33665    226.07125 
   17400    130.84864   -751.69384     142811.1   -39641.225    2632.3458   -42273.571    80.674659    221.38317 
   17450    133.79975   -804.48416       142789    -39574.69    2691.7147   -42266.405    80.858784    226.37616 
   17500    132.62018   -754.70028    142828.36   -39543.978    2667.9847   -42211.963    81.195214    224.38044 
   17550    131.54159   -639.30053     142846.9   -39566.752    2646.2862   -42213.038    81.549914    222.55558 
   17600    134.31469   -630.52324    142912.85   -39536.954    2702.0741   -42239.028    81.881863    227.24739 
   17650    134.27841   -764.52714    142880.53   -39510.313    2701.3442   -42211.658    81.921089    227.18601 
   17700    136.15534   -690.62373     142808.3   -39508.525    2739.1033   -42247.628     82.09684    230.36159 
   17750    133.83089   -574.07796    142766.04   -39500.458    2692.3411     -42192.8    82.341292    226.42884 
   17800    133.78186   -815.68911    142750.81    -39491.15    2691.3547   -42182.505     82.68077    226.34589 
   17850    134.49933    -782.4342    142650.98   -39514.373    2705.7886   -42220.162    83.167035    227.55979 
   17900    131.09052   -699.10937    142579.43   -39561.629    2637.2118   -42198.841    83.195644    221.79241 
   17950     133.6824    -652.2035    142610.91   -39560.665     2689.354   -42250.019     83.14765    226.17762 
   18000    134.05801     -493.747    142623.71    -39544.25    2696.9103    -42241.16    83.287996    226.81312 
   18050    129.65797   -747.19938    142614.67   -39576.474    2608.3926   -42184.867    83.720286    219.36868 
   18100    132.95716   -640.13841    142632.77   -39619.938    2674.7639   -42294.702    83.988219    224.95058 
   18150    132.45534   -804.61717    142679.67   -39590.482    2664.6686   -42255.151    84.152935    224.10155 
   18200    134.70448   -518.47554    142713.39   -39545.701    2709.9156   -42255.617    84.527309    227.90687 
   18250    134.31079   -698.54396    142731.67   -39511.044    2701.9956    -42213.04    84.795499    227.24079 
   18300    133.20699   -613.22019    142767.77   -39591.145    2679.7898   -42270.935    85.040888    225.37326 
   18350    131.35985   -693.82236    142816.08   -39629.706    2642.6301   -42272.336    85.265979    222.24809 
   18400    131.15122   -497.79313    142831.43   -39623.501    2638.4329   -42261.934    85.351338     221.8951 
   18450    131.88712   -730.47217    142830.01   -39637.235    2653.2374   -42290.472    85.634991    223.14018 
   18500    131.05873   -706.47246    142825.68   -39613.491    2636.5723   -42250.064    85.580345    221.73862 
   18550    135.92915   -615.80151    142838.94   -39602.016    2734.5529   -42336.569    85.773415     229.9789 
   18600    133.55161   -785.45218    142823.68   -39607.146    2686.7229   -42293.869    86.124045    225.95634 
   18650    131.22388   -811.07155    142817.97   -39598.284    2639.8946   -42238.178    86.407463    222.01803 
   18700    133.25546   -603.15895    142860.36   -39577.666    2680.7649   -42258.431    86.413417    225.45527 
   18750    132.96872   -689.09614    142892.13   -39513.953    2674.9965   -42188.949    86.613252    224.97014 
   18800    134.66081    -729.2917    142893.52   -39496.951     2709.037   -42205.988    86.637506    227.83298 
   18850    130.57508   -697.28859    142871.54   -39564.621    2626.8425   -42191.464    86.654601    220.92033 
   18900    133.30834    -637.6764    142932.66   -39571.134    2681.8288   -42252.963    86.833981    225.54474 
   18950    134.16752   -745.40962    142925.53   -39516.787    2699.1133     -42215.9    87.053608    226.99839 
   19000    133.85818   -734.82419    142975.05   -39545.212    2692.8903   -42238.102     87.20095    226.47503 
   19050     136.3023   -567.23192    143032.48   -39468.519    2742.0598   -42210.579    87.280004    230.61024 
   19100    134.06625    -547.5926    143064.64   -39418.109     2697.076   -42115.185    87.501588    226.82705 
   19150    134.90468   -590.61086    143096.47     -39427.4    2713.9431   -42141.344    87.705582     228.2456 
   19200    134.29818   -666.21239    143056.46   -39462.077    2701.7419   -42163.819    88.096137    227.21946 
   19250    135.78444   -708.01773    142996.81   -39460.039    2731.6417   -42191.681    88.316037    229.73406 
   19300    135.06092   -808.60711    143046.21   -39439.938    2717.0862   -42157.024    88.340141    228.50993 
   19350    136.10773   -714.57073    143033.92   -39466.616    2738.1454   -42204.761    88.397562    230.28103 
   19400    133.53298   -675.36448    143041.23   -39423.061    2686.3481   -42109.409    88.681978    225.92482 
   19450    136.43475   -776.76942    142994.73   -39425.264    2744.7244   -42169.988     89.32429    230.83433 
   19500    133.28991    -711.4642    142908.03   -39473.601     2681.458   -42155.059    89.617926    225.51356 
   19550    133.67654   -796.76681    142866.04   -39486.766    2689.2361   -42176.002    90.025201    226.16771 
   19600    134.07685    -692.8741    142845.14   -39452.436    2697.2894   -42149.725    90.087957    226.84499 
   19650    136.17298   -602.16024    142864.09   -39466.514    2739.4582   -42205.972    90.273254    230.39144 
   19700    133.48258   -466.59717    142890.35   -39509.421    2685.3341   -42194.755    90.571306    225.83954 
   19750    131.05832   -604.71472    142900.18   -39517.903     2636.564   -42154.467    90.753555    221.73792 
   19800     132.5918   -624.92032    142852.46   -39559.888    2667.4138   -42227.302    91.198728    224.33243 
   19850    132.66148   -751.75379    142894.19   -39559.913    2668.8156   -42228.729    91.512587    224.45032 
   19900    131.05122   -562.50471     142923.8   -39548.035    2636.4212   -42184.456    91.819742    221.72592 
   19950    134.12477   -718.83089     142933.7   -39521.065    2698.2533   -42219.318     92.43654    226.92606 
   20000    131.46265   -768.04544    142894.46   -39516.573    2644.6982   -42161.271    92.682581    222.42202 
   20050    134.49745   -689.09098    142921.02   -39513.684    2705.7507   -42219.435    92.765581    227.55661 
   20100     134.6383   -508.91125    142931.57   -39478.321    2708.5843   -42186.905    93.172364    227.79491 
   20150    134.64508   -597.33821    142921.44   -39500.519    2708.7207    -42209.24    93.672264    227.80638 
   20200    136.24631   -369.85761    142990.42   -39484.687    2740.9333    -42225.62    94.209382     230.5155 
   20250    134.29925   -588.03707    143036.41    -39490.13    2701.7635   -42191.894     94.75109    227.22127 
   20300    135.52006   -656.42002    143008.72    -39479.52     2726.323   -42205.843    95.317914    229.28675 
   20350    132.31203   -678.81251    143002.84    -39530.85    2661.7855   -42192.636    95.723268    223.85908 
   20400    132.71479   -686.82581    142936.78   -39578.204    2669.8881   -42248.092     95.87893    224.54052 
   20450    133.14096   -433.50008    142889.98   -39564.655    2678.4615   -42243.117    95.984985    225.26155 
   20500     132.8624   -357.98166     142971.4   -39572.142    2672.8576       -42245    96.264546    224.79026 
   20550    133.42277   -767.82817    143005.81   -39603.119    2684.1309    -42287.25    96.526883    225.73835 
   20600    131.69712   -614.76139    143003.87   -39629.606     2649.415   -42279.021    96.791247    222.81871 
   20650    132.14203   -677.99022    142980.25   -39639.685    2658.3655   -42298.051    96.942959    223.57146 
   20700    133.17295   -498.58375    142884.12   -39577.013    2679.1051   -42256.118    97.145907    225.31568 
   20750    133.23065   -671.47064    142959.27   -39587.413    2680.2659   -42267.679    97.249932     225.4133 
   20800    135.80309    -564.4476    142982.67   -39556.262    2732.0169   -42288.279    97.360363    229.76562 
   20850    132.69926   -600.95615    143014.82   -39612.092    2669.5756   -42281.667    97.656622    224.51424 
   20900    134.73967   -714.69367    142992.07   -39597.175    2710.6236   -42307.798     98.10284    227.96642 
   20950    133.00869   -721.56402    142947.51   -39580.812    2675.8005   -42256.612    98.515304    225.03776 
   21000    132.91817   -461.82846    142923.29   -39616.409    2673.9796   -42290.388    99.082191    224.88462 
   21050    131.14925   -578.55035    142972.78   -39690.833    2638.3933   -42329.226    99.365172    221.89177 
   21100     132.0874   -670.37998    142955.27   -39697.112    2657.2667   -42354.379    99.754031    223.47904 
   21150    134.63978   -641.99175    143034.15   -39693.063     2708.614   -42401.677    100.03292    227.79741 
   21200    131.97993   -555.73976    143068.12   -39742.114    2655.1044   -42397.219     100.1894     223.2972 
   21250    131.12326   -842.75785    143084.64   -39789.054    2637.8705   -42426.925    100.50729     221.8478 
   21300    128.38525   -767.74044    143034.76   -39862.143    2582.7887   -42444.932    100.84021    217.21536 
   21350    127.96842   -574.68169    142979.04    -39838.07    2574.4031   -42412.473    101.21615    216.51013 
   21400    131.19099    -611.8339     142998.2   -39807.574     2639.233   -42446.807    101.48677    221.96239 
   21450    130.71201   -529.09333    143035.29     -39769.4    2629.5972   -42398.998    101.83499    221.15201 
   21500     131.0401   -619.60457    143087.76   -39796.041    2636.1975   -42432.239    102.03287    221.70711 
   21550    130.54701   -556.46313    143006.02   -39752.506    2626.2779   -42378.784    102.36048    220.87285 
   21600    131.06905   -651.54483    143014.65   -39704.338    2636.7799   -42341.118    102.53294    221.75608 
   21650    138.52373   -630.81897    143000.25   -39669.619    2786.7493   -42456.369    102.76854    234.36867 
   21700    134.95828   -571.28765    143038.56   -39709.825    2715.0214   -42424.846    102.94874    228.33628 
   21750    130.57037   -479.50186    143095.77    -39756.87    2626.7477   -42383.617    103.24856    220.91237 
   21800    133.65917   -661.97751    143185.01   -39747.847    2688.8867   -42436.733    103.03965    226.13832 
   21850    131.58977   -526.83188    143223.02   -39780.472    2647.2554   -42427.728    103.36424    222.63708 
   21900    131.62712   -559.35513    143255.17   -39758.674    2648.0068   -42406.681    103.50014    222.70028 
   21950    132.78953   -659.05815    143260.68     -39752.2    2671.3916   -42423.592    103.83733    224.66696 
   22000    131.32473   -764.38883    143130.08   -39751.382    2641.9235   -42393.306    103.70832    222.18867 
   22050    131.31899   -523.15805    143152.22   -39716.413     2641.808   -42358.221    103.70697    222.17895 
   22100    130.78104   -562.68595    143197.11     -39693.9    2630.9859   -42324.886    103.93821     221.2688 
   22150    131.49387   -740.09222    143153.49   -39673.716    2645.3263   -42319.042    104.04117    222.47484 
   22200    130.89078   -733.02292    143136.68   -39632.165    2633.1936   -42265.359    104.57178    221.45447 
   22250    131.59822   -529.06122    143196.66   -39631.689    2647.4254   -42279.114    104.98817    222.65138 
   22300    131.70143   -782.56056     143174.3   -39597.876    2649.5019   -42247.378    105.04888    222.82601 
   22350    132.51529   -899.34404    143207.25   -39667.856    2665.8747   -42333.731    105.30501    224.20299 
   22400    132.95759   -680.18201    143224.75   -39650.825    2674.7726   -42325.598    105.62628    224.95131 
   22450    130.82832   -580.82556    143258.88   -39714.026     2631.937   -42345.963    105.50324    221.34879 
   22500    133.40138   -680.28638    143260.97   -39669.401    2683.7006   -42353.102    105.44151    225.70216 
   22550     132.0153   -644.91566    143345.51   -39715.157     2655.816   -42370.973    105.60357    223.35704 
   22600    130.04875   -861.63438    143297.91   -39713.517    2616.2539   -42329.771    105.82444    220.02983 
   22650    132.37877    -854.9027    143302.93   -39660.995    2663.1282   -42324.123    105.84774    223.97201 
   22700    132.37742   -777.57683    143250.83   -39689.616    2663.1011   -42352.717    105.90934    223.96973 
   22750    133.41542   -801.46711    143266.33   -39671.656     2683.983   -42355.639    105.87053    225.72591 
   22800    133.05135   -659.30739       143258   -39622.755    2676.6588   -42299.414    105.83249    225.10994 
   22850    133.75404   -627.25165    143267.07   -39623.991    2690.7951   -42314.787    105.74013    226.29882 
   22900    132.48837   -547.30354    143270.46   -39641.496     2665.333   -42306.829    105.73462    224.15743 
   22950    131.07564   -493.03143       143292   -39684.821    2636.9125   -42321.734     105.9308    221.76723 
   23000    132.65672   -759.11891    143312.05   -39675.773    2668.7199   -42344.493    106.19284    224.44227 
   23050    128.99217   -813.96391    143206.44   -39680.092    2594.9984    -42275.09    106.51312    218.24221 
   23100    131.23416   -576.41108    143138.51    -39678.09    2640.1016   -42318.192    106.48672    222.03544 
   23150    131.08547   -475.50212    143127.53   -39648.287    2637.1102   -42285.398    106.44054    221.78386 
   23200    133.29776   -574.89606    143104.43   -39607.964    2681.6159    -42289.58    106.36422    225.52684 
   23250    132.71982   -577.50774    143164.16   -39588.355    2669.9892   -42258.344      106.385    224.54902 
   23300    134.40517   -644.63482    143229.31   -39559.708    2703.8943   -42263.603    106.41045    227.40047 
   23350    132.47786   -766.99254    143249.85   -39574.809    2665.1216    -42239.93    106.57472    224.13965 
   23400    133.23472   -624.99987    143306.99   -39581.516    2680.3478   -42261.863    106.76764    225.42019 
   23450    133.07201   -859.13239     143231.9   -39588.087    2677.0744   -42265.161    106.88203    225.14489 
   23500    133.53862   -709.29163    143165.52   -39586.578    2686.4615   -42273.039    107.07089    225.93436 
   23550    133.91453   -722.61482     143151.6   -39559.417    2694.0239   -42253.441    107.18444    226.57036 
   23600    134.69947     -604.423    143186.47   -39545.847    2709.8148   -42255.661    107.13905     227.8984 
   23650    132.51689    -497.2656    143230.41   -39540.523    2665.9068    -42206.43    107.26481    224.20569 
   23700    133.37637    -652.2236    143257.82   -39556.335    2683.1973   -42239.532    107.19732    225.65984 
   23750    136.55054   -683.87382    143250.89   -39555.197    2747.0537   -42302.251    107.29418    231.03023 
   23800    133.70073   -730.86518    143282.61   -39592.076    2689.7227   -42281.799    107.38225    226.20863 
   23850    135.26293   -809.42378     143278.8   -39589.397    2721.1502   -42310.547    107.32723    228.85172 
   23900    133.58635   -752.00045    143313.39   -39632.745    2687.4217   -42320.166    107.40763    226.01511 
   23950    132.40632   -652.49106    143380.62   -39645.545    2663.6823   -42309.227    107.79746    224.01861 
   24000    132.45268   -512.92392    143439.42   -39631.131     2664.615   -42295.746    108.01225    224.09705 
   24050    134.31373   -612.26089    143438.98   -39587.977    2702.0548   -42290.032    108.21298    227.24577 
   24100    132.86308   -711.31427    143378.73   -39630.924    2672.8712   -42303.795    108.65938     224.7914 
   24150    134.83519   -750.29671    143375.84    -39590.66    2712.5452   -42303.205    109.21205    228.12803 
   24200     131.6867   -689.86024    143395.13   -39616.564    2649.2054   -42265.769     109.5853    222.80108 
   24250    131.31362   -806.79201    143352.83   -39690.146    2641.6999   -42331.846    110.05111    222.16986 
   24300    131.49352     -731.475    143275.53   -39713.789    2645.3192   -42359.108    110.38609    222.47424 
   24350     132.1993   -713.63051    143290.24   -39677.215    2659.5177   -42336.733     110.8318    223.66836 
   24400    132.93389   -742.70453    143275.36   -39653.629    2674.2957   -42327.925    111.05917     224.9112 
   24450     133.5833   -795.46632    143257.17   -39651.164    2687.3604   -42338.524     111.3426    226.00996 
   24500    131.20725   -704.61462    143246.33   -39679.392    2639.5602   -42318.952    111.65156    221.98991 
   24550    132.60191   -695.35224    143257.04   -39646.766    2667.6173   -42314.383    111.85418    224.34954 
   24600    132.90285   -555.89992       143275   -39665.434    2673.6713   -42339.105     112.0388    224.85869 
   24650    134.41914   -525.49353    143288.65   -39641.794    2704.1753   -42345.969    112.15275    227.42411 
   24700    133.71405   -515.72164     143333.6   -39610.913    2689.9907   -42300.904    112.36351    226.23117 
   24750    131.93302   -685.15584    143376.85   -39606.334    2654.1608   -42260.494    112.64491    223.21783 
   24800     135.8644    -726.5394    143413.67   -39562.461    2733.2502   -42295.712    112.91279    229.86934 
   24850    135.17799   -905.09322    143323.46   -39601.598    2719.4415   -42321.039    113.23216    228.70801 
   24900    133.32749   -755.07359     143347.6    -39615.65    2682.2141   -42297.864    113.18651    225.57715 
   24950    131.62551    -605.7273    143385.84   -39644.804    2647.9744   -42292.778    113.23207    222.69755 
   25000    135.29273   -745.41917    143333.84    -39602.93    2721.7497    -42324.68    113.62523    228.90214 
   25050    134.62281   -774.17836    143289.03   -39628.087    2708.2727    -42336.36    113.73283     227.7687 
   25100    135.15134   -773.90316    143251.79   -39637.176    2718.9053   -42356.081    113.73636    228.66292 
   25150    134.56363   -935.13607    143186.11   -39676.625    2707.0822   -42383.707     113.8836    227.66858 
   25200    134.67849   -615.35403     143151.4   -39656.155    2709.3927   -42365.548    113.60108     227.8629 
   25250    134.58916   -728.08105    143119.55    -39691.82    2707.5957   -42399.416    113.75841    227.71177 
   25300     133.1043   -470.87764    143158.79    -39689.86     2677.724   -42367.584    113.79572    225.19953 
   25350    134.11027    -662.7055    143234.59   -39661.664    2697.9616   -42359.625    114.05876    226.90153 
   25400    135.64288   -709.53431    143274.37    -39638.96    2728.7938   -42367.754    114.06417    229.49455 
   25450    133.41317   -877.91086    143198.53   -39682.181    2683.9377   -42366.118    114.30712    225.72211 
   25500     130.4763   -526.10918    143211.37   -39665.885    2624.8553    -42290.74    114.49749    220.75321 
   25550    129.97809   -795.05241    143288.99    -39681.47    2614.8326   -42296.302     114.6227    219.91029 
   25600    134.54389   -583.61877    143358.35   -39682.044    2706.6849   -42388.728     114.9176    227.63517 
   25650    132.19165   -751.54865    143328.29   -39691.241    2659.3638   -42350.605    114.86262    223.65541 
   25700    132.18062   -759.02214    143276.31   -39643.434    2659.1419   -42302.576    115.00238    223.63675 
   25750    133.32845   -646.68193    143189.37   -39674.807    2682.2333   -42357.041    114.86289    225.57876 
   25800    134.43542   -718.21012    143186.72   -39689.653    2704.5029   -42394.156    114.79143    227.45166 
   25850    131.74556    -664.1088    143133.57   -39690.999    2650.3895   -42341.388    115.07459    222.90067 
   25900    133.89095     -683.929    143109.14   -39672.895    2693.5495   -42366.444    115.20002    226.53047 
   25950     134.9166   -745.25114    143032.34   -39661.203    2714.1829   -42375.386    115.15815    228.26576 
   26000    131.75938   -689.81856    143030.77   -39670.644    2650.6677   -42321.312    115.05603    222.92406 
   26050    132.74611   -546.10457    143000.45   -39666.102    2670.5182    -42336.62    115.06221    224.59351 
   26100    132.65294    -350.1485    143072.28   -39670.508    2668.6438   -42339.152    115.03435    224.43587 
   26150    132.74833   -715.15217    143070.97   -39715.396    2670.5629   -42385.959    115.10289    224.59727 
   26200    130.48361   -574.84748    143069.68   -39741.964    2625.0023   -42366.966    115.18448    220.76558 
   26250    133.20956   -598.93936    143018.48   -39755.686    2679.8416   -42435.527    115.34589    225.37762 
   26300    131.09549   -598.82899    143032.43   -39740.781    2637.3118   -42378.092    115.58281    221.80081 
   26350    131.52846   -633.65828    143062.35    -39755.49     2646.022   -42401.512     115.9491    222.53336 
   26400    132.44859    -701.6781    143099.82   -39700.124    2664.5329   -42364.657    116.18076    224.09014 
   26450    129.72728   -670.32281    143051.57    -39716.01    2609.7869   -42325.797    116.19357    219.48595 
   26500    129.20406   -515.87593    143053.01   -39749.072    2599.2609   -42348.333    116.31718    218.60069 
   26550    132.49984   -557.48236    143069.91   -39767.194    2665.5638   -42432.757    116.76478    224.17684 
   26600    132.69429   -578.70327    143087.64   -39706.995    2669.4757   -42376.471    116.93417    224.50584 
   26650    135.40475   -552.55319    143146.34   -39671.492    2724.0033   -42395.495    117.07478    229.09167 
   26700    132.95765   -627.91211    143249.31   -39708.655    2674.7738   -42383.429    117.53175    224.95141 
   26750    131.58528   -682.47174    143231.83   -39698.815    2647.1652   -42345.981    117.66881     222.6295 
   26800    128.08077    -355.2617    143313.37   -39719.142    2576.6631   -42295.805    118.25521     216.7002 
   26850     131.9044    -594.8847     143409.4   -39679.523     2653.585   -42333.108    118.17799    223.16941 
   26900    130.42574   -629.99981     143408.3   -39654.401    2623.8382   -42278.239    118.43443    220.66767 
   26950    133.23476   -870.00591    143330.72   -39649.641    2680.3486   -42329.989    118.62776    225.42026 
   27000    133.51581   -891.21836    143316.74   -39645.837    2686.0027    -42331.84    118.87881    225.89577 
   27050    133.33712   -571.30777    143249.69   -39595.065    2682.4077   -42277.473    119.05499    225.59343 
   27100    133.58901   -678.99045    143270.81   -39651.871    2687.4751   -42339.346    119.23262     226.0196 
   27150    132.39753    -797.3665    143220.67   -39629.708    2663.5055   -42293.213    119.29576    224.00374 
   27200      134.701   -624.57401    143262.56   -39602.389    2709.8456   -42312.234    119.39695    227.90099 
   27250     132.4408   -655.79603    143252.68   -39618.345     2664.376   -42282.721    119.49397    224.07694 
   27300    132.92938   -757.74324    143177.48   -39649.247    2674.2051   -42323.452    119.57155    224.90358 
   27350    133.16561   -676.36777     143165.6   -39654.783    2678.9573    -42333.74     119.5627    225.30325 
   27400    132.16095   -635.38864    143204.27   -39637.595    2658.7462   -42296.342    119.49938    223.60347 
   27450    132.54761   -685.43943    143187.34   -39606.122    2666.5249   -42272.646    119.59454    224.25767 
   27500    132.27994   -533.00319    143185.45   -39605.102    2661.1399   -42266.242     119.5608    223.80478 
   27550    134.21679   -598.58834    143162.41   -39592.043    2700.1045   -42292.148    119.74156    227.08175 
   27600    135.83285   -518.86843    143181.25   -39553.539    2732.6156   -42286.154    119.81893    229.81597 
   27650    133.25222   -791.51124    143171.72   -39611.187    2680.6998   -42291.887     119.4835     225.4498 
   27700    134.69317   -670.94881    143192.18   -39629.882    2709.6881    -42339.57    119.24946    227.88775 
   27750    132.26412   -481.79111    143190.52   -39683.072    2660.8217   -42343.894    119.34809    223.77802 
   27800    132.96331   -694.97894    143314.84   -39693.532    2674.8877   -42368.419    119.31242    224.96099 
   27850     132.7719   -682.68782    143297.86   -39719.548    2671.0369   -42390.585     119.4498    224.63714 
   27900    131.63586    -685.9529    143301.32   -39651.472    2648.1828   -42299.654    119.41737    222.71508 
   27950    132.39604   -768.52357    143394.35   -39651.076    2663.4757   -42314.552    119.57094    224.00123 
   28000    133.37909   -598.18081    143462.61    -39656.61    2683.2522   -42339.862    119.92948    225.66445 
   28050    133.01821   -646.66337    143491.12   -39686.759    2675.9921   -42362.751    119.87075    225.05387 
   28100    133.82732   -656.81049    143540.81   -39669.742    2692.2695   -42362.012    120.01664    226.42282 
   28150     134.1694   -489.36278     143613.2   -39652.528    2699.1512   -42351.679    119.98706    227.00158 
   28200     134.8467   -689.61922    143682.48   -39686.252    2712.7767   -42399.029    120.20059    228.14749 
   28250    134.85915   -793.13816    143663.13   -39715.692    2713.0272   -42428.719    120.44234    228.16856 
   28300    136.90598    -687.6068    143663.55    -39673.08    2754.2043   -42427.285    120.58844     231.6316 
   28350    130.83092    -739.2748    143631.03   -39692.954    2631.9894   -42324.943    120.85446    221.35319 
   28400    134.34286   -856.22527    143613.59   -39712.815    2702.6407   -42415.456    120.82726    227.29505 
   28450    133.15921   -710.39626    143584.52   -39666.639    2678.8287   -42345.467    121.00402    225.29243 
   28500    134.99024   -806.33088    143495.66   -39648.531    2715.6644   -42364.195     120.9164    228.39036 
   28550    131.89118   -669.75266    143421.04   -39619.388    2653.3191   -42272.707    120.94421    223.14705 
   28600    133.03975    -788.1931    143448.95    -39620.25    2676.4255   -42296.675    121.08196    225.09032 
   28650    135.86654    -845.4558    143376.85   -39584.033    2733.2934   -42317.327     121.1488    229.87298 
   28700    132.39563    -864.5661    143297.91   -39637.799    2663.4674   -42301.266    121.60268    224.00053 
   28750     132.8961   -777.25535    143277.14   -39658.818    2673.5355   -42332.353    121.69236    224.84727 
   28800    134.40063   -689.73209    143276.69   -39600.741     2703.803   -42304.544    121.77262     227.3928 
   28850    131.37056   -817.06639     143207.5   -39657.042    2642.8454   -42299.887    122.20242     222.2662 
   28900    133.68275   -694.48753    143257.16   -39640.386    2689.3609   -42329.747    122.55437     226.1782 
   28950    133.84684   -739.53279    143241.87   -39600.533     2692.662   -42293.195    122.66743    226.45583 
   29000    133.12895    -906.6543    143157.88   -39593.142    2678.2198   -42271.361    123.18268    225.24123 
   29050    135.37894   -684.25954    143080.53   -39573.275    2723.4841   -42296.759    123.74911      229.048 
   29100    134.28389   -740.47312    143111.21   -39570.349    2701.4545   -42271.803    124.04206    227.19528 
   29150    134.23591   -757.15717    143083.16   -39549.253    2700.4892   -42249.742    124.59792    227.11411 
   29200    135.89869   -726.05623    143007.91   -39564.298    2733.9402   -42298.239    125.04858    229.92737 
   29250    133.16549   -935.96084    142909.58   -39567.188     2678.955   -42246.143    125.26592    225.30306 
   29300    136.49842   -537.42878    142842.64   -39552.268    2746.0052   -42298.273    125.47647    230.94205 
   29350    134.04531   -575.75618    142808.76   -39549.324    2696.6547   -42245.979     125.6113    226.79162 
   29400    134.57187   -522.45365    142851.03   -39570.059    2707.2478   -42277.307    125.78835    227.68251 
   29450    134.05726   -514.13532    142855.46    -39563.31    2696.8952   -42260.205    125.98441    226.81185 
   29500    133.67661    -657.8921    142798.94   -39598.632    2689.2375   -42287.869     126.1027    226.16782 
   29550    128.94417   -702.31706    142748.69   -39642.996    2594.0328   -42237.029     126.2606      218.161 
   29600    131.49435   -546.03947    142733.21   -39662.309     2645.336   -42307.645    126.35611    222.47566 
   29650    132.76667   -591.65215    142814.92   -39684.646    2670.9317   -42355.578     126.5862    224.62828 
   29700     129.6662    -542.0235    142873.88   -39652.392    2608.5581   -42260.951     126.9087     219.3826 
   29750    133.42417   -677.90386    142941.27   -39629.819    2684.1591   -42313.978    127.31242    225.74072 
   29800    133.30072   -557.66851    142966.54   -39603.585    2681.6754    -42285.26    127.41498    225.53185 
   29850    133.86275   -636.27863    142932.11   -39641.839    2692.9821   -42334.822    127.59961    226.48275 
   29900    135.69279   -532.46694    142853.04   -39569.067    2729.7979   -42298.865    127.81643      229.579 
   29950    135.22222   -563.00392    142932.35   -39607.712    2720.3312   -42328.043    127.87882    228.78284 
   30000    133.39274    -469.2994    142986.54   -39605.518    2683.5266   -42289.045    128.05151    225.68754 
   30050    131.79059   -717.55176    143047.45   -39631.597    2651.2955   -42282.893    128.18094    222.97686 
   30100    134.46847   -619.01903    143118.55   -39620.672    2705.1677   -42325.839    128.39713    227.50757 
   30150    131.71179   -706.43263    143158.83   -39591.984    2649.7102   -42241.695    128.54601    222.84353 
   30200    135.40367   -520.27524    143137.73   -39578.222    2723.9817   -42302.204    128.53687    229.08985 
   30250    133.77107   -595.25336    143142.29   -39597.943    2691.1377    -42289.08    128.66897    226.32763 
   30300    133.51301   -797.67122    143174.73   -39606.397    2685.9463   -42292.344    128.89436    225.89103 
   30350    131.55745   -666.29053    143178.92   -39633.847    2646.6053   -42280.452    129.04988    222.58241 
   30400    133.68918   -522.05838    143190.95   -39624.044    2689.4903   -42313.535    129.20783    226.18909 
   30450     135.5614   -826.82885    143177.56   -39628.072    2727.1547   -42355.227    129.42228     229.3567 
   30500    134.44549   -641.71601    143214.08   -39637.929    2704.7054   -42342.635    129.74751    227.46869 
   30550    134.02108   -774.75953    143201.44   -39643.639    2696.1672   -42339.806    129.96646    226.75062 
   30600     134.3411   -756.76163    143189.75   -39636.396    2702.6053   -42339.001    130.11162    227.29207 
   30650    135.03515     -812.158    143176.89   -39631.102     2716.568    -42347.67     130.0654    228.46635 
   30700    132.69847   -694.81145    143194.53   -39608.063    2669.5598   -42277.623     129.8447    224.51291 
   30750    134.30708   -599.18971    143197.83   -39621.713    2701.9209   -42323.633    129.93444    227.23451 
   30800    132.51997   -584.52574     143227.1   -39638.424    2665.9688   -42304.392    130.18418     224.2109 
   30850    133.01866   -802.97144    143261.92   -39629.762    2676.0012   -42305.763    130.32555    225.05464 
   30900    132.68743    -642.3643    143275.71   -39593.413    2669.3376    -42262.75      130.487    224.49422 
   30950    132.87616   -696.62929    143289.13   -39640.155    2673.1344    -42313.29    130.37142    224.81354 
   31000    134.62786   -677.26811     143263.4   -39646.819    2708.3743   -42355.193    130.55774    227.77725 
   31050    134.50345   -575.96701     143324.1   -39608.064    2705.8714   -42313.936    130.70095    227.56675 
   31100    134.28377   -820.70783    143265.52   -39638.047    2701.4519   -42339.499    130.79267    227.19507 
   31150    133.92448   -567.11973    143180.92   -39670.977     2694.224   -42365.201    130.86626     226.5872 
   31200    132.52426   -690.88212    143267.15   -39679.415     2666.055    -42345.47    131.14531    224.21815 
   31250    135.14843   -588.31686    143276.09   -39700.135    2718.8467   -42418.981    131.44591    228.65799 
   31300    133.23461   -418.87496    143312.26   -39729.769    2680.3455   -42410.114    131.53462    225.41999 
   31350    131.06224   -652.28551     143315.7   -39734.508     2636.643   -42371.151      131.714    221.74457 
   31400    130.93709   -804.28633     143228.4    -39720.19    2634.1252   -42354.315    131.91192    221.53282 
   31450    133.16674   -622.29774    143146.83   -39723.088    2678.9801   -42402.068    132.04388    225.30517 
   31500    132.62697   -624.91485    143127.63    -39724.53    2668.1214   -42392.651    132.14806    224.39193 
   31550    133.91907   -787.36922    143037.89   -39667.827    2694.1151   -42361.943    132.16636    226.57804 
   31600    132.40892   -637.19071    143055.55   -39652.165    2663.7348     -42315.9      132.309    224.02302 
   31650    131.53189   -715.41154    143012.29   -39728.066     2646.091   -42374.157    132.07758    222.53916 
   31700    129.73711   -761.61178    143003.51   -39712.274    2609.9846   -42322.259    132.47263    219.50257 
   31750    131.01693   -643.80832    142945.73   -39717.472    2635.7313   -42353.204    132.81895    221.66789 
   31800    129.82255   -518.84568    142950.01    -39735.79    2611.7035   -42347.494    133.03557    219.64713 
   31850    132.69104   -603.13507    142917.26   -39724.204    2669.4102   -42393.614    133.35676    224.50033 
   31900    133.91317   -621.86823    142906.05   -39750.052    2693.9964   -42444.049    133.49232    226.56805 
   31950    131.47099   -472.42149    142920.66   -39732.743    2644.8659   -42377.609    133.87328    222.43612 
   32000    130.23345   -571.80891    143031.81   -39720.809    2619.9697   -42340.779     134.4386    220.34233 
   32050    131.90596   -804.47096    143060.41   -39735.964    2653.6165   -42389.581    134.45198    223.17206 
   32100    131.68332   -527.19513    142995.65   -39708.334    2649.1374   -42357.471    135.09371    222.79536 
   32150    133.20476    -661.4512     143041.6   -39681.335     2679.745    -42361.08    135.25579    225.36949 
   32200    132.32943   -637.41616    143075.78   -39701.654    2662.1355   -42363.789    135.31935    223.88852 
   32250    131.56649   -709.51684     143106.3   -39722.631    2646.7872   -42369.418    135.47232     222.5977 
   32300    134.80889   -591.54446     143088.8   -39709.658    2712.0162   -42421.674    135.64642    228.08354 
   32350    130.27808   -497.08061    143173.16   -39740.707    2620.8675   -42361.574    135.84296    220.41783 
   32400    135.30284   -657.56827    143197.49   -39683.202    2721.9531   -42405.155    136.08654    228.91924 
   32450    133.13339   -711.87876    143109.31   -39716.383    2678.3093   -42394.692    136.30551    225.24875 
   32500    133.63801    -674.7338    143139.74   -39651.722    2688.4609   -42340.183    136.24684    226.10251 
   32550    133.78192   -719.53437    143206.07   -39650.255     2691.356   -42341.611    136.41548    226.34599 
   32600    131.36429    -792.1275    143208.13   -39683.977    2642.7194   -42326.697    136.50916     222.2556 
   32650    132.56793   -582.67554    143179.71    -39674.81    2666.9336   -42341.743    136.54985    224.29204 
   32700    133.33695    -665.7023    143222.61   -39695.575    2682.4044   -42377.979    136.73539    225.59315 
   32750     132.6599   -563.95464    143221.51    -39633.72    2668.7838   -42302.504    136.96754    224.44765 
   32800    131.89361   -723.50229    143247.16   -39685.318    2653.3679   -42338.686     137.0078    223.15115 
   32850    134.29287    -714.5769     143293.4   -39661.849    2701.6351   -42363.484    137.16919    227.21048 
   32900    133.91521   -695.05383    143251.53   -39698.202    2694.0375    -42392.24    137.42841    226.57151 
   32950    132.26003   -770.98876    143178.53   -39650.509    2660.7395   -42311.249    137.32098    223.77111 
   33000    134.33962   -543.30072    143106.63   -39641.313    2702.5755   -42343.888     137.3602    227.28956 
   33050    132.09683   -651.83303    143185.34   -39602.644    2657.4562   -42260.101    137.60127    223.49498 
   33100    132.78591   -558.36411     143165.5   -39624.674    2671.3188   -42295.992    137.81358    224.66084 
   33150    131.01536   -737.79744    143168.16   -39666.477    2635.6999   -42302.177    137.96334    221.66525 
   33200    130.57348   -537.90091    143113.17   -39711.269    2626.8103   -42338.079    138.30637    220.91763 
   33250    129.82038   -775.35058    143112.36   -39733.041    2611.6598     -42344.7    138.75698    219.64345 
   33300    129.47698   -521.98955    143078.49   -39726.148    2604.7515     -42330.9    138.84278    219.06246 
   33350    132.92218   -456.91427    143150.69   -39657.445    2674.0602   -42331.505    139.07916     224.8914 
   33400    130.95468   -523.83428    143247.27   -39659.641     2634.479    -42294.12    139.16452    221.56258 
   33450    130.11416   -719.22956    143223.95   -39670.603      2617.57   -42288.173    139.40991    220.14051 
   33500    136.92706   -652.06148    143220.72   -39548.427    2754.6283   -42303.055    139.42575    231.66727 
   33550    137.07069   -570.70705    143258.76   -39521.122    2757.5177    -42278.64    139.33265    231.91027 
   33600    134.84168    -573.5639    143331.04    -39523.78    2712.6757   -42236.456     139.7586      228.139 
   33650     133.4482   -737.75396    143299.87   -39503.469    2684.6425   -42188.111    139.79897    225.78138 
   33700    133.67135   -685.92998    143174.48   -39516.848    2689.1317    -42205.98    140.28883    226.15893 
   33750    133.07608   -710.20166    143152.79   -39547.527    2677.1563   -42224.683    140.27422    225.15178 
   33800    135.38642   -695.58643       143113   -39492.872    2723.6345   -42216.506    140.47291    229.06065 
   33850    133.03321   -578.35956    143090.18   -39536.328    2676.2939   -42212.622    140.94242    225.07925 
   33900    134.48702   -686.68884    143034.03   -39538.032    2705.5408   -42243.572    141.16308    227.53895 
   33950    135.35546   -631.07615    142989.94   -39566.314    2723.0118   -42289.326     141.3293    229.00828 
[...]
   92000    132.93063   -816.73336    143467.91   -39628.845    2674.2303   -42303.075    321.31293     224.9057 
   92050     133.0416   -713.08624    143373.49   -39635.045    2676.4626   -42311.508    321.42713    225.09345 
   92100    133.63999   -653.60102    143365.06   -39610.461    2688.5007   -42298.962    321.66265    226.10586 
   92150    131.60747   -619.44267    143375.76   -39615.166    2647.6116   -42262.778    321.55441    222.66704 
   92200    132.12008   -744.42129    143415.42   -39680.219     2657.924   -42338.143     321.6431    223.53432 
   92250    132.94663   -698.07178    143349.03   -39675.885    2674.5521   -42350.437     321.8733    224.93276 
   92300    132.72622   -880.08028    143348.64   -39640.552    2670.1181    -42310.67     321.9386    224.55986 
   92350    128.99743   -576.52799    143332.94   -39627.185    2595.1041   -42222.289    322.09785     218.2511 
   92400    132.39281   -678.76221    143385.25   -39602.596    2663.4106   -42266.007    322.30168    223.99575 
   92450    133.87105   -850.46356    143284.42   -39525.348     2693.149   -42218.497    322.47827    226.49679 
   92500    135.49784   -854.09348    143247.75   -39513.186    2725.8761   -42239.062     322.6576    229.24917 
   92550    136.92516   -722.75544    143192.28   -39525.675    2754.5902   -42280.266    322.66717    231.66405 
   92600    134.13873   -731.05627    143203.44   -39536.419    2698.5341   -42234.953    323.20157    226.94968 
   92650    132.68743   -841.64949    143137.21   -39528.426    2669.3376   -42197.764    323.73347    224.49422 
   92700    133.32827   -790.93913    143141.86   -39441.197    2682.2298   -42123.427    323.83373    225.57847 
   92750    134.01549   -917.10125    143055.49   -39440.094    2696.0549   -42136.149    324.25942    226.74118 
   92800    136.23986   -821.49581    142963.19   -39474.252    2740.8036   -42215.056    324.24657    230.50459 
   92850     133.7734   -773.98406    142955.11   -39560.744    2691.1846   -42251.929    324.00681    226.33158 
   92900    131.25149    -566.4921    142938.14   -39534.663    2640.4501   -42175.113    324.18644    222.06475 
   92950    130.80664   -606.78888    142978.23   -39583.788     2631.501   -42215.289    324.64873    221.31212 
   93000    132.93939   -791.76818    142970.49   -39606.562    2674.4065   -42280.968    324.52481    224.92052 
   93050     132.0622   -802.37833    142932.49   -39594.353    2656.7597   -42251.113     324.5943     223.4364 
   93100    131.76251   -797.33823    142898.75    -39564.98    2650.7306    -42215.71    324.64467    222.92935 
   93150    133.63384   -473.52432    142893.06   -39586.617     2688.377   -42274.994     324.9808    226.09546 
   93200    133.76066   -527.88861    142918.51   -39542.567    2690.9284   -42233.495    325.11622    226.31003 
   93250    133.88514   -745.68328    142909.65   -39553.131    2693.4326   -42246.563    325.14548    226.52064 
   93300    134.02497   -524.99477    142896.53   -39546.311    2696.2456   -42242.557    325.41433    226.75721 
   93350    134.55158   -762.48899    142874.03   -39519.907    2706.8397   -42226.747    325.59377    227.64819 
   93400    136.00898   -749.81258    142882.57   -39498.444    2736.1589   -42234.603    325.67211    230.11397 
   93450    136.46291   -556.21745       142945   -39502.804    2745.2907   -42248.095    326.09157    230.88196 
   93500    135.63501   -730.88567    143006.97   -39494.187    2728.6356   -42222.822    325.87234    229.48125 
   93550    133.23439   -791.40181    143000.57   -39591.731    2680.3411   -42272.073    325.97962    225.41963 
   93600     135.2207   -599.17654    142911.27   -39567.935    2720.3007   -42288.236    326.48948    228.78027 
   93650    134.40957   -870.13769    142892.01   -39533.628    2703.9829    -42237.61    326.92322    227.40793 
   93700    134.92555    -734.5542    142875.76   -39558.398     2714.363   -42272.761    327.08952     228.2809 
   93750    133.95717   -528.82198     142977.9   -39602.424    2694.8817   -42297.305    326.93698    226.64251 
   93800    132.05768   -790.41105    142930.34   -39552.286    2656.6686   -42208.955    327.19691    223.42874 
   93850    132.04429   -598.60744    142958.84   -39564.895    2656.3992   -42221.294    327.31044    223.40609 
   93900    131.74817   -420.18053    142972.51   -39519.601    2650.4421   -42170.043     327.2034    222.90509 
   93950    134.84075   -684.94278    143011.35   -39535.157    2712.6571   -42247.814     327.6113    228.13744 
   94000    132.04617   -611.91337    142976.21   -39553.217    2656.4372   -42209.655    327.89247    223.40928 
   94050     133.1187   -694.16359     142915.6   -39525.388    2678.0136   -42203.402    328.13776    225.22389 
   94100    132.33253   -744.97457    142813.53   -39601.627     2662.198   -42263.825     327.7288    223.89377 
   94150    134.36292   -726.29588    142725.74   -39575.109    2703.0443   -42278.153    327.64806    227.32899 
   94200    134.30714   -726.07028     142620.5   -39570.589    2701.9222   -42272.512    327.79433    227.23462 
   94250    133.60829   -620.23155    142587.53   -39583.903    2687.8631   -42271.766    327.78486    226.05223 
   94300    131.66189    -572.3167    142578.17   -39587.006    2648.7064   -42235.712    328.12325    222.75911 
   94350     133.7219   -567.09001       142559   -39560.905    2690.1487   -42251.053    328.81322    226.24445 
   94400     132.5918   -744.09404    142553.75   -39525.629    2667.4138   -42193.043    328.81854    224.33243 
   94450     132.6252   -621.77403    142612.36   -39548.941    2668.0858   -42217.027    328.81583    224.38895 
   94500    132.65967   -601.85448    142698.08   -39560.009    2668.7793   -42228.788    328.43322    224.44726 
   94550    136.74345   -626.20788    142751.44   -39558.866    2750.9347     -42309.8      328.842    231.35662 
   94600    132.17692   -547.29228    142816.97   -39587.617    2659.0675   -42246.684    328.69076     223.6305 
   94650    136.76212   -522.00599    142795.16   -39622.411    2751.3103   -42373.721    328.56597    231.38821 
   94700     134.0357   -732.21154    142732.02   -39596.283    2696.4615   -42292.744    328.57692    226.77537 
   94750     130.8542   -725.23474    142668.41   -39608.459    2632.4577   -42240.917    328.91425    221.39258 
   94800    132.68083   -479.28215    142673.13   -39651.294     2669.205   -42320.498    329.13575    224.48307 
   94850    133.21977    -603.5878    142716.71   -39613.565     2680.047   -42293.612    329.02709    225.39489 
   94900    136.04294   -589.43354    142726.82   -39602.854    2736.8421   -42339.696    329.17856    230.17143 
   94950    131.98692   -557.18552    142753.28   -39651.146    2655.2452   -42306.391    328.92393    223.30903 
   95000    134.89323   -605.72404    142787.04    -39623.48    2713.7128   -42337.193    329.34117    228.22623 
   95050    131.60017   -510.34605    142753.07   -39584.881    2647.4647   -42232.345    329.33723    222.65468 
   95100     133.8791   -347.90866    142814.94   -39565.913    2693.3111   -42259.224    330.04875    226.51042 
   95150    130.96237   -747.94358    142770.92    -39607.08    2634.6337   -42241.714    330.30978    221.57559 
   95200    130.25434   -608.17972    142727.35   -39638.721    2620.3901   -42259.111    330.32201    220.37768 
   95250    134.31634   -717.89463    142774.91   -39625.341    2702.1072   -42327.448      330.428    227.25018 
   95300    134.13799   -606.19539    142775.25   -39575.914    2698.5193   -42274.433    330.38523    226.94843 
   95350    134.04363   -521.17049     142870.9   -39580.348    2696.6209   -42276.969    330.39391    226.78878 
   95400     134.8534   -709.87657    142891.94   -39583.885    2712.9116   -42296.797    330.42346    228.15884 
   95450    132.82896   -629.02465    142884.64   -39608.398    2672.1849   -42280.582     330.4931    224.73368 
   95500     131.5409   -623.22628    142876.35    -39626.08    2646.2724   -42272.352    331.12107    222.55442 
   95550    131.28724   -812.91352    142785.14   -39647.041    2641.1693   -42288.211    331.31452    222.12523 
   95600    134.16921   -738.56684    142794.88   -39628.692    2699.1473    -42327.84    331.01202    227.00125 
   95650    132.09767   -554.54416    142779.59   -39647.788    2657.4732   -42305.261     330.9647    223.49642 
   95700    129.15466   -639.48299    142832.33   -39694.454    2598.2671   -42292.721    331.24608    218.51712 
   95750    131.79825   -637.14298    142825.15   -39657.693    2651.4495   -42309.142     331.4632    222.98981 
   95800    133.29907   -778.36899     142830.8   -39635.996    2681.6422   -42317.638    331.42425    225.52905 
   95850    133.08884   -519.92002    142846.62    -39661.48    2677.4131   -42338.893    331.30144    225.17338 
   95900    130.25542   -634.77388    142873.46   -39662.805    2620.4117   -42283.217    331.82744     220.3795 
   95950    131.49394   -677.39293    142917.83    -39675.81    2645.3276   -42321.138     332.1519    222.47496 
   96000    131.69364   -692.85595    142980.23   -39655.089    2649.3451   -42304.434    332.62498    222.81283 
   96050    132.23375   -684.41113    143095.57   -39673.113    2660.2107   -42333.324    332.68886    223.72663 
   96100    131.19622   -634.80581    143159.52   -39643.735    2639.3383   -42283.073    333.30692    221.97125 
   96150    131.52529   -849.33017     143129.9   -39660.692    2645.9582   -42306.651    333.57553    222.52799 
   96200    129.79345   -839.84967    143078.78   -39632.594    2611.1181   -42243.712    333.40845     219.5979 
   96250    133.85113   -757.80471    143000.36   -39594.858    2692.7484   -42287.607    333.96916    226.46309 
   96300    136.05893   -818.60716    142956.08   -39550.408    2737.1638   -42287.572    334.14843    230.19847 
   96350    133.17252   -792.64335    142921.17    -39579.56    2679.0964   -42258.657    334.51468    225.31495 
   96400    132.62747   -855.97647    142955.64   -39527.702    2668.1315   -42195.834    335.12672    224.39279 
   96450    133.76928   -844.86574    143018.38   -39532.183    2691.1018   -42223.285    335.17697    226.32462 
   96500    131.69638   -932.15033    143000.63   -39597.587    2649.4002   -42246.987    335.48388    222.81746 
   96550    132.58061   -678.72285    143060.79   -39585.727    2667.1886   -42252.915    335.55615    224.31349 
   96600     134.8812   -642.92591    143124.89   -39564.083    2713.4708   -42277.554    335.71068    228.20587 
   96650     133.2167   -621.68321     143153.7   -39548.027    2679.9853   -42228.012     336.1722    225.38971 
   96700    134.86218   -698.74901    143157.56   -39604.706    2713.0881   -42317.794    336.18669    228.17368 
   96750    134.56539   -786.54508    143171.27   -39568.416    2707.1176   -42275.533    336.40437    227.67156 
   96800    135.98363   -596.87028    143110.47   -39572.568     2735.649   -42308.217    336.50853    230.07108 
   96850    134.75855   -560.82595    143144.33    -39542.53    2711.0034   -42253.533    336.86536    227.99836 
   96900    137.81899   -773.86125    143120.33   -39515.902    2772.5717   -42288.473    336.75486    233.17632 
   96950    135.27087   -763.61197    143094.75   -39512.448      2721.31   -42233.758    336.93197    228.86516 
   97000    131.08794   -708.04055    143046.89   -39545.878    2637.1598   -42183.038    337.06888    221.78804 
   97050    131.66517   -536.07191    143019.25   -39538.725    2648.7723   -42187.498    336.87746    222.76466 
   97100    131.76685   -737.88902    143022.59   -39547.683    2650.8178   -42198.501    337.16979    222.93669 
   97150    135.68187   -589.74629    143071.67   -39544.735    2729.5783   -42274.313    337.05929    229.56053 
   97200    133.32392    -564.2602    143170.44   -39575.043    2682.1423   -42257.185    337.75902    225.57111 
   97250    136.18138   -653.46588    143226.34   -39523.426    2739.6271   -42263.054    337.92667    230.40564 
   97300    135.59223    -764.9861    143321.74   -39516.173    2727.7749   -42243.948    338.18747    229.40886 
   97350    134.06193   -659.63557    143318.19    -39529.98    2696.9892    -42226.97    338.37694    226.81975 
   97400    134.12904   -909.31801    143324.77   -39548.137    2698.3392   -42246.476    339.32234    226.93328 
   97450    132.67317   -828.75238    143309.07   -39575.324    2669.0509   -42244.375    339.30544    224.47011 
   97500    133.41302    -696.5591    143371.08   -39559.098    2683.9348   -42243.032     339.7833    225.72186 
   97550    135.94704   -610.00658    143423.17   -39545.981    2734.9128   -42280.894    340.18458    230.00917 
   97600    134.03176   -653.78529    143434.38   -39550.203    2696.3822   -42246.585    340.10058    226.76871 
   97650    137.09941   -649.42442     143439.7   -39518.067    2758.0956   -42276.163    340.09013    231.95887 
   97700    134.07881   -627.50359    143488.05   -39551.591    2697.3287    -42248.92    340.75551     226.8483 
   97750    132.91468   -953.41428    143423.91   -39560.083    2673.9094   -42233.992    340.98731    224.87871 
   97800    133.08993   -813.09221    143309.32   -39591.666     2677.435   -42269.101    341.43435    225.17522 
   97850    132.88543   -767.10201    143214.19   -39607.221     2673.321   -42280.542    341.03286    224.82923 
   97900    130.22709   -782.43356     143164.7   -39611.677    2619.8419   -42231.518    341.17477    220.33158 
   97950    134.03478   -580.51773    143143.75   -39559.178     2696.443   -42255.621    341.13033    226.77381 
   98000    131.61641   -810.43974    143140.74   -39599.593    2647.7913   -42247.384    341.25826    222.68216 
   98050    134.39759    -778.1502    143192.48   -39559.177    2703.7417   -42262.918    341.53232    227.38764 
   98100    133.00793   -746.72362    143180.15   -39536.237    2675.7852   -42212.022    341.75945    225.03647 
   98150    133.50593   -793.54981     143207.1   -39531.225    2685.8039   -42217.029    342.23497    225.87905 
   98200    133.42256   -631.35131    143199.53   -39539.589    2684.1265   -42223.715    342.59174    225.73799 
   98250    134.77126   -695.07325    143223.03    -39542.83     2711.259   -42254.089    342.76741    228.01986 
   98300    136.61932    -834.0025     143169.1   -39519.921    2748.4374   -42268.359    342.88602     231.1466 
   98350     133.9911   -851.06417    143153.73   -39528.873    2695.5643   -42224.438    343.03146    226.69991 
   98400    134.64266   -530.49664    143137.46   -39514.555     2708.672   -42223.227    343.01559    227.80229 
   98450    133.52768   -597.85562    143134.88   -39557.068    2686.2413   -42243.309    343.13583    225.91584 
   98500    132.96924   -600.86556    143081.25   -39534.924    2675.0069   -42209.931    343.54258    224.97102 
   98550    133.96573   -609.44342    143000.99   -39580.113    2695.0538   -42275.167    343.66485    226.65698 
   98600    134.26778   -655.99954    143069.48    -39574.01    2701.1303   -42275.141    343.75599    227.16802 
   98650    134.25698   -842.86444    143048.96   -39548.446     2700.913   -42249.359    344.45608    227.14974 
   98700    132.93044   -688.39392    142999.46   -39524.942    2674.2264   -42199.169    344.31598    224.90538 
   98750     133.5514   -595.28207    143025.98   -39496.583    2686.7186   -42183.302    344.01432    225.95598 
   98800    136.65206   -669.40174    143118.86   -39512.193    2749.0961   -42261.289    344.40822      231.202 
   98850    136.95017   -700.61849    143141.63   -39499.013    2755.0933   -42254.106    344.88745    231.70637 
   98900    134.68709    -731.3022    143194.34   -39506.947    2709.5659   -42216.513    344.74029    227.87746 
   98950    134.40276   -727.73488    143156.27   -39519.147    2703.8457   -42222.993    344.41496    227.39639 
   99000    133.60189   -828.55214    143099.78   -39555.745    2687.7344    -42243.48    345.02379    226.04141 
   99050    132.39701   -858.38106    143053.39   -39574.794    2663.4952   -42238.289    345.07386    224.00287 
   99100    132.14226   -635.52718    143050.39   -39591.841    2658.3702   -42250.211    345.36367    223.57185 
   99150    132.13608   -667.49943    143074.56   -39581.248    2658.2458   -42239.493    345.57335    223.56139 
   99200     132.7601     -691.418     143078.7   -39593.737    2670.7996   -42264.537    345.74501    224.61718 
   99250    132.05759   -704.96285    143082.11   -39568.809    2656.6668   -42225.476     346.1638    223.42859 
   99300    133.05136   -753.03314    143087.07   -39590.088    2676.6591   -42266.747     345.9987    225.10997 
   99350    131.26887   -788.09842    143031.76   -39602.032    2640.7998   -42242.831    346.87901    222.09416 
   99400    131.33143   -931.46829    143014.22   -39590.923    2642.0584   -42232.982    346.67622    222.20001 
   99450    133.08233   -799.45998    142982.79   -39606.697    2677.2821   -42283.979    346.91281    225.16236 
   99500    133.99529   -774.91412    142900.94   -39629.507    2695.6484   -42325.156     347.0962    226.70699 
   99550    130.47497   -879.88841    142873.05   -39683.291    2624.8284   -42308.119     347.2046    220.75095 
   99600    131.69121    -876.8469    142819.43   -39708.577    2649.2962   -42357.873    347.27541    222.80872 
   99650    130.19039   -665.31558    142717.16    -39700.95    2619.1034   -42320.053    347.11599    220.26947 
   99700    132.65769   -698.44399    142803.83    -39663.92    2668.7394    -42332.66    347.29906    224.44391 
   99750    130.22198   -840.22917    142729.76   -39716.169    2619.7389   -42335.908    347.53496    220.32292 
   99800    132.37324   -594.46702    142760.16    -39667.57     2663.017   -42330.587    347.43118    223.96265 
   99850    132.80876   -573.46922    142854.27   -39671.953    2671.7784   -42343.731    347.40532     224.6995 
   99900    133.00606   -848.58348    142843.87   -39628.901    2675.7477   -42304.649    347.71354    225.03332 
   99950    134.91485   -638.26901    142814.05   -39631.687    2714.1478   -42345.835    347.98868    228.26281 
  100000    133.01038   -615.12014    142897.39   -39640.462    2675.8346   -42316.296    348.05019    225.04062 
Loop time of 188.749 on 64 procs for 100000 steps with 6750 atoms

Performance: 228.876 ns/day, 0.105 hours/ns, 529.805 timesteps/s
100.0% CPU use with 64 MPI tasks x no OpenMP threads

MPI task timing breakdown:
Section |  min time  |  avg time  |  max time  |%varavg| %total
---------------------------------------------------------------
Pair    | 35.025     | 88.982     | 148.7      | 565.1 | 47.14
Neigh   | 1.2853     | 2.644      | 5.2358     |  87.7 |  1.40
Comm    | 26.961     | 85.134     | 141.85     | 557.2 | 45.10
Output  | 0.12818    | 0.12962    | 0.14237    |   0.5 |  0.07
Modify  | 6.8408     | 11.123     | 19.96      | 134.9 |  5.89
Other   |            | 0.7366     |            |       |  0.39

Nlocal:    105.469 ave 172 max 68 min
Histogram: 30 2 0 7 9 0 0 0 4 12
Nghost:    995.266 ave 1337 max 677 min
Histogram: 32 0 0 0 0 0 0 0 4 28
Neighs:    0 ave 0 max 0 min
Histogram: 64 0 0 0 0 0 0 0 0 0
FullNghs:  12586.5 ave 27349 max 4209 min
Histogram: 32 0 0 0 16 0 0 0 2 14

Total # of neighbors = 805534
Ave neighs/atom = 119.338
Neighbor list builds = 6143
Dangerous builds = 0

write_data		${DIR}/data.eq-${NAME}-${TEMP}
write_data		run_14/data.eq-${NAME}-${TEMP}
write_data		run_14/data.eq-het_freeze_14-${TEMP}
write_data		run_14/data.eq-het_freeze_14-225
undump          1

reset_timestep  0

unfix           2
unfix           3
unfix           4


################################################
#######         Run Simulation         #########
################################################

log				${DIR}/log.run_${NAME}
log				run_14/log.run_${NAME}
log				run_14/log.run_het_freeze_14
