LAMMPS data file via write_data, version 16 Mar 2018, timestep = 100000

6489 atoms
2 atom types

0.0000000000000000e+00 4.9219999999999999e+01 xlo xhi
0.0000000000000000e+00 4.9019635930410494e+01 ylo yhi
2.0606421344376180e+00 5.8001357865561602e+01 zlo zhi

Masses

1 18.015
2 12.01

Atoms # atomic

3383 1 4.2531372841417801e+00 2.5956516243190664e+00 5.7952105311245354e+00 1 0 0
3113 1 7.8761549990404793e+00 1.6025451842048540e+01 2.1582631001366837e+00 1 0 1
1989 1 8.0979147564476772e+00 1.5552019651387278e-01 9.2569406894665391e+00 1 0 0
4934 1 7.1409155498961798e+00 3.2822306932090157e+00 6.3604439225017781e+00 0 0 0
1443 1 7.6577012564096227e+00 1.3503113636417964e+01 1.1015946351597567e+01 0 0 1
5061 1 9.7610315875288212e+00 5.4545172123831138e+00 8.5795686339659625e+00 1 0 0
5041 1 4.8382862153451338e+00 4.7117128048725281e+00 4.0752141457951279e+00 0 1 1
6463 1 1.6326147736309475e+00 7.7616199343848589e+00 2.9533640858078494e+00 1 1 1
5298 1 3.0498247218402077e+00 6.6061953194715217e+00 5.3112743587062301e+00 0 0 0
5315 1 8.8166815908414709e+00 5.2569107250864722e+00 5.3388315637068349e+00 0 1 0
3078 1 6.9608861068796699e+00 6.9676704221495944e+00 3.9528329150228823e+00 0 1 1
6338 1 7.2164430165945097e+00 8.7171518354352671e+00 5.8354645428985146e+00 1 1 0
4739 1 4.5804622513238851e+00 9.0902585299900007e+00 5.9624790280162383e+00 1 1 0
5379 1 3.5385115947124155e+00 9.7267884786339458e+00 3.5409361086785145e+00 -1 0 1
1865 1 9.8078641863596094e-01 1.3004362414411643e+01 5.2191638944200545e+00 -1 0 0
3631 1 5.2440358259709301e+00 1.4236389706902754e+01 3.8037289410406108e+00 0 0 1
2868 1 7.1747914727552571e+00 1.2511956308640087e+01 2.8264369963654485e+00 1 1 1
3322 1 8.2463937011078876e+00 1.1432574366194121e+01 5.0970776416991708e+00 1 0 0
3133 1 2.4288762276331718e-01 1.6599271821013353e+00 1.0334923991833314e+01 1 0 1
3688 1 3.1201779299702217e+00 1.2658523864100696e+01 3.6220201477046503e+00 -1 0 1
48 1 7.0155365764178224e-01 5.8031677723663373e+00 8.1132035442054722e+00 -1 0 1
368 1 3.9650964514640590e+00 1.4710608779840076e+01 1.0067243222125517e+01 0 0 0
6471 1 1.8112010526154623e+00 1.2296798076462274e+01 1.0736187411838332e+01 1 1 1
2876 1 6.5257254460378320e+00 1.5441306037658961e+01 6.0945396362189976e+00 -1 0 0
5188 1 9.6991197931073181e+00 1.5349945100587508e+01 6.8028850091052684e+00 1 0 0
5064 1 4.4367310391580643e+00 1.4431541970230033e+00 8.2896304885951722e+00 1 1 0
2904 1 9.0648425261065722e+00 3.8147028287361149e+00 2.2594131527835493e+00 1 1 1
5217 1 6.9977442286067735e+00 1.2924339852774958e+01 6.9600825735420848e+00 1 0 0
5346 1 5.3770695127357264e+00 3.4433471487056857e+00 1.0281324528164733e+01 0 1 1
52 1 7.8243144425019704e+00 3.1676963401204077e+00 8.9677639622278029e+00 1 0 1
3336 1 3.1239156263675691e+00 7.2488756502850835e+00 8.2010008212980665e+00 0 1 0
1576 1 4.9924122038528411e+00 1.2358746986078598e+01 8.6473469848086673e+00 0 1 0
3426 1 4.9571456778305558e+00 6.3898668404909653e+00 9.9667469600060024e+00 1 1 0
1700 1 7.4318988304688398e+00 7.3148143937689332e+00 8.4852765691890522e+00 -1 -1 1
3480 1 8.4223996701961390e+00 9.5487974730511755e+00 9.6312020956160858e+00 1 0 0
3465 1 4.8047623068024707e+00 8.4928323447656584e-01 3.5134946326922294e+00 0 0 0
5169 1 1.1710548023324374e+00 9.5944985562594649e+00 8.9943491901113575e+00 0 0 0
5023 1 2.9198669053014026e+00 1.0944349787696376e+01 7.5821497321136890e+00 1 0 1
2212 1 1.5518064362239510e+00 1.3654466069312324e+01 7.9313998509155397e+00 0 0 0
3182 1 9.5871671554328266e+00 1.4050381365292914e+01 4.2927389273920120e+00 0 0 1
3157 1 8.3921359006742140e+00 1.7222552365314390e+00 4.4868081392875929e+00 -1 0 1
4741 1 9.4956891121448024e+00 1.3405917552653817e+01 8.7998160561534320e+00 0 0 1
166 1 1.7152784672463437e+00 3.1694598749780961e-01 8.3938694285211071e+00 0 0 0
6327 1 4.3824187004001462e+00 1.5983409932196361e+01 2.0711738926550436e+00 -1 1 0
5320 1 1.8927975308550811e+00 3.2003275219287647e-01 3.8881896300305971e+00 0 0 0
12 1 6.4563474580190841e+00 1.1122909332690107e+01 1.0849736182341163e+01 1 1 1
109 1 8.9511633801506978e+00 8.4828082482303273e+00 1.4246784288034791e+01 1 2 1
5345 1 1.3597926030994738e+00 3.1707305465883469e+00 1.3894312706161825e+01 1 1 0
3471 1 4.4172726299540477e+00 7.5815026200455087e+00 1.2520709771457726e+01 0 1 0
4892 1 7.9369354278887254e+00 6.2644855767483021e+00 2.0695347957524266e+01 1 1 0
4873 1 9.8112338771418433e+00 3.5182656740343612e+00 1.2537824601772790e+01 0 1 1
170 1 8.2781437625506680e+00 3.4738481335013973e+00 1.8034543956469363e+01 0 0 0
5065 1 5.1846006334124839e+00 4.2519374749457830e+00 1.4337832277493870e+01 1 0 0
6285 1 7.0506257596128359e+00 2.9624960213114404e+00 1.2412241123914479e+01 1 1 0
25 1 3.2826869020701235e+00 2.8818160972323379e+00 1.6060520162477989e+01 0 0 0
5144 1 2.7869281176132432e+00 5.9069669092610626e+00 1.4196682165563111e+01 0 1 1
525 1 5.8759695725476639e+00 1.5572466975282756e+01 1.1883356862004948e+01 0 0 1
6423 1 8.7582000922754197e+00 5.7094051280673197e+00 1.6316605286289956e+01 1 0 1
6255 1 6.5165755747372476e+00 6.8183330735216803e+00 1.4919399927641445e+01 0 0 1
68 1 1.7625129861880584e+00 1.1770773966544132e+01 1.5129687125323009e+01 0 1 1
181 1 1.5951982020056961e+00 1.2027007967227410e+01 1.9833381838236694e+01 1 0 0
3298 1 5.1510085180306653e-01 9.9537288692961301e+00 1.3676363289225664e+01 1 1 1
2086 1 4.6088136475290717e+00 1.1315023197915369e+01 1.4851757057191234e+01 1 0 0
1810 1 7.2971344537604343e+00 1.1098402347866299e+01 1.3524501734227034e+01 2 0 0
5440 1 3.6827755910204294e+00 1.0782812267451929e+01 1.2258146779278432e+01 1 1 1
4855 1 8.1095140953095530e+00 1.2644932730584053e+01 1.8303225487725925e+01 -1 0 1
5442 1 4.4964933561665061e+00 1.4199170414727627e+01 1.5896999768528268e+01 1 0 0
534 1 7.5995910816450696e+00 1.3518768912600430e+01 1.5703503454077211e+01 1 0 0
5199 1 2.9255135669236987e+00 2.2802941567971593e+00 1.1755758884234861e+01 0 0 0
331 1 1.5213005165949671e+00 2.6646136416831850e-01 1.8853824709175687e+01 1 1 0
3562 1 7.3750620113478691e+00 8.5596091419072029e-01 1.6252459971196146e+01 1 1 0
5247 1 3.4944972581988041e+00 5.1145871440270574e-01 1.7286225483184772e+01 1 1 1
3419 1 9.8118919417812762e+00 1.5173421598615910e+01 1.9789908621705742e+01 1 -1 0
4573 1 2.7591848595234021e+00 4.5175693264802810e+00 1.8214112481383598e+01 1 0 0
3251 1 5.6585945693961532e+00 1.8780467271065420e+00 1.9003075669596686e+01 0 0 0
3294 1 1.8523789380829248e+00 8.3839275546060961e+00 1.1576706685945023e+01 1 1 0
5183 1 2.4316275388738027e+00 6.8217922282551848e+00 1.6823383756010141e+01 1 0 1
1286 1 3.8959386980655850e+00 8.7417765167501429e+00 1.7912731329563659e+01 0 0 1
1866 1 1.2686697830481137e+00 1.4401072589460206e+01 1.5118164714771451e+01 0 0 0
3478 1 1.8909966614739517e+00 1.6286306556564583e+01 1.1571992337767746e+01 1 0 0
2913 1 5.8579669927189313e+00 8.9955770324956106e+00 1.6312766618776955e+01 1 1 1
1373 1 5.5117749738213844e+00 4.9985331117328355e+00 1.9235082535183164e+01 1 0 1
2073 1 7.6989145873579803e+00 6.6634972472362441e-02 1.9698029148668439e+01 0 0 1
3058 1 1.7520412872471967e+00 1.0538715562505539e+01 1.7618227703435586e+01 1 0 0
3374 1 3.7231193678347467e+00 1.3888582983990633e+01 1.8860606147234435e+01 1 0 0
6387 1 6.6684406713896811e+00 5.4079685742277150e-01 1.3477243851883300e+01 0 1 1
1689 1 5.9125663149387053e+00 1.2800638257713436e+01 2.0133756777073131e+01 0 0 0
1617 1 7.7382852348639402e+00 9.7553838651606579e+00 1.7909212768905167e+01 0 1 1
6345 1 5.4449151746640834e-01 1.4077350628668537e+01 1.2431755691206847e+01 0 0 1
92 1 9.3026711446232184e+00 1.4493432032350414e+01 1.3187919177403886e+01 1 1 0
3309 1 9.2639200767172074e+00 7.3356139487374676e+00 1.8255284290618469e+01 0 0 0
1610 1 2.2947494256258891e+00 2.4622023294321633e+00 2.4147959742618387e+01 0 0 0
3382 1 1.8074797082312206e+00 4.4874525838880581e+00 2.1275332372179562e+01 1 0 0
5077 1 1.4552072093192514e+00 5.2446874384270021e+00 2.4405909684557013e+01 1 -1 1
469 1 5.1643043957599764e+00 1.3603395172383779e+00 2.3624512196114800e+01 1 1 0
5176 1 1.4626841790306320e+00 1.0120471775380622e+01 2.1543511921857409e+01 0 1 0
1702 1 1.1162219570762720e-01 1.1611727427852415e+01 2.4288276541893087e+01 1 -1 0
4623 1 6.6106071855591724e+00 3.9787342338067018e+00 2.3001873474682622e+01 0 0 0
5234 1 7.3828265281255883e+00 8.5924457913555461e+00 2.2120679003496225e+01 0 1 0
4960 1 4.2621171537447786e+00 5.7958365944322718e+00 2.1635326751997365e+01 0 0 1
3142 1 5.6554674734528305e+00 1.0639395375712043e+01 2.1661926940498113e+01 0 1 0
2185 1 3.1609656563436412e+00 7.3454435868002959e+00 2.4119834163476469e+01 0 0 0
3215 1 6.1613178219654241e+00 6.6958577552627618e+00 2.3938078599724655e+01 1 1 1
3010 1 8.2068124979978290e+00 1.1467171791568827e+01 2.4544470647053423e+01 0 1 1
3770 1 9.8730338872963708e-01 1.4280022728161430e+01 2.4171986902541672e+01 1 0 1
1423 1 2.8432584897787136e+00 1.0215853412706920e+01 2.4192784650328395e+01 1 0 1
1463 1 5.1811058222105215e+00 1.1627109202905489e+01 2.4522561220442967e+01 0 0 0
785 2 8.6135000000000002e+00 1.4919019630994494e+01 2.6880639870360014e+01 0 0 0
3674 1 9.1771940668785916e+00 1.3176524658288049e+01 2.1516221922435204e+01 0 0 0
196 1 6.0543951463183268e+00 1.5402680832988677e+01 2.1490195246196244e+01 0 0 1
4869 1 3.9045018018578808e+00 1.4320828619801233e+01 2.4232630278333488e+01 0 0 1
3583 1 9.5247451110381434e+00 1.4155730208533617e+01 2.4050635449971864e+01 0 0 0
5325 1 9.3052844060018991e+00 9.0913967110956353e+00 2.3838019834027055e+01 -1 1 0
5306 1 2.1237369779729893e+00 1.4504223444202035e+01 2.1642642460374152e+01 1 -1 1
5186 1 9.7227956627732599e+00 5.4646983518592052e-01 2.1846652878112288e+01 1 1 0
738 2 6.1524999999999990e+00 1.4919019630994494e+01 2.6880639870360014e+01 0 0 0
693 2 4.9220000000000006e+00 1.5629449137232333e+01 2.6880639870360014e+01 0 0 0
4953 1 6.6393735985475084e+00 1.5395263521456704e+01 2.4316781895238353e+01 1 0 0
572 2 0.0000000000000000e+00 2.8417180249513345e+00 2.6880639870360014e+01 0 0 0
574 2 0.0000000000000000e+00 0.0000000000000000e+00 2.6880639870360014e+01 0 0 0
576 2 1.2305000000000001e+00 7.1042950623783474e-01 2.6880639870360014e+01 0 0 0
583 2 1.2305000000000001e+00 2.1312885187134998e+00 2.6880639870360014e+01 0 0 0
585 2 2.4610000000000003e+00 2.8417180249513345e+00 2.6880639870360014e+01 0 0 0
587 2 2.4610000000000003e+00 0.0000000000000000e+00 2.6880639870360014e+01 0 0 0
589 2 3.6915000000000004e+00 7.1042950623783474e-01 2.6880639870360014e+01 0 0 0
604 2 3.6914999999999996e+00 2.1312885187134998e+00 2.6880639870360014e+01 0 0 0
606 2 4.9220000000000006e+00 2.8417180249513332e+00 2.6880639870360014e+01 0 0 0
608 2 4.9220000000000006e+00 0.0000000000000000e+00 2.6880639870360014e+01 0 0 0
610 2 6.1524999999999999e+00 7.1042950623783407e-01 2.6880639870360014e+01 0 0 0
633 2 6.1524999999999999e+00 2.1312885187134989e+00 2.6880639870360014e+01 0 0 0
635 2 7.3829999999999991e+00 2.8417180249513345e+00 2.6880639870360014e+01 0 0 0
637 2 7.3829999999999991e+00 0.0000000000000000e+00 2.6880639870360014e+01 0 0 0
639 2 8.6134999999999984e+00 7.1042950623783407e-01 2.6880639870360014e+01 0 0 0
670 2 8.6134999999999984e+00 2.1312885187135002e+00 2.6880639870360014e+01 0 0 0
579 2 0.0000000000000000e+00 4.2625770374269996e+00 2.6880639870360014e+01 0 0 0
581 2 1.2305000000000001e+00 4.9730065436648339e+00 2.6880639870360014e+01 0 0 0
596 2 1.2305000000000001e+00 6.3938655561404980e+00 2.6880639870360014e+01 0 0 0
600 2 2.4610000000000003e+00 4.2625770374269996e+00 2.6880639870360014e+01 0 0 0
602 2 3.6914999999999996e+00 4.9730065436648339e+00 2.6880639870360014e+01 0 0 0
625 2 3.6914999999999996e+00 6.3938655561404980e+00 2.6880639870360014e+01 0 0 0
577 2 0.0000000000000000e+00 7.1042950623783341e+00 2.6880639870360014e+01 0 0 0
598 2 2.4610000000000003e+00 7.1042950623783341e+00 2.6880639870360014e+01 0 0 0
629 2 4.9220000000000006e+00 4.2625770374269978e+00 2.6880639870360014e+01 0 0 0
631 2 6.1524999999999999e+00 4.9730065436648339e+00 2.6880639870360014e+01 0 0 0
662 2 6.1524999999999999e+00 6.3938655561404980e+00 2.6880639870360014e+01 0 0 0
666 2 7.3829999999999991e+00 4.2625770374269996e+00 2.6880639870360014e+01 0 0 0
668 2 8.6135000000000002e+00 4.9730065436648339e+00 2.6880639870360014e+01 0 0 0
707 2 8.6135000000000002e+00 6.3938655561404980e+00 2.6880639870360014e+01 0 0 0
627 2 4.9220000000000006e+00 7.1042950623783341e+00 2.6880639870360014e+01 0 0 0
664 2 7.3830000000000009e+00 7.1042950623783341e+00 2.6880639870360014e+01 0 0 0
592 2 0.0000000000000000e+00 8.5251540748539991e+00 2.6880639870360014e+01 0 0 0
594 2 1.2305000000000001e+00 9.2355835810918343e+00 2.6880639870360014e+01 0 0 0
621 2 2.4610000000000003e+00 8.5251540748539991e+00 2.6880639870360014e+01 0 0 0
623 2 3.6915000000000004e+00 9.2355835810918343e+00 2.6880639870360014e+01 0 0 0
590 2 0.0000000000000000e+00 1.1366872099805333e+01 2.6880639870360014e+01 0 0 0
617 2 1.2305000000000001e+00 1.0656442593567498e+01 2.6880639870360014e+01 0 0 0
619 2 2.4610000000000003e+00 1.1366872099805333e+01 2.6880639870360014e+01 0 0 0
654 2 3.6914999999999996e+00 1.0656442593567499e+01 2.6880639870360014e+01 0 0 0
658 2 4.9220000000000006e+00 8.5251540748539991e+00 2.6880639870360014e+01 0 0 0
660 2 6.1524999999999999e+00 9.2355835810918343e+00 2.6880639870360014e+01 0 0 0
703 2 7.3830000000000009e+00 8.5251540748539991e+00 2.6880639870360014e+01 0 0 0
705 2 8.6134999999999984e+00 9.2355835810918343e+00 2.6880639870360014e+01 0 0 0
656 2 4.9220000000000006e+00 1.1366872099805333e+01 2.6880639870360014e+01 0 0 0
699 2 6.1524999999999999e+00 1.0656442593567499e+01 2.6880639870360014e+01 0 0 0
701 2 7.3829999999999991e+00 1.1366872099805333e+01 2.6880639870360014e+01 0 0 0
746 2 8.6134999999999984e+00 1.0656442593567498e+01 2.6880639870360014e+01 0 0 0
650 2 2.4610000000000003e+00 1.2787731112280996e+01 2.6880639870360014e+01 0 0 0
652 2 3.6915000000000004e+00 1.3498160618518829e+01 2.6880639870360014e+01 0 0 0
615 2 1.2305000000000001e+00 1.3498160618518829e+01 2.6880639870360014e+01 0 0 0
646 2 1.2305000000000001e+00 1.4919019630994494e+01 2.6880639870360014e+01 0 0 0
611 2 0.0000000000000000e+00 1.5629449137232333e+01 2.6880639870360014e+01 0 0 0
691 2 3.6915000000000004e+00 1.4919019630994494e+01 2.6880639870360014e+01 0 0 0
648 2 2.4610000000000003e+00 1.5629449137232328e+01 2.6880639870360014e+01 0 0 0
613 2 0.0000000000000000e+00 1.2787731112280996e+01 2.6880639870360014e+01 0 0 0
744 2 8.6135000000000002e+00 1.3498160618518835e+01 2.6880639870360014e+01 0 0 0
697 2 6.1524999999999990e+00 1.3498160618518829e+01 2.6880639870360014e+01 0 0 0
740 2 7.3829999999999991e+00 1.5629449137232333e+01 2.6880639870360014e+01 0 0 0
695 2 4.9220000000000006e+00 1.2787731112280996e+01 2.6880639870360014e+01 0 0 0
742 2 7.3829999999999991e+00 1.2787731112280996e+01 2.6880639870360014e+01 0 0 0
1456 1 1.3378456693700089e+00 1.7151776852581360e+00 2.1296601651681687e+01 1 0 1
2202 1 7.8590590971832430e+00 1.0040793834885700e+00 2.3943439439986186e+01 1 1 0
2969 1 4.0537575397703325e+00 7.0825534637556975e-01 2.1175436318621720e+01 -1 1 1
7 1 9.3080844468287935e+00 3.2965419838248629e+00 2.4622415610077525e+01 0 0 1
1585 1 8.7202087294684389e+00 6.1631134715270317e+00 2.4725821230274665e+01 0 0 0
1844 1 3.5987981680492913e+00 8.4636315546851506e+00 2.0733604664614141e+01 1 1 0
5012 1 8.1652973080515867e+00 3.2354903505331940e+00 2.0808192129171108e+01 0 1 0
573 2 0.0000000000000000e+00 1.4208590124756650e+00 3.0030999999999917e+01 0 0 0
575 2 0.0000000000000000e+00 0.0000000000000000e+00 3.0030999999999917e+01 0 0 0
584 2 1.2305000000000001e+00 2.1312885187134998e+00 3.0030999999999917e+01 0 0 0
586 2 2.4610000000000003e+00 1.4208590124756650e+00 3.0030999999999917e+01 0 0 0
588 2 2.4610000000000003e+00 0.0000000000000000e+00 3.0030999999999917e+01 0 0 0
605 2 3.6914999999999996e+00 2.1312885187134998e+00 3.0030999999999917e+01 0 0 0
582 2 1.2305000000000001e+00 3.5521475311891644e+00 3.0030999999999917e+01 0 0 0
603 2 3.6914999999999996e+00 3.5521475311891644e+00 3.0030999999999917e+01 0 0 0
901 2 0.0000000000000000e+00 2.8417180249513345e+00 3.3181360129637568e+01 0 0 0
902 2 0.0000000000000000e+00 0.0000000000000000e+00 3.3181360129637568e+01 0 0 0
903 2 1.2305000000000001e+00 7.1042950623783474e-01 3.3181360129637568e+01 0 0 0
907 2 1.2305000000000001e+00 2.1312885187134998e+00 3.3181360129637568e+01 0 0 0
908 2 2.4610000000000003e+00 2.8417180249513345e+00 3.3181360129637568e+01 0 0 0
909 2 2.4610000000000003e+00 0.0000000000000000e+00 3.3181360129637568e+01 0 0 0
910 2 3.6915000000000004e+00 7.1042950623783474e-01 3.3181360129637568e+01 0 0 0
918 2 3.6914999999999996e+00 2.1312885187134998e+00 3.3181360129637568e+01 0 0 0
607 2 4.9220000000000006e+00 1.4208590124756650e+00 3.0030999999999917e+01 0 0 0
609 2 4.9220000000000006e+00 0.0000000000000000e+00 3.0030999999999917e+01 0 0 0
634 2 6.1524999999999999e+00 2.1312885187134989e+00 3.0030999999999917e+01 0 0 0
636 2 7.3829999999999991e+00 1.4208590124756659e+00 3.0030999999999917e+01 0 0 0
638 2 7.3829999999999991e+00 0.0000000000000000e+00 3.0030999999999917e+01 0 0 0
671 2 8.6134999999999984e+00 2.1312885187135002e+00 3.0030999999999917e+01 0 0 0
632 2 6.1524999999999999e+00 3.5521475311891644e+00 3.0030999999999917e+01 0 0 0
669 2 8.6134999999999984e+00 3.5521475311891657e+00 3.0030999999999917e+01 0 0 0
919 2 4.9220000000000006e+00 2.8417180249513332e+00 3.3181360129637568e+01 0 0 0
920 2 4.9220000000000006e+00 0.0000000000000000e+00 3.3181360129637568e+01 0 0 0
921 2 6.1524999999999999e+00 7.1042950623783407e-01 3.3181360129637568e+01 0 0 0
933 2 6.1524999999999999e+00 2.1312885187134989e+00 3.3181360129637568e+01 0 0 0
934 2 7.3829999999999991e+00 2.8417180249513345e+00 3.3181360129637568e+01 0 0 0
935 2 7.3829999999999991e+00 0.0000000000000000e+00 3.3181360129637568e+01 0 0 0
936 2 8.6134999999999984e+00 7.1042950623783407e-01 3.3181360129637568e+01 0 0 0
952 2 8.6134999999999984e+00 2.1312885187135002e+00 3.3181360129637568e+01 0 0 0
578 2 0.0000000000000000e+00 5.6834360499026637e+00 3.0030999999999917e+01 0 0 0
580 2 0.0000000000000000e+00 4.2625770374269996e+00 3.0030999999999917e+01 0 0 0
597 2 1.2305000000000001e+00 6.3938655561404980e+00 3.0030999999999917e+01 0 0 0
599 2 2.4610000000000003e+00 5.6834360499026637e+00 3.0030999999999917e+01 0 0 0
601 2 2.4610000000000003e+00 4.2625770374269996e+00 3.0030999999999917e+01 0 0 0
626 2 3.6914999999999996e+00 6.3938655561404980e+00 3.0030999999999917e+01 0 0 0
595 2 1.2305000000000001e+00 7.8147245686161639e+00 3.0030999999999917e+01 0 0 0
624 2 3.6914999999999996e+00 7.8147245686161639e+00 3.0030999999999917e+01 0 0 0
905 2 0.0000000000000000e+00 4.2625770374269996e+00 3.3181360129637568e+01 0 0 0
906 2 1.2305000000000001e+00 4.9730065436648339e+00 3.3181360129637568e+01 0 0 0
914 2 1.2305000000000001e+00 6.3938655561404980e+00 3.3181360129637568e+01 0 0 0
916 2 2.4610000000000003e+00 4.2625770374269996e+00 3.3181360129637568e+01 0 0 0
917 2 3.6914999999999996e+00 4.9730065436648339e+00 3.3181360129637568e+01 0 0 0
929 2 3.6914999999999996e+00 6.3938655561404980e+00 3.3181360129637568e+01 0 0 0
904 2 0.0000000000000000e+00 7.1042950623783341e+00 3.3181360129637568e+01 0 0 0
915 2 2.4610000000000003e+00 7.1042950623783341e+00 3.3181360129637568e+01 0 0 0
628 2 4.9220000000000006e+00 5.6834360499026637e+00 3.0030999999999917e+01 0 0 0
630 2 4.9220000000000006e+00 4.2625770374269978e+00 3.0030999999999917e+01 0 0 0
663 2 6.1524999999999999e+00 6.3938655561404980e+00 3.0030999999999917e+01 0 0 0
665 2 7.3829999999999991e+00 5.6834360499026637e+00 3.0030999999999917e+01 0 0 0
667 2 7.3829999999999991e+00 4.2625770374269996e+00 3.0030999999999917e+01 0 0 0
708 2 8.6135000000000002e+00 6.3938655561404980e+00 3.0030999999999917e+01 0 0 0
661 2 6.1524999999999999e+00 7.8147245686161639e+00 3.0030999999999917e+01 0 0 0
706 2 8.6135000000000002e+00 7.8147245686161639e+00 3.0030999999999917e+01 0 0 0
931 2 4.9220000000000006e+00 4.2625770374269978e+00 3.3181360129637568e+01 0 0 0
932 2 6.1524999999999999e+00 4.9730065436648339e+00 3.3181360129637568e+01 0 0 0
948 2 6.1524999999999999e+00 6.3938655561404980e+00 3.3181360129637568e+01 0 0 0
950 2 7.3829999999999991e+00 4.2625770374269996e+00 3.3181360129637568e+01 0 0 0
951 2 8.6135000000000002e+00 4.9730065436648339e+00 3.3181360129637568e+01 0 0 0
971 2 8.6135000000000002e+00 6.3938655561404980e+00 3.3181360129637568e+01 0 0 0
930 2 4.9220000000000006e+00 7.1042950623783341e+00 3.3181360129637568e+01 0 0 0
949 2 7.3830000000000009e+00 7.1042950623783341e+00 3.3181360129637568e+01 0 0 0
591 2 0.0000000000000000e+00 9.9460130873296642e+00 3.0030999999999917e+01 0 0 0
593 2 0.0000000000000000e+00 8.5251540748539991e+00 3.0030999999999917e+01 0 0 0
620 2 2.4610000000000003e+00 9.9460130873296642e+00 3.0030999999999917e+01 0 0 0
622 2 2.4610000000000003e+00 8.5251540748539991e+00 3.0030999999999917e+01 0 0 0
616 2 1.2305000000000001e+00 1.2077301606043163e+01 3.0030999999999917e+01 0 0 0
618 2 1.2305000000000001e+00 1.0656442593567498e+01 3.0030999999999917e+01 0 0 0
653 2 3.6914999999999996e+00 1.2077301606043163e+01 3.0030999999999917e+01 0 0 0
655 2 3.6914999999999996e+00 1.0656442593567499e+01 3.0030999999999917e+01 0 0 0
912 2 0.0000000000000000e+00 8.5251540748539991e+00 3.3181360129637568e+01 0 0 0
913 2 1.2305000000000001e+00 9.2355835810918343e+00 3.3181360129637568e+01 0 0 0
927 2 2.4610000000000003e+00 8.5251540748539991e+00 3.3181360129637568e+01 0 0 0
928 2 3.6915000000000004e+00 9.2355835810918343e+00 3.3181360129637568e+01 0 0 0
911 2 0.0000000000000000e+00 1.1366872099805333e+01 3.3181360129637568e+01 0 0 0
925 2 1.2305000000000001e+00 1.0656442593567498e+01 3.3181360129637568e+01 0 0 0
926 2 2.4610000000000003e+00 1.1366872099805333e+01 3.3181360129637568e+01 0 0 0
944 2 3.6914999999999996e+00 1.0656442593567499e+01 3.3181360129637568e+01 0 0 0
657 2 4.9220000000000006e+00 9.9460130873296642e+00 3.0030999999999917e+01 0 0 0
659 2 4.9220000000000006e+00 8.5251540748539991e+00 3.0030999999999917e+01 0 0 0
702 2 7.3830000000000009e+00 9.9460130873296642e+00 3.0030999999999917e+01 0 0 0
704 2 7.3830000000000009e+00 8.5251540748539991e+00 3.0030999999999917e+01 0 0 0
698 2 6.1524999999999999e+00 1.2077301606043163e+01 3.0030999999999917e+01 0 0 0
700 2 6.1524999999999999e+00 1.0656442593567499e+01 3.0030999999999917e+01 0 0 0
745 2 8.6135000000000002e+00 1.2077301606043163e+01 3.0030999999999917e+01 0 0 0
747 2 8.6134999999999984e+00 1.0656442593567498e+01 3.0030999999999917e+01 0 0 0
946 2 4.9220000000000006e+00 8.5251540748539991e+00 3.3181360129637568e+01 0 0 0
947 2 6.1524999999999999e+00 9.2355835810918343e+00 3.3181360129637568e+01 0 0 0
969 2 7.3830000000000009e+00 8.5251540748539991e+00 3.3181360129637568e+01 0 0 0
970 2 8.6134999999999984e+00 9.2355835810918343e+00 3.3181360129637568e+01 0 0 0
945 2 4.9220000000000006e+00 1.1366872099805333e+01 3.3181360129637568e+01 0 0 0
967 2 6.1524999999999999e+00 1.0656442593567499e+01 3.3181360129637568e+01 0 0 0
968 2 7.3829999999999991e+00 1.1366872099805333e+01 3.3181360129637568e+01 0 0 0
991 2 8.6134999999999984e+00 1.0656442593567498e+01 3.3181360129637568e+01 0 0 0
614 2 0.0000000000000000e+00 1.2787731112280996e+01 3.0030999999999917e+01 0 0 0
651 2 2.4610000000000003e+00 1.2787731112280996e+01 3.0030999999999917e+01 0 0 0
612 2 0.0000000000000000e+00 1.4208590124756663e+01 3.0030999999999917e+01 0 0 0
647 2 1.2305000000000001e+00 1.4919019630994494e+01 3.0030999999999917e+01 0 0 0
649 2 2.4610000000000003e+00 1.4208590124756663e+01 3.0030999999999917e+01 0 0 0
692 2 3.6915000000000004e+00 1.4919019630994494e+01 3.0030999999999917e+01 0 0 0
923 2 0.0000000000000000e+00 1.2787731112280996e+01 3.3181360129637568e+01 0 0 0
924 2 1.2305000000000001e+00 1.3498160618518829e+01 3.3181360129637568e+01 0 0 0
942 2 2.4610000000000003e+00 1.2787731112280996e+01 3.3181360129637568e+01 0 0 0
943 2 3.6915000000000004e+00 1.3498160618518829e+01 3.3181360129637568e+01 0 0 0
922 2 0.0000000000000000e+00 1.5629449137232333e+01 3.3181360129637568e+01 0 0 0
940 2 1.2305000000000001e+00 1.4919019630994494e+01 3.3181360129637568e+01 0 0 0
941 2 2.4610000000000003e+00 1.5629449137232328e+01 3.3181360129637568e+01 0 0 0
963 2 3.6915000000000004e+00 1.4919019630994494e+01 3.3181360129637568e+01 0 0 0
696 2 4.9220000000000006e+00 1.2787731112280996e+01 3.0030999999999917e+01 0 0 0
743 2 7.3829999999999991e+00 1.2787731112280996e+01 3.0030999999999917e+01 0 0 0
694 2 4.9220000000000006e+00 1.4208590124756663e+01 3.0030999999999917e+01 0 0 0
739 2 6.1524999999999990e+00 1.4919019630994494e+01 3.0030999999999917e+01 0 0 0
741 2 7.3830000000000009e+00 1.4208590124756663e+01 3.0030999999999917e+01 0 0 0
786 2 8.6135000000000002e+00 1.4919019630994494e+01 3.0030999999999917e+01 0 0 0
965 2 4.9220000000000006e+00 1.2787731112280996e+01 3.3181360129637568e+01 0 0 0
966 2 6.1524999999999990e+00 1.3498160618518829e+01 3.3181360129637568e+01 0 0 0
989 2 7.3829999999999991e+00 1.2787731112280996e+01 3.3181360129637568e+01 0 0 0
990 2 8.6135000000000002e+00 1.3498160618518835e+01 3.3181360129637568e+01 0 0 0
964 2 4.9220000000000006e+00 1.5629449137232333e+01 3.3181360129637568e+01 0 0 0
987 2 6.1524999999999990e+00 1.4919019630994494e+01 3.3181360129637568e+01 0 0 0
988 2 7.3829999999999991e+00 1.5629449137232333e+01 3.3181360129637568e+01 0 0 0
1011 2 8.6135000000000002e+00 1.4919019630994494e+01 3.3181360129637568e+01 0 0 0
1731 1 7.8449807870682937e+00 1.8473750074773762e-01 3.7886292005887285e+01 0 1 0
1867 1 7.4709276791044328e+00 1.3890167940345352e+01 3.8769622583816954e+01 0 0 0
1327 1 6.3320149517353332e+00 9.7837079967376059e+00 3.6461977878394364e+01 -1 1 -1
4926 1 7.4894055401864614e+00 1.4281602905295188e+01 3.5891578524919282e+01 0 0 -1
4779 1 6.6574114235018449e+00 1.0999312982359662e+01 3.9054672809421149e+01 0 0 0
6166 1 8.1793292086510512e+00 1.1613491617775306e+01 3.5709234909883463e+01 0 0 0
3096 1 4.7773366572795322e+00 1.4016800700994798e+01 3.8736117408618782e+01 0 -1 0
4613 1 2.4966665865270095e+00 3.6007616398991775e+00 3.6148375689661208e+01 1 0 0
3196 1 1.7789852190478361e+00 4.8446119534179060e+00 3.8555661312668747e+01 0 1 -1
2209 1 5.5500312960224196e+00 3.0156588315383597e+00 3.6610755765372801e+01 0 1 -1
4576 1 3.4955638148333072e+00 7.0021933670255336e+00 3.7984969843172891e+01 0 0 -1
1287 1 2.8516437778264252e+00 1.2415767971965076e+01 3.5816452726291161e+01 1 0 0
3128 1 8.1284245862292135e+00 2.0217715738501871e+00 3.5690485917356554e+01 1 1 0
168 1 8.9293819442674316e+00 4.7331859640804899e+00 3.5872576258161232e+01 0 0 0
3262 1 8.4054723731639872e-02 1.2866762895865966e+01 3.5882462863204339e+01 0 0 -1
4941 1 1.2455180512885082e+00 1.6085257285217750e+01 3.8227666914167756e+01 -1 0 -1
1394 1 5.6795439532906666e-01 8.8164344448227396e+00 3.5556390006985168e+01 0 2 -1
1525 1 3.6779725277430013e+00 9.7885409463845239e+00 3.5865973853039009e+01 1 1 -1
3063 1 1.0181130918062382e+00 1.3262593646742866e+00 3.9036338046764683e+01 0 1 -1
4589 1 5.0681554328253036e+00 5.7477635182448088e+00 3.5634122828373862e+01 0 0 0
1759 1 7.1379197348926509e+00 7.2650795690201644e+00 3.6110415522222226e+01 0 1 0
3303 1 5.7740210135710761e+00 3.0048195775744824e+00 3.9329340485413098e+01 1 1 -1
5204 1 1.4872978315173062e+00 9.2566054109898985e+00 3.8443473593732094e+01 0 0 -1
6445 1 1.0084207450965845e+00 1.3407504320262026e+01 3.8532121050565237e+01 1 2 -1
4594 1 4.6499010000351335e+00 1.4818905203825972e+01 3.5912484189232586e+01 1 0 0
6205 1 1.3005783331821892e+00 7.7557539545079057e-01 3.6301781086266175e+01 1 1 0
2158 1 9.5930165915917254e+00 4.7268622068783488e+00 3.9086291776293578e+01 0 1 0
4603 1 7.8511545491908805e+00 7.1447610084813729e+00 3.8972250194073183e+01 1 0 0
1474 1 2.7880862288406814e+00 6.1076446797893991e-01 4.3233463130866440e+01 1 0 0
6331 1 9.0312954484169534e+00 9.8352966290932322e+00 4.2517807616730153e+01 1 0 0
5016 1 6.2691675215858380e+00 1.5809803592117893e+01 4.2639183343031434e+01 -1 0 0
3025 1 5.5541453382626802e+00 8.9788325937544811e-01 4.3197296008495016e+01 0 1 0
4757 1 6.0645485429351282e+00 2.3684076617197522e-01 3.9951580154739389e+01 1 1 -1
3765 1 1.1889331029576204e+00 7.0324405487450310e+00 4.3276661473785907e+01 0 0 0
1420 1 2.4677527062100650e+00 3.5241026697624633e+00 4.2633281208907462e+01 0 0 0
47 1 6.3117515714883154e+00 1.0695758357237137e+01 4.3581915361530449e+01 0 0 0
1331 1 8.5397887029770967e+00 1.0978050118765111e+01 4.7944004961621800e+01 1 1 -1
512 1 6.6329958739699642e+00 4.8587345826361332e+00 4.1054469874553362e+01 -1 0 0
5270 1 8.3076875348786161e-01 1.0508577742196605e+01 4.1812985124558622e+01 1 1 0
379 1 1.1767479652829094e+00 9.2979064891661523e+00 4.4473381966961611e+01 0 1 -1
4815 1 5.1732995407987445e+00 7.2437900499202179e+00 4.0202090983706256e+01 0 0 0
1417 1 4.2345015566060358e+00 6.3054277365464584e+00 4.2937336304619848e+01 -1 1 0
6264 1 5.2019845994605323e+00 7.8648247230132116e+00 4.5308044803660877e+01 -1 1 0
5359 1 9.3134633402379698e+00 5.8252861185628095e+00 4.7305151673491039e+01 0 2 0
3434 1 1.0517644058034360e-01 1.4442751601207293e+01 4.5864912824605767e+01 1 1 -1
5021 1 2.9222831302997379e+00 1.1724615831437346e+01 3.9391464931080748e+01 -1 0 0
6222 1 3.5862753815468196e+00 1.2356263258189133e+01 4.7071134094006624e+01 0 1 0
4735 1 3.3451420194578119e+00 1.1940847332033643e+01 4.2519248686413476e+01 0 0 0
6489 1 9.2884560856452367e+00 4.8778541838480134e+00 4.2363133738481366e+01 0 0 0
2124 1 5.1165374147030320e+00 9.8884330805522538e+00 4.1001878216808521e+01 -1 1 0
1352 1 1.2206477819287698e+00 6.2074688215518009e-02 4.5355247014709519e+01 -1 1 0
2117 1 2.9389782848416117e+00 1.2232957926795400e+00 4.7599857310253483e+01 0 1 0
4509 1 8.0032118687718725e+00 1.3791114653251816e+01 4.6452938880823297e+01 -1 1 0
1405 1 7.1575049791239573e+00 1.3884046181592942e+00 4.5693800578458763e+01 -1 1 0