LAMMPS data file via write_data, version 16 Mar 2018, timestep = 6000000

6489 atoms
2 atom types

0.0000000000000000e+00 4.9219999999999999e+01 xlo xhi
0.0000000000000000e+00 4.9019635930410494e+01 ylo yhi
6.0652181745380318e-01 5.9455478182533874e+01 zlo zhi

Masses

1 18.015
2 12.01

Atoms # atomic

1390 1 3.8351817079860089e+00 2.1364288509361651e+00 2.4576411585797988e+00 0 1 1
4812 1 1.6653066431991757e+00 3.2579436876526016e+00 3.4355380028221534e+00 -2 0 1
3069 1 8.8214038608648817e+00 2.0111490200338147e+00 2.0981420827641477e+00 -1 0 1
6266 1 6.3935884820913653e+00 3.1410546539336681e+00 3.3593690589545111e+00 2 -2 1
1740 1 1.1868280105987299e+00 1.3215277429171664e+01 9.5684304820852759e+00 0 -3 0
3343 1 3.9610469873893019e+00 6.8465643948562516e+00 3.4016510139618839e+00 2 2 0
4531 1 1.8104517661638488e+00 5.6968755538541247e+00 2.3855327970102382e+00 -2 0 0
257 1 6.1472602769267057e+00 5.5772253637930707e+00 2.5100399360310464e+00 -1 2 0
3671 1 8.3800802922586488e+00 7.1297846738162205e+00 3.2146054257114960e+00 0 0 0
4850 1 1.0734708672240743e+00 1.0350443229520648e+01 3.2674021725779241e+00 -1 -1 1
6318 1 3.5671091703986137e+00 9.4762256057920489e+00 2.3773497076144707e+00 4 3 1
1818 1 8.1861372963582877e+00 9.6140140934626821e+00 2.5792579795742108e+00 1 -1 1
6103 1 5.9244248131800026e+00 1.0638440748867058e+01 3.3496623495679927e+00 3 1 1
1851 1 3.4092335130741072e+00 1.4128138570065463e+01 3.1947999332050285e+00 -1 0 0
6291 1 1.0545027989449327e+00 1.2975898877254359e+01 2.3613687234434453e+00 -2 -1 1
4624 1 5.9585778541296657e+00 1.3219949304310834e+01 2.6233283188232415e+00 -1 1 1
3517 1 8.1482106488168320e+00 1.4587738247335487e+01 3.7409325127465922e+00 1 1 0
4831 1 1.9960123302497192e+00 3.1848325416681234e+00 6.2276047880263814e+00 1 0 0
4816 1 4.2108773670449366e+00 1.7884050635866611e+00 7.1023041820839650e+00 -4 1 1
1933 1 4.5686091539998674e+00 1.4175382198540629e+00 9.8351938183001142e+00 1 -1 0
4540 1 5.8756016055367537e+00 1.3355635166341900e+01 9.6249634828062103e+00 -1 1 1
6216 1 9.0295910192756619e+00 2.1900084303626053e+00 9.6717110029234643e+00 -3 0 1
2188 1 6.5526011080705153e+00 3.0241051990958012e+00 6.0733366380252249e+00 3 0 1
1527 1 9.0678664224499812e+00 2.2757782158378768e+00 6.9523389482834279e+00 0 0 0
2022 1 7.8332751958763138e+00 1.4645832771261276e+01 6.4528126609553800e+00 3 4 0
63 1 3.9783779950066283e+00 6.5726404450412348e+00 6.0066245887943257e+00 1 2 1
2037 1 1.6972805510290734e+00 5.6738602989638904e+00 7.1117886507076280e+00 1 0 1
1582 1 1.9161683266462937e+00 5.3453948045496009e+00 1.0051523528751392e+01 -1 3 1
1834 1 8.5297741755606964e+00 6.9332241924272253e+00 6.1607320665359353e+00 4 0 1
1383 1 6.3141277053291702e+00 5.5485754870683595e+00 7.2086918180102497e+00 0 1 1
4983 1 6.2962274305155397e+00 5.8848024256516620e+00 9.9723921262231858e+00 2 0 0
4667 1 5.6937717976651951e+00 1.3070140289750411e+01 6.9753643040652396e+00 3 1 1
1428 1 1.3372790143183817e+00 1.0287554440488513e+01 5.9762559178706773e+00 2 2 0
4869 1 3.8210917387218228e+00 9.3101215030220441e+00 6.8235156162567741e+00 1 2 1
1474 1 3.7496805258572543e+00 9.6962715765240777e+00 9.5166607315526193e+00 1 0 1
209 1 6.2689831342156896e+00 1.0657499312981313e+01 5.9673131327985445e+00 1 2 0
4895 1 8.6430312924746371e+00 9.9556379937754755e+00 9.6394727640444966e+00 0 -1 1
4592 1 8.5867859607994159e+00 9.5836136583662555e+00 6.7848127456003935e+00 -2 0 1
6401 1 1.0145072109444178e+00 1.2932158574214208e+01 6.9220041895127649e+00 2 1 0
5 1 3.0572324859012014e+00 1.4383917506512013e+01 5.9850824832820715e+00 -2 0 1
3167 1 3.6088812387063740e-02 1.5754347189126259e+00 7.3585033586189486e+00 2 -3 1
6227 1 1.6119349639171390e+00 8.0662460321023968e+00 1.0256792336112923e+01 2 -1 1
2165 1 7.0438706018987620e+00 4.6687815434812718e-01 1.0257759197594538e+01 0 -1 1
3345 1 3.5292327541982753e+00 1.2048058864040522e+01 1.0367847696797726e+01 -1 -3 0
6308 1 6.2246325365486221e+00 8.4805173550395825e+00 1.0391441099840383e+01 2 0 1
1863 1 1.9091607955260086e+00 3.4433886877201196e+00 1.5185041302296018e+01 1 0 0
426 1 2.5946956995715924e+00 7.9839513250790761e-01 1.5284320279885437e+01 3 0 0
106 1 6.7229841288241419e+00 3.9745265049227001e+00 1.4915085347025276e+01 -1 1 1
3549 1 7.3597051885432867e+00 1.1610620362814454e+00 1.4953097369220274e+01 -1 2 0
4504 1 5.9368659807833959e+00 1.5994346701806704e+01 1.3320050398620177e+01 1 2 1
5310 1 4.2570226059144707e+00 3.9337312846960275e+00 1.3581082148000137e+01 0 1 1
1516 1 4.2596144993289897e+00 7.0416840126769058e+00 1.3963509325801356e+01 1 3 0
6284 1 9.4069523031405335e+00 7.6185109377783489e-01 1.6662655573271334e+01 -3 2 0
3187 1 9.0529870594655435e+00 4.6311560066784843e+00 1.3371850118249970e+01 -2 2 1
28 1 8.8572203622305992e+00 7.0522571317583402e+00 1.4155466937790834e+01 2 -1 0
5043 1 1.9912572462383473e+00 8.2399332315563960e+00 1.2853704786448915e+01 2 1 0
452 1 1.6558162720542602e+00 1.0681153614504844e+01 1.3858751415965502e+01 1 -5 1
5005 1 5.6848085229480887e+00 1.5974843068562377e+01 1.0656408454674555e+01 -1 0 0
3591 1 6.4039205962807060e+00 8.3723980453970359e+00 1.3209843911255849e+01 0 2 0
6360 1 5.9029281525289141e+00 1.0992220947873555e+01 1.4154168679919204e+01 -2 -1 1
4523 1 5.2904810388077737e+00 2.8975381387821464e-01 1.6557540636421606e+01 0 0 1
3248 1 4.8275892686705610e+00 6.1818003685069756e-01 1.9465762849952579e+01 1 -1 0
5070 1 3.7436590611377043e+00 1.2088914678563636e+01 1.3323816998683533e+01 5 0 0
1972 1 9.2580508629483627e-01 1.5704261306825268e+01 1.3503207093822432e+01 0 -4 0
5174 1 3.5364126921314902e+00 1.4619848346055761e+01 1.4146975202490262e+01 0 -1 0
524 1 1.2562143695216286e+00 1.5795103560748332e+01 1.0579705672050297e+01 -2 1 1
170 1 6.8031497802887895e+00 5.0684189354764442e+00 1.9830879310123613e+01 -1 3 0
3777 1 8.3146058981846185e+00 1.2351260306199789e+01 1.3172363589443149e+01 -1 -1 1
5217 1 8.2732472271917494e+00 1.5109621775624793e+01 1.4171485369509812e+01 1 -1 0
5303 1 2.7488202821450152e+00 4.5376791806757639e+00 1.9860835248854919e+01 -2 2 0
402 1 1.3690050292504783e+00 1.3344604660836110e+01 1.7660373045890967e+01 3 0 0
4927 1 3.7475834929813201e-01 6.8525929871319624e-01 1.9641473488444348e+01 2 0 1
3636 1 5.8334623928703202e+00 1.3467662690343481e+01 1.7660937821125096e+01 -2 -1 1
1438 1 9.4692405477485018e+00 1.2886111025845437e+00 1.9705001550532568e+01 1 1 1
2184 1 2.2170038795714904e+00 5.4936218864726962e+00 1.7032759779402298e+01 1 -2 1
4934 1 4.6222571089557603e+00 7.0298874062140371e+00 1.6671444465139221e+01 -1 1 0
3075 1 8.0760960787927534e+00 1.4955936551771003e+01 1.6786677049005423e+01 -1 -3 1
4888 1 6.8428866631289198e+00 5.5841885206937940e+00 1.7181649260453593e+01 0 1 0
2062 1 9.2558802417675778e+00 6.9290915347840931e+00 1.6751887755472751e+01 1 -2 1
6447 1 3.7854536816522346e+00 9.4164175294093031e+00 1.7524423725582530e+01 2 3 1
3095 1 1.4263162954272297e+00 1.0585793537465822e+01 1.6571179738879181e+01 2 -2 0
3466 1 8.5446921952784027e+00 9.6947015090699598e+00 1.7495806285102020e+01 1 -1 0
378 1 6.0328164375276714e+00 1.0722179344855970e+01 1.6728594291003727e+01 3 -1 1
5368 1 3.7070844686784405e+00 1.4805469595478838e+01 1.6898521417720083e+01 2 3 1
6186 1 4.2839627568709471e+00 3.9851700734040332e+00 1.0720162142499602e+01 2 -3 1
2024 1 1.4836597254445372e-01 1.8230595579143405e-01 1.6827223613492553e+01 1 2 0
6479 1 8.7754665466951831e+00 9.1945577178373163e+00 2.0186608733289905e+01 1 -1 0
4864 1 8.7963072648366190e+00 4.8249100852113536e+00 1.0597455840642793e+01 0 1 1
3608 1 8.3243735949915862e+00 1.2560044681183127e+01 1.0432094925964792e+01 -3 0 1
4837 1 2.2474668358814309e+00 2.2654326111725922e+00 2.3444394859527279e+01 3 1 1
695 2 4.9220000000000006e+00 1.2787731112280996e+01 2.6716859246156940e+01 0 0 0
3288 1 4.7878550442351804e+00 9.0050045951326207e-01 2.4031394434730309e+01 -1 2 1
744 2 8.6135000000000002e+00 1.3498160618518835e+01 2.6716859246156940e+01 0 0 0
136 1 7.0813187507693165e+00 2.3363660590092228e+00 2.3448571241269100e+01 0 0 0
3126 1 9.2251675314183998e+00 1.2041650346252257e+00 2.4406002398926230e+01 3 1 0
102 1 7.0039465243965857e+00 2.3345234913829782e+00 2.0758692102170446e+01 -1 -1 0
1604 1 2.4505757508666468e+00 4.9774425228120185e+00 2.4163680059142063e+01 1 -2 0
1826 1 4.6953968068040579e+00 6.5977948099624903e+00 2.3388187344251136e+01 2 1 0
3285 1 2.6042699484736942e+00 2.1269537470454121e+00 2.0512832807203722e+01 2 1 0
742 2 7.3829999999999991e+00 1.2787731112280996e+01 2.6716859246156940e+01 0 0 0
693 2 4.9220000000000006e+00 1.5629449137232333e+01 2.6716859246156940e+01 0 0 0
1757 1 6.7647616180063261e+00 5.1522432015842332e+00 2.4260846572135033e+01 2 0 1
5306 1 8.7602647046132329e+00 6.5328865364137831e+00 2.3565726638080420e+01 3 0 1
3280 1 1.5578344000205655e+00 1.0145729457222375e+01 2.1141202507221021e+01 2 2 1
3090 1 4.2114101532333290e+00 9.1686474365461148e+00 2.4041315719544944e+01 1 1 0
1915 1 1.4546304988061400e+00 9.8417355934696591e+00 2.3647536474093595e+01 -1 0 0
740 2 7.3829999999999991e+00 1.5629449137232333e+01 2.6716859246156940e+01 0 0 0
5218 1 8.6991067551586099e+00 9.2416096688320337e+00 2.4332335435802648e+01 -1 3 0
6434 1 6.3691853466938948e+00 1.0641789065204206e+01 2.3475127396854528e+01 3 -2 1
116 1 6.4888657785070398e+00 1.0549230272942967e+01 2.0883131662377693e+01 -4 -1 0
4806 1 8.9216175870259864e+00 6.3208502582874448e+00 2.0924969631945050e+01 1 2 0
6420 1 3.6059694315297266e+00 1.4224669893631912e+01 2.1297164837161699e+01 -1 1 0
78 1 1.2361919648615471e+00 1.2726641665107307e+01 2.4452691031031449e+01 2 -1 0
3287 1 3.6216712274279610e+00 1.4341261940639818e+01 2.3956540507156440e+01 0 -1 0
3610 1 4.4604277411450832e+00 6.3430917988072890e+00 2.0757106884374974e+01 2 1 0
4629 1 6.1195461554508483e+00 1.3147275805989210e+01 2.4158313399962164e+01 -1 -3 1
5305 1 8.4028490473917952e+00 1.4872124353050779e+01 2.3698149541721605e+01 0 -2 0
4817 1 8.2713889528416775e+00 1.4557045791437051e+01 2.1111563741411832e+01 0 -3 1
214 1 2.1173674285566702e-01 5.7807517924308682e-01 2.4239382227484693e+01 0 -2 0
572 2 0.0000000000000000e+00 2.8417180249513345e+00 2.6716859246156940e+01 0 0 0
574 2 0.0000000000000000e+00 0.0000000000000000e+00 2.6716859246156940e+01 0 0 0
576 2 1.2305000000000001e+00 7.1042950623783474e-01 2.6716859246156940e+01 0 0 0
583 2 1.2305000000000001e+00 2.1312885187134998e+00 2.6716859246156940e+01 0 0 0
585 2 2.4610000000000003e+00 2.8417180249513345e+00 2.6716859246156940e+01 0 0 0
587 2 2.4610000000000003e+00 0.0000000000000000e+00 2.6716859246156940e+01 0 0 0
589 2 3.6915000000000004e+00 7.1042950623783474e-01 2.6716859246156940e+01 0 0 0
604 2 3.6914999999999996e+00 2.1312885187134998e+00 2.6716859246156940e+01 0 0 0
606 2 4.9220000000000006e+00 2.8417180249513332e+00 2.6716859246156940e+01 0 0 0
608 2 4.9220000000000006e+00 0.0000000000000000e+00 2.6716859246156940e+01 0 0 0
610 2 6.1524999999999999e+00 7.1042950623783407e-01 2.6716859246156940e+01 0 0 0
633 2 6.1524999999999999e+00 2.1312885187134989e+00 2.6716859246156940e+01 0 0 0
635 2 7.3829999999999991e+00 2.8417180249513345e+00 2.6716859246156940e+01 0 0 0
637 2 7.3829999999999991e+00 0.0000000000000000e+00 2.6716859246156940e+01 0 0 0
639 2 8.6134999999999984e+00 7.1042950623783407e-01 2.6716859246156940e+01 0 0 0
670 2 8.6134999999999984e+00 2.1312885187135002e+00 2.6716859246156940e+01 0 0 0
579 2 0.0000000000000000e+00 4.2625770374269996e+00 2.6716859246156940e+01 0 0 0
581 2 1.2305000000000001e+00 4.9730065436648339e+00 2.6716859246156940e+01 0 0 0
596 2 1.2305000000000001e+00 6.3938655561404980e+00 2.6716859246156940e+01 0 0 0
600 2 2.4610000000000003e+00 4.2625770374269996e+00 2.6716859246156940e+01 0 0 0
602 2 3.6914999999999996e+00 4.9730065436648339e+00 2.6716859246156940e+01 0 0 0
625 2 3.6914999999999996e+00 6.3938655561404980e+00 2.6716859246156940e+01 0 0 0
577 2 0.0000000000000000e+00 7.1042950623783341e+00 2.6716859246156940e+01 0 0 0
598 2 2.4610000000000003e+00 7.1042950623783341e+00 2.6716859246156940e+01 0 0 0
629 2 4.9220000000000006e+00 4.2625770374269978e+00 2.6716859246156940e+01 0 0 0
631 2 6.1524999999999999e+00 4.9730065436648339e+00 2.6716859246156940e+01 0 0 0
662 2 6.1524999999999999e+00 6.3938655561404980e+00 2.6716859246156940e+01 0 0 0
666 2 7.3829999999999991e+00 4.2625770374269996e+00 2.6716859246156940e+01 0 0 0
668 2 8.6135000000000002e+00 4.9730065436648339e+00 2.6716859246156940e+01 0 0 0
707 2 8.6135000000000002e+00 6.3938655561404980e+00 2.6716859246156940e+01 0 0 0
627 2 4.9220000000000006e+00 7.1042950623783341e+00 2.6716859246156940e+01 0 0 0
664 2 7.3830000000000009e+00 7.1042950623783341e+00 2.6716859246156940e+01 0 0 0
592 2 0.0000000000000000e+00 8.5251540748539991e+00 2.6716859246156940e+01 0 0 0
594 2 1.2305000000000001e+00 9.2355835810918343e+00 2.6716859246156940e+01 0 0 0
621 2 2.4610000000000003e+00 8.5251540748539991e+00 2.6716859246156940e+01 0 0 0
623 2 3.6915000000000004e+00 9.2355835810918343e+00 2.6716859246156940e+01 0 0 0
590 2 0.0000000000000000e+00 1.1366872099805333e+01 2.6716859246156940e+01 0 0 0
617 2 1.2305000000000001e+00 1.0656442593567498e+01 2.6716859246156940e+01 0 0 0
619 2 2.4610000000000003e+00 1.1366872099805333e+01 2.6716859246156940e+01 0 0 0
654 2 3.6914999999999996e+00 1.0656442593567499e+01 2.6716859246156940e+01 0 0 0
658 2 4.9220000000000006e+00 8.5251540748539991e+00 2.6716859246156940e+01 0 0 0
660 2 6.1524999999999999e+00 9.2355835810918343e+00 2.6716859246156940e+01 0 0 0
703 2 7.3830000000000009e+00 8.5251540748539991e+00 2.6716859246156940e+01 0 0 0
705 2 8.6134999999999984e+00 9.2355835810918343e+00 2.6716859246156940e+01 0 0 0
656 2 4.9220000000000006e+00 1.1366872099805333e+01 2.6716859246156940e+01 0 0 0
699 2 6.1524999999999999e+00 1.0656442593567499e+01 2.6716859246156940e+01 0 0 0
701 2 7.3829999999999991e+00 1.1366872099805333e+01 2.6716859246156940e+01 0 0 0
746 2 8.6134999999999984e+00 1.0656442593567498e+01 2.6716859246156940e+01 0 0 0
691 2 3.6915000000000004e+00 1.4919019630994494e+01 2.6716859246156940e+01 0 0 0
652 2 3.6915000000000004e+00 1.3498160618518829e+01 2.6716859246156940e+01 0 0 0
613 2 0.0000000000000000e+00 1.2787731112280996e+01 2.6716859246156940e+01 0 0 0
648 2 2.4610000000000003e+00 1.5629449137232328e+01 2.6716859246156940e+01 0 0 0
615 2 1.2305000000000001e+00 1.3498160618518829e+01 2.6716859246156940e+01 0 0 0
611 2 0.0000000000000000e+00 1.5629449137232333e+01 2.6716859246156940e+01 0 0 0
650 2 2.4610000000000003e+00 1.2787731112280996e+01 2.6716859246156940e+01 0 0 0
646 2 1.2305000000000001e+00 1.4919019630994494e+01 2.6716859246156940e+01 0 0 0
738 2 6.1524999999999990e+00 1.4919019630994494e+01 2.6716859246156940e+01 0 0 0
785 2 8.6135000000000002e+00 1.4919019630994494e+01 2.6716859246156940e+01 0 0 0
697 2 6.1524999999999990e+00 1.3498160618518829e+01 2.6716859246156940e+01 0 0 0
3663 1 1.5045441519994087e+00 1.3082068933015773e+01 2.0311103807034161e+01 -3 -1 0
4568 1 4.0646989755111873e+00 9.1715907850130272e+00 2.0374744889224448e+01 2 1 1
5000 1 8.3052949932561307e-02 5.6060975363968621e+00 2.0584575776114125e+01 2 3 1
1470 1 5.9200611599139643e+00 1.3014817053788722e+01 2.0285250765007884e+01 -1 1 1
573 2 0.0000000000000000e+00 1.4208590124756650e+00 3.0030999999994265e+01 0 0 0
575 2 0.0000000000000000e+00 0.0000000000000000e+00 3.0030999999994265e+01 0 0 0
584 2 1.2305000000000001e+00 2.1312885187134998e+00 3.0030999999994265e+01 0 0 0
586 2 2.4610000000000003e+00 1.4208590124756650e+00 3.0030999999994265e+01 0 0 0
588 2 2.4610000000000003e+00 0.0000000000000000e+00 3.0030999999994265e+01 0 0 0
605 2 3.6914999999999996e+00 2.1312885187134998e+00 3.0030999999994265e+01 0 0 0
582 2 1.2305000000000001e+00 3.5521475311891644e+00 3.0030999999994265e+01 0 0 0
603 2 3.6914999999999996e+00 3.5521475311891644e+00 3.0030999999994265e+01 0 0 0
901 2 0.0000000000000000e+00 2.8417180249513345e+00 3.3345140753835253e+01 0 0 0
902 2 0.0000000000000000e+00 0.0000000000000000e+00 3.3345140753835253e+01 0 0 0
903 2 1.2305000000000001e+00 7.1042950623783474e-01 3.3345140753835253e+01 0 0 0
907 2 1.2305000000000001e+00 2.1312885187134998e+00 3.3345140753835253e+01 0 0 0
908 2 2.4610000000000003e+00 2.8417180249513345e+00 3.3345140753835253e+01 0 0 0
909 2 2.4610000000000003e+00 0.0000000000000000e+00 3.3345140753835253e+01 0 0 0
910 2 3.6915000000000004e+00 7.1042950623783474e-01 3.3345140753835253e+01 0 0 0
918 2 3.6914999999999996e+00 2.1312885187134998e+00 3.3345140753835253e+01 0 0 0
607 2 4.9220000000000006e+00 1.4208590124756650e+00 3.0030999999994265e+01 0 0 0
609 2 4.9220000000000006e+00 0.0000000000000000e+00 3.0030999999994265e+01 0 0 0
634 2 6.1524999999999999e+00 2.1312885187134989e+00 3.0030999999994265e+01 0 0 0
636 2 7.3829999999999991e+00 1.4208590124756659e+00 3.0030999999994265e+01 0 0 0
638 2 7.3829999999999991e+00 0.0000000000000000e+00 3.0030999999994265e+01 0 0 0
671 2 8.6134999999999984e+00 2.1312885187135002e+00 3.0030999999994265e+01 0 0 0
632 2 6.1524999999999999e+00 3.5521475311891644e+00 3.0030999999994265e+01 0 0 0
669 2 8.6134999999999984e+00 3.5521475311891657e+00 3.0030999999994265e+01 0 0 0
919 2 4.9220000000000006e+00 2.8417180249513332e+00 3.3345140753835253e+01 0 0 0
920 2 4.9220000000000006e+00 0.0000000000000000e+00 3.3345140753835253e+01 0 0 0
921 2 6.1524999999999999e+00 7.1042950623783407e-01 3.3345140753835253e+01 0 0 0
933 2 6.1524999999999999e+00 2.1312885187134989e+00 3.3345140753835253e+01 0 0 0
934 2 7.3829999999999991e+00 2.8417180249513345e+00 3.3345140753835253e+01 0 0 0
935 2 7.3829999999999991e+00 0.0000000000000000e+00 3.3345140753835253e+01 0 0 0
936 2 8.6134999999999984e+00 7.1042950623783407e-01 3.3345140753835253e+01 0 0 0
952 2 8.6134999999999984e+00 2.1312885187135002e+00 3.3345140753835253e+01 0 0 0
578 2 0.0000000000000000e+00 5.6834360499026637e+00 3.0030999999994265e+01 0 0 0
580 2 0.0000000000000000e+00 4.2625770374269996e+00 3.0030999999994265e+01 0 0 0
597 2 1.2305000000000001e+00 6.3938655561404980e+00 3.0030999999994265e+01 0 0 0
599 2 2.4610000000000003e+00 5.6834360499026637e+00 3.0030999999994265e+01 0 0 0
601 2 2.4610000000000003e+00 4.2625770374269996e+00 3.0030999999994265e+01 0 0 0
626 2 3.6914999999999996e+00 6.3938655561404980e+00 3.0030999999994265e+01 0 0 0
595 2 1.2305000000000001e+00 7.8147245686161639e+00 3.0030999999994265e+01 0 0 0
624 2 3.6914999999999996e+00 7.8147245686161639e+00 3.0030999999994265e+01 0 0 0
905 2 0.0000000000000000e+00 4.2625770374269996e+00 3.3345140753835253e+01 0 0 0
906 2 1.2305000000000001e+00 4.9730065436648339e+00 3.3345140753835253e+01 0 0 0
914 2 1.2305000000000001e+00 6.3938655561404980e+00 3.3345140753835253e+01 0 0 0
916 2 2.4610000000000003e+00 4.2625770374269996e+00 3.3345140753835253e+01 0 0 0
917 2 3.6914999999999996e+00 4.9730065436648339e+00 3.3345140753835253e+01 0 0 0
929 2 3.6914999999999996e+00 6.3938655561404980e+00 3.3345140753835253e+01 0 0 0
904 2 0.0000000000000000e+00 7.1042950623783341e+00 3.3345140753835253e+01 0 0 0
915 2 2.4610000000000003e+00 7.1042950623783341e+00 3.3345140753835253e+01 0 0 0
628 2 4.9220000000000006e+00 5.6834360499026637e+00 3.0030999999994265e+01 0 0 0
630 2 4.9220000000000006e+00 4.2625770374269978e+00 3.0030999999994265e+01 0 0 0
663 2 6.1524999999999999e+00 6.3938655561404980e+00 3.0030999999994265e+01 0 0 0
665 2 7.3829999999999991e+00 5.6834360499026637e+00 3.0030999999994265e+01 0 0 0
667 2 7.3829999999999991e+00 4.2625770374269996e+00 3.0030999999994265e+01 0 0 0
708 2 8.6135000000000002e+00 6.3938655561404980e+00 3.0030999999994265e+01 0 0 0
661 2 6.1524999999999999e+00 7.8147245686161639e+00 3.0030999999994265e+01 0 0 0
706 2 8.6135000000000002e+00 7.8147245686161639e+00 3.0030999999994265e+01 0 0 0
931 2 4.9220000000000006e+00 4.2625770374269978e+00 3.3345140753835253e+01 0 0 0
932 2 6.1524999999999999e+00 4.9730065436648339e+00 3.3345140753835253e+01 0 0 0
948 2 6.1524999999999999e+00 6.3938655561404980e+00 3.3345140753835253e+01 0 0 0
950 2 7.3829999999999991e+00 4.2625770374269996e+00 3.3345140753835253e+01 0 0 0
951 2 8.6135000000000002e+00 4.9730065436648339e+00 3.3345140753835253e+01 0 0 0
971 2 8.6135000000000002e+00 6.3938655561404980e+00 3.3345140753835253e+01 0 0 0
930 2 4.9220000000000006e+00 7.1042950623783341e+00 3.3345140753835253e+01 0 0 0
949 2 7.3830000000000009e+00 7.1042950623783341e+00 3.3345140753835253e+01 0 0 0
591 2 0.0000000000000000e+00 9.9460130873296642e+00 3.0030999999994265e+01 0 0 0
593 2 0.0000000000000000e+00 8.5251540748539991e+00 3.0030999999994265e+01 0 0 0
620 2 2.4610000000000003e+00 9.9460130873296642e+00 3.0030999999994265e+01 0 0 0
622 2 2.4610000000000003e+00 8.5251540748539991e+00 3.0030999999994265e+01 0 0 0
616 2 1.2305000000000001e+00 1.2077301606043163e+01 3.0030999999994265e+01 0 0 0
618 2 1.2305000000000001e+00 1.0656442593567498e+01 3.0030999999994265e+01 0 0 0
653 2 3.6914999999999996e+00 1.2077301606043163e+01 3.0030999999994265e+01 0 0 0
655 2 3.6914999999999996e+00 1.0656442593567499e+01 3.0030999999994265e+01 0 0 0
912 2 0.0000000000000000e+00 8.5251540748539991e+00 3.3345140753835253e+01 0 0 0
913 2 1.2305000000000001e+00 9.2355835810918343e+00 3.3345140753835253e+01 0 0 0
927 2 2.4610000000000003e+00 8.5251540748539991e+00 3.3345140753835253e+01 0 0 0
928 2 3.6915000000000004e+00 9.2355835810918343e+00 3.3345140753835253e+01 0 0 0
911 2 0.0000000000000000e+00 1.1366872099805333e+01 3.3345140753835253e+01 0 0 0
925 2 1.2305000000000001e+00 1.0656442593567498e+01 3.3345140753835253e+01 0 0 0
926 2 2.4610000000000003e+00 1.1366872099805333e+01 3.3345140753835253e+01 0 0 0
944 2 3.6914999999999996e+00 1.0656442593567499e+01 3.3345140753835253e+01 0 0 0
657 2 4.9220000000000006e+00 9.9460130873296642e+00 3.0030999999994265e+01 0 0 0
659 2 4.9220000000000006e+00 8.5251540748539991e+00 3.0030999999994265e+01 0 0 0
702 2 7.3830000000000009e+00 9.9460130873296642e+00 3.0030999999994265e+01 0 0 0
704 2 7.3830000000000009e+00 8.5251540748539991e+00 3.0030999999994265e+01 0 0 0
698 2 6.1524999999999999e+00 1.2077301606043163e+01 3.0030999999994265e+01 0 0 0
700 2 6.1524999999999999e+00 1.0656442593567499e+01 3.0030999999994265e+01 0 0 0
745 2 8.6135000000000002e+00 1.2077301606043163e+01 3.0030999999994265e+01 0 0 0
747 2 8.6134999999999984e+00 1.0656442593567498e+01 3.0030999999994265e+01 0 0 0
946 2 4.9220000000000006e+00 8.5251540748539991e+00 3.3345140753835253e+01 0 0 0
947 2 6.1524999999999999e+00 9.2355835810918343e+00 3.3345140753835253e+01 0 0 0
969 2 7.3830000000000009e+00 8.5251540748539991e+00 3.3345140753835253e+01 0 0 0
970 2 8.6134999999999984e+00 9.2355835810918343e+00 3.3345140753835253e+01 0 0 0
945 2 4.9220000000000006e+00 1.1366872099805333e+01 3.3345140753835253e+01 0 0 0
967 2 6.1524999999999999e+00 1.0656442593567499e+01 3.3345140753835253e+01 0 0 0
968 2 7.3829999999999991e+00 1.1366872099805333e+01 3.3345140753835253e+01 0 0 0
991 2 8.6134999999999984e+00 1.0656442593567498e+01 3.3345140753835253e+01 0 0 0
614 2 0.0000000000000000e+00 1.2787731112280996e+01 3.0030999999994265e+01 0 0 0
651 2 2.4610000000000003e+00 1.2787731112280996e+01 3.0030999999994265e+01 0 0 0
612 2 0.0000000000000000e+00 1.4208590124756663e+01 3.0030999999994265e+01 0 0 0
647 2 1.2305000000000001e+00 1.4919019630994494e+01 3.0030999999994265e+01 0 0 0
649 2 2.4610000000000003e+00 1.4208590124756663e+01 3.0030999999994265e+01 0 0 0
692 2 3.6915000000000004e+00 1.4919019630994494e+01 3.0030999999994265e+01 0 0 0
923 2 0.0000000000000000e+00 1.2787731112280996e+01 3.3345140753835253e+01 0 0 0
924 2 1.2305000000000001e+00 1.3498160618518829e+01 3.3345140753835253e+01 0 0 0
942 2 2.4610000000000003e+00 1.2787731112280996e+01 3.3345140753835253e+01 0 0 0
943 2 3.6915000000000004e+00 1.3498160618518829e+01 3.3345140753835253e+01 0 0 0
922 2 0.0000000000000000e+00 1.5629449137232333e+01 3.3345140753835253e+01 0 0 0
940 2 1.2305000000000001e+00 1.4919019630994494e+01 3.3345140753835253e+01 0 0 0
941 2 2.4610000000000003e+00 1.5629449137232328e+01 3.3345140753835253e+01 0 0 0
963 2 3.6915000000000004e+00 1.4919019630994494e+01 3.3345140753835253e+01 0 0 0
696 2 4.9220000000000006e+00 1.2787731112280996e+01 3.0030999999994265e+01 0 0 0
743 2 7.3829999999999991e+00 1.2787731112280996e+01 3.0030999999994265e+01 0 0 0
694 2 4.9220000000000006e+00 1.4208590124756663e+01 3.0030999999994265e+01 0 0 0
739 2 6.1524999999999990e+00 1.4919019630994494e+01 3.0030999999994265e+01 0 0 0
741 2 7.3830000000000009e+00 1.4208590124756663e+01 3.0030999999994265e+01 0 0 0
786 2 8.6135000000000002e+00 1.4919019630994494e+01 3.0030999999994265e+01 0 0 0
965 2 4.9220000000000006e+00 1.2787731112280996e+01 3.3345140753835253e+01 0 0 0
966 2 6.1524999999999990e+00 1.3498160618518829e+01 3.3345140753835253e+01 0 0 0
989 2 7.3829999999999991e+00 1.2787731112280996e+01 3.3345140753835253e+01 0 0 0
990 2 8.6135000000000002e+00 1.3498160618518835e+01 3.3345140753835253e+01 0 0 0
964 2 4.9220000000000006e+00 1.5629449137232333e+01 3.3345140753835253e+01 0 0 0
987 2 6.1524999999999990e+00 1.4919019630994494e+01 3.3345140753835253e+01 0 0 0
988 2 7.3829999999999991e+00 1.5629449137232333e+01 3.3345140753835253e+01 0 0 0
1011 2 8.6135000000000002e+00 1.4919019630994494e+01 3.3345140753835253e+01 0 0 0
1302 1 1.0699975140943023e+00 1.8509025928097482e+00 3.6018819777122097e+01 5 2 0
4501 1 1.2150339319853449e+00 3.4368744962620905e+00 3.8653334361529637e+01 0 1 0
5272 1 3.7960880303821751e+00 1.1893223164017046e+00 3.6187305314605922e+01 1 5 -1
3428 1 3.0842578314793219e+00 1.4918786507054943e+01 3.6456393808834086e+01 0 -1 -1
2057 1 6.1357931186921730e+00 2.6641131059547289e+00 3.5901658277382531e+01 2 -1 0
2878 1 8.4861721239193368e+00 1.1902374860456431e+00 3.6028926993798308e+01 0 3 -1
3566 1 6.0441109177290215e+00 3.7578688928187720e+00 3.8802791177773464e+01 -2 0 -1
6193 1 3.2156537240170975e+00 1.5279807956859152e+01 3.9277066056975826e+01 0 1 0
3190 1 7.3782876686402297e+00 1.5308677741454952e+01 3.6563501778495848e+01 -2 3 -1
453 1 1.2440596452639026e+00 5.1042972599318501e+00 3.6242635956433197e+01 2 2 -1
2897 1 3.3405290463110591e+00 6.8071040201767250e+00 3.6312515893552984e+01 0 1 0
4723 1 3.4013136881835182e+00 7.3198693622006301e+00 3.9101029327910368e+01 1 0 -1
427 1 7.6809274578403963e+00 1.5136592123957740e+01 3.9410427547060479e+01 1 0 -1
3017 1 1.1927836385705139e+00 1.3242565119988644e+01 3.5629066104364185e+01 0 -1 -1
264 1 5.8915460110517026e+00 5.5192820000984151e+00 3.6166381049106207e+01 2 1 0
6378 1 8.2343855858842367e+00 7.0593396091283802e+00 3.6589556992766127e+01 2 1 -1
2160 1 8.2530013535405207e+00 7.4772283178511785e+00 3.9110990900208371e+01 -1 0 0
3284 1 1.2461505023698676e+00 1.0711443289426242e+01 3.6181108961728249e+01 -1 2 0
5007 1 3.6209495789489674e+00 9.4121406082273715e+00 3.5687047284487008e+01 1 2 -1
1802 1 1.1617194332364005e+00 1.0932403306998994e+01 3.8792670381344060e+01 -2 3 0
2954 1 5.7321683420667693e+00 1.0771439300905625e+01 3.6366401384517189e+01 0 -1 0
2095 1 8.1742331806793960e+00 9.5600393278494558e+00 3.5402869901107024e+01 0 1 0
3674 1 5.5338968225408340e+00 1.1414994481077793e+01 3.9239191220416977e+01 1 0 -1
3588 1 5.4189119666876158e+00 1.3654291912042650e+01 3.5891557745164519e+01 1 2 -1
5104 1 1.5053708599378957e+00 8.3121149807959516e-01 3.9517507440801239e+01 -1 1 -1
3234 1 6.5184070245385426e+00 1.1568770413686376e+00 3.9674838761674614e+01 2 1 -1
5232 1 9.7158972704502027e+00 1.3816240554892463e+01 3.5948103220422816e+01 2 -2 -1
1937 1 4.0324019643455804e+00 2.9924789625008254e-03 3.8931419316248906e+01 1 1 0
3325 1 5.7621583131411080e+00 8.4082732259505164e+00 3.9760972727449548e+01 1 -2 -1
1728 1 8.6826025888056595e+00 9.0512220291778078e-02 3.8754844522275356e+01 2 -1 -1
3403 1 8.2703241130536327e+00 4.7562645630867824e+00 3.9767544556025484e+01 -1 1 -1
5374 1 1.4138146529395061e+00 3.0268643741546586e+00 4.3524353767955219e+01 4 0 -1
6241 1 1.8162368235371402e+00 6.3281413192412672e-01 4.2312862614213188e+01 0 1 0
15 1 6.7064061344123651e+00 1.1136465513394069e+00 4.2370478484118735e+01 4 1 0
109 1 6.3447193876309029e+00 3.6645405461273524e+00 4.3453701368357862e+01 1 2 0
2192 1 8.8108757968211524e+00 1.7160317350517440e-01 4.6092397140403513e+01 -2 -3 0
2182 1 3.5677681276825743e+00 4.5685006739343068e+00 4.2642001918964375e+01 2 -1 0
1427 1 3.4943989930862975e+00 7.2370727028187343e+00 4.3455772160705955e+01 1 1 0
5382 1 1.1257548541902112e+00 8.3757095231289700e+00 4.2928467199592227e+01 -1 -4 0
3424 1 8.3983250439893915e+00 4.9522575320814122e+00 4.2426253794220408e+01 2 -1 -1
3067 1 8.0083448995511368e+00 7.2838226251538174e+00 4.3778023697937670e+01 1 -1 0
6243 1 7.8437445200971512e+00 1.5037611797844910e+01 4.6825526740795240e+01 2 3 0
1357 1 1.0979029284355246e+00 1.0922925253289423e+01 4.3663769292195298e+01 4 -1 0
4968 1 5.7922805191646853e+00 8.4471959077417811e+00 4.2462396949861116e+01 -2 1 0
1410 1 5.4876949320611708e+00 1.1083762219915112e+01 4.3901760049210139e+01 0 -1 0
5314 1 6.7005725634036584e-01 1.3520965592017065e+01 4.7573868317732398e+01 0 0 0
3570 1 8.3869622591475135e-01 1.6276730321832485e+01 4.0029430045434822e+01 -1 -1 -1
1557 1 3.1323025319080968e+00 1.2435115990320162e+01 4.2630395570296280e+01 0 3 0
567 1 3.0955687209111358e+00 1.4755023654528316e+01 4.6609214674269829e+01 0 1 0
6255 1 3.1833523480482739e+00 1.4833866609654548e+01 4.3800696975273411e+01 1 0 0
2049 1 5.6931595089931317e+00 1.3793378592028667e+01 4.7505567956238941e+01 4 0 -1
6233 1 7.4953057075318208e+00 1.2517549160512763e+01 4.2794268274469125e+01 0 1 0
4815 1 7.4777920648247100e+00 1.5157454244939595e+01 4.3999405299839772e+01 2 -1 0
3481 1 1.0856835242271679e+00 8.5084416229083537e+00 4.0002342398077019e+01 1 0 -1
2913 1 4.0931925368936390e+00 2.6219581353656802e+00 4.7192630641715084e+01 0 0 0
1651 1 1.5666645810035567e+00 3.3589559683450618e+00 4.6338108070029733e+01 2 0 -1
6149 1 5.4293914977929472e+00 1.6316149724789231e+01 4.0311047153426912e+01 1 1 0