LAMMPS data file via write_data, version 16 Mar 2018, timestep = 8000000

6328 atoms
2 atom types

0.0000000000000000e+00 4.9219999999999999e+01 xlo xhi
0.0000000000000000e+00 4.9019635930410494e+01 ylo yhi
1.9587211777682718e+00 5.8103278822212616e+01 zlo zhi

Masses

1 18.015
2 12.01

Atoms # atomic

3542 1 4.5572451526956465e-02 2.5996854952568498e+00 1.0139441950058155e+01 2 1 0
3268 1 2.4888176298387510e-01 2.5084828322518442e+00 5.4567970089355100e+00 2 2 0
1543 1 7.6760822147303918e+00 3.2725496610041769e+00 2.7760342598809649e+00 2 6 0
5044 1 4.5696160649260422e+00 4.5132809158465592e-01 2.6927283321008604e+00 -3 -4 0
3274 1 4.4931361205002247e+00 3.9004622564665636e-01 5.5286324110476510e+00 2 -5 1
3499 1 7.8816991864348003e+00 3.2279164285445763e+00 5.6446302263774992e+00 1 0 0
4997 1 3.5549633992948664e+00 1.4483415439792642e+01 1.2874181908988694e+01 1 2 0
5022 1 3.3238486842309047e+00 1.6003423675092776e+01 6.2718830174184159e+00 3 1 1
4526 1 3.6843097741659010e+00 5.0438313118382654e+00 2.9737616933447191e+00 1 2 1
6035 1 3.9038807039219341e+00 5.0972738827401027e+00 5.6836421399204111e+00 -3 -2 0
2797 1 7.3307229517549750e+00 7.9823418836506139e+00 3.0164053246459690e+00 1 2 1
1403 1 1.1117259333474603e+01 6.2011337577879884e+00 2.7378778836539501e+00 2 -4 1
330 1 2.9204368045822764e+00 9.1559429825782193e+00 2.9457972813929292e+00 0 1 0
1706 1 3.1108485475312153e+00 9.1544239687318143e+00 5.7228436113325305e+00 -2 -2 1
320 1 8.1752793262391350e+00 3.4145455861899121e+00 1.3100121689279039e+01 4 -1 0
6161 1 1.0643275030845802e+01 1.0351180716572101e+01 2.6023928349081791e+00 1 1 1
3704 1 2.8732040286060507e+00 1.3786808105083248e+01 2.7926212355587072e+00 0 2 1
3375 1 2.6690132292321977e+00 1.3876526847133858e+01 5.5939605226940259e+00 2 2 1
2949 1 6.9049691378171110e+00 1.2035921161437006e+01 2.6427568643953712e+00 -2 2 1
3690 1 1.0078998706193019e+01 1.4874408580066753e+01 2.3488478519043849e+00 -1 1 1
5127 1 1.0069456906121717e+01 1.4564032168162512e+01 5.0720879744352789e+00 -2 -1 0
5162 1 1.1971873231950424e+01 1.5178313218485531e+01 1.0123177194757449e+01 1 -2 0
1958 1 1.7643193959290897e+00 4.1048042888373282e-01 9.0740578814635491e+00 0 -2 0
3271 1 5.3003141464006198e+00 2.8705868186541852e+00 6.5340991145063834e+00 -1 -2 1
3339 1 5.1767518930477880e+00 3.1296180274761425e+00 9.2608030770288909e+00 -4 -2 0
221 1 9.7320984811469380e+00 1.3109176560835607e+00 6.6715768509759457e+00 1 -4 0
2955 1 9.7729281515319908e+00 1.1971917631023652e+00 9.6310479946259804e+00 0 0 1
1420 1 1.2985915643056853e+00 4.7577800559048340e+00 6.6816422651026297e+00 -3 2 1
4966 1 7.2119389198464576e+00 7.6518406553741940e+00 5.9037158816387851e+00 0 5 1
3081 1 4.7149197260919706e+00 7.4839823850920899e+00 6.9425528299502668e+00 2 1 1
1258 1 1.1458322401038508e+01 6.1578237263355868e+00 5.6014040648229981e+00 2 2 0
3368 1 9.0634806700296426e+00 5.4478068172772183e+00 6.6262520518891899e+00 6 2 0
3356 1 8.7681580627099436e+00 5.7245745645123236e+00 9.1861070318161850e+00 -1 0 0
4466 1 1.2203786118749516e+01 1.3395148523708849e+00 5.2281967869437338e+00 3 -2 1
1463 1 4.0517484270140338e+00 1.1639023371550895e+01 6.6795696184433853e+00 4 1 1
1867 1 1.2020720371541170e+01 1.5626870822520618e+00 2.5201042587230997e+00 4 -2 1
6114 1 8.1057723021162023e+00 1.0420437711368256e+01 6.3451650372562423e+00 0 -1 0
4477 1 6.4011998413075757e+00 1.2138959945989791e+01 5.3541383451931317e+00 0 0 1
2052 1 8.1575375921766611e+00 1.0520026296906742e+01 9.1009069820829005e+00 -1 0 1
6219 1 1.0576565000091156e+01 1.0630862722104320e+01 5.2524843158362167e+00 -1 4 0
3599 1 3.1491544544520783e-01 9.2275540831161518e+00 9.5129194826453940e+00 4 5 1
117 1 1.0987691254325082e+01 1.0677990350699602e+01 1.0594059521754955e+01 3 -2 1
1549 1 3.6374988462206148e+00 1.0047239082746630e+01 1.2936686398994826e+01 0 -1 1
4521 1 7.3378963749219581e+00 1.4657822648037451e+01 6.0386495164583849e+00 5 3 1
1702 1 7.0012652273078837e+00 1.5237428210321973e+01 9.0951499775594620e+00 -1 1 0
357 1 1.1692408513526297e+01 1.2731580695953488e+01 6.2604639093350789e+00 -3 -2 1
191 1 1.8299110852695482e+00 3.1129272931321156e-01 6.2168738346656376e+00 3 -4 0
4670 1 6.7861097169227973e+00 1.2468892279984017e+01 1.0386743488029106e+01 4 -1 0
1786 1 4.3680192632404751e+00 6.4785701381670380e-01 1.0129042675240587e+01 0 0 1
2804 1 8.0706891664307623e+00 3.1678458684985396e+00 1.0413112132342199e+01 -1 -5 1
3616 1 4.1770573988064061e+00 1.6043848182860646e+01 8.7474180499918113e+00 4 -1 1
2071 1 2.9025356869852448e-01 1.3600968822369104e+01 6.6131820241382631e+00 2 -3 1
157 1 3.3239457736378653e-01 1.3941393461212622e+01 9.2654200567438458e+00 3 -1 1
4944 1 3.1520915149252243e-01 9.1998680002978048e+00 6.7472583713631611e+00 4 2 0
2928 1 1.0838333266218192e+00 5.1701557039295718e+00 9.5128528370619172e+00 0 1 1
70 1 3.6887519498624290e+00 5.1715592287363217e+00 1.0231979239108169e+01 3 1 1
1932 1 2.7318306805968144e+00 1.4252253098153073e+01 1.0260886727676731e+01 -3 -1 0
1255 1 1.2258713980709121e+01 8.6228434109513614e+00 6.4144112652847838e+00 7 2 1
2096 1 4.7243349901951968e+00 7.8081233141842912e+00 9.8007799094305561e+00 -1 4 1
3536 1 7.3760007914512835e+00 7.8381803524419000e+00 9.8802905716222451e+00 3 -3 1
112 1 1.1231061676968631e+01 6.0035935833154008e+00 1.0163564984379267e+01 0 2 1
1300 1 2.9253129090438184e+00 9.8062670401594261e+00 1.0423040983437776e+01 0 -3 0
3137 1 4.2368569984675695e+00 1.2097274339043038e+01 9.4655886055129699e+00 1 6 0
1937 1 3.0726535312036635e-01 2.1350595284377767e+00 2.8445776378799592e+00 3 -2 0
6303 1 7.6435004260948780e+00 8.0071290910761235e+00 1.2706515032629857e+01 -1 0 0
4643 1 3.8529080368796507e+00 5.2592726616300256e+00 1.2725081666570118e+01 2 -1 1
1567 1 3.7587009281052497e-01 2.7008019155548100e+00 1.2810340595503323e+01 -2 -7 0
1778 1 1.1845970742906454e+01 6.5143160128412987e+00 1.2711253066822275e+01 3 3 0
3534 1 4.2431367557191537e+00 6.8843315543493233e-01 1.2623918523464756e+01 1 2 0
3239 1 1.1618091145172874e+01 1.5229424807353590e+01 1.2966289647784325e+01 3 0 0
5101 1 1.2022431139195534e+01 1.5899684485097902e+00 1.3040538350016476e+01 1 3 1
6306 1 8.5729936901782793e+00 5.7157923685169294e+00 2.0268814407725126e+00 -1 3 1
3710 1 4.8438231669491714e+00 7.4956701600561964e+00 2.2364306365153857e+00 -2 2 1
1294 1 9.5370703795522207e+00 1.2536701408528443e+00 1.9974894078691297e+00 -2 3 1
6008 1 3.0475320137939534e+00 2.6638848999048301e+00 1.6562905226488809e+01 -3 0 0
1801 1 2.8880244776024999e+00 2.7772957004657401e+00 1.3808172963542695e+01 3 -3 0
2147 1 6.1990228248993802e+00 1.4756048658102445e+01 1.3931964295325136e+01 3 -1 0
4978 1 6.9332955134181891e+00 7.4777441124168609e-01 1.6425346697133243e+01 -2 5 0
1835 1 6.8061821634697912e+00 8.0230305794198442e-01 1.3705540612156671e+01 -2 0 1
4488 1 1.0741357233279063e+01 3.8913110326808962e+00 1.6677905790326122e+01 -1 0 0
6264 1 1.0578123594488895e+01 3.9626523919824748e+00 1.3965683517942015e+01 -2 -2 1
189 1 2.9223963218957878e+00 7.6587536834718524e+00 1.3922623624153099e+01 1 -2 0
4748 1 2.3909208441331571e+00 7.4121879395901296e+00 1.6649104481293371e+01 0 -1 1
4668 1 6.5410801108645584e+00 5.6976974551328210e+00 1.3698363433165751e+01 3 -3 1
3407 1 6.8626779864144671e+00 5.6341986770980323e+00 1.6519085583446660e+01 -1 0 0
1809 1 1.0765784139168437e+01 3.4022847591131229e+00 2.3507056314959083e+01 0 -4 0
6203 1 2.7260176959283848e+00 1.1901602830371999e+01 1.6644920485539011e+01 3 -2 1
1421 1 2.2947250511161692e+00 1.2291705723362881e+01 1.3868908915655759e+01 6 -3 1
3383 1 1.0097104042772747e+01 1.2627843189983109e+01 2.4002751192350363e+01 0 4 0
3343 1 6.2115113590694797e+00 1.0126577719200005e+01 1.4005888867111279e+01 3 -1 0
6308 1 6.4276785313671052e+00 1.0096941205430017e+01 1.6592942541744300e+01 -7 0 0
5057 1 1.0297906750615891e+01 8.5334302995646283e+00 1.3619831396776071e+01 -3 0 0
3478 1 1.0348910918044071e+01 8.3939673907896086e+00 1.6468876199479336e+01 4 -1 0
103 1 6.3974861577300786e+00 1.4810161181327873e+01 1.6761636740597673e+01 4 -8 0
1295 1 1.4849233973099951e-01 7.6841351663383239e+00 1.3660814524752979e+01 0 -6 1
11 1 1.0193814295290295e+01 1.2918406352657597e+01 1.6978391709256712e+01 5 -2 1
1906 1 1.0033584522664365e+01 1.2956507971467738e+01 1.4241112507786639e+01 2 1 0
3252 1 1.8457747134531279e+00 2.3945341837999418e-01 1.7285592632008182e+01 -1 0 1
1368 1 8.5862594842394770e+00 1.5111262022423924e+01 2.3831486579963187e+01 0 3 1
4906 1 5.7386618072154292e+00 3.0556813086477508e+00 1.7543538210492116e+01 0 -3 0
1297 1 5.4663775569900803e+00 3.1188938506862112e+00 2.0251517344565681e+01 1 3 1
5228 1 9.5699459831114044e+00 1.3017577924982218e+00 1.7362265741265706e+01 0 -2 1
3479 1 9.6538825947161140e+00 8.9304467941914201e-01 2.0117336055265557e+01 3 3 0
1576 1 1.5296871177628515e+00 4.8418417740437754e+00 1.7594274521049471e+01 0 -3 1
1749 1 5.0801665109972642e+00 7.6909605724311909e+00 1.7311455415650556e+01 0 3 0
410 1 5.3869636518969468e+00 7.6216700318272990e+00 2.0064552594118442e+01 3 -2 0
1742 1 9.4370419543672011e+00 6.1134399167810862e+00 1.7589122836059843e+01 2 -1 0
6150 1 9.5448707898366223e+00 6.0458177342255883e+00 2.0394668015838381e+01 1 1 0
2032 1 1.0180375251277438e+00 1.0005151799373895e+01 1.7710398437918982e+01 3 -1 0
1442 1 1.5407788319984330e+00 9.6802579158556643e+00 2.0334889051747844e+01 0 -2 1
126 1 9.1354955201438912e+00 1.0419707853756590e+01 1.7628562674432040e+01 -4 -1 0
2978 1 9.2113363621477191e+00 1.0242018693724251e+01 2.0356277369092414e+01 0 0 1
153 1 1.1270692845277159e+00 1.4093545163693010e+01 2.0604465992058337e+01 -2 -2 1
308 1 1.3405918145764655e+00 1.4035847590800625e+01 1.7847196024976665e+01 -4 1 1
1358 1 5.2629999758373058e+00 1.2055506389167396e+01 2.0359544068457108e+01 5 -1 0
419 1 5.2522081761012869e+00 1.2223379602767144e+01 1.7692201378641620e+01 2 0 0
3594 1 8.8499828559777232e+00 1.4801076110884717e+01 2.0708317142363939e+01 4 0 0
152 1 8.8813947600632162e+00 1.5132614723078461e+01 1.7904906009209167e+01 -2 -1 0
4600 1 1.0221293382396714e+01 1.2683463486247488e+01 2.1230164252862977e+01 3 -1 1
175 1 2.7711656432985921e+00 2.6709047806484110e+00 2.1043962195698054e+01 0 -2 0
3392 1 2.5279209921635557e+00 2.5436726895509918e+00 2.3729572661105813e+01 0 2 1
5985 1 6.9637536598622356e+00 8.9861927708681233e-01 2.1158174453112132e+01 3 3 0
4620 1 7.1736556813770740e+00 5.4026675233037325e-01 2.3811074584341441e+01 0 6 0
5177 1 3.1308013070286173e-01 9.2627798834147139e+00 2.4003146950451839e+01 -1 0 0
5974 1 1.0655459573766942e+01 3.3003299871548517e+00 2.0937525564266576e+01 -1 -3 1
3241 1 1.7314059964254949e+00 3.5012150439786727e-01 2.0268129015922618e+01 2 -5 0
170 1 6.0671584328799755e+00 1.4786505229741225e+01 2.0852749975072353e+01 1 -3 0
5248 1 5.2726504526215070e+00 2.7318882206354522e+00 2.4225184247792605e+01 3 1 1
2795 1 1.4971046903904799e+00 4.9703410933361285e+00 2.0218180213004370e+01 7 2 1
62 1 2.7729639148507519e+00 7.3439323875300753e+00 2.1189379582631677e+01 3 0 0
2120 1 2.1013668914620118e+00 7.1701896467157038e+00 2.3858270342567081e+01 -2 2 0
4576 1 6.3135536863795236e+00 5.4207138994695763e+00 2.3791389901471604e+01 0 2 1
4666 1 6.7215231277407801e+00 5.5368301012056538e+00 2.0942956645041484e+01 -3 -4 1
3233 1 4.9005874447419124e+00 7.4734382628498421e+00 2.4191126589984972e+01 1 -3 1
5114 1 5.7518837128045162e+00 1.4552568829590626e+01 2.3511712639874442e+01 2 -3 1
5024 1 6.4824899433014673e+00 9.7131243131686649e+00 2.1054830545505229e+01 1 1 0
2950 1 5.9681182486971069e+00 9.9475168321835241e+00 2.3954482814686560e+01 0 -1 1
228 1 1.0495149710021789e+01 8.0528056843836318e+00 2.3758304141643052e+01 7 1 0
106 1 2.7462789444137425e+00 1.1910885188213740e+01 2.1270241354436159e+01 3 -2 0
297 1 1.1087706761907752e+01 8.2111220118737069e+00 2.1210112889015086e+01 -4 1 1
6190 1 1.3467928834008689e+00 1.1964226001791655e+01 2.4090200241605938e+01 2 2 0
136 1 2.9408919979338845e-02 1.4235238167016359e+01 2.4219864438609328e+01 1 3 1
3422 1 9.1909543637005058e+00 5.7763459756014290e+00 2.3768048394140500e+01 0 -5 0
5275 1 1.2955292842601043e+00 1.6563518034062438e-01 2.4066680652532035e+01 1 -1 0
3628 1 4.1383868362100822e+00 1.2233869296735048e+01 2.3773335393497995e+01 4 -3 0
515 1 7.4845092667253352e+00 1.2538397157844111e+01 1.3231780237638448e+01 -3 -5 1
2823 1 1.1607125544832382e+01 1.1023602676021763e+01 1.3221529588969767e+01 4 0 1
552 2 0.0000000000000000e+00 2.8417180249513345e+00 2.6680564884683395e+01 0 0 0
554 2 0.0000000000000000e+00 0.0000000000000000e+00 2.6680564884683395e+01 0 0 0
556 2 1.2305000000000001e+00 7.1042950623783474e-01 2.6680564884683395e+01 0 0 0
563 2 1.2305000000000001e+00 2.1312885187134998e+00 2.6680564884683395e+01 0 0 0
565 2 2.4610000000000003e+00 2.8417180249513345e+00 2.6680564884683395e+01 0 0 0
567 2 2.4610000000000003e+00 0.0000000000000000e+00 2.6680564884683395e+01 0 0 0
569 2 3.6915000000000004e+00 7.1042950623783474e-01 2.6680564884683395e+01 0 0 0
584 2 3.6914999999999996e+00 2.1312885187134998e+00 2.6680564884683395e+01 0 0 0
994 2 1.1074500000000002e+01 1.3498160618518829e+01 3.3381435115311056e+01 0 0 0
586 2 4.9220000000000006e+00 2.8417180249513332e+00 2.6680564884683395e+01 0 0 0
588 2 4.9220000000000006e+00 0.0000000000000000e+00 2.6680564884683395e+01 0 0 0
590 2 6.1524999999999999e+00 7.1042950623783407e-01 2.6680564884683395e+01 0 0 0
613 2 6.1524999999999999e+00 2.1312885187134989e+00 2.6680564884683395e+01 0 0 0
615 2 7.3829999999999991e+00 2.8417180249513345e+00 2.6680564884683395e+01 0 0 0
617 2 7.3829999999999991e+00 0.0000000000000000e+00 2.6680564884683395e+01 0 0 0
619 2 8.6134999999999984e+00 7.1042950623783407e-01 2.6680564884683395e+01 0 0 0
650 2 8.6134999999999984e+00 2.1312885187135002e+00 2.6680564884683395e+01 0 0 0
652 2 9.8440000000000012e+00 2.8417180249513332e+00 2.6680564884683395e+01 0 0 0
654 2 9.8440000000000012e+00 0.0000000000000000e+00 2.6680564884683395e+01 0 0 0
656 2 1.1074500000000002e+01 7.1042950623783330e-01 2.6680564884683395e+01 0 0 0
695 2 1.1074500000000002e+01 2.1312885187135002e+00 2.6680564884683395e+01 0 0 0
559 2 0.0000000000000000e+00 4.2625770374269996e+00 2.6680564884683395e+01 0 0 0
561 2 1.2305000000000001e+00 4.9730065436648339e+00 2.6680564884683395e+01 0 0 0
576 2 1.2305000000000001e+00 6.3938655561404980e+00 2.6680564884683395e+01 0 0 0
580 2 2.4610000000000003e+00 4.2625770374269996e+00 2.6680564884683395e+01 0 0 0
582 2 3.6914999999999996e+00 4.9730065436648339e+00 2.6680564884683395e+01 0 0 0
605 2 3.6914999999999996e+00 6.3938655561404980e+00 2.6680564884683395e+01 0 0 0
557 2 0.0000000000000000e+00 7.1042950623783341e+00 2.6680564884683395e+01 0 0 0
578 2 2.4610000000000003e+00 7.1042950623783341e+00 2.6680564884683395e+01 0 0 0
609 2 4.9220000000000006e+00 4.2625770374269978e+00 2.6680564884683395e+01 0 0 0
611 2 6.1524999999999999e+00 4.9730065436648339e+00 2.6680564884683395e+01 0 0 0
642 2 6.1524999999999999e+00 6.3938655561404980e+00 2.6680564884683395e+01 0 0 0
646 2 7.3829999999999991e+00 4.2625770374269996e+00 2.6680564884683395e+01 0 0 0
607 2 4.9220000000000006e+00 7.1042950623783341e+00 2.6680564884683395e+01 0 0 0
644 2 7.3830000000000009e+00 7.1042950623783341e+00 2.6680564884683395e+01 0 0 0
992 2 9.8440000000000012e+00 1.5629449137232328e+01 3.3381435115311056e+01 0 0 0
648 2 8.6135000000000002e+00 4.9730065436648339e+00 2.6680564884683395e+01 0 0 0
687 2 8.6135000000000002e+00 6.3938655561404980e+00 2.6680564884683395e+01 0 0 0
691 2 9.8440000000000012e+00 4.2625770374270004e+00 2.6680564884683395e+01 0 0 0
693 2 1.1074500000000002e+01 4.9730065436648339e+00 2.6680564884683395e+01 0 0 0
734 2 1.1074500000000002e+01 6.3938655561404980e+00 2.6680564884683395e+01 0 0 0
689 2 9.8440000000000012e+00 7.1042950623783341e+00 2.6680564884683395e+01 0 0 0
572 2 0.0000000000000000e+00 8.5251540748539991e+00 2.6680564884683395e+01 0 0 0
574 2 1.2305000000000001e+00 9.2355835810918343e+00 2.6680564884683395e+01 0 0 0
601 2 2.4610000000000003e+00 8.5251540748539991e+00 2.6680564884683395e+01 0 0 0
603 2 3.6915000000000004e+00 9.2355835810918343e+00 2.6680564884683395e+01 0 0 0
570 2 0.0000000000000000e+00 1.1366872099805333e+01 2.6680564884683395e+01 0 0 0
597 2 1.2305000000000001e+00 1.0656442593567498e+01 2.6680564884683395e+01 0 0 0
599 2 2.4610000000000003e+00 1.1366872099805333e+01 2.6680564884683395e+01 0 0 0
634 2 3.6914999999999996e+00 1.0656442593567499e+01 2.6680564884683395e+01 0 0 0
638 2 4.9220000000000006e+00 8.5251540748539991e+00 2.6680564884683395e+01 0 0 0
640 2 6.1524999999999999e+00 9.2355835810918343e+00 2.6680564884683395e+01 0 0 0
683 2 7.3830000000000009e+00 8.5251540748539991e+00 2.6680564884683395e+01 0 0 0
636 2 4.9220000000000006e+00 1.1366872099805333e+01 2.6680564884683395e+01 0 0 0
679 2 6.1524999999999999e+00 1.0656442593567499e+01 2.6680564884683395e+01 0 0 0
681 2 7.3829999999999991e+00 1.1366872099805333e+01 2.6680564884683395e+01 0 0 0
685 2 8.6134999999999984e+00 9.2355835810918343e+00 2.6680564884683395e+01 0 0 0
730 2 9.8440000000000012e+00 8.5251540748539956e+00 2.6680564884683395e+01 0 0 0
732 2 1.1074500000000002e+01 9.2355835810918343e+00 2.6680564884683395e+01 0 0 0
726 2 8.6134999999999984e+00 1.0656442593567498e+01 2.6680564884683395e+01 0 0 0
728 2 9.8440000000000012e+00 1.1366872099805333e+01 2.6680564884683395e+01 0 0 0
773 2 1.1074500000000002e+01 1.0656442593567498e+01 2.6680564884683395e+01 0 0 0
775 2 1.2304999999999998e+01 1.1366872099805333e+01 2.6680564884683395e+01 0 0 0
593 2 0.0000000000000000e+00 1.2787731112280996e+01 2.6680564884683395e+01 0 0 0
595 2 1.2305000000000001e+00 1.3498160618518829e+01 2.6680564884683395e+01 0 0 0
630 2 2.4610000000000003e+00 1.2787731112280996e+01 2.6680564884683395e+01 0 0 0
632 2 3.6915000000000004e+00 1.3498160618518829e+01 2.6680564884683395e+01 0 0 0
591 2 0.0000000000000000e+00 1.5629449137232333e+01 2.6680564884683395e+01 0 0 0
626 2 1.2305000000000001e+00 1.4919019630994494e+01 2.6680564884683395e+01 0 0 0
628 2 2.4610000000000003e+00 1.5629449137232328e+01 2.6680564884683395e+01 0 0 0
671 2 3.6915000000000004e+00 1.4919019630994494e+01 2.6680564884683395e+01 0 0 0
675 2 4.9220000000000006e+00 1.2787731112280996e+01 2.6680564884683395e+01 0 0 0
677 2 6.1524999999999990e+00 1.3498160618518829e+01 2.6680564884683395e+01 0 0 0
722 2 7.3829999999999991e+00 1.2787731112280996e+01 2.6680564884683395e+01 0 0 0
673 2 4.9220000000000006e+00 1.5629449137232333e+01 2.6680564884683395e+01 0 0 0
718 2 6.1524999999999990e+00 1.4919019630994494e+01 2.6680564884683395e+01 0 0 0
720 2 7.3829999999999991e+00 1.5629449137232333e+01 2.6680564884683395e+01 0 0 0
970 2 8.6135000000000002e+00 1.3498160618518835e+01 3.3381435115311056e+01 0 0 0
724 2 8.6135000000000002e+00 1.3498160618518835e+01 2.6680564884683395e+01 0 0 0
769 2 9.8440000000000012e+00 1.2787731112280996e+01 2.6680564884683395e+01 0 0 0
771 2 1.1074500000000002e+01 1.3498160618518829e+01 2.6680564884683395e+01 0 0 0
765 2 8.6135000000000002e+00 1.4919019630994494e+01 2.6680564884683395e+01 0 0 0
767 2 9.8440000000000012e+00 1.5629449137232328e+01 2.6680564884683395e+01 0 0 0
807 2 1.1074500000000002e+01 1.4919019630994494e+01 2.6680564884683395e+01 0 0 0
553 2 0.0000000000000000e+00 1.4208590124756650e+00 3.0030999999990534e+01 0 0 0
555 2 0.0000000000000000e+00 0.0000000000000000e+00 3.0030999999990534e+01 0 0 0
564 2 1.2305000000000001e+00 2.1312885187134998e+00 3.0030999999990534e+01 0 0 0
566 2 2.4610000000000003e+00 1.4208590124756650e+00 3.0030999999990534e+01 0 0 0
568 2 2.4610000000000003e+00 0.0000000000000000e+00 3.0030999999990534e+01 0 0 0
585 2 3.6914999999999996e+00 2.1312885187134998e+00 3.0030999999990534e+01 0 0 0
562 2 1.2305000000000001e+00 3.5521475311891644e+00 3.0030999999990534e+01 0 0 0
583 2 3.6914999999999996e+00 3.5521475311891644e+00 3.0030999999990534e+01 0 0 0
587 2 4.9220000000000006e+00 1.4208590124756650e+00 3.0030999999990534e+01 0 0 0
589 2 4.9220000000000006e+00 0.0000000000000000e+00 3.0030999999990534e+01 0 0 0
614 2 6.1524999999999999e+00 2.1312885187134989e+00 3.0030999999990534e+01 0 0 0
616 2 7.3829999999999991e+00 1.4208590124756659e+00 3.0030999999990534e+01 0 0 0
618 2 7.3829999999999991e+00 0.0000000000000000e+00 3.0030999999990534e+01 0 0 0
612 2 6.1524999999999999e+00 3.5521475311891644e+00 3.0030999999990534e+01 0 0 0
651 2 8.6134999999999984e+00 2.1312885187135002e+00 3.0030999999990534e+01 0 0 0
653 2 9.8440000000000012e+00 1.4208590124756659e+00 3.0030999999990534e+01 0 0 0
655 2 9.8440000000000012e+00 0.0000000000000000e+00 3.0030999999990534e+01 0 0 0
696 2 1.1074500000000002e+01 2.1312885187135002e+00 3.0030999999990534e+01 0 0 0
649 2 8.6134999999999984e+00 3.5521475311891657e+00 3.0030999999990534e+01 0 0 0
694 2 1.1074500000000002e+01 3.5521475311891644e+00 3.0030999999990534e+01 0 0 0
558 2 0.0000000000000000e+00 5.6834360499026637e+00 3.0030999999990534e+01 0 0 0
560 2 0.0000000000000000e+00 4.2625770374269996e+00 3.0030999999990534e+01 0 0 0
577 2 1.2305000000000001e+00 6.3938655561404980e+00 3.0030999999990534e+01 0 0 0
579 2 2.4610000000000003e+00 5.6834360499026637e+00 3.0030999999990534e+01 0 0 0
581 2 2.4610000000000003e+00 4.2625770374269996e+00 3.0030999999990534e+01 0 0 0
606 2 3.6914999999999996e+00 6.3938655561404980e+00 3.0030999999990534e+01 0 0 0
575 2 1.2305000000000001e+00 7.8147245686161639e+00 3.0030999999990534e+01 0 0 0
604 2 3.6914999999999996e+00 7.8147245686161639e+00 3.0030999999990534e+01 0 0 0
608 2 4.9220000000000006e+00 5.6834360499026637e+00 3.0030999999990534e+01 0 0 0
610 2 4.9220000000000006e+00 4.2625770374269978e+00 3.0030999999990534e+01 0 0 0
643 2 6.1524999999999999e+00 6.3938655561404980e+00 3.0030999999990534e+01 0 0 0
645 2 7.3829999999999991e+00 5.6834360499026637e+00 3.0030999999990534e+01 0 0 0
647 2 7.3829999999999991e+00 4.2625770374269996e+00 3.0030999999990534e+01 0 0 0
641 2 6.1524999999999999e+00 7.8147245686161639e+00 3.0030999999990534e+01 0 0 0
688 2 8.6135000000000002e+00 6.3938655561404980e+00 3.0030999999990534e+01 0 0 0
690 2 9.8440000000000012e+00 5.6834360499026637e+00 3.0030999999990534e+01 0 0 0
692 2 9.8440000000000012e+00 4.2625770374270004e+00 3.0030999999990534e+01 0 0 0
735 2 1.1074500000000002e+01 6.3938655561404980e+00 3.0030999999990534e+01 0 0 0
686 2 8.6135000000000002e+00 7.8147245686161639e+00 3.0030999999990534e+01 0 0 0
733 2 1.1074500000000002e+01 7.8147245686161639e+00 3.0030999999990534e+01 0 0 0
571 2 0.0000000000000000e+00 9.9460130873296642e+00 3.0030999999990534e+01 0 0 0
573 2 0.0000000000000000e+00 8.5251540748539991e+00 3.0030999999990534e+01 0 0 0
600 2 2.4610000000000003e+00 9.9460130873296642e+00 3.0030999999990534e+01 0 0 0
602 2 2.4610000000000003e+00 8.5251540748539991e+00 3.0030999999990534e+01 0 0 0
596 2 1.2305000000000001e+00 1.2077301606043163e+01 3.0030999999990534e+01 0 0 0
598 2 1.2305000000000001e+00 1.0656442593567498e+01 3.0030999999990534e+01 0 0 0
633 2 3.6914999999999996e+00 1.2077301606043163e+01 3.0030999999990534e+01 0 0 0
635 2 3.6914999999999996e+00 1.0656442593567499e+01 3.0030999999990534e+01 0 0 0
637 2 4.9220000000000006e+00 9.9460130873296642e+00 3.0030999999990534e+01 0 0 0
639 2 4.9220000000000006e+00 8.5251540748539991e+00 3.0030999999990534e+01 0 0 0
682 2 7.3830000000000009e+00 9.9460130873296642e+00 3.0030999999990534e+01 0 0 0
684 2 7.3830000000000009e+00 8.5251540748539991e+00 3.0030999999990534e+01 0 0 0
678 2 6.1524999999999999e+00 1.2077301606043163e+01 3.0030999999990534e+01 0 0 0
680 2 6.1524999999999999e+00 1.0656442593567499e+01 3.0030999999990534e+01 0 0 0
729 2 9.8440000000000012e+00 9.9460130873296642e+00 3.0030999999990534e+01 0 0 0
731 2 9.8440000000000012e+00 8.5251540748539956e+00 3.0030999999990534e+01 0 0 0
725 2 8.6135000000000002e+00 1.2077301606043163e+01 3.0030999999990534e+01 0 0 0
727 2 8.6134999999999984e+00 1.0656442593567498e+01 3.0030999999990534e+01 0 0 0
772 2 1.1074500000000002e+01 1.2077301606043163e+01 3.0030999999990534e+01 0 0 0
774 2 1.1074500000000002e+01 1.0656442593567498e+01 3.0030999999990534e+01 0 0 0
594 2 0.0000000000000000e+00 1.2787731112280996e+01 3.0030999999990534e+01 0 0 0
631 2 2.4610000000000003e+00 1.2787731112280996e+01 3.0030999999990534e+01 0 0 0
592 2 0.0000000000000000e+00 1.4208590124756663e+01 3.0030999999990534e+01 0 0 0
627 2 1.2305000000000001e+00 1.4919019630994494e+01 3.0030999999990534e+01 0 0 0
629 2 2.4610000000000003e+00 1.4208590124756663e+01 3.0030999999990534e+01 0 0 0
672 2 3.6915000000000004e+00 1.4919019630994494e+01 3.0030999999990534e+01 0 0 0
676 2 4.9220000000000006e+00 1.2787731112280996e+01 3.0030999999990534e+01 0 0 0
723 2 7.3829999999999991e+00 1.2787731112280996e+01 3.0030999999990534e+01 0 0 0
674 2 4.9220000000000006e+00 1.4208590124756663e+01 3.0030999999990534e+01 0 0 0
719 2 6.1524999999999990e+00 1.4919019630994494e+01 3.0030999999990534e+01 0 0 0
721 2 7.3830000000000009e+00 1.4208590124756663e+01 3.0030999999990534e+01 0 0 0
770 2 9.8440000000000012e+00 1.2787731112280996e+01 3.0030999999990534e+01 0 0 0
766 2 8.6135000000000002e+00 1.4919019630994494e+01 3.0030999999990534e+01 0 0 0
768 2 9.8440000000000012e+00 1.4208590124756663e+01 3.0030999999990534e+01 0 0 0
806 2 1.1074500000000002e+01 1.6339878643470161e+01 3.0030999999990534e+01 0 0 0
808 2 1.1074500000000002e+01 1.4919019630994494e+01 3.0030999999990534e+01 0 0 0
810 2 1.2304999999999998e+01 1.4208590124756658e+01 3.0030999999990534e+01 0 0 0
881 2 0.0000000000000000e+00 2.8417180249513345e+00 3.3381435115311056e+01 0 0 0
882 2 0.0000000000000000e+00 0.0000000000000000e+00 3.3381435115311056e+01 0 0 0
883 2 1.2305000000000001e+00 7.1042950623783474e-01 3.3381435115311056e+01 0 0 0
887 2 1.2305000000000001e+00 2.1312885187134998e+00 3.3381435115311056e+01 0 0 0
888 2 2.4610000000000003e+00 2.8417180249513345e+00 3.3381435115311056e+01 0 0 0
889 2 2.4610000000000003e+00 0.0000000000000000e+00 3.3381435115311056e+01 0 0 0
890 2 3.6915000000000004e+00 7.1042950623783474e-01 3.3381435115311056e+01 0 0 0
898 2 3.6914999999999996e+00 2.1312885187134998e+00 3.3381435115311056e+01 0 0 0
991 2 8.6135000000000002e+00 1.4919019630994494e+01 3.3381435115311056e+01 0 0 0
899 2 4.9220000000000006e+00 2.8417180249513332e+00 3.3381435115311056e+01 0 0 0
900 2 4.9220000000000006e+00 0.0000000000000000e+00 3.3381435115311056e+01 0 0 0
901 2 6.1524999999999999e+00 7.1042950623783407e-01 3.3381435115311056e+01 0 0 0
913 2 6.1524999999999999e+00 2.1312885187134989e+00 3.3381435115311056e+01 0 0 0
914 2 7.3829999999999991e+00 2.8417180249513345e+00 3.3381435115311056e+01 0 0 0
915 2 7.3829999999999991e+00 0.0000000000000000e+00 3.3381435115311056e+01 0 0 0
916 2 8.6134999999999984e+00 7.1042950623783407e-01 3.3381435115311056e+01 0 0 0
932 2 8.6134999999999984e+00 2.1312885187135002e+00 3.3381435115311056e+01 0 0 0
933 2 9.8440000000000012e+00 2.8417180249513332e+00 3.3381435115311056e+01 0 0 0
934 2 9.8440000000000012e+00 0.0000000000000000e+00 3.3381435115311056e+01 0 0 0
935 2 1.1074500000000002e+01 7.1042950623783330e-01 3.3381435115311056e+01 0 0 0
955 2 1.1074500000000002e+01 2.1312885187135002e+00 3.3381435115311056e+01 0 0 0
885 2 0.0000000000000000e+00 4.2625770374269996e+00 3.3381435115311056e+01 0 0 0
886 2 1.2305000000000001e+00 4.9730065436648339e+00 3.3381435115311056e+01 0 0 0
894 2 1.2305000000000001e+00 6.3938655561404980e+00 3.3381435115311056e+01 0 0 0
896 2 2.4610000000000003e+00 4.2625770374269996e+00 3.3381435115311056e+01 0 0 0
897 2 3.6914999999999996e+00 4.9730065436648339e+00 3.3381435115311056e+01 0 0 0
909 2 3.6914999999999996e+00 6.3938655561404980e+00 3.3381435115311056e+01 0 0 0
884 2 0.0000000000000000e+00 7.1042950623783341e+00 3.3381435115311056e+01 0 0 0
895 2 2.4610000000000003e+00 7.1042950623783341e+00 3.3381435115311056e+01 0 0 0
911 2 4.9220000000000006e+00 4.2625770374269978e+00 3.3381435115311056e+01 0 0 0
912 2 6.1524999999999999e+00 4.9730065436648339e+00 3.3381435115311056e+01 0 0 0
928 2 6.1524999999999999e+00 6.3938655561404980e+00 3.3381435115311056e+01 0 0 0
930 2 7.3829999999999991e+00 4.2625770374269996e+00 3.3381435115311056e+01 0 0 0
910 2 4.9220000000000006e+00 7.1042950623783341e+00 3.3381435115311056e+01 0 0 0
929 2 7.3830000000000009e+00 7.1042950623783341e+00 3.3381435115311056e+01 0 0 0
931 2 8.6135000000000002e+00 4.9730065436648339e+00 3.3381435115311056e+01 0 0 0
951 2 8.6135000000000002e+00 6.3938655561404980e+00 3.3381435115311056e+01 0 0 0
953 2 9.8440000000000012e+00 4.2625770374270004e+00 3.3381435115311056e+01 0 0 0
954 2 1.1074500000000002e+01 4.9730065436648339e+00 3.3381435115311056e+01 0 0 0
975 2 1.1074500000000002e+01 6.3938655561404980e+00 3.3381435115311056e+01 0 0 0
952 2 9.8440000000000012e+00 7.1042950623783341e+00 3.3381435115311056e+01 0 0 0
1012 2 1.1074500000000002e+01 1.4919019630994494e+01 3.3381435115311056e+01 0 0 0
892 2 0.0000000000000000e+00 8.5251540748539991e+00 3.3381435115311056e+01 0 0 0
893 2 1.2305000000000001e+00 9.2355835810918343e+00 3.3381435115311056e+01 0 0 0
907 2 2.4610000000000003e+00 8.5251540748539991e+00 3.3381435115311056e+01 0 0 0
908 2 3.6915000000000004e+00 9.2355835810918343e+00 3.3381435115311056e+01 0 0 0
891 2 0.0000000000000000e+00 1.1366872099805333e+01 3.3381435115311056e+01 0 0 0
905 2 1.2305000000000001e+00 1.0656442593567498e+01 3.3381435115311056e+01 0 0 0
906 2 2.4610000000000003e+00 1.1366872099805333e+01 3.3381435115311056e+01 0 0 0
924 2 3.6914999999999996e+00 1.0656442593567499e+01 3.3381435115311056e+01 0 0 0
926 2 4.9220000000000006e+00 8.5251540748539991e+00 3.3381435115311056e+01 0 0 0
927 2 6.1524999999999999e+00 9.2355835810918343e+00 3.3381435115311056e+01 0 0 0
949 2 7.3830000000000009e+00 8.5251540748539991e+00 3.3381435115311056e+01 0 0 0
925 2 4.9220000000000006e+00 1.1366872099805333e+01 3.3381435115311056e+01 0 0 0
947 2 6.1524999999999999e+00 1.0656442593567499e+01 3.3381435115311056e+01 0 0 0