LAMMPS data file via write_data, version 16 Mar 2018, timestep = 100000

6328 atoms
2 atom types

0.0000000000000000e+00 4.9219999999999999e+01 xlo xhi
0.0000000000000000e+00 4.9019635930410494e+01 ylo yhi
3.6402603240545304e+00 5.6421739675944863e+01 zlo zhi

Masses

1 18.015
2 12.01

Atoms # atomic

5218 1 4.1801764288205936e+00 2.5946643393223203e+00 4.4457376464351679e+00 0 1 0
3457 1 6.4879096926767446e+00 1.3772172750125347e+00 5.2871450459083063e+00 2 1 0
1581 1 1.0787322033940107e+01 1.1404166236364275e+00 4.6842101397200429e+00 0 1 0
4435 1 6.8498144348635215e+00 7.5943858897732663e-01 1.1548226777503016e+01 1 0 0
5063 1 5.6768149623379727e-01 5.1165624772053926e+00 1.2638233348191239e+01 0 0 0
1494 1 1.1657520223850153e+01 7.9885501615866330e+00 9.1950355395489503e+00 1 0 0
4645 1 1.0835770780246554e+01 5.7310255754774531e+00 5.6258046425692179e+00 1 1 0
71 1 9.1507437131122682e+00 9.5122162876675063e+00 1.2931134219287467e+01 -1 0 0
4952 1 3.4303961767378448e+00 9.4981897242098530e+00 4.8282385269101002e+00 0 0 0
4722 1 1.6987693262620200e+00 9.1387908733037708e+00 7.1439101682590618e+00 0 0 1
3302 1 1.1311862886816145e+01 1.0923474145494948e+01 5.1063857479075025e+00 1 0 1
1965 1 5.6595972355105451e+00 1.0379966249744365e+01 6.3686322409632421e+00 0 0 1
3093 1 1.1726992380490131e+01 1.0443926532898930e+01 1.3075544701118920e+01 0 0 1
2078 1 7.9136091126874875e-01 1.4971199958919397e+00 1.3322515768212840e+01 1 0 0
1979 1 3.9290132176354429e+00 1.5515840142719560e+01 7.9843097676791333e+00 1 0 1
345 1 7.2764175331608945e+00 1.5026683975283532e+01 4.1686843938126499e+00 1 1 0
173 1 4.5856526483321849e+00 1.4211085096890299e+01 4.9363263825771018e+00 0 1 0
4812 1 9.1227575841692339e+00 1.5928113429505899e+01 6.5327428351237842e+00 0 1 0
4410 1 3.0806101097836014e+00 3.5007414627196547e+00 7.0138752475465340e+00 0 2 0
1951 1 1.9763472347835576e+00 9.9879179952123165e-01 4.1310577951460905e+00 1 1 0
1821 1 7.6441240461169020e+00 2.5843725483581066e+00 7.7853419583432037e+00 0 0 0
2850 1 7.8438812450387161e+00 1.4940478345019265e-01 9.1276448139180388e+00 0 1 0
5124 1 1.0150744287276350e+01 9.3115480840791118e+00 7.1347529824006291e+00 0 0 0
1624 1 1.0258591981139055e+01 3.0856033746101437e+00 6.7936138876022563e+00 2 0 1
461 1 3.1852974367021397e-01 4.0065973012675808e+00 7.3450680112587081e+00 1 2 1
1829 1 9.7906614047212726e-01 9.4794286863130797e+00 1.0441670250533438e+01 0 1 0
3657 1 3.1732099525041351e+00 3.1198174618447578e+00 1.2759168541593970e+01 0 0 0
127 1 6.7142264438126640e+00 4.6604588222484082e+00 1.0168683045709496e+01 0 0 1
4759 1 4.6296182095306326e+00 5.1966729223303139e+00 8.4601002718717240e+00 1 0 1
4901 1 6.4649956048168056e+00 5.0953427090026819e+00 6.3071205242122339e+00 -1 0 0
294 1 8.6962437805194135e+00 6.7459224573157570e+00 6.8608439662774563e+00 2 0 0
4869 1 8.8985338697123577e+00 2.9468403175120055e+00 1.0985348692677089e+01 1 1 1
4913 1 1.2137935303547598e+01 2.2847438876260249e+00 8.7032362005053763e+00 0 1 0
62 1 9.3156928025085879e+00 1.5167483718745274e+01 1.1787883587536580e+01 1 1 0
3710 1 2.4475044326313067e+00 1.2792484936617978e+01 1.1032769034895377e+01 0 0 1
358 1 1.7252239293404275e+00 1.1836715504623093e+01 8.4143064670164929e+00 1 -1 0
3078 1 5.4543503358027694e+00 8.9548505784382506e+00 8.6504902042539022e+00 0 0 1
331 1 4.6004583586657750e+00 1.2814528128825604e+01 7.7923230531689258e+00 0 1 0
128 1 7.6678569069533689e+00 1.2047294630467212e+01 4.0948063941183293e+00 0 1 0
537 1 7.7810589294769219e+00 7.6208321377083523e+00 9.8331934526146512e+00 0 1 1
5196 1 7.8944642379095296e+00 9.3108134930822075e+00 5.0773988737961204e+00 -1 0 0
5015 1 9.8175151782107617e-01 1.4739161161853966e+01 7.3398467517570136e+00 1 0 0
5987 1 7.3415758270693861e+00 1.3138637527762612e+01 7.0897185880125111e+00 0 1 1
1981 1 4.6379354079536599e+00 1.4845254965511273e+01 1.1152458007399808e+01 0 0 0
6282 1 2.8790123351362484e+00 7.5893454998599985e+00 9.0586191088412669e+00 1 0 0
4774 1 9.1472829310222483e+00 1.1790409183276511e+01 8.6074823786903156e+00 2 1 1
6072 1 7.7755903634925856e+00 1.1617004220344388e+01 1.1060643617350099e+01 0 1 1
1774 1 7.1784962056505721e+00 1.4548084735453296e+01 9.8780074337263066e+00 -1 0 0
5020 1 3.4460161956882742e+00 9.4140863626533577e-01 8.5197351027077914e+00 0 1 1
3235 1 4.9505041159828185e+00 2.3691735184949034e+00 1.0709814183566987e+01 0 0 0
5169 1 4.8305796916974231e+00 8.8845955422735088e+00 1.2257067076269376e+01 2 1 0
381 1 4.2854462985880137e-01 1.3950935475071081e+01 4.7817815231074512e+00 0 0 0
4630 1 7.8719760024847272e+00 2.1042042070726348e+00 1.4033097961869395e+01 1 0 1
1765 1 1.9825333453886416e+00 7.6061395023483618e+00 1.2659651015283664e+01 0 1 0
5192 1 6.5534266555037082e+00 6.7175087502476449e+00 1.2371127604992457e+01 2 0 0
6222 1 1.0863860734114830e+01 1.3581886127465090e+01 4.6593751881110617e+00 0 0 1
344 1 1.0865821749184954e+01 1.3412138038408987e+01 9.9519066529530882e+00 1 0 1
4779 1 6.9630345775675173e-01 5.7669477213563418e+00 9.5324408001519672e+00 1 1 1
3193 1 1.6166951988498623e+00 1.2972080126540741e+01 1.3799312623535421e+01 1 0 0
1373 1 5.8317628410218134e+00 1.4845089148944362e+01 1.3819732244270019e+01 0 1 1
2897 1 7.6270377410655739e+00 1.1820781913681161e+01 1.3852171325421129e+01 0 1 1
3439 1 4.9618540426745303e+00 1.1162824299750957e+01 1.0290977599799097e+01 1 1 0
3580 1 9.9329523266068485e+00 7.4212925769890301e+00 1.1446056672462635e+01 0 0 1
5314 1 1.0137451905578686e+01 4.7881804967029948e+00 1.2445346075317604e+01 0 1 0
5219 1 1.1177497733883110e+01 1.4612245687103261e+01 7.5529383154749761e+00 -1 -1 0
6104 1 3.1625085088020383e-01 2.9848373902775260e+00 1.0870324093996118e+01 1 1 0
1865 1 9.9116497775033097e-01 1.5703211746223579e+01 1.3939717447493813e+01 1 1 1
1319 1 1.1983516783041892e+01 4.6621360101954110e+00 1.0126995881567851e+01 0 -1 0
4968 1 1.0001971159194328e+01 4.8490262813142021e-01 1.2489666565495606e+01 1 0 0
2827 1 3.9339307741344336e+00 5.8120435442014617e+00 1.3767129108609335e+01 1 1 0
416 1 1.4014048659614120e-01 1.0369140592319674e+01 4.3532569091798266e+00 2 1 0
3437 1 8.9719946514995410e+00 1.4219657763573466e+01 1.4102399964859174e+01 -1 1 0
3547 1 7.1226208047492703e+00 1.1633187111732630e+01 2.1686575049616710e+01 1 0 1
3141 1 4.3017077599336071e+00 3.1990620706436768e+00 1.8001232137732980e+01 0 0 1
6177 1 1.7025615234748357e+00 4.5808069312950783e+00 1.5943630042933444e+01 0 0 1
3081 1 1.0068868192549319e+01 1.3545987289152158e+01 2.1349664078320657e+01 1 1 1
158 1 6.3338191514092870e+00 2.8555158903668010e-01 1.8379555371757654e+01 1 1 0
174 1 9.2183585436576045e+00 7.4743662858075055e+00 1.9572607627121563e+01 0 -1 1
214 1 8.1049769036516039e+00 2.7838302709532652e+00 1.9944628677839908e+01 1 1 0
4578 1 1.1624580911930092e+01 1.2972653453009457e+01 1.4940019047748995e+01 0 1 0
152 1 8.4769624595225519e+00 1.7520514734851873e+00 1.6936444921950844e+01 0 0 0
5221 1 2.0270322675302830e+00 7.0726498391087231e+00 1.7807945337615745e+01 2 1 0
4575 1 1.6570231240361808e+00 3.7462251198955778e+00 2.4009461029373703e+01 1 1 1
1732 1 4.6105240079752789e+00 5.7671505926526159e+00 1.6699162708003112e+01 0 0 0
4748 1 6.8343611886545697e+00 4.7069925988970169e+00 1.4676982970607973e+01 0 0 1
1368 1 3.9496590932357312e+00 8.9706206239422581e+00 1.9323503647386794e+01 0 1 1
6280 1 3.1502223308274444e+00 1.5183140890031787e+01 1.9839499384782094e+01 1 0 1
4724 1 2.3216361496118907e+00 1.0937683734127837e+01 1.5587904387925352e+01 1 0 1
2964 1 5.2799818407988148e+00 1.0133529496285052e+01 1.4614605665641150e+01 0 -1 1
2002 1 8.4969056145303856e+00 1.1509375606475112e+01 1.6386642143769699e+01 0 0 0
5199 1 1.1325983915907507e+01 1.1355007666842644e+01 1.7682143536371719e+01 1 0 0
202 1 4.7406823432356466e+00 2.5445767443883076e+00 1.4923961199467659e+01 1 0 0
3218 1 4.5703468477739992e+00 1.0231756641997151e+01 2.4265489890708590e+01 1 1 1
5289 1 4.3723941038692171e+00 1.3400977900267042e+01 1.7658525086359056e+01 -1 1 0
10 1 6.5554724172909493e+00 1.4949154009183921e+01 2.2918759167425701e+01 0 0 0
4501 1 8.8522290997417130e+00 1.5917308295784638e+01 1.6394629955242092e+01 1 0 1
17 1 2.2265450634772233e+00 1.8233552314542134e+00 1.6683992603987910e+01 0 1 0
347 1 2.4398682839508230e+00 4.5992633547968556e+00 2.0019074560028344e+01 0 0 0
2145 1 9.4451958891501402e+00 4.8079524814600898e+00 1.8426125527365919e+01 0 0 1
326 1 1.0790886202460737e+01 6.1608164629033701e-01 1.8718885145763682e+01 1 0 1
3007 1 4.2422666177174273e+00 2.4085756143909660e+00 2.1866854430052413e+01 0 2 1
42 1 5.7139105435245003e+00 4.0743379822518895e+00 2.0110994971276835e+01 1 0 0
377 1 5.1039847312862543e+00 8.5193054121655631e+00 1.6925073278807627e+01 0 1 0
4574 1 9.7757696195766499e+00 5.3786094509114681e+00 1.5393988035485378e+01 0 0 1
5131 1 2.3247995707620812e+00 6.3417057732691307e+00 2.3828736680379112e+01 0 1 1
1609 1 9.3839111620990945e+00 8.2361954899515499e+00 1.5516603228508773e+01 0 0 1
154 1 2.4787097609770004e+00 1.1200178235541628e+01 1.8481574185095646e+01 0 -1 0
3370 1 8.8299516393224113e+00 9.4562829233542089e+00 2.1433080291803329e+01 0 0 0
6026 1 1.1402992881935839e+01 1.1352163204698387e+01 2.0326411988092087e+01 0 -1 1
1805 1 1.1957591436176504e+01 6.9961616364812294e+00 2.1838074655230159e+01 -1 0 0
6159 1 1.1784894580189505e+01 1.1508703630857764e+00 1.4469444248321492e+01 1 1 1
1538 1 1.0722221101452222e+01 2.9949925606227232e+00 2.4212265671604911e+01 0 1 1
5021 1 7.6874012783072354e+00 9.0442926369407726e+00 1.7734389590921744e+01 0 -1 1
2927 1 5.0704125764972314e+00 7.4617940069819086e+00 2.4111292727728742e+01 0 0 1
3505 1 7.0544572478023264e+00 1.3878543989571494e+01 1.7625816152438038e+01 0 1 0
5091 1 4.1610253354542142e+00 2.3250454719502560e+00 2.4412868654369539e+01 1 0 0
3133 1 2.5141285007599050e+00 7.1669179567817807e+00 2.1241935572512809e+01 0 1 1
523 1 1.1542550625740775e+00 8.3255467967616710e+00 1.5343791151443325e+01 1 1 1
5066 1 1.1611043593391939e+01 1.5444310401310316e+01 2.0086654554979877e+01 1 1 0
3623 1 1.3242158685693619e+00 2.6924657636876943e+00 2.1708734906471729e+01 1 1 -1
320 1 9.2742782031638420e+00 1.1430415584399887e+01 2.4256466795093473e+01 1 1 0
4619 1 8.8321150732261096e+00 1.6294271051016104e+01 2.3888220135027076e+01 0 0 1
1580 1 1.0110751751848920e+01 4.6385127811425626e+00 2.1949654717922879e+01 0 0 1
1750 1 6.7119122263258046e-01 1.6201831263487268e+01 1.9025689680203975e+01 0 1 0
3136 1 8.8459358115430007e+00 1.4825506041717800e+00 2.2238350824164378e+01 1 1 0
1905 1 2.1864491025658892e+00 1.3392351131642556e+01 2.1700427271874265e+01 -1 0 0
4550 1 1.2060555078636128e+01 3.4857055168138590e-01 2.3879566181740593e+01 -1 2 1
4804 1 1.1808345367384277e+01 8.5118598261458462e+00 1.9248793263683080e+01 0 1 1
276 1 1.0628280051890552e+01 1.3866421582291428e+01 2.3985351521583123e+01 0 0 0
432 1 7.4313577270605293e+00 5.7608720875124941e+00 2.1871135798571359e+01 0 1 0
2026 1 7.0163391268621069e+00 5.3809149694848353e+00 2.4448387087072735e+01 1 1 1
156 1 1.1606476496077079e+01 3.4865728782146870e+00 1.9909231872046902e+01 0 0 0
23 1 9.5761451777958513e+00 6.1041139158461322e+00 2.4461458600033367e+01 -1 0 1
108 1 3.5904314538704241e+00 1.4100413896897557e+01 1.5213387709024657e+01 0 0 0
155 1 6.0680635941585166e+00 8.3175473863022962e+00 2.1589029750187684e+01 0 0 1
4883 1 4.0716614407267127e+00 1.5492093482225927e+01 2.4548400597909620e+01 1 0 1
5190 1 4.3188923027082353e+00 1.1277113013148401e+01 2.1526020625076413e+01 -1 1 0
3037 1 7.4351868935838032e+00 1.4068083931142382e+01 2.0151614813075692e+01 0 0 1
372 1 6.8124752937141357e+00 1.2420184686996031e+01 2.4147173296841313e+01 0 0 1
1798 1 1.4712808017960615e+00 1.4325450884780293e+01 2.4340656622023140e+01 1 0 0
330 1 9.8291191443262704e+00 8.7089539763858017e+00 2.3968140541471310e+01 0 1 0
1664 1 3.0546300039352448e-01 1.1952172975739895e+01 1.9911428650296870e+01 1 0 0
2980 1 7.0802902592358699e+00 2.6091103813300851e+00 2.4388627252978072e+01 1 2 1
6173 1 5.9998624199018211e+00 8.3905461235680490e-02 1.5536242135908999e+01 1 1 1
76 1 1.7678315978406782e+00 1.1432417169619677e+01 2.4527052738760936e+01 1 -1 0
1840 1 2.3816429122121718e+00 1.6246750985676140e+01 1.6623242330719524e+01 -1 1 0
552 2 0.0000000000000000e+00 2.8417180249513345e+00 2.6881257099202820e+01 0 0 0
554 2 0.0000000000000000e+00 0.0000000000000000e+00 2.6881257099202820e+01 0 0 0
556 2 1.2305000000000001e+00 7.1042950623783474e-01 2.6881257099202820e+01 0 0 0
563 2 1.2305000000000001e+00 2.1312885187134998e+00 2.6881257099202820e+01 0 0 0
565 2 2.4610000000000003e+00 2.8417180249513345e+00 2.6881257099202820e+01 0 0 0
567 2 2.4610000000000003e+00 0.0000000000000000e+00 2.6881257099202820e+01 0 0 0
569 2 3.6915000000000004e+00 7.1042950623783474e-01 2.6881257099202820e+01 0 0 0
584 2 3.6914999999999996e+00 2.1312885187134998e+00 2.6881257099202820e+01 0 0 0
586 2 4.9220000000000006e+00 2.8417180249513332e+00 2.6881257099202820e+01 0 0 0
588 2 4.9220000000000006e+00 0.0000000000000000e+00 2.6881257099202820e+01 0 0 0
590 2 6.1524999999999999e+00 7.1042950623783407e-01 2.6881257099202820e+01 0 0 0
613 2 6.1524999999999999e+00 2.1312885187134989e+00 2.6881257099202820e+01 0 0 0
615 2 7.3829999999999991e+00 2.8417180249513345e+00 2.6881257099202820e+01 0 0 0
617 2 7.3829999999999991e+00 0.0000000000000000e+00 2.6881257099202820e+01 0 0 0
619 2 8.6134999999999984e+00 7.1042950623783407e-01 2.6881257099202820e+01 0 0 0
650 2 8.6134999999999984e+00 2.1312885187135002e+00 2.6881257099202820e+01 0 0 0
652 2 9.8440000000000012e+00 2.8417180249513332e+00 2.6881257099202820e+01 0 0 0
654 2 9.8440000000000012e+00 0.0000000000000000e+00 2.6881257099202820e+01 0 0 0
656 2 1.1074500000000002e+01 7.1042950623783330e-01 2.6881257099202820e+01 0 0 0
695 2 1.1074500000000002e+01 2.1312885187135002e+00 2.6881257099202820e+01 0 0 0
559 2 0.0000000000000000e+00 4.2625770374269996e+00 2.6881257099202820e+01 0 0 0
561 2 1.2305000000000001e+00 4.9730065436648339e+00 2.6881257099202820e+01 0 0 0
576 2 1.2305000000000001e+00 6.3938655561404980e+00 2.6881257099202820e+01 0 0 0
580 2 2.4610000000000003e+00 4.2625770374269996e+00 2.6881257099202820e+01 0 0 0
582 2 3.6914999999999996e+00 4.9730065436648339e+00 2.6881257099202820e+01 0 0 0
605 2 3.6914999999999996e+00 6.3938655561404980e+00 2.6881257099202820e+01 0 0 0
557 2 0.0000000000000000e+00 7.1042950623783341e+00 2.6881257099202820e+01 0 0 0
578 2 2.4610000000000003e+00 7.1042950623783341e+00 2.6881257099202820e+01 0 0 0
609 2 4.9220000000000006e+00 4.2625770374269978e+00 2.6881257099202820e+01 0 0 0
611 2 6.1524999999999999e+00 4.9730065436648339e+00 2.6881257099202820e+01 0 0 0
642 2 6.1524999999999999e+00 6.3938655561404980e+00 2.6881257099202820e+01 0 0 0
646 2 7.3829999999999991e+00 4.2625770374269996e+00 2.6881257099202820e+01 0 0 0
607 2 4.9220000000000006e+00 7.1042950623783341e+00 2.6881257099202820e+01 0 0 0
644 2 7.3830000000000009e+00 7.1042950623783341e+00 2.6881257099202820e+01 0 0 0
648 2 8.6135000000000002e+00 4.9730065436648339e+00 2.6881257099202820e+01 0 0 0
687 2 8.6135000000000002e+00 6.3938655561404980e+00 2.6881257099202820e+01 0 0 0
691 2 9.8440000000000012e+00 4.2625770374270004e+00 2.6881257099202820e+01 0 0 0
693 2 1.1074500000000002e+01 4.9730065436648339e+00 2.6881257099202820e+01 0 0 0
734 2 1.1074500000000002e+01 6.3938655561404980e+00 2.6881257099202820e+01 0 0 0
689 2 9.8440000000000012e+00 7.1042950623783341e+00 2.6881257099202820e+01 0 0 0
572 2 0.0000000000000000e+00 8.5251540748539991e+00 2.6881257099202820e+01 0 0 0
574 2 1.2305000000000001e+00 9.2355835810918343e+00 2.6881257099202820e+01 0 0 0
601 2 2.4610000000000003e+00 8.5251540748539991e+00 2.6881257099202820e+01 0 0 0
603 2 3.6915000000000004e+00 9.2355835810918343e+00 2.6881257099202820e+01 0 0 0
570 2 0.0000000000000000e+00 1.1366872099805333e+01 2.6881257099202820e+01 0 0 0
597 2 1.2305000000000001e+00 1.0656442593567498e+01 2.6881257099202820e+01 0 0 0
599 2 2.4610000000000003e+00 1.1366872099805333e+01 2.6881257099202820e+01 0 0 0
634 2 3.6914999999999996e+00 1.0656442593567499e+01 2.6881257099202820e+01 0 0 0
638 2 4.9220000000000006e+00 8.5251540748539991e+00 2.6881257099202820e+01 0 0 0
640 2 6.1524999999999999e+00 9.2355835810918343e+00 2.6881257099202820e+01 0 0 0
683 2 7.3830000000000009e+00 8.5251540748539991e+00 2.6881257099202820e+01 0 0 0
636 2 4.9220000000000006e+00 1.1366872099805333e+01 2.6881257099202820e+01 0 0 0
679 2 6.1524999999999999e+00 1.0656442593567499e+01 2.6881257099202820e+01 0 0 0
681 2 7.3829999999999991e+00 1.1366872099805333e+01 2.6881257099202820e+01 0 0 0
685 2 8.6134999999999984e+00 9.2355835810918343e+00 2.6881257099202820e+01 0 0 0
730 2 9.8440000000000012e+00 8.5251540748539956e+00 2.6881257099202820e+01 0 0 0
732 2 1.1074500000000002e+01 9.2355835810918343e+00 2.6881257099202820e+01 0 0 0
726 2 8.6134999999999984e+00 1.0656442593567498e+01 2.6881257099202820e+01 0 0 0
728 2 9.8440000000000012e+00 1.1366872099805333e+01 2.6881257099202820e+01 0 0 0
773 2 1.1074500000000002e+01 1.0656442593567498e+01 2.6881257099202820e+01 0 0 0
775 2 1.2304999999999998e+01 1.1366872099805333e+01 2.6881257099202820e+01 0 0 0
593 2 0.0000000000000000e+00 1.2787731112280996e+01 2.6881257099202820e+01 0 0 0
595 2 1.2305000000000001e+00 1.3498160618518829e+01 2.6881257099202820e+01 0 0 0
630 2 2.4610000000000003e+00 1.2787731112280996e+01 2.6881257099202820e+01 0 0 0
632 2 3.6915000000000004e+00 1.3498160618518829e+01 2.6881257099202820e+01 0 0 0
591 2 0.0000000000000000e+00 1.5629449137232333e+01 2.6881257099202820e+01 0 0 0
626 2 1.2305000000000001e+00 1.4919019630994494e+01 2.6881257099202820e+01 0 0 0
628 2 2.4610000000000003e+00 1.5629449137232328e+01 2.6881257099202820e+01 0 0 0
671 2 3.6915000000000004e+00 1.4919019630994494e+01 2.6881257099202820e+01 0 0 0
675 2 4.9220000000000006e+00 1.2787731112280996e+01 2.6881257099202820e+01 0 0 0
677 2 6.1524999999999990e+00 1.3498160618518829e+01 2.6881257099202820e+01 0 0 0
722 2 7.3829999999999991e+00 1.2787731112280996e+01 2.6881257099202820e+01 0 0 0
673 2 4.9220000000000006e+00 1.5629449137232333e+01 2.6881257099202820e+01 0 0 0
718 2 6.1524999999999990e+00 1.4919019630994494e+01 2.6881257099202820e+01 0 0 0
720 2 7.3829999999999991e+00 1.5629449137232333e+01 2.6881257099202820e+01 0 0 0
724 2 8.6135000000000002e+00 1.3498160618518835e+01 2.6881257099202820e+01 0 0 0
769 2 9.8440000000000012e+00 1.2787731112280996e+01 2.6881257099202820e+01 0 0 0
771 2 1.1074500000000002e+01 1.3498160618518829e+01 2.6881257099202820e+01 0 0 0
765 2 8.6135000000000002e+00 1.4919019630994494e+01 2.6881257099202820e+01 0 0 0
767 2 9.8440000000000012e+00 1.5629449137232328e+01 2.6881257099202820e+01 0 0 0
807 2 1.1074500000000002e+01 1.4919019630994494e+01 2.6881257099202820e+01 0 0 0
553 2 0.0000000000000000e+00 1.4208590124756650e+00 3.0030999999999761e+01 0 0 0
555 2 0.0000000000000000e+00 0.0000000000000000e+00 3.0030999999999761e+01 0 0 0
564 2 1.2305000000000001e+00 2.1312885187134998e+00 3.0030999999999761e+01 0 0 0
566 2 2.4610000000000003e+00 1.4208590124756650e+00 3.0030999999999761e+01 0 0 0
568 2 2.4610000000000003e+00 0.0000000000000000e+00 3.0030999999999761e+01 0 0 0
585 2 3.6914999999999996e+00 2.1312885187134998e+00 3.0030999999999761e+01 0 0 0
562 2 1.2305000000000001e+00 3.5521475311891644e+00 3.0030999999999761e+01 0 0 0
583 2 3.6914999999999996e+00 3.5521475311891644e+00 3.0030999999999761e+01 0 0 0
587 2 4.9220000000000006e+00 1.4208590124756650e+00 3.0030999999999761e+01 0 0 0
589 2 4.9220000000000006e+00 0.0000000000000000e+00 3.0030999999999761e+01 0 0 0
614 2 6.1524999999999999e+00 2.1312885187134989e+00 3.0030999999999761e+01 0 0 0
616 2 7.3829999999999991e+00 1.4208590124756659e+00 3.0030999999999761e+01 0 0 0
618 2 7.3829999999999991e+00 0.0000000000000000e+00 3.0030999999999761e+01 0 0 0
612 2 6.1524999999999999e+00 3.5521475311891644e+00 3.0030999999999761e+01 0 0 0
651 2 8.6134999999999984e+00 2.1312885187135002e+00 3.0030999999999761e+01 0 0 0
653 2 9.8440000000000012e+00 1.4208590124756659e+00 3.0030999999999761e+01 0 0 0
655 2 9.8440000000000012e+00 0.0000000000000000e+00 3.0030999999999761e+01 0 0 0
696 2 1.1074500000000002e+01 2.1312885187135002e+00 3.0030999999999761e+01 0 0 0
649 2 8.6134999999999984e+00 3.5521475311891657e+00 3.0030999999999761e+01 0 0 0
694 2 1.1074500000000002e+01 3.5521475311891644e+00 3.0030999999999761e+01 0 0 0
558 2 0.0000000000000000e+00 5.6834360499026637e+00 3.0030999999999761e+01 0 0 0
560 2 0.0000000000000000e+00 4.2625770374269996e+00 3.0030999999999761e+01 0 0 0
577 2 1.2305000000000001e+00 6.3938655561404980e+00 3.0030999999999761e+01 0 0 0
579 2 2.4610000000000003e+00 5.6834360499026637e+00 3.0030999999999761e+01 0 0 0
581 2 2.4610000000000003e+00 4.2625770374269996e+00 3.0030999999999761e+01 0 0 0
606 2 3.6914999999999996e+00 6.3938655561404980e+00 3.0030999999999761e+01 0 0 0
575 2 1.2305000000000001e+00 7.8147245686161639e+00 3.0030999999999761e+01 0 0 0
604 2 3.6914999999999996e+00 7.8147245686161639e+00 3.0030999999999761e+01 0 0 0
608 2 4.9220000000000006e+00 5.6834360499026637e+00 3.0030999999999761e+01 0 0 0
610 2 4.9220000000000006e+00 4.2625770374269978e+00 3.0030999999999761e+01 0 0 0
643 2 6.1524999999999999e+00 6.3938655561404980e+00 3.0030999999999761e+01 0 0 0
645 2 7.3829999999999991e+00 5.6834360499026637e+00 3.0030999999999761e+01 0 0 0
647 2 7.3829999999999991e+00 4.2625770374269996e+00 3.0030999999999761e+01 0 0 0
641 2 6.1524999999999999e+00 7.8147245686161639e+00 3.0030999999999761e+01 0 0 0
688 2 8.6135000000000002e+00 6.3938655561404980e+00 3.0030999999999761e+01 0 0 0
690 2 9.8440000000000012e+00 5.6834360499026637e+00 3.0030999999999761e+01 0 0 0
692 2 9.8440000000000012e+00 4.2625770374270004e+00 3.0030999999999761e+01 0 0 0
735 2 1.1074500000000002e+01 6.3938655561404980e+00 3.0030999999999761e+01 0 0 0
686 2 8.6135000000000002e+00 7.8147245686161639e+00 3.0030999999999761e+01 0 0 0
733 2 1.1074500000000002e+01 7.8147245686161639e+00 3.0030999999999761e+01 0 0 0
571 2 0.0000000000000000e+00 9.9460130873296642e+00 3.0030999999999761e+01 0 0 0
573 2 0.0000000000000000e+00 8.5251540748539991e+00 3.0030999999999761e+01 0 0 0
600 2 2.4610000000000003e+00 9.9460130873296642e+00 3.0030999999999761e+01 0 0 0
602 2 2.4610000000000003e+00 8.5251540748539991e+00 3.0030999999999761e+01 0 0 0
596 2 1.2305000000000001e+00 1.2077301606043163e+01 3.0030999999999761e+01 0 0 0
598 2 1.2305000000000001e+00 1.0656442593567498e+01 3.0030999999999761e+01 0 0 0
633 2 3.6914999999999996e+00 1.2077301606043163e+01 3.0030999999999761e+01 0 0 0
635 2 3.6914999999999996e+00 1.0656442593567499e+01 3.0030999999999761e+01 0 0 0
637 2 4.9220000000000006e+00 9.9460130873296642e+00 3.0030999999999761e+01 0 0 0
639 2 4.9220000000000006e+00 8.5251540748539991e+00 3.0030999999999761e+01 0 0 0
682 2 7.3830000000000009e+00 9.9460130873296642e+00 3.0030999999999761e+01 0 0 0
684 2 7.3830000000000009e+00 8.5251540748539991e+00 3.0030999999999761e+01 0 0 0
678 2 6.1524999999999999e+00 1.2077301606043163e+01 3.0030999999999761e+01 0 0 0
680 2 6.1524999999999999e+00 1.0656442593567499e+01 3.0030999999999761e+01 0 0 0
729 2 9.8440000000000012e+00 9.9460130873296642e+00 3.0030999999999761e+01 0 0 0
731 2 9.8440000000000012e+00 8.5251540748539956e+00 3.0030999999999761e+01 0 0 0
725 2 8.6135000000000002e+00 1.2077301606043163e+01 3.0030999999999761e+01 0 0 0
727 2 8.6134999999999984e+00 1.0656442593567498e+01 3.0030999999999761e+01 0 0 0
772 2 1.1074500000000002e+01 1.2077301606043163e+01 3.0030999999999761e+01 0 0 0
774 2 1.1074500000000002e+01 1.0656442593567498e+01 3.0030999999999761e+01 0 0 0
594 2 0.0000000000000000e+00 1.2787731112280996e+01 3.0030999999999761e+01 0 0 0
631 2 2.4610000000000003e+00 1.2787731112280996e+01 3.0030999999999761e+01 0 0 0
592 2 0.0000000000000000e+00 1.4208590124756663e+01 3.0030999999999761e+01 0 0 0
627 2 1.2305000000000001e+00 1.4919019630994494e+01 3.0030999999999761e+01 0 0 0
629 2 2.4610000000000003e+00 1.4208590124756663e+01 3.0030999999999761e+01 0 0 0
672 2 3.6915000000000004e+00 1.4919019630994494e+01 3.0030999999999761e+01 0 0 0
676 2 4.9220000000000006e+00 1.2787731112280996e+01 3.0030999999999761e+01 0 0 0
723 2 7.3829999999999991e+00 1.2787731112280996e+01 3.0030999999999761e+01 0 0 0
674 2 4.9220000000000006e+00 1.4208590124756663e+01 3.0030999999999761e+01 0 0 0
719 2 6.1524999999999990e+00 1.4919019630994494e+01 3.0030999999999761e+01 0 0 0
721 2 7.3830000000000009e+00 1.4208590124756663e+01 3.0030999999999761e+01 0 0 0
770 2 9.8440000000000012e+00 1.2787731112280996e+01 3.0030999999999761e+01 0 0 0
766 2 8.6135000000000002e+00 1.4919019630994494e+01 3.0030999999999761e+01 0 0 0
768 2 9.8440000000000012e+00 1.4208590124756663e+01 3.0030999999999761e+01 0 0 0
806 2 1.1074500000000002e+01 1.6339878643470161e+01 3.0030999999999761e+01 0 0 0
808 2 1.1074500000000002e+01 1.4919019630994494e+01 3.0030999999999761e+01 0 0 0
810 2 1.2304999999999998e+01 1.4208590124756658e+01 3.0030999999999761e+01 0 0 0
881 2 0.0000000000000000e+00 2.8417180249513345e+00 3.3180742900794762e+01 0 0 0
882 2 0.0000000000000000e+00 0.0000000000000000e+00 3.3180742900794762e+01 0 0 0
883 2 1.2305000000000001e+00 7.1042950623783474e-01 3.3180742900794762e+01 0 0 0
887 2 1.2305000000000001e+00 2.1312885187134998e+00 3.3180742900794762e+01 0 0 0
888 2 2.4610000000000003e+00 2.8417180249513345e+00 3.3180742900794762e+01 0 0 0
889 2 2.4610000000000003e+00 0.0000000000000000e+00 3.3180742900794762e+01 0 0 0
890 2 3.6915000000000004e+00 7.1042950623783474e-01 3.3180742900794762e+01 0 0 0
898 2 3.6914999999999996e+00 2.1312885187134998e+00 3.3180742900794762e+01 0 0 0
899 2 4.9220000000000006e+00 2.8417180249513332e+00 3.3180742900794762e+01 0 0 0
900 2 4.9220000000000006e+00 0.0000000000000000e+00 3.3180742900794762e+01 0 0 0
901 2 6.1524999999999999e+00 7.1042950623783407e-01 3.3180742900794762e+01 0 0 0
913 2 6.1524999999999999e+00 2.1312885187134989e+00 3.3180742900794762e+01 0 0 0
914 2 7.3829999999999991e+00 2.8417180249513345e+00 3.3180742900794762e+01 0 0 0
915 2 7.3829999999999991e+00 0.0000000000000000e+00 3.3180742900794762e+01 0 0 0
916 2 8.6134999999999984e+00 7.1042950623783407e-01 3.3180742900794762e+01 0 0 0
932 2 8.6134999999999984e+00 2.1312885187135002e+00 3.3180742900794762e+01 0 0 0
933 2 9.8440000000000012e+00 2.8417180249513332e+00 3.3180742900794762e+01 0 0 0
934 2 9.8440000000000012e+00 0.0000000000000000e+00 3.3180742900794762e+01 0 0 0
935 2 1.1074500000000002e+01 7.1042950623783330e-01 3.3180742900794762e+01 0 0 0
955 2 1.1074500000000002e+01 2.1312885187135002e+00 3.3180742900794762e+01 0 0 0
885 2 0.0000000000000000e+00 4.2625770374269996e+00 3.3180742900794762e+01 0 0 0
886 2 1.2305000000000001e+00 4.9730065436648339e+00 3.3180742900794762e+01 0 0 0
894 2 1.2305000000000001e+00 6.3938655561404980e+00 3.3180742900794762e+01 0 0 0
896 2 2.4610000000000003e+00 4.2625770374269996e+00 3.3180742900794762e+01 0 0 0
897 2 3.6914999999999996e+00 4.9730065436648339e+00 3.3180742900794762e+01 0 0 0
909 2 3.6914999999999996e+00 6.3938655561404980e+00 3.3180742900794762e+01 0 0 0
884 2 0.0000000000000000e+00 7.1042950623783341e+00 3.3180742900794762e+01 0 0 0
895 2 2.4610000000000003e+00 7.1042950623783341e+00 3.3180742900794762e+01 0 0 0
911 2 4.9220000000000006e+00 4.2625770374269978e+00 3.3180742900794762e+01 0 0 0
912 2 6.1524999999999999e+00 4.9730065436648339e+00 3.3180742900794762e+01 0 0 0
928 2 6.1524999999999999e+00 6.3938655561404980e+00 3.3180742900794762e+01 0 0 0
930 2 7.3829999999999991e+00 4.2625770374269996e+00 3.3180742900794762e+01 0 0 0
910 2 4.9220000000000006e+00 7.1042950623783341e+00 3.3180742900794762e+01 0 0 0
929 2 7.3830000000000009e+00 7.1042950623783341e+00 3.3180742900794762e+01 0 0 0
931 2 8.6135000000000002e+00 4.9730065436648339e+00 3.3180742900794762e+01 0 0 0
951 2 8.6135000000000002e+00 6.3938655561404980e+00 3.3180742900794762e+01 0 0 0
953 2 9.8440000000000012e+00 4.2625770374270004e+00 3.3180742900794762e+01 0 0 0
954 2 1.1074500000000002e+01 4.9730065436648339e+00 3.3180742900794762e+01 0 0 0
975 2 1.1074500000000002e+01 6.3938655561404980e+00 3.3180742900794762e+01 0 0 0
952 2 9.8440000000000012e+00 7.1042950623783341e+00 3.3180742900794762e+01 0 0 0
892 2 0.0000000000000000e+00 8.5251540748539991e+00 3.3180742900794762e+01 0 0 0
893 2 1.2305000000000001e+00 9.2355835810918343e+00 3.3180742900794762e+01 0 0 0
907 2 2.4610000000000003e+00 8.5251540748539991e+00 3.3180742900794762e+01 0 0 0
908 2 3.6915000000000004e+00 9.2355835810918343e+00 3.3180742900794762e+01 0 0 0
891 2 0.0000000000000000e+00 1.1366872099805333e+01 3.3180742900794762e+01 0 0 0
905 2 1.2305000000000001e+00 1.0656442593567498e+01 3.3180742900794762e+01 0 0 0
906 2 2.4610000000000003e+00 1.1366872099805333e+01 3.3180742900794762e+01 0 0 0
924 2 3.6914999999999996e+00 1.0656442593567499e+01 3.3180742900794762e+01 0 0 0
926 2 4.9220000000000006e+00 8.5251540748539991e+00 3.3180742900794762e+01 0 0 0
927 2 6.1524999999999999e+00 9.2355835810918343e+00 3.3180742900794762e+01 0 0 0
949 2 7.3830000000000009e+00 8.5251540748539991e+00 3.3180742900794762e+01 0 0 0
925 2 4.9220000000000006e+00 1.1366872099805333e+01 3.3180742900794762e+01 0 0 0
947 2 6.1524999999999999e+00 1.0656442593567499e+01 3.3180742900794762e+01 0 0 0
948 2 7.3829999999999991e+00 1.1366872099805333e+01 3.3180742900794762e+01 0 0 0
950 2 8.6134999999999984e+00 9.2355835810918343e+00 3.3180742900794762e+01 0 0 0
973 2 9.8440000000000012e+00 8.5251540748539956e+00 3.3180742900794762e+01 0 0 0
974 2 1.1074500000000002e+01 9.2355835810918343e+00 3.3180742900794762e+01 0 0 0
971 2 8.6134999999999984e+00 1.0656442593567498e+01 3.3180742900794762e+01 0 0 0
972 2 9.8440000000000012e+00 1.1366872099805333e+01 3.3180742900794762e+01 0 0 0
995 2 1.1074500000000002e+01 1.0656442593567498e+01 3.3180742900794762e+01 0 0 0
996 2 1.2304999999999998e+01 1.1366872099805333e+01 3.3180742900794762e+01 0 0 0