LAMMPS data file via write_data, version 16 Mar 2018, timestep = 8000000

4078 atoms
2 atom types

0.0000000000000000e+00 4.9219999999999999e+01 xlo xhi
0.0000000000000000e+00 4.9019635930410494e+01 ylo yhi
1.0553721586341958e+00 2.6884627841375824e+01 zlo zhi

Masses

1 18.015
2 12.01

Atoms # atomic

52 2 0.0000000000000000e+00 2.8417180249513345e+00 2.8458694851353181e+00 0 0 0
54 2 0.0000000000000000e+00 0.0000000000000000e+00 2.8458694851353181e+00 0 0 0
56 2 1.2305000000000001e+00 7.1042950623783474e-01 2.8458694851353181e+00 0 0 0
63 2 1.2305000000000001e+00 2.1312885187134998e+00 2.8458694851353181e+00 0 0 0
65 2 2.4610000000000003e+00 2.8417180249513345e+00 2.8458694851353181e+00 0 0 0
67 2 2.4610000000000003e+00 0.0000000000000000e+00 2.8458694851353181e+00 0 0 0
69 2 3.6915000000000004e+00 7.1042950623783474e-01 2.8458694851353181e+00 0 0 0
84 2 3.6914999999999996e+00 2.1312885187134998e+00 2.8458694851353181e+00 0 0 0
86 2 4.9220000000000006e+00 2.8417180249513332e+00 2.8458694851353181e+00 0 0 0
88 2 4.9220000000000006e+00 0.0000000000000000e+00 2.8458694851353181e+00 0 0 0
90 2 6.1524999999999999e+00 7.1042950623783407e-01 2.8458694851353181e+00 0 0 0
113 2 6.1524999999999999e+00 2.1312885187134989e+00 2.8458694851353181e+00 0 0 0
115 2 7.3829999999999991e+00 2.8417180249513345e+00 2.8458694851353181e+00 0 0 0
117 2 7.3829999999999991e+00 0.0000000000000000e+00 2.8458694851353181e+00 0 0 0
119 2 8.6134999999999984e+00 7.1042950623783407e-01 2.8458694851353181e+00 0 0 0
150 2 8.6134999999999984e+00 2.1312885187135002e+00 2.8458694851353181e+00 0 0 0
152 2 9.8440000000000012e+00 2.8417180249513332e+00 2.8458694851353181e+00 0 0 0
154 2 9.8440000000000012e+00 0.0000000000000000e+00 2.8458694851353181e+00 0 0 0
156 2 1.1074500000000002e+01 7.1042950623783330e-01 2.8458694851353181e+00 0 0 0
195 2 1.1074500000000002e+01 2.1312885187135002e+00 2.8458694851353181e+00 0 0 0
59 2 0.0000000000000000e+00 4.2625770374269996e+00 2.8458694851353181e+00 0 0 0
61 2 1.2305000000000001e+00 4.9730065436648339e+00 2.8458694851353181e+00 0 0 0
76 2 1.2305000000000001e+00 6.3938655561404980e+00 2.8458694851353181e+00 0 0 0
80 2 2.4610000000000003e+00 4.2625770374269996e+00 2.8458694851353181e+00 0 0 0
82 2 3.6914999999999996e+00 4.9730065436648339e+00 2.8458694851353181e+00 0 0 0
105 2 3.6914999999999996e+00 6.3938655561404980e+00 2.8458694851353181e+00 0 0 0
57 2 0.0000000000000000e+00 7.1042950623783341e+00 2.8458694851353181e+00 0 0 0
78 2 2.4610000000000003e+00 7.1042950623783341e+00 2.8458694851353181e+00 0 0 0
109 2 4.9220000000000006e+00 4.2625770374269978e+00 2.8458694851353181e+00 0 0 0
111 2 6.1524999999999999e+00 4.9730065436648339e+00 2.8458694851353181e+00 0 0 0
142 2 6.1524999999999999e+00 6.3938655561404980e+00 2.8458694851353181e+00 0 0 0
146 2 7.3829999999999991e+00 4.2625770374269996e+00 2.8458694851353181e+00 0 0 0
107 2 4.9220000000000006e+00 7.1042950623783341e+00 2.8458694851353181e+00 0 0 0
144 2 7.3830000000000009e+00 7.1042950623783341e+00 2.8458694851353181e+00 0 0 0
148 2 8.6135000000000002e+00 4.9730065436648339e+00 2.8458694851353181e+00 0 0 0
187 2 8.6135000000000002e+00 6.3938655561404980e+00 2.8458694851353181e+00 0 0 0
191 2 9.8440000000000012e+00 4.2625770374270004e+00 2.8458694851353181e+00 0 0 0
193 2 1.1074500000000002e+01 4.9730065436648339e+00 2.8458694851353181e+00 0 0 0
234 2 1.1074500000000002e+01 6.3938655561404980e+00 2.8458694851353181e+00 0 0 0
189 2 9.8440000000000012e+00 7.1042950623783341e+00 2.8458694851353181e+00 0 0 0
72 2 0.0000000000000000e+00 8.5251540748539991e+00 2.8458694851353181e+00 0 0 0
74 2 1.2305000000000001e+00 9.2355835810918343e+00 2.8458694851353181e+00 0 0 0
101 2 2.4610000000000003e+00 8.5251540748539991e+00 2.8458694851353181e+00 0 0 0
103 2 3.6915000000000004e+00 9.2355835810918343e+00 2.8458694851353181e+00 0 0 0
70 2 0.0000000000000000e+00 1.1366872099805333e+01 2.8458694851353181e+00 0 0 0
97 2 1.2305000000000001e+00 1.0656442593567498e+01 2.8458694851353181e+00 0 0 0
99 2 2.4610000000000003e+00 1.1366872099805333e+01 2.8458694851353181e+00 0 0 0
134 2 3.6914999999999996e+00 1.0656442593567499e+01 2.8458694851353181e+00 0 0 0
138 2 4.9220000000000006e+00 8.5251540748539991e+00 2.8458694851353181e+00 0 0 0
140 2 6.1524999999999999e+00 9.2355835810918343e+00 2.8458694851353181e+00 0 0 0
183 2 7.3830000000000009e+00 8.5251540748539991e+00 2.8458694851353181e+00 0 0 0
136 2 4.9220000000000006e+00 1.1366872099805333e+01 2.8458694851353181e+00 0 0 0
179 2 6.1524999999999999e+00 1.0656442593567499e+01 2.8458694851353181e+00 0 0 0
181 2 7.3829999999999991e+00 1.1366872099805333e+01 2.8458694851353181e+00 0 0 0
185 2 8.6134999999999984e+00 9.2355835810918343e+00 2.8458694851353181e+00 0 0 0
230 2 9.8440000000000012e+00 8.5251540748539956e+00 2.8458694851353181e+00 0 0 0
232 2 1.1074500000000002e+01 9.2355835810918343e+00 2.8458694851353181e+00 0 0 0
226 2 8.6134999999999984e+00 1.0656442593567498e+01 2.8458694851353181e+00 0 0 0
228 2 9.8440000000000012e+00 1.1366872099805333e+01 2.8458694851353181e+00 0 0 0
273 2 1.1074500000000002e+01 1.0656442593567498e+01 2.8458694851353181e+00 0 0 0
275 2 1.2304999999999998e+01 1.1366872099805333e+01 2.8458694851353181e+00 0 0 0
53 2 0.0000000000000000e+00 1.4208590124756650e+00 5.8809572380732940e+00 0 0 0
55 2 0.0000000000000000e+00 0.0000000000000000e+00 5.8809572380732940e+00 0 0 0
64 2 1.2305000000000001e+00 2.1312885187134998e+00 5.8809572380732940e+00 0 0 0
66 2 2.4610000000000003e+00 1.4208590124756650e+00 5.8809572380732940e+00 0 0 0
68 2 2.4610000000000003e+00 0.0000000000000000e+00 5.8809572380732940e+00 0 0 0
85 2 3.6914999999999996e+00 2.1312885187134998e+00 5.8809572380732940e+00 0 0 0
381 2 0.0000000000000000e+00 2.8417180249513345e+00 8.9160449910139690e+00 0 0 0
382 2 0.0000000000000000e+00 0.0000000000000000e+00 8.9160449910139690e+00 0 0 0
383 2 1.2305000000000001e+00 7.1042950623783474e-01 8.9160449910139690e+00 0 0 0
387 2 1.2305000000000001e+00 2.1312885187134998e+00 8.9160449910139690e+00 0 0 0
388 2 2.4610000000000003e+00 2.8417180249513345e+00 8.9160449910139690e+00 0 0 0
389 2 2.4610000000000003e+00 0.0000000000000000e+00 8.9160449910139690e+00 0 0 0
390 2 3.6915000000000004e+00 7.1042950623783474e-01 8.9160449910139690e+00 0 0 0
398 2 3.6914999999999996e+00 2.1312885187134998e+00 8.9160449910139690e+00 0 0 0
62 2 1.2305000000000001e+00 3.5521475311891644e+00 5.8809572380732940e+00 0 0 0
83 2 3.6914999999999996e+00 3.5521475311891644e+00 5.8809572380732940e+00 0 0 0
87 2 4.9220000000000006e+00 1.4208590124756650e+00 5.8809572380732940e+00 0 0 0
89 2 4.9220000000000006e+00 0.0000000000000000e+00 5.8809572380732940e+00 0 0 0
114 2 6.1524999999999999e+00 2.1312885187134989e+00 5.8809572380732940e+00 0 0 0
116 2 7.3829999999999991e+00 1.4208590124756659e+00 5.8809572380732940e+00 0 0 0
118 2 7.3829999999999991e+00 0.0000000000000000e+00 5.8809572380732940e+00 0 0 0
399 2 4.9220000000000006e+00 2.8417180249513332e+00 8.9160449910139690e+00 0 0 0
400 2 4.9220000000000006e+00 0.0000000000000000e+00 8.9160449910139690e+00 0 0 0
401 2 6.1524999999999999e+00 7.1042950623783407e-01 8.9160449910139690e+00 0 0 0
413 2 6.1524999999999999e+00 2.1312885187134989e+00 8.9160449910139690e+00 0 0 0
414 2 7.3829999999999991e+00 2.8417180249513345e+00 8.9160449910139690e+00 0 0 0
415 2 7.3829999999999991e+00 0.0000000000000000e+00 8.9160449910139690e+00 0 0 0
112 2 6.1524999999999999e+00 3.5521475311891644e+00 5.8809572380732940e+00 0 0 0
151 2 8.6134999999999984e+00 2.1312885187135002e+00 5.8809572380732940e+00 0 0 0
153 2 9.8440000000000012e+00 1.4208590124756659e+00 5.8809572380732940e+00 0 0 0
155 2 9.8440000000000012e+00 0.0000000000000000e+00 5.8809572380732940e+00 0 0 0
196 2 1.1074500000000002e+01 2.1312885187135002e+00 5.8809572380732940e+00 0 0 0
416 2 8.6134999999999984e+00 7.1042950623783407e-01 8.9160449910139690e+00 0 0 0
432 2 8.6134999999999984e+00 2.1312885187135002e+00 8.9160449910139690e+00 0 0 0
433 2 9.8440000000000012e+00 2.8417180249513332e+00 8.9160449910139690e+00 0 0 0
434 2 9.8440000000000012e+00 0.0000000000000000e+00 8.9160449910139690e+00 0 0 0
435 2 1.1074500000000002e+01 7.1042950623783330e-01 8.9160449910139690e+00 0 0 0
455 2 1.1074500000000002e+01 2.1312885187135002e+00 8.9160449910139690e+00 0 0 0
149 2 8.6134999999999984e+00 3.5521475311891657e+00 5.8809572380732940e+00 0 0 0
194 2 1.1074500000000002e+01 3.5521475311891644e+00 5.8809572380732940e+00 0 0 0
58 2 0.0000000000000000e+00 5.6834360499026637e+00 5.8809572380732940e+00 0 0 0
60 2 0.0000000000000000e+00 4.2625770374269996e+00 5.8809572380732940e+00 0 0 0
77 2 1.2305000000000001e+00 6.3938655561404980e+00 5.8809572380732940e+00 0 0 0
79 2 2.4610000000000003e+00 5.6834360499026637e+00 5.8809572380732940e+00 0 0 0
81 2 2.4610000000000003e+00 4.2625770374269996e+00 5.8809572380732940e+00 0 0 0
106 2 3.6914999999999996e+00 6.3938655561404980e+00 5.8809572380732940e+00 0 0 0
385 2 0.0000000000000000e+00 4.2625770374269996e+00 8.9160449910139690e+00 0 0 0
386 2 1.2305000000000001e+00 4.9730065436648339e+00 8.9160449910139690e+00 0 0 0
394 2 1.2305000000000001e+00 6.3938655561404980e+00 8.9160449910139690e+00 0 0 0
396 2 2.4610000000000003e+00 4.2625770374269996e+00 8.9160449910139690e+00 0 0 0
397 2 3.6914999999999996e+00 4.9730065436648339e+00 8.9160449910139690e+00 0 0 0
409 2 3.6914999999999996e+00 6.3938655561404980e+00 8.9160449910139690e+00 0 0 0
75 2 1.2305000000000001e+00 7.8147245686161639e+00 5.8809572380732940e+00 0 0 0
104 2 3.6914999999999996e+00 7.8147245686161639e+00 5.8809572380732940e+00 0 0 0
384 2 0.0000000000000000e+00 7.1042950623783341e+00 8.9160449910139690e+00 0 0 0
395 2 2.4610000000000003e+00 7.1042950623783341e+00 8.9160449910139690e+00 0 0 0
108 2 4.9220000000000006e+00 5.6834360499026637e+00 5.8809572380732940e+00 0 0 0
110 2 4.9220000000000006e+00 4.2625770374269978e+00 5.8809572380732940e+00 0 0 0
143 2 6.1524999999999999e+00 6.3938655561404980e+00 5.8809572380732940e+00 0 0 0
145 2 7.3829999999999991e+00 5.6834360499026637e+00 5.8809572380732940e+00 0 0 0
147 2 7.3829999999999991e+00 4.2625770374269996e+00 5.8809572380732940e+00 0 0 0
411 2 4.9220000000000006e+00 4.2625770374269978e+00 8.9160449910139690e+00 0 0 0
412 2 6.1524999999999999e+00 4.9730065436648339e+00 8.9160449910139690e+00 0 0 0
428 2 6.1524999999999999e+00 6.3938655561404980e+00 8.9160449910139690e+00 0 0 0
430 2 7.3829999999999991e+00 4.2625770374269996e+00 8.9160449910139690e+00 0 0 0
141 2 6.1524999999999999e+00 7.8147245686161639e+00 5.8809572380732940e+00 0 0 0
410 2 4.9220000000000006e+00 7.1042950623783341e+00 8.9160449910139690e+00 0 0 0
429 2 7.3830000000000009e+00 7.1042950623783341e+00 8.9160449910139690e+00 0 0 0
188 2 8.6135000000000002e+00 6.3938655561404980e+00 5.8809572380732940e+00 0 0 0
190 2 9.8440000000000012e+00 5.6834360499026637e+00 5.8809572380732940e+00 0 0 0
192 2 9.8440000000000012e+00 4.2625770374270004e+00 5.8809572380732940e+00 0 0 0
235 2 1.1074500000000002e+01 6.3938655561404980e+00 5.8809572380732940e+00 0 0 0
431 2 8.6135000000000002e+00 4.9730065436648339e+00 8.9160449910139690e+00 0 0 0
451 2 8.6135000000000002e+00 6.3938655561404980e+00 8.9160449910139690e+00 0 0 0
453 2 9.8440000000000012e+00 4.2625770374270004e+00 8.9160449910139690e+00 0 0 0
454 2 1.1074500000000002e+01 4.9730065436648339e+00 8.9160449910139690e+00 0 0 0
475 2 1.1074500000000002e+01 6.3938655561404980e+00 8.9160449910139690e+00 0 0 0
186 2 8.6135000000000002e+00 7.8147245686161639e+00 5.8809572380732940e+00 0 0 0
233 2 1.1074500000000002e+01 7.8147245686161639e+00 5.8809572380732940e+00 0 0 0
452 2 9.8440000000000012e+00 7.1042950623783341e+00 8.9160449910139690e+00 0 0 0
71 2 0.0000000000000000e+00 9.9460130873296642e+00 5.8809572380732940e+00 0 0 0
73 2 0.0000000000000000e+00 8.5251540748539991e+00 5.8809572380732940e+00 0 0 0
100 2 2.4610000000000003e+00 9.9460130873296642e+00 5.8809572380732940e+00 0 0 0
102 2 2.4610000000000003e+00 8.5251540748539991e+00 5.8809572380732940e+00 0 0 0
392 2 0.0000000000000000e+00 8.5251540748539991e+00 8.9160449910139690e+00 0 0 0
393 2 1.2305000000000001e+00 9.2355835810918343e+00 8.9160449910139690e+00 0 0 0
407 2 2.4610000000000003e+00 8.5251540748539991e+00 8.9160449910139690e+00 0 0 0
408 2 3.6915000000000004e+00 9.2355835810918343e+00 8.9160449910139690e+00 0 0 0
96 2 1.2305000000000001e+00 1.2077301606043163e+01 5.8809572380732940e+00 0 0 0
98 2 1.2305000000000001e+00 1.0656442593567498e+01 5.8809572380732940e+00 0 0 0
133 2 3.6914999999999996e+00 1.2077301606043163e+01 5.8809572380732940e+00 0 0 0
135 2 3.6914999999999996e+00 1.0656442593567499e+01 5.8809572380732940e+00 0 0 0
391 2 0.0000000000000000e+00 1.1366872099805333e+01 8.9160449910139690e+00 0 0 0
405 2 1.2305000000000001e+00 1.0656442593567498e+01 8.9160449910139690e+00 0 0 0
406 2 2.4610000000000003e+00 1.1366872099805333e+01 8.9160449910139690e+00 0 0 0
424 2 3.6914999999999996e+00 1.0656442593567499e+01 8.9160449910139690e+00 0 0 0
137 2 4.9220000000000006e+00 9.9460130873296642e+00 5.8809572380732940e+00 0 0 0
139 2 4.9220000000000006e+00 8.5251540748539991e+00 5.8809572380732940e+00 0 0 0
182 2 7.3830000000000009e+00 9.9460130873296642e+00 5.8809572380732940e+00 0 0 0
184 2 7.3830000000000009e+00 8.5251540748539991e+00 5.8809572380732940e+00 0 0 0
426 2 4.9220000000000006e+00 8.5251540748539991e+00 8.9160449910139690e+00 0 0 0
427 2 6.1524999999999999e+00 9.2355835810918343e+00 8.9160449910139690e+00 0 0 0
449 2 7.3830000000000009e+00 8.5251540748539991e+00 8.9160449910139690e+00 0 0 0
178 2 6.1524999999999999e+00 1.2077301606043163e+01 5.8809572380732940e+00 0 0 0
180 2 6.1524999999999999e+00 1.0656442593567499e+01 5.8809572380732940e+00 0 0 0
425 2 4.9220000000000006e+00 1.1366872099805333e+01 8.9160449910139690e+00 0 0 0
447 2 6.1524999999999999e+00 1.0656442593567499e+01 8.9160449910139690e+00 0 0 0
448 2 7.3829999999999991e+00 1.1366872099805333e+01 8.9160449910139690e+00 0 0 0
229 2 9.8440000000000012e+00 9.9460130873296642e+00 5.8809572380732940e+00 0 0 0
231 2 9.8440000000000012e+00 8.5251540748539956e+00 5.8809572380732940e+00 0 0 0
450 2 8.6134999999999984e+00 9.2355835810918343e+00 8.9160449910139690e+00 0 0 0
473 2 9.8440000000000012e+00 8.5251540748539956e+00 8.9160449910139690e+00 0 0 0
474 2 1.1074500000000002e+01 9.2355835810918343e+00 8.9160449910139690e+00 0 0 0
225 2 8.6135000000000002e+00 1.2077301606043163e+01 5.8809572380732940e+00 0 0 0
227 2 8.6134999999999984e+00 1.0656442593567498e+01 5.8809572380732940e+00 0 0 0
272 2 1.1074500000000002e+01 1.2077301606043163e+01 5.8809572380732940e+00 0 0 0
274 2 1.1074500000000002e+01 1.0656442593567498e+01 5.8809572380732940e+00 0 0 0
471 2 8.6134999999999984e+00 1.0656442593567498e+01 8.9160449910139690e+00 0 0 0
472 2 9.8440000000000012e+00 1.1366872099805333e+01 8.9160449910139690e+00 0 0 0
495 2 1.1074500000000002e+01 1.0656442593567498e+01 8.9160449910139690e+00 0 0 0
496 2 1.2304999999999998e+01 1.1366872099805333e+01 8.9160449910139690e+00 0 0 0
2703 1 3.2507570758964555e+00 1.7558710436742873e+00 1.1349643040467523e+01 1 -1 1
3474 1 1.5656633667235538e+00 3.6441752611491771e+00 1.2068858949638681e+01 1 0 1
3428 1 5.9484256307128840e+00 1.9611692197171449e+00 1.2021565225734602e+01 -3 2 0
1266 1 7.5076032025683208e+00 3.9638243111748137e+00 1.1556538038552365e+01 2 2 -1
2598 1 1.0445933229041191e+01 4.0382310868065865e+00 1.1379872192002559e+01 -2 0 0
564 1 3.0563792164234442e+00 5.8344793192561735e+00 1.1380345853474346e+01 3 0 0
1951 1 1.4465372105800336e+00 8.0447949291336176e+00 1.1842273643142521e+01 3 3 0
2722 1 5.6652022962593769e+00 6.1171835737975844e+00 1.1954355436874845e+01 4 -1 0
2042 1 1.1302256449015598e+01 6.5551020325120417e+00 1.1949257878528861e+01 0 0 0
4061 1 2.8159279720379122e+00 1.0374733620743976e+01 1.1084935191683964e+01 4 2 0
598 1 6.9792330857127052e+00 8.3172730767925600e+00 1.1313470490885193e+01 0 3 0
3998 1 5.4762835421595062e+00 1.0641667561700636e+01 1.1723123182721956e+01 2 -1 -1
584 1 9.9400074558628528e+00 8.7376212769588086e+00 1.1746793015836438e+01 2 -2 -1
1970 1 1.1201223899558080e+01 1.0960357168622693e+01 1.1376727889416157e+01 2 0 0
657 1 3.0002867685700458e+00 1.7907269832811408e+00 1.5778764984559121e+01 2 1 -1
588 1 1.5485221149497506e+00 3.9271970235658911e+00 1.4783646921642648e+01 5 4 0
2122 1 5.5508324664312187e+00 1.7951794812827120e+00 1.4668135086216727e+01 1 -2 0
751 1 6.5150772437688511e+00 3.9015162529814575e+00 1.5909498452751137e+01 1 -1 1
747 1 1.0382805353123318e+01 1.8623436498315060e+00 1.5421199817206693e+01 -1 0 0
1433 1 1.0453952063249231e+01 1.6932660279203369e+00 1.8190044462941795e+01 0 0 1
1434 1 2.7825105635884597e+00 6.2869528031342403e+00 1.5852586007981968e+01 0 -2 0
2614 1 5.4484275628889769e+00 6.2715821407313657e+00 1.4783571356534946e+01 0 0 -1
566 1 8.7426849422042778e+00 4.1244115197012414e+00 1.4332362984974882e+01 1 0 0
3310 1 1.0165440374779291e+01 6.3519535452506508e+00 1.5426886040653940e+01 -1 1 -1
3300 1 1.3118225813444986e+00 8.1865328615733386e+00 1.4716146822857498e+01 4 0 0
664 1 2.3371522302900130e+00 1.0313414057008490e+01 1.5602623492497798e+01 -2 1 0
3983 1 6.6901331727003521e+00 8.5300461882549286e+00 1.5699261114038178e+01 1 3 0
4051 1 4.9319591236313478e+00 1.0306282329515918e+01 1.4420574656702364e+01 0 1 0
1968 1 9.6583294615588091e+00 1.0644120144267728e+01 1.5857997466973266e+01 0 3 0
2673 1 9.1980144188291941e+00 8.3704438632898679e+00 1.4365748283898961e+01 1 1 2
631 1 3.0622981968860756e+00 1.6395521271731448e+00 1.8575641609008393e+01 -3 2 -2
621 1 2.5614691642734361e-01 1.4345719953157514e+00 1.9273263730502340e+01 0 0 0
2730 1 4.0666765499028541e+00 3.4876882411644252e+00 2.2321842004780994e+01 3 0 -1
2105 1 4.0917498369463647e+00 3.9534506688578719e+00 1.9842205399729405e+01 -4 2 0
3373 1 4.7051638364062648e-01 1.0754713195739853e+00 2.2061208885505692e+01 2 1 1
3391 1 7.8509905123848940e+00 1.6180470559663107e+00 1.9307369019188709e+01 -1 0 0
10 1 7.9565526157582136e+00 1.9527068881035883e+00 2.2088017584967105e+01 0 1 0
723 1 1.1543572876198750e+01 4.0176081098312002e+00 2.2124004192863516e+01 1 1 0
1260 1 1.1543935091673941e+01 3.9631768054687257e+00 1.9387937708148279e+01 -2 0 0
3955 1 2.7586170298886965e+00 6.0615267804896833e+00 1.8852079651724022e+01 -3 4 0
3470 1 3.9033383152220956e-02 5.9648407966667971e+00 2.2245077014695006e+01 -2 0 -1
1917 1 3.8181036806622293e-01 5.9865861678216934e+00 1.9460906960574913e+01 1 0 0
3942 1 6.6037428153016329e+00 4.1007267707904589e+00 1.8800994647386069e+01 -1 1 0
628 1 7.5511017307767698e+00 6.5210246832604666e+00 1.9467363310016502e+01 -1 1 -1
3336 1 7.9051709673181545e+00 6.3400107264608021e+00 2.2018987419419876e+01 1 0 -1
1995 1 1.0026454970470715e+01 6.2629684826862029e+00 1.8345749035748621e+01 -1 1 0
1287 1 1.9978862110976292e+00 1.0785876642111836e+01 1.8539510124894012e+01 3 -1 1
3380 1 3.6621340649066489e+00 8.3127480408026866e+00 1.9343247793857458e+01 3 -3 1
1391 1 3.7457461294987615e+00 8.2077268023140597e+00 2.2238734512016421e+01 1 1 0
1402 1 6.0619371024939861e+00 8.6812926598494382e+00 1.8373115541544760e+01 2 0 0
3384 1 7.0078414880700617e+00 1.0934929305437759e+01 1.9455779038480131e+01 -3 1 -1
1956 1 7.1461013188191167e+00 1.0827377584881109e+01 2.2254275534848688e+01 3 0 0
4069 1 9.8151053113507896e+00 1.0965654697471305e+01 1.8522527136087113e+01 -2 0 1
1997 1 1.1211627347297085e+01 8.9360695333189781e+00 2.2245653466375057e+01 -3 2 0
1922 1 1.1203284733161276e+01 8.7285480455283633e+00 1.9396235485367676e+01 1 0 0
3405 1 1.4653824070463097e+00 3.6573708077849454e+00 2.2956200988287986e+01 -3 0 0
2620 1 3.0157952186607946e+00 1.4544374871182626e+00 2.6394071177309442e+01 1 -2 0
2008 1 1.3269101863363266e+00 3.7162114310323879e+00 2.5675618231295637e+01 1 -2 -1
543 1 5.6651681575011521e+00 1.3488195408855441e+00 2.3139153353496432e+01 -2 2 -1
2729 1 6.0150763716728024e+00 9.3471261976127795e-01 2.6019254304682981e+01 1 -1 0
1457 1 6.9874803313574079e+00 3.4803667400414460e+00 2.6400398530547651e+01 2 -1 1
2650 1 9.1100968939574951e+00 4.0210045398167731e+00 2.3081647561279205e+01 1 0 -1
1437 1 9.6768495749049794e+00 4.0188331210486936e+00 2.5950615118724247e+01 3 0 0
2697 1 1.1580696719244155e+01 1.8259936339306762e+00 2.6089696652163084e+01 -2 1 -1
2662 1 2.9077365793129508e+00 5.9781680412052047e+00 2.6251620305837871e+01 -1 1 0
4 1 5.3545814278426365e+00 5.8910304744401483e+00 2.3309713439610967e+01 1 2 0
540 1 5.7029138467058367e+00 6.0975579564703137e+00 2.6059087749372832e+01 2 -3 0
3288 1 1.0832589658866295e+01 6.4574465750819989e+00 2.5818550060018449e+01 0 2 -1
1369 1 1.1287822116108555e+00 8.3192076192442421e+00 2.2901146678200032e+01 2 -1 0
1442 1 1.0541403068953441e+00 8.1872905610491014e+00 2.5834677399776879e+01 1 4 1
1311 1 2.1377201689126464e+00 1.0806199625104650e+01 2.6353898732773928e+01 -2 1 0
3445 1 6.8088749443419019e+00 8.5724985415826733e+00 2.6286573188868466e+01 2 -1 0
3949 1 5.0703693310021034e+00 1.0863256467503795e+01 2.5924348808602193e+01 2 1 0
1431 1 4.5659852379169239e+00 1.0796545709378394e+01 2.3140103497401562e+01 1 3 1
3950 1 8.7125627620109753e+00 8.7167878849925344e+00 2.2830796526535895e+01 2 1 0
1408 1 9.4160691872132549e+00 8.8500828393027664e+00 2.5617384551715649e+01 2 2 0
3262 1 1.1014169262488119e+01 1.1130672641414705e+01 2.6058010517964362e+01 1 -1 0
1409 1 1.1888379842721612e+01 1.1570900686337959e+01 2.3268147718866079e+01 1 0 0
93 2 0.0000000000000000e+00 1.2787731112280996e+01 2.8458694851353181e+00 0 0 0
95 2 1.2305000000000001e+00 1.3498160618518829e+01 2.8458694851353181e+00 0 0 0
130 2 2.4610000000000003e+00 1.2787731112280996e+01 2.8458694851353181e+00 0 0 0
132 2 3.6915000000000004e+00 1.3498160618518829e+01 2.8458694851353181e+00 0 0 0
91 2 0.0000000000000000e+00 1.5629449137232333e+01 2.8458694851353181e+00 0 0 0
126 2 1.2305000000000001e+00 1.4919019630994494e+01 2.8458694851353181e+00 0 0 0
128 2 2.4610000000000003e+00 1.5629449137232328e+01 2.8458694851353181e+00 0 0 0
171 2 3.6915000000000004e+00 1.4919019630994494e+01 2.8458694851353181e+00 0 0 0
175 2 4.9220000000000006e+00 1.2787731112280996e+01 2.8458694851353181e+00 0 0 0
177 2 6.1524999999999990e+00 1.3498160618518829e+01 2.8458694851353181e+00 0 0 0
222 2 7.3829999999999991e+00 1.2787731112280996e+01 2.8458694851353181e+00 0 0 0
173 2 4.9220000000000006e+00 1.5629449137232333e+01 2.8458694851353181e+00 0 0 0
218 2 6.1524999999999990e+00 1.4919019630994494e+01 2.8458694851353181e+00 0 0 0
220 2 7.3829999999999991e+00 1.5629449137232333e+01 2.8458694851353181e+00 0 0 0
224 2 8.6135000000000002e+00 1.3498160618518835e+01 2.8458694851353181e+00 0 0 0
269 2 9.8440000000000012e+00 1.2787731112280996e+01 2.8458694851353181e+00 0 0 0
271 2 1.1074500000000002e+01 1.3498160618518829e+01 2.8458694851353181e+00 0 0 0
265 2 8.6135000000000002e+00 1.4919019630994494e+01 2.8458694851353181e+00 0 0 0
267 2 9.8440000000000012e+00 1.5629449137232328e+01 2.8458694851353181e+00 0 0 0
307 2 1.1074500000000002e+01 1.4919019630994494e+01 2.8458694851353181e+00 0 0 0
122 2 0.0000000000000000e+00 1.7050308149707998e+01 2.8458694851353181e+00 0 0 0
167 2 2.4610000000000003e+00 1.7050308149707998e+01 2.8458694851353181e+00 0 0 0
120 2 0.0000000000000000e+00 1.9892026174659328e+01 2.8458694851353181e+00 0 0 0
124 2 1.2305000000000001e+00 1.7760737655945832e+01 2.8458694851353181e+00 0 0 0
163 2 1.2305000000000001e+00 1.9181596668421495e+01 2.8458694851353181e+00 0 0 0
165 2 2.4610000000000003e+00 1.9892026174659328e+01 2.8458694851353181e+00 0 0 0
169 2 3.6914999999999996e+00 1.7760737655945832e+01 2.8458694851353181e+00 0 0 0
210 2 3.6914999999999996e+00 1.9181596668421495e+01 2.8458694851353181e+00 0 0 0
214 2 4.9220000000000006e+00 1.7050308149707998e+01 2.8458694851353181e+00 0 0 0
261 2 7.3830000000000009e+00 1.7050308149707998e+01 2.8458694851353181e+00 0 0 0
212 2 4.9220000000000006e+00 1.9892026174659328e+01 2.8458694851353181e+00 0 0 0
216 2 6.1524999999999999e+00 1.7760737655945832e+01 2.8458694851353181e+00 0 0 0
257 2 6.1524999999999999e+00 1.9181596668421495e+01 2.8458694851353181e+00 0 0 0
259 2 7.3829999999999991e+00 1.9892026174659328e+01 2.8458694851353181e+00 0 0 0
303 2 9.8440000000000012e+00 1.7050308149707998e+01 2.8458694851353181e+00 0 0 0
337 2 1.2304999999999998e+01 1.7050308149707998e+01 2.8458694851353181e+00 0 0 0
263 2 8.6134999999999984e+00 1.7760737655945832e+01 2.8458694851353181e+00 0 0 0
299 2 8.6135000000000002e+00 1.9181596668421495e+01 2.8458694851353181e+00 0 0 0
301 2 9.8440000000000012e+00 1.9892026174659335e+01 2.8458694851353181e+00 0 0 0
305 2 1.1074500000000002e+01 1.7760737655945835e+01 2.8458694851353181e+00 0 0 0
333 2 1.1074500000000002e+01 1.9181596668421495e+01 2.8458694851353181e+00 0 0 0
157 2 0.0000000000000000e+00 2.4154603212086325e+01 2.8458694851353181e+00 0 0 0
159 2 0.0000000000000000e+00 2.1312885187134999e+01 2.8458694851353181e+00 0 0 0
161 2 1.2304999999999993e+00 2.2023314693372832e+01 2.8458694851353181e+00 0 0 0
202 2 1.2304999999999993e+00 2.3444173705848499e+01 2.8458694851353181e+00 0 0 0
204 2 2.4610000000000003e+00 2.4154603212086325e+01 2.8458694851353181e+00 0 0 0
206 2 2.4610000000000003e+00 2.1312885187134995e+01 2.8458694851353181e+00 0 0 0
208 2 3.6914999999999996e+00 2.2023314693372832e+01 2.8458694851353181e+00 0 0 0
249 2 3.6915000000000004e+00 2.3444173705848499e+01 2.8458694851353181e+00 0 0 0
251 2 4.9220000000000006e+00 2.4154603212086325e+01 2.8458694851353181e+00 0 0 0
253 2 4.9220000000000006e+00 2.1312885187134995e+01 2.8458694851353181e+00 0 0 0
255 2 6.1524999999999990e+00 2.2023314693372832e+01 2.8458694851353181e+00 0 0 0
291 2 6.1524999999999999e+00 2.3444173705848499e+01 2.8458694851353181e+00 0 0 0
293 2 7.3830000000000009e+00 2.4154603212086336e+01 2.8458694851353181e+00 0 0 0
295 2 7.3829999999999991e+00 2.1312885187134999e+01 2.8458694851353181e+00 0 0 0
297 2 8.6135000000000002e+00 2.2023314693372832e+01 2.8458694851353181e+00 0 0 0
325 2 8.6134999999999984e+00 2.3444173705848499e+01 2.8458694851353181e+00 0 0 0
327 2 9.8440000000000012e+00 2.4154603212086336e+01 2.8458694851353181e+00 0 0 0
329 2 9.8440000000000012e+00 2.1312885187134999e+01 2.8458694851353181e+00 0 0 0
331 2 1.1074500000000002e+01 2.2023314693372832e+01 2.8458694851353181e+00 0 0 0
351 2 1.1074500000000002e+01 2.3444173705848499e+01 2.8458694851353181e+00 0 0 0
94 2 0.0000000000000000e+00 1.2787731112280996e+01 5.8809572380732940e+00 0 0 0
131 2 2.4610000000000003e+00 1.2787731112280996e+01 5.8809572380732940e+00 0 0 0
403 2 0.0000000000000000e+00 1.2787731112280996e+01 8.9160449910139690e+00 0 0 0
404 2 1.2305000000000001e+00 1.3498160618518829e+01 8.9160449910139690e+00 0 0 0
422 2 2.4610000000000003e+00 1.2787731112280996e+01 8.9160449910139690e+00 0 0 0
423 2 3.6915000000000004e+00 1.3498160618518829e+01 8.9160449910139690e+00 0 0 0
92 2 0.0000000000000000e+00 1.4208590124756663e+01 5.8809572380732940e+00 0 0 0
127 2 1.2305000000000001e+00 1.4919019630994494e+01 5.8809572380732940e+00 0 0 0
129 2 2.4610000000000003e+00 1.4208590124756663e+01 5.8809572380732940e+00 0 0 0
172 2 3.6915000000000004e+00 1.4919019630994494e+01 5.8809572380732940e+00 0 0 0
402 2 0.0000000000000000e+00 1.5629449137232333e+01 8.9160449910139690e+00 0 0 0
420 2 1.2305000000000001e+00 1.4919019630994494e+01 8.9160449910139690e+00 0 0 0
421 2 2.4610000000000003e+00 1.5629449137232328e+01 8.9160449910139690e+00 0 0 0
443 2 3.6915000000000004e+00 1.4919019630994494e+01 8.9160449910139690e+00 0 0 0
176 2 4.9220000000000006e+00 1.2787731112280996e+01 5.8809572380732940e+00 0 0 0
223 2 7.3829999999999991e+00 1.2787731112280996e+01 5.8809572380732940e+00 0 0 0
445 2 4.9220000000000006e+00 1.2787731112280996e+01 8.9160449910139690e+00 0 0 0
446 2 6.1524999999999990e+00 1.3498160618518829e+01 8.9160449910139690e+00 0 0 0
469 2 7.3829999999999991e+00 1.2787731112280996e+01 8.9160449910139690e+00 0 0 0
174 2 4.9220000000000006e+00 1.4208590124756663e+01 5.8809572380732940e+00 0 0 0
219 2 6.1524999999999990e+00 1.4919019630994494e+01 5.8809572380732940e+00 0 0 0
221 2 7.3830000000000009e+00 1.4208590124756663e+01 5.8809572380732940e+00 0 0 0
444 2 4.9220000000000006e+00 1.5629449137232333e+01 8.9160449910139690e+00 0 0 0
467 2 6.1524999999999990e+00 1.4919019630994494e+01 8.9160449910139690e+00 0 0 0
468 2 7.3829999999999991e+00 1.5629449137232333e+01 8.9160449910139690e+00 0 0 0
270 2 9.8440000000000012e+00 1.2787731112280996e+01 5.8809572380732940e+00 0 0 0
470 2 8.6135000000000002e+00 1.3498160618518835e+01 8.9160449910139690e+00 0 0 0
493 2 9.8440000000000012e+00 1.2787731112280996e+01 8.9160449910139690e+00 0 0 0
494 2 1.1074500000000002e+01 1.3498160618518829e+01 8.9160449910139690e+00 0 0 0
266 2 8.6135000000000002e+00 1.4919019630994494e+01 5.8809572380732940e+00 0 0 0
268 2 9.8440000000000012e+00 1.4208590124756663e+01 5.8809572380732940e+00 0 0 0
306 2 1.1074500000000002e+01 1.6339878643470161e+01 5.8809572380732940e+00 0 0 0
308 2 1.1074500000000002e+01 1.4919019630994494e+01 5.8809572380732940e+00 0 0 0
310 2 1.2304999999999998e+01 1.4208590124756658e+01 5.8809572380732940e+00 0 0 0
491 2 8.6135000000000002e+00 1.4919019630994494e+01 8.9160449910139690e+00 0 0 0
492 2 9.8440000000000012e+00 1.5629449137232328e+01 8.9160449910139690e+00 0 0 0
512 2 1.1074500000000002e+01 1.4919019630994494e+01 8.9160449910139690e+00 0 0 0
123 2 0.0000000000000000e+00 1.7050308149707998e+01 5.8809572380732940e+00 0 0 0
125 2 1.2305000000000001e+00 1.6339878643470165e+01 5.8809572380732940e+00 0 0 0
168 2 2.4610000000000003e+00 1.7050308149707998e+01 5.8809572380732940e+00 0 0 0
170 2 3.6915000000000004e+00 1.6339878643470165e+01 5.8809572380732940e+00 0 0 0
418 2 0.0000000000000000e+00 1.7050308149707998e+01 8.9160449910139690e+00 0 0 0
441 2 2.4610000000000003e+00 1.7050308149707998e+01 8.9160449910139690e+00 0 0 0
121 2 0.0000000000000000e+00 1.8471167162183658e+01 5.8809572380732940e+00 0 0 0