LAMMPS data file via write_data, version 16 Mar 2018, timestep = 8000000

4065 atoms
2 atom types

0.0000000000000000e+00 4.9219999999999999e+01 xlo xhi
0.0000000000000000e+00 4.9019635930410494e+01 ylo yhi
1.0961629258699261e+00 2.6744669320417074e+01 zlo zhi

Masses

1 18.015
2 12.01

Atoms # atomic

83 2 0.0000000000000000e+00 2.8417180249513345e+00 2.6411075899937035e+00 0 0 0
85 2 0.0000000000000000e+00 0.0000000000000000e+00 2.6411075899937035e+00 0 0 0
87 2 1.2305000000000001e+00 7.1042950623783474e-01 2.6411075899937035e+00 0 0 0
94 2 1.2305000000000001e+00 2.1312885187134998e+00 2.6411075899937035e+00 0 0 0
90 2 0.0000000000000000e+00 4.2625770374269996e+00 2.6411075899937035e+00 0 0 0
92 2 1.2305000000000001e+00 4.9730065436648339e+00 2.6411075899937035e+00 0 0 0
107 2 1.2305000000000001e+00 6.3938655561404980e+00 2.6411075899937035e+00 0 0 0
88 2 0.0000000000000000e+00 7.1042950623783341e+00 2.6411075899937035e+00 0 0 0
103 2 0.0000000000000000e+00 8.5251540748539991e+00 2.6411075899937035e+00 0 0 0
105 2 1.2305000000000001e+00 9.2355835810918343e+00 2.6411075899937035e+00 0 0 0
101 2 0.0000000000000000e+00 1.1366872099805333e+01 2.6411075899937035e+00 0 0 0
124 2 0.0000000000000000e+00 1.2787731112280996e+01 2.6411075899937035e+00 0 0 0
126 2 1.2305000000000001e+00 1.3498160618518829e+01 2.6411075899937035e+00 0 0 0
128 2 1.2305000000000001e+00 1.0656442593567498e+01 2.6411075899937035e+00 0 0 0
122 2 0.0000000000000000e+00 1.5629449137232333e+01 2.6411075899937035e+00 0 0 0
153 2 0.0000000000000000e+00 1.7050308149707998e+01 2.6411075899937035e+00 0 0 0
157 2 1.2305000000000001e+00 1.4919019630994494e+01 2.6411075899937035e+00 0 0 0
151 2 0.0000000000000000e+00 1.9892026174659328e+01 2.6411075899937035e+00 0 0 0
155 2 1.2305000000000001e+00 1.7760737655945832e+01 2.6411075899937035e+00 0 0 0
194 2 1.2305000000000001e+00 1.9181596668421495e+01 2.6411075899937035e+00 0 0 0
188 2 0.0000000000000000e+00 2.4154603212086325e+01 2.6411075899937035e+00 0 0 0
190 2 0.0000000000000000e+00 2.1312885187134999e+01 2.6411075899937035e+00 0 0 0
192 2 1.2304999999999993e+00 2.2023314693372832e+01 2.6411075899937035e+00 0 0 0
233 2 1.2304999999999993e+00 2.3444173705848499e+01 2.6411075899937035e+00 0 0 0
84 2 0.0000000000000000e+00 1.4208590124756650e+00 5.7309969182415612e+00 0 0 0
86 2 0.0000000000000000e+00 0.0000000000000000e+00 5.7309969182415612e+00 0 0 0
95 2 1.2305000000000001e+00 2.1312885187134998e+00 5.7309969182415612e+00 0 0 0
89 2 0.0000000000000000e+00 5.6834360499026637e+00 5.7309969182415612e+00 0 0 0
91 2 0.0000000000000000e+00 4.2625770374269996e+00 5.7309969182415612e+00 0 0 0
93 2 1.2305000000000001e+00 3.5521475311891644e+00 5.7309969182415612e+00 0 0 0
108 2 1.2305000000000001e+00 6.3938655561404980e+00 5.7309969182415612e+00 0 0 0
102 2 0.0000000000000000e+00 9.9460130873296642e+00 5.7309969182415612e+00 0 0 0
104 2 0.0000000000000000e+00 8.5251540748539991e+00 5.7309969182415612e+00 0 0 0
106 2 1.2305000000000001e+00 7.8147245686161639e+00 5.7309969182415612e+00 0 0 0
125 2 0.0000000000000000e+00 1.2787731112280996e+01 5.7309969182415612e+00 0 0 0
127 2 1.2305000000000001e+00 1.2077301606043163e+01 5.7309969182415612e+00 0 0 0
129 2 1.2305000000000001e+00 1.0656442593567498e+01 5.7309969182415612e+00 0 0 0
123 2 0.0000000000000000e+00 1.4208590124756663e+01 5.7309969182415612e+00 0 0 0
154 2 0.0000000000000000e+00 1.7050308149707998e+01 5.7309969182415612e+00 0 0 0
156 2 1.2305000000000001e+00 1.6339878643470165e+01 5.7309969182415612e+00 0 0 0
158 2 1.2305000000000001e+00 1.4919019630994494e+01 5.7309969182415612e+00 0 0 0
152 2 0.0000000000000000e+00 1.8471167162183658e+01 5.7309969182415612e+00 0 0 0
193 2 1.2305000000000001e+00 2.0602455680897162e+01 5.7309969182415612e+00 0 0 0
195 2 1.2305000000000001e+00 1.9181596668421495e+01 5.7309969182415612e+00 0 0 0
189 2 0.0000000000000000e+00 2.2733744199610655e+01 5.7309969182415612e+00 0 0 0
191 2 0.0000000000000000e+00 2.1312885187134999e+01 5.7309969182415612e+00 0 0 0
234 2 1.2304999999999993e+00 2.3444173705848499e+01 5.7309969182415612e+00 0 0 0
412 2 0.0000000000000000e+00 2.8417180249513345e+00 8.8208862464916038e+00 0 0 0
413 2 0.0000000000000000e+00 0.0000000000000000e+00 8.8208862464916038e+00 0 0 0
414 2 1.2305000000000001e+00 7.1042950623783474e-01 8.8208862464916038e+00 0 0 0
418 2 1.2305000000000001e+00 2.1312885187134998e+00 8.8208862464916038e+00 0 0 0
416 2 0.0000000000000000e+00 4.2625770374269996e+00 8.8208862464916038e+00 0 0 0
417 2 1.2305000000000001e+00 4.9730065436648339e+00 8.8208862464916038e+00 0 0 0
425 2 1.2305000000000001e+00 6.3938655561404980e+00 8.8208862464916038e+00 0 0 0
415 2 0.0000000000000000e+00 7.1042950623783341e+00 8.8208862464916038e+00 0 0 0
423 2 0.0000000000000000e+00 8.5251540748539991e+00 8.8208862464916038e+00 0 0 0
424 2 1.2305000000000001e+00 9.2355835810918343e+00 8.8208862464916038e+00 0 0 0
422 2 0.0000000000000000e+00 1.1366872099805333e+01 8.8208862464916038e+00 0 0 0
434 2 0.0000000000000000e+00 1.2787731112280996e+01 8.8208862464916038e+00 0 0 0
435 2 1.2305000000000001e+00 1.3498160618518829e+01 8.8208862464916038e+00 0 0 0
436 2 1.2305000000000001e+00 1.0656442593567498e+01 8.8208862464916038e+00 0 0 0
433 2 0.0000000000000000e+00 1.5629449137232333e+01 8.8208862464916038e+00 0 0 0
449 2 0.0000000000000000e+00 1.7050308149707998e+01 8.8208862464916038e+00 0 0 0
451 2 1.2305000000000001e+00 1.4919019630994494e+01 8.8208862464916038e+00 0 0 0
448 2 0.0000000000000000e+00 1.9892026174659328e+01 8.8208862464916038e+00 0 0 0
450 2 1.2305000000000001e+00 1.7760737655945832e+01 8.8208862464916038e+00 0 0 0
470 2 1.2305000000000001e+00 1.9181596668421495e+01 8.8208862464916038e+00 0 0 0
2 1 4.7465706131771729e-01 2.2532505003800178e+01 1.8940376774667932e+01 5 -1 0
490 2 1.2304999999999993e+00 2.3444173705848499e+01 8.8208862464916038e+00 0 0 0
468 2 0.0000000000000000e+00 2.1312885187134999e+01 8.8208862464916038e+00 0 0 0
467 2 0.0000000000000000e+00 2.4154603212086325e+01 8.8208862464916038e+00 0 0 0
469 2 1.2304999999999993e+00 2.2023314693372832e+01 8.8208862464916038e+00 0 0 0
1866 1 1.6184779231306765e+00 3.6546474687193151e+00 1.5670002580795549e+01 1 1 0
4055 1 6.6327183233142017e-01 2.2418211802392133e+01 1.2067427591577081e+01 0 -1 0
2950 1 5.7691971206104675e-01 2.2487585440504024e+01 1.5039716666011634e+01 1 1 1
2077 1 5.1155239950782472e-01 2.2655198978592889e+01 2.5911348616843668e+01 1 -1 1
2929 1 1.5290252924550460e+00 3.8258730168444202e+00 2.4856957527624896e+01 1 1 0
3849 1 4.1932140801397721e-01 1.7722079408652199e+01 1.4807774497908525e+01 3 1 -1
3857 1 4.0017086351920422e-01 1.7771350444916163e+01 1.2083653677466138e+01 1 1 0
820 1 2.9267039411513529e-01 2.2313694295312064e+01 2.1581427005433166e+01 2 1 -1
2003 1 1.0092924247343125e-01 1.7665886881132135e+01 1.9339072417530140e+01 -4 0 0
2034 1 1.4369755570189816e-01 1.7472816515441007e+01 2.5595679208372552e+01 0 -2 -1
1130 2 0.0000000000000000e+00 2.5575462224561992e+01 2.6411075899937035e+00 0 0 0
1132 2 1.2305000000000001e+00 2.6285891730799833e+01 2.6411075899937035e+00 0 0 0
1140 2 1.2305000000000010e+00 2.7706750743275496e+01 2.6411075899937035e+00 0 0 0
1128 2 0.0000000000000000e+00 2.8417180249513333e+01 2.6411075899937035e+00 0 0 0
1136 2 0.0000000000000000e+00 2.9838039261988989e+01 2.6411075899937035e+00 0 0 0
1138 2 1.2304999999999993e+00 3.0548468768226829e+01 2.6411075899937035e+00 0 0 0
1134 2 0.0000000000000000e+00 3.2679757286940330e+01 2.6411075899937035e+00 0 0 0
1150 2 0.0000000000000000e+00 3.4100616299415996e+01 2.6411075899937035e+00 0 0 0
1152 2 1.2305000000000010e+00 3.4811045805653833e+01 2.6411075899937035e+00 0 0 0
1154 2 1.2304999999999993e+00 3.1969327780702493e+01 2.6411075899937035e+00 0 0 0
1148 2 0.0000000000000000e+00 3.6942334324367337e+01 2.6411075899937035e+00 0 0 0
1172 2 0.0000000000000000e+00 3.8363193336842990e+01 2.6411075899937035e+00 0 0 0
1176 2 1.2304999999999993e+00 3.6231904818129486e+01 2.6411075899937035e+00 0 0 0
1170 2 0.0000000000000000e+00 4.1204911361794323e+01 2.6411075899937035e+00 0 0 0
1174 2 1.2305000000000010e+00 3.9073622843080841e+01 2.6411075899937035e+00 0 0 0
1206 2 1.2305000000000010e+00 4.0494481855556494e+01 2.6411075899937035e+00 0 0 0
1200 2 0.0000000000000000e+00 4.5467488399221331e+01 2.6411075899937035e+00 0 0 0
1202 2 0.0000000000000000e+00 4.2625770374269997e+01 2.6411075899937035e+00 0 0 0
1204 2 1.2304999999999993e+00 4.3336199880507827e+01 2.6411075899937035e+00 0 0 0
1243 2 1.2304999999999993e+00 4.4757058892983494e+01 2.6411075899937035e+00 0 0 0
1239 2 0.0000000000000000e+00 4.6888347411696998e+01 2.6411075899937035e+00 0 0 0
1241 2 1.2305000000000010e+00 4.7598776917934813e+01 2.6411075899937035e+00 0 0 0
1129 2 0.0000000000000000e+00 2.6996321237037659e+01 5.7309969182415612e+00 0 0 0
1131 2 0.0000000000000000e+00 2.5575462224561992e+01 5.7309969182415612e+00 0 0 0
1133 2 1.2305000000000001e+00 2.4865032718324155e+01 5.7309969182415612e+00 0 0 0
1141 2 1.2305000000000010e+00 2.7706750743275496e+01 5.7309969182415612e+00 0 0 0
1135 2 0.0000000000000000e+00 3.1258898274464656e+01 5.7309969182415612e+00 0 0 0
1137 2 0.0000000000000000e+00 2.9838039261988989e+01 5.7309969182415612e+00 0 0 0
1139 2 1.2304999999999993e+00 2.9127609755751163e+01 5.7309969182415612e+00 0 0 0
1151 2 0.0000000000000000e+00 3.4100616299415996e+01 5.7309969182415612e+00 0 0 0
1153 2 1.2304999999999993e+00 3.3390186793178160e+01 5.7309969182415612e+00 0 0 0
1155 2 1.2304999999999993e+00 3.1969327780702493e+01 5.7309969182415612e+00 0 0 0
1149 2 0.0000000000000000e+00 3.5521475311891649e+01 5.7309969182415612e+00 0 0 0
1173 2 0.0000000000000000e+00 3.8363193336842990e+01 5.7309969182415612e+00 0 0 0
1175 2 1.2304999999999993e+00 3.7652763830605153e+01 5.7309969182415612e+00 0 0 0
1177 2 1.2304999999999993e+00 3.6231904818129486e+01 5.7309969182415612e+00 0 0 0
1171 2 0.0000000000000000e+00 3.9784052349318657e+01 5.7309969182415612e+00 0 0 0
1205 2 1.2305000000000010e+00 4.1915340868032160e+01 5.7309969182415612e+00 0 0 0
1207 2 1.2305000000000010e+00 4.0494481855556494e+01 5.7309969182415612e+00 0 0 0
1201 2 0.0000000000000000e+00 4.4046629386745657e+01 5.7309969182415612e+00 0 0 0
1203 2 0.0000000000000000e+00 4.2625770374269997e+01 5.7309969182415612e+00 0 0 0
1244 2 1.2304999999999993e+00 4.4757058892983494e+01 5.7309969182415612e+00 0 0 0
1238 2 0.0000000000000000e+00 4.8309206424172650e+01 5.7309969182415612e+00 0 0 0
1240 2 0.0000000000000000e+00 4.6888347411696998e+01 5.7309969182415612e+00 0 0 0
1242 2 1.2304999999999993e+00 4.6177917905459147e+01 5.7309969182415612e+00 0 0 0
1444 2 0.0000000000000000e+00 2.5575462224561992e+01 8.8208862464916038e+00 0 0 0
1445 2 1.2305000000000001e+00 2.6285891730799833e+01 8.8208862464916038e+00 0 0 0
1449 2 1.2305000000000010e+00 2.7706750743275496e+01 8.8208862464916038e+00 0 0 0
3124 1 6.7303255720650101e-01 2.6990445591844601e+01 1.1675287063499825e+01 2 -2 0
1443 2 0.0000000000000000e+00 2.8417180249513333e+01 8.8208862464916038e+00 0 0 0
1447 2 0.0000000000000000e+00 2.9838039261988989e+01 8.8208862464916038e+00 0 0 0
1448 2 1.2304999999999993e+00 3.0548468768226829e+01 8.8208862464916038e+00 0 0 0
1446 2 0.0000000000000000e+00 3.2679757286940330e+01 8.8208862464916038e+00 0 0 0
1454 2 0.0000000000000000e+00 3.4100616299415996e+01 8.8208862464916038e+00 0 0 0
1455 2 1.2305000000000010e+00 3.4811045805653833e+01 8.8208862464916038e+00 0 0 0
1456 2 1.2304999999999993e+00 3.1969327780702493e+01 8.8208862464916038e+00 0 0 0
1453 2 0.0000000000000000e+00 3.6942334324367337e+01 8.8208862464916038e+00 0 0 0
1465 2 0.0000000000000000e+00 3.8363193336842990e+01 8.8208862464916038e+00 0 0 0
1467 2 1.2304999999999993e+00 3.6231904818129486e+01 8.8208862464916038e+00 0 0 0
844 1 2.4681874460215161e-01 3.4377111131697198e+01 1.1397935028221989e+01 -1 -3 -1
1464 2 0.0000000000000000e+00 4.1204911361794323e+01 8.8208862464916038e+00 0 0 0
1466 2 1.2305000000000010e+00 3.9073622843080841e+01 8.8208862464916038e+00 0 0 0
1482 2 1.2305000000000010e+00 4.0494481855556494e+01 8.8208862464916038e+00 0 0 0
3143 1 1.2837773677837101e+00 3.6626915718980818e+01 1.8701712069322458e+01 -1 -5 1
2983 1 8.5237209668588254e-01 4.3420654621191751e+01 1.1374077029760603e+01 2 -1 -1
1479 2 0.0000000000000000e+00 4.5467488399221331e+01 8.8208862464916038e+00 0 0 0
1480 2 0.0000000000000000e+00 4.2625770374269997e+01 8.8208862464916038e+00 0 0 0
1481 2 1.2304999999999993e+00 4.3336199880507827e+01 8.8208862464916038e+00 0 0 0
1500 2 1.2304999999999993e+00 4.4757058892983494e+01 8.8208862464916038e+00 0 0 0
1498 2 0.0000000000000000e+00 4.6888347411696998e+01 8.8208862464916038e+00 0 0 0
1499 2 1.2305000000000010e+00 4.7598776917934813e+01 8.8208862464916038e+00 0 0 0
3995 1 1.0576513215514805e+00 4.7929198893878322e+01 1.1310941700650140e+01 1 -4 1
1831 1 6.6889462780965059e-01 2.7375758989380277e+01 1.4441879983288405e+01 -2 -3 1
901 1 9.2570654383292539e-01 3.1689993019302502e+01 1.1984857534721426e+01 3 -1 0
1879 1 1.3680177266473863e+00 3.2018359701540170e+01 1.4521354255682850e+01 0 -1 0
58 1 2.9466978155080048e-01 3.8975017801626471e+01 1.1050024883577146e+01 -2 2 -1
3980 1 1.0349503035514478e+00 3.1759718775129613e+01 2.5845359711589683e+01 4 0 -1
1829 1 1.0097434818476948e-01 3.8777841121083270e+01 1.5250861958025768e+01 -1 0 0
3029 1 5.8466631762789956e-01 4.3646015227125993e+01 1.5599885347297494e+01 -1 -1 -1
2858 1 9.9957185301308382e-01 4.8382253870870613e+01 1.5843626884924644e+01 1 -1 0
800 1 8.3090318878210012e-01 2.7092077116365186e+01 1.9083763311793675e+01 1 0 0
4026 1 1.3374739424754134e+00 3.1916945794669100e+01 1.8971906396838996e+01 0 -2 -1
938 1 1.2591892288642783e+00 3.6307762026785483e+01 2.1397449506573185e+01 -1 0 0
994 1 1.1629652827580907e+00 3.6343163749215456e+01 2.5852078038453534e+01 -1 -1 0
1950 1 4.1585824792018516e-01 2.7175963119428758e+01 2.5818376302279383e+01 2 2 -1
3022 1 1.2557907636581871e+00 4.7905800763481302e+01 2.5509989677864731e+01 -3 1 0
1100 1 8.2282627634737082e-01 4.3493886945963865e+01 1.8358528265652136e+01 -2 -1 0
780 1 1.3266465681666155e+00 4.7975157924242723e+01 1.8610803844260840e+01 0 1 0
79 1 3.3012021997207308e-01 2.7253602820510896e+01 2.1688970017323502e+01 4 1 1
882 1 1.3067904817183218e+00 3.1838383049278598e+01 2.1576849240348203e+01 3 -1 0
2042 1 9.8375048674404431e-01 4.3194301387747174e+01 2.5657141406959713e+01 -3 1 -1
3055 1 1.3937139304462531e+00 3.6607306549681390e+01 1.4499206979555680e+01 -2 0 0
2882 1 9.9519394332180780e-02 3.8840154369776386e+01 2.2557388748331682e+01 1 0 0
787 1 7.8438942478541773e-01 4.3317958548856168e+01 2.3033244838416046e+01 2 1 0
2097 1 1.2556038849150823e+00 4.8180659141958969e+01 2.2883128882992860e+01 1 2 0
2978 1 1.7366483014074810e-01 3.8662689824041159e+01 2.5208503684349015e+01 0 -1 0
46 1 1.4208539148006047e+00 4.1159362613344399e+01 1.4431876189042899e+01 2 -1 0
2040 1 2.0564034555508395e-01 3.4134592281139298e+01 1.7966825263112124e+01 0 -3 -1
3058 1 5.1372747920455722e-02 3.8961963102048202e+01 1.7972769993557179e+01 2 -2 0
2849 1 1.6877764266282380e-01 3.4423622234778456e+01 1.5239267658877697e+01 3 -4 0
900 1 1.6366719653091775e+00 4.1132806818645037e+01 1.1769850361006696e+01 -2 0 1
2965 1 6.9955949765869718e-03 3.4124752760253948e+01 2.5018764212469659e+01 -1 -2 0
96 2 2.4610000000000003e+00 2.8417180249513345e+00 2.6411075899937035e+00 0 0 0
98 2 2.4610000000000003e+00 0.0000000000000000e+00 2.6411075899937035e+00 0 0 0
111 2 2.4610000000000003e+00 4.2625770374269996e+00 2.6411075899937035e+00 0 0 0
109 2 2.4610000000000003e+00 7.1042950623783341e+00 2.6411075899937035e+00 0 0 0
132 2 2.4610000000000003e+00 8.5251540748539991e+00 2.6411075899937035e+00 0 0 0
130 2 2.4610000000000003e+00 1.1366872099805333e+01 2.6411075899937035e+00 0 0 0
161 2 2.4610000000000003e+00 1.2787731112280996e+01 2.6411075899937035e+00 0 0 0
159 2 2.4610000000000003e+00 1.5629449137232328e+01 2.6411075899937035e+00 0 0 0
198 2 2.4610000000000003e+00 1.7050308149707998e+01 2.6411075899937035e+00 0 0 0
196 2 2.4610000000000003e+00 1.9892026174659328e+01 2.6411075899937035e+00 0 0 0
235 2 2.4610000000000003e+00 2.4154603212086325e+01 2.6411075899937035e+00 0 0 0
237 2 2.4610000000000003e+00 2.1312885187134995e+01 2.6411075899937035e+00 0 0 0
97 2 2.4610000000000003e+00 1.4208590124756650e+00 5.7309969182415612e+00 0 0 0
99 2 2.4610000000000003e+00 0.0000000000000000e+00 5.7309969182415612e+00 0 0 0
110 2 2.4610000000000003e+00 5.6834360499026637e+00 5.7309969182415612e+00 0 0 0
112 2 2.4610000000000003e+00 4.2625770374269996e+00 5.7309969182415612e+00 0 0 0
131 2 2.4610000000000003e+00 9.9460130873296642e+00 5.7309969182415612e+00 0 0 0
133 2 2.4610000000000003e+00 8.5251540748539991e+00 5.7309969182415612e+00 0 0 0
162 2 2.4610000000000003e+00 1.2787731112280996e+01 5.7309969182415612e+00 0 0 0
160 2 2.4610000000000003e+00 1.4208590124756663e+01 5.7309969182415612e+00 0 0 0
199 2 2.4610000000000003e+00 1.7050308149707998e+01 5.7309969182415612e+00 0 0 0
197 2 2.4610000000000003e+00 1.8471167162183658e+01 5.7309969182415612e+00 0 0 0
236 2 2.4610000000000003e+00 2.2733744199610655e+01 5.7309969182415612e+00 0 0 0
238 2 2.4610000000000003e+00 2.1312885187134995e+01 5.7309969182415612e+00 0 0 0
419 2 2.4610000000000003e+00 2.8417180249513345e+00 8.8208862464916038e+00 0 0 0
420 2 2.4610000000000003e+00 0.0000000000000000e+00 8.8208862464916038e+00 0 0 0
4020 1 2.4700150055411814e+00 1.0701949403540634e+00 1.1809626412493294e+01 -1 2 -1
427 2 2.4610000000000003e+00 4.2625770374269996e+00 8.8208862464916038e+00 0 0 0
1064 1 1.9249243129501186e+00 8.4287281433473336e+00 2.5099366824957258e+01 -4 -3 0
426 2 2.4610000000000003e+00 7.1042950623783341e+00 8.8208862464916038e+00 0 0 0
438 2 2.4610000000000003e+00 8.5251540748539991e+00 8.8208862464916038e+00 0 0 0
1936 1 1.9902468051532132e+00 8.1599850436970289e+00 1.5347165450914547e+01 3 1 0
437 2 2.4610000000000003e+00 1.1366872099805333e+01 8.8208862464916038e+00 0 0 0
453 2 2.4610000000000003e+00 1.2787731112280996e+01 8.8208862464916038e+00 0 0 0
2826 1 2.0813251264526689e+00 1.2975295540956624e+01 1.1579425334325915e+01 3 -2 0
452 2 2.4610000000000003e+00 1.5629449137232328e+01 8.8208862464916038e+00 0 0 0
472 2 2.4610000000000003e+00 1.7050308149707998e+01 8.8208862464916038e+00 0 0 0
2829 1 2.9523729951071869e+00 1.7781294686233977e+01 1.0941731487088804e+01 0 1 1
471 2 2.4610000000000003e+00 1.9892026174659328e+01 8.8208862464916038e+00 0 0 0
491 2 2.4610000000000003e+00 2.4154603212086325e+01 8.8208862464916038e+00 0 0 0
492 2 2.4610000000000003e+00 2.1312885187134995e+01 8.8208862464916038e+00 0 0 0
3934 1 2.1982017494027746e+00 8.2883240572391728e+00 1.8099132279906637e+01 -6 2 0
1011 1 2.6350058275983272e+00 1.3237960967418760e+00 1.4685314579093889e+01 1 0 0
4051 1 2.9267212950940489e+00 5.6972460870371719e+00 1.4686343504804961e+01 -1 -1 0
2022 1 3.1149079501721966e+00 5.8496827159916940e+00 1.1852865291230337e+01 0 2 0
1984 1 2.5943065324375438e+00 1.5113158199173926e+00 2.5793776817141460e+01 0 -1 0
2887 1 2.2809689608042985e+00 1.2769713367681696e+01 1.4868646881729447e+01 3 2 0
4034 1 2.9886014065920503e+00 1.7319043387726452e+01 1.5887709369590327e+01 4 2 -1
2962 1 2.7642634099594390e+00 1.3029595921517121e+00 1.9473226672953512e+01 -1 -1 1
2964 1 3.1439131922906114e+00 1.7344048681653142e+01 2.5375742530960210e+01 3 -1 0
942 1 2.1004641264185371e+00 8.2931109041761957e+00 1.1380673485881353e+01 0 0 -1
1844 1 3.0899466201527388e+00 2.1886638373803436e+01 1.1251992358939630e+01 0 -1 1
81 1 2.2765971986135294e+00 1.2816364401477751e+01 1.7704909909448972e+01 1 -3 0
3106 1 2.9570694184858888e+00 1.7343850785816329e+01 1.8705777848674749e+01 -1 -1 1
3958 1 1.7381970389652177e+00 3.6908757039299944e+00 1.1169638327766283e+01 0 2 0
33 1 3.0591495851674950e+00 2.2176811198185458e+01 1.5724135046857654e+01 1 -3 -1
1995 1 2.8382794101835396e+00 1.2800418949557049e+00 2.2004291786008249e+01 1 0 1
2928 1 2.7097319149770045e+00 1.2860242674125555e+01 2.5012176271283064e+01 2 -2 0
3899 1 3.1104500544912179e+00 6.0060076629591226e+00 2.5597440475073203e+01 -2 1 0
4045 1 3.0402513130720306e+00 2.2004925666598577e+01 1.8613168486292615e+01 0 -1 0
990 1 2.4468226289543340e+00 1.2887547806387259e+01 2.2359424130916995e+01 1 0 -1
1899 1 2.8463744129275494e+00 1.7291188088931641e+01 2.2326407618800815e+01 0 1 0
1039 1 3.1651578003714578e+00 2.2081081340905197e+01 2.2475236064000715e+01 -3 -1 1
1810 1 1.7492422886240202e+00 8.1611171886404072e+00 2.2383699719594162e+01 -2 1 0
1921 1 3.0429403279090459e+00 2.2560162929438832e+01 2.5249109198463220e+01 -1 -3 0
2074 1 1.8144974806292238e+00 3.6322298309578165e+00 1.8433035503033601e+01 2 0 0
1053 1 1.8617844160325063e+00 3.9359912819985112e+00 2.2213711224760292e+01 0 2 0
1144 2 2.4610000000000003e+00 2.5575462224561992e+01 2.6411075899937035e+00 0 0 0
1142 2 2.4610000000000003e+00 2.8417180249513326e+01 2.6411075899937035e+00 0 0 0
1158 2 2.4610000000000003e+00 2.9838039261988989e+01 2.6411075899937035e+00 0 0 0
1156 2 2.4610000000000003e+00 3.2679757286940337e+01 2.6411075899937035e+00 0 0 0
1180 2 2.4609999999999985e+00 3.4100616299415996e+01 2.6411075899937035e+00 0 0 0
1178 2 2.4610000000000021e+00 3.6942334324367337e+01 2.6411075899937035e+00 0 0 0
1210 2 2.4610000000000003e+00 3.8363193336842990e+01 2.6411075899937035e+00 0 0 0
1208 2 2.4610000000000003e+00 4.1204911361794323e+01 2.6411075899937035e+00 0 0 0
1245 2 2.4610000000000003e+00 4.5467488399221331e+01 2.6411075899937035e+00 0 0 0
1247 2 2.4610000000000003e+00 4.2625770374269997e+01 2.6411075899937035e+00 0 0 0
1284 2 2.4609999999999985e+00 4.6888347411696998e+01 2.6411075899937035e+00 0 0 0
1143 2 2.4610000000000003e+00 2.6996321237037659e+01 5.7309969182415612e+00 0 0 0
1145 2 2.4610000000000003e+00 2.5575462224561992e+01 5.7309969182415612e+00 0 0 0
1157 2 2.4609999999999985e+00 3.1258898274464656e+01 5.7309969182415612e+00 0 0 0
1159 2 2.4610000000000003e+00 2.9838039261988989e+01 5.7309969182415612e+00 0 0 0
1181 2 2.4609999999999985e+00 3.4100616299415996e+01 5.7309969182415612e+00 0 0 0
1179 2 2.4609999999999985e+00 3.5521475311891663e+01 5.7309969182415612e+00 0 0 0
1211 2 2.4610000000000003e+00 3.8363193336842990e+01 5.7309969182415612e+00 0 0 0
1209 2 2.4610000000000003e+00 3.9784052349318657e+01 5.7309969182415612e+00 0 0 0
1246 2 2.4610000000000003e+00 4.4046629386745657e+01 5.7309969182415612e+00 0 0 0
1248 2 2.4610000000000003e+00 4.2625770374269997e+01 5.7309969182415612e+00 0 0 0
1283 2 2.4609999999999985e+00 4.8309206424172650e+01 5.7309969182415612e+00 0 0 0
1285 2 2.4609999999999985e+00 4.6888347411696998e+01 5.7309969182415612e+00 0 0 0
1451 2 2.4610000000000003e+00 2.5575462224561992e+01 8.8208862464916038e+00 0 0 0
1450 2 2.4610000000000003e+00 2.8417180249513326e+01 8.8208862464916038e+00 0 0 0
1458 2 2.4610000000000003e+00 2.9838039261988989e+01 8.8208862464916038e+00 0 0 0
1457 2 2.4610000000000003e+00 3.2679757286940337e+01 8.8208862464916038e+00 0 0 0
1469 2 2.4609999999999985e+00 3.4100616299415996e+01 8.8208862464916038e+00 0 0 0
1468 2 2.4610000000000021e+00 3.6942334324367337e+01 8.8208862464916038e+00 0 0 0
1484 2 2.4610000000000003e+00 3.8363193336842990e+01 8.8208862464916038e+00 0 0 0
1483 2 2.4610000000000003e+00 4.1204911361794323e+01 8.8208862464916038e+00 0 0 0
2019 1 2.3810977166859835e+00 4.5683491424781288e+01 2.2028605153186611e+01 1 -2 0
1501 2 2.4610000000000003e+00 4.5467488399221331e+01 8.8208862464916038e+00 0 0 0
1502 2 2.4610000000000003e+00 4.2625770374269997e+01 8.8208862464916038e+00 0 0 0
1520 2 2.4609999999999985e+00 4.6888347411696998e+01 8.8208862464916038e+00 0 0 0
3137 1 1.8336534362830019e+00 4.0673929607092248e+01 2.5844992095572501e+01 3 1 0
2099 1 2.5711222195339247e+00 4.5351184329741493e+01 2.5597596713320396e+01 -1 -2 1
926 1 2.0558555080904011e+00 4.5879975110685294e+01 1.4761749418186714e+01 1 -1 -1
1016 1 2.4297595643987369e+00 4.5656685979236897e+01 1.9252062126553156e+01 -2 -3 -1
55 1 1.8455250946355855e+00 3.6698249640180116e+01 1.1850566801319305e+01 -1 0 -1
2866 1 3.1234227048310284e+00 2.6768874225413093e+01 1.5332416032262403e+01 1 0 1
3835 1 2.4818801929616656e+00 4.5755576401569911e+01 1.1989727871411350e+01 -2 -1 0
2901 1 1.7604568102697709e+00 4.1128052193475305e+01 2.1821814811606387e+01 1 -1 -1
4032 1 1.7866103870869487e+00 4.1100460629833321e+01 1.8951995908718413e+01 4 0 1
1910 1 3.1170766079794894e+00 2.7246138663704905e+01 2.5205987765575173e+01 0 -3 0
1918 1 2.9706128065254496e+00 2.6874063241618103e+01 2.2220047786962031e+01 -3 -2 0
3081 1 3.2779760663804534e+00 2.6853352142038968e+01 1.1323064239073259e+01 1 -1 1
869 1 3.3733035015720727e+00 2.6788858611941357e+01 1.8098555519688812e+01 2 -2 0
100 2 3.6915000000000004e+00 7.1042950623783474e-01 2.6411075899937035e+00 0 0 0
115 2 3.6914999999999996e+00 2.1312885187134998e+00 2.6411075899937035e+00 0 0 0
117 2 4.9220000000000006e+00 2.8417180249513332e+00 2.6411075899937035e+00 0 0 0
119 2 4.9220000000000006e+00 0.0000000000000000e+00 2.6411075899937035e+00 0 0 0
113 2 3.6914999999999996e+00 4.9730065436648339e+00 2.6411075899937035e+00 0 0 0
136 2 3.6914999999999996e+00 6.3938655561404980e+00 2.6411075899937035e+00 0 0 0
140 2 4.9220000000000006e+00 4.2625770374269978e+00 2.6411075899937035e+00 0 0 0
134 2 3.6915000000000004e+00 9.2355835810918343e+00 2.6411075899937035e+00 0 0 0
138 2 4.9220000000000006e+00 7.1042950623783341e+00 2.6411075899937035e+00 0 0 0
169 2 4.9220000000000006e+00 8.5251540748539991e+00 2.6411075899937035e+00 0 0 0
163 2 3.6915000000000004e+00 1.3498160618518829e+01 2.6411075899937035e+00 0 0 0
165 2 3.6914999999999996e+00 1.0656442593567499e+01 2.6411075899937035e+00 0 0 0
167 2 4.9220000000000006e+00 1.1366872099805333e+01 2.6411075899937035e+00 0 0 0
206 2 4.9220000000000006e+00 1.2787731112280996e+01 2.6411075899937035e+00 0 0 0
202 2 3.6915000000000004e+00 1.4919019630994494e+01 2.6411075899937035e+00 0 0 0
204 2 4.9220000000000006e+00 1.5629449137232333e+01 2.6411075899937035e+00 0 0 0
245 2 4.9220000000000006e+00 1.7050308149707998e+01 2.6411075899937035e+00 0 0 0
200 2 3.6914999999999996e+00 1.7760737655945832e+01 2.6411075899937035e+00 0 0 0
241 2 3.6914999999999996e+00 1.9181596668421495e+01 2.6411075899937035e+00 0 0 0
243 2 4.9220000000000006e+00 1.9892026174659328e+01 2.6411075899937035e+00 0 0 0
239 2 3.6914999999999996e+00 2.2023314693372832e+01 2.6411075899937035e+00 0 0 0
280 2 3.6915000000000004e+00 2.3444173705848499e+01 2.6411075899937035e+00 0 0 0
282 2 4.9220000000000006e+00 2.4154603212086325e+01 2.6411075899937035e+00 0 0 0
284 2 4.9220000000000006e+00 2.1312885187134995e+01 2.6411075899937035e+00 0 0 0
116 2 3.6914999999999996e+00 2.1312885187134998e+00 5.7309969182415612e+00 0 0 0
118 2 4.9220000000000006e+00 1.4208590124756650e+00 5.7309969182415612e+00 0 0 0
120 2 4.9220000000000006e+00 0.0000000000000000e+00 5.7309969182415612e+00 0 0 0
114 2 3.6914999999999996e+00 3.5521475311891644e+00 5.7309969182415612e+00 0 0 0
137 2 3.6914999999999996e+00 6.3938655561404980e+00 5.7309969182415612e+00 0 0 0
139 2 4.9220000000000006e+00 5.6834360499026637e+00 5.7309969182415612e+00 0 0 0
141 2 4.9220000000000006e+00 4.2625770374269978e+00 5.7309969182415612e+00 0 0 0
135 2 3.6914999999999996e+00 7.8147245686161639e+00 5.7309969182415612e+00 0 0 0
168 2 4.9220000000000006e+00 9.9460130873296642e+00 5.7309969182415612e+00 0 0 0
170 2 4.9220000000000006e+00 8.5251540748539991e+00 5.7309969182415612e+00 0 0 0
164 2 3.6914999999999996e+00 1.2077301606043163e+01 5.7309969182415612e+00 0 0 0
166 2 3.6914999999999996e+00 1.0656442593567499e+01 5.7309969182415612e+00 0 0 0
207 2 4.9220000000000006e+00 1.2787731112280996e+01 5.7309969182415612e+00 0 0 0
201 2 3.6915000000000004e+00 1.6339878643470165e+01 5.7309969182415612e+00 0 0 0
203 2 3.6915000000000004e+00 1.4919019630994494e+01 5.7309969182415612e+00 0 0 0
205 2 4.9220000000000006e+00 1.4208590124756663e+01 5.7309969182415612e+00 0 0 0
246 2 4.9220000000000006e+00 1.7050308149707998e+01 5.7309969182415612e+00 0 0 0
240 2 3.6915000000000004e+00 2.0602455680897162e+01 5.7309969182415612e+00 0 0 0
242 2 3.6914999999999996e+00 1.9181596668421495e+01 5.7309969182415612e+00 0 0 0
244 2 4.9220000000000006e+00 1.8471167162183658e+01 5.7309969182415612e+00 0 0 0
281 2 3.6915000000000004e+00 2.3444173705848499e+01 5.7309969182415612e+00 0 0 0
283 2 4.9220000000000006e+00 2.2733744199610655e+01 5.7309969182415612e+00 0 0 0
285 2 4.9220000000000006e+00 2.1312885187134995e+01 5.7309969182415612e+00 0 0 0
421 2 3.6915000000000004e+00 7.1042950623783474e-01 8.8208862464916038e+00 0 0 0
429 2 3.6914999999999996e+00 2.1312885187134998e+00 8.8208862464916038e+00 0 0 0
430 2 4.9220000000000006e+00 2.8417180249513332e+00 8.8208862464916038e+00 0 0 0
431 2 4.9220000000000006e+00 0.0000000000000000e+00 8.8208862464916038e+00 0 0 0
428 2 3.6914999999999996e+00 4.9730065436648339e+00 8.8208862464916038e+00 0 0 0
440 2 3.6914999999999996e+00 6.3938655561404980e+00 8.8208862464916038e+00 0 0 0
442 2 4.9220000000000006e+00 4.2625770374269978e+00 8.8208862464916038e+00 0 0 0
439 2 3.6915000000000004e+00 9.2355835810918343e+00 8.8208862464916038e+00 0 0 0
441 2 4.9220000000000006e+00 7.1042950623783341e+00 8.8208862464916038e+00 0 0 0
457 2 4.9220000000000006e+00 8.5251540748539991e+00 8.8208862464916038e+00 0 0 0
454 2 3.6915000000000004e+00 1.3498160618518829e+01 8.8208862464916038e+00 0 0 0
455 2 3.6914999999999996e+00 1.0656442593567499e+01 8.8208862464916038e+00 0 0 0
456 2 4.9220000000000006e+00 1.1366872099805333e+01 8.8208862464916038e+00 0 0 0
476 2 4.9220000000000006e+00 1.2787731112280996e+01 8.8208862464916038e+00 0 0 0
1828 1 3.4459589239749500e+00 1.5223653510220650e+01 1.4564934269139043e+01 -1 2 0
474 2 3.6915000000000004e+00 1.4919019630994494e+01 8.8208862464916038e+00 0 0 0
475 2 4.9220000000000006e+00 1.5629449137232333e+01 8.8208862464916038e+00 0 0 0