
# Create simulation box and atoms

read_data data.ML_graphite_1atm_240K
  orthogonal box = (0 0 2.08296) to (49.22 49.0196 25.7579)
  29 by 2 by 1 MPI processor grid
  reading atoms ...
  4065 atoms
  reading velocities ...
  4065 velocities
group water type 1
1305 atoms in group water
group graphite type 2
2760 atoms in group graphite

# Define potential

pair_style sw
pair_coeff * * MLC_e.sw mW C


# Fix graphite atoms in place

fix 5 graphite setforce 0.0 0.0 0.0
velocity graphite set 0.0 0.0 0.0


# Equilibration of molecular water

# Add velocity/set timestep

velocity	    water create ${TEMP} ${SEED} rot yes dist gaussian
velocity	    water create 240 ${SEED} rot yes dist gaussian
velocity	    water create 240 20366 rot yes dist gaussian
timestep	    5.0

# Define output

compute			1 water msd
compute			3 water temp
thermo	    	50
thermo_style	custom step temp press vol etotal ke pe c_1[4] c_3

# Neighbor lists

neigh_modify    delay 0 every 1 check yes

# Set fixes

fix             1 water momentum 10 linear 1 1 1 rescale
fix             2 water nve
fix             3 water temp/csvr ${TEMP} ${TEMP} 500.0 ${SEED}
fix             3 water temp/csvr 240 ${TEMP} 500.0 ${SEED}
fix             3 water temp/csvr 240 240 500.0 ${SEED}
fix             3 water temp/csvr 240 240 500.0 20366
fix             4 water press/berendsen z ${PRES} ${PRES} 1000.0 modulus 20000
fix             4 water press/berendsen z 1 ${PRES} 1000.0 modulus 20000
fix             4 water press/berendsen z 1 1 1000.0 modulus 20000

# Run 0.5 ns equilibration

dump		    1 all atom 2000 ${DIR}/eq.${NAME}-${TEMP}.dump
dump		    1 all atom 2000 run_9/eq.${NAME}-${TEMP}.dump
dump		    1 all atom 2000 run_9/eq.het_freeze_9-${TEMP}.dump
dump		    1 all atom 2000 run_9/eq.het_freeze_9-240.dump

reset_timestep  0

run	            100000
Neighbor list info ...
  update every 1 steps, delay 0 steps, check yes
  max neighbors/atom: 2000, page size: 100000
  master list distance cutoff = 6.67472
  ghost atom cutoff = 6.67472
  binsize = 3.33736, bins = 15 15 8
  1 neighbor lists, perpetual/occasional/extra = 1 0 0
  (1) pair sw, perpetual
      attributes: full, newton on
      pair build: full/bin/atomonly
      stencil: full/bin/3d
      bin: standard
WARNING: Proc sub-domain size < neighbor skin, could lead to lost atoms (../domain.cpp:937)
Per MPI rank memory allocation (min/avg/max) = 4.143 | 4.286 | 4.517 Mbytes
Step Temp Press Volume TotEng KinEng PotEng c_1[4] c_3 
       0    77.007874   -452.08497    57121.581   -12745.801    932.87431   -13678.675            0          240 
      50    79.358591   -465.69733     57170.76   -12735.238    961.35092   -13696.589   0.50568953    247.32616 
     100    79.136179   -526.58445    57177.751   -12725.782    958.65663   -13684.438   0.84662179      246.633 
     150    77.684141   -960.71596    57199.375    -12736.48    941.06661   -13677.547     1.063475    242.10763 
     200    75.828843    -219.3576    57179.472   -12740.164    918.59151   -13658.755    1.3465768    236.32547 
     250    75.447248   -783.41876    57151.163   -12752.973    913.96887   -13666.942    1.6068056    235.13621 
     300    75.506837   -543.76145    57119.284   -12763.094    914.69073   -13677.785    1.8459137    235.32192 
     350    76.256914   -200.85994     57153.38   -12764.662    923.77718    -13688.44    2.0548716    237.65959 
     400    76.232844   -234.00775    57195.393   -12754.266    923.48559   -13677.751    2.2697041    237.58457 
     450    78.893504   -864.38811    57185.808   -12756.598    955.71686   -13712.315    2.5650993    245.87669 
     500    76.255246   -475.45199    57204.239   -12745.531    923.75696   -13669.288    2.8321711    237.65438 
     550    78.350686   -571.77309     57232.07   -12745.376    949.14115   -13694.517    3.1033207    244.18496 
     600    79.576586   -668.19003    57204.855   -12714.515    963.99172   -13678.506    3.3866699    248.00556 
     650     75.55179   -942.13944     57195.77    -12705.03     915.2353   -13620.266    3.6090164    235.46202 
     700    77.673721   -291.86064    57206.554   -12721.906     940.9404   -13662.847    3.8422381    242.07516 
     750    75.726681   -578.07073    57230.415   -12721.145    917.35393   -13638.498    4.0817681    236.00708 
     800    76.877763   -3.0533662    57217.316   -12723.053    931.29814   -13654.351    4.3281012     239.5945 
     850     78.21458    -352.9415    57172.229   -12756.726    947.49236   -13704.219    4.5539753    243.76078 
     900    75.716935   -534.30952    57168.648   -12768.106    917.23586   -13685.342    4.7754834    235.97671 
     950    76.372622   -410.18102    57177.613   -12774.944    925.17887   -13700.123    5.0305136     238.0202 
    1000    77.022651   -386.84401    57195.704   -12765.479    933.05332   -13698.533    5.2410246    240.04605 
    1050    77.924674   -383.76894    57194.311   -12761.261    943.98044   -13705.241     5.551702    242.85727 
    1100    77.391182   -643.52206    57209.301   -12765.996    937.51772   -13703.514     5.868705    241.19461 
    1150    78.837503   -270.88955    57239.451   -12762.845    955.03846   -13717.883    6.0533912    245.70216 
    1200    80.125802   -892.54904     57273.89   -12744.164    970.64493   -13714.809    6.3146347    249.71722 
    1250    77.179781   -452.77126    57305.391   -12818.407     934.9568   -13753.364    6.5126857    240.53576 
    1300     78.43041   -602.49568    57324.111   -12825.733    950.10694    -13775.84    6.6573416    244.43343 
    1350    75.895919   -253.37305    57363.246   -12813.819    919.40408   -13733.223    6.7833212    236.53452 
    1400    78.032444   -508.37486    57358.994   -12801.998    945.28596   -13747.284    6.8772996    243.19314 
    1450     73.90919   -859.65923    57412.474   -12807.775    895.33682   -13703.112    7.0319427    230.34275 
    1500    77.411977   -300.24934    57452.773   -12786.261    937.76963    -13724.03    7.2327351    241.25941 
    1550    78.361025   -384.89594    57529.226   -12749.098     949.2664   -13698.365    7.4249944    244.21718 
    1600    75.818723   -312.05928    57593.465   -12783.315    918.46892   -13701.784    7.6203014    236.29393 
    1650     76.76604   -653.25036    57587.534   -12753.236    929.94473   -13683.181    7.9325512    239.24631 
    1700    80.660075   -726.92698    57542.662   -12731.831    977.11712   -13708.948    8.0975718    251.38232 
    1750    78.113254   -500.14136    57579.752    -12716.37     946.2649   -13662.635    8.2277893    243.44499 
    1800    76.331808   -459.05937    57647.105   -12741.681    924.68444   -13666.366    8.4821256      237.893 
    1850    76.238447   -627.72429    57619.135   -12784.102    923.55346   -13707.656    8.7575104    237.60203 
    1900    76.289263   -415.04221    57611.454   -12778.184    924.16905   -13702.353    8.7221996     237.7604 
    1950    75.737694   -464.18085    57555.552   -12775.454    917.48733   -13692.941    8.7570051     236.0414 
    2000     78.55966   -473.46943    57606.361   -12749.454    951.67266   -13701.127    9.0930948    244.83624 
    2050    78.403506   -348.63185    57619.494   -12750.438    949.78101   -13700.219    9.4784848    244.34958 
    2100    78.275559   -569.40138    57621.295   -12715.637    948.23107   -13663.868    9.5385401    243.95082 
    2150     74.63304   -393.77476    57647.496   -12732.568    904.10555   -13636.674     9.495825    232.59868 
    2200    79.005206   -567.10927    57607.803   -12755.783    957.07002   -13712.853    9.8267795    246.22481 
    2250     77.21919   -652.36523    57563.022   -12763.567     935.4342   -13699.001    9.9292214    240.65858 
    2300    77.247014   -448.97767    57544.651   -12752.225    935.77126   -13687.996     10.00963     240.7453 
    2350    80.854806   -95.310061    57583.427   -12726.098     979.4761   -13705.574    10.019313    251.98921 
    2400    76.438453   -957.61677     57627.82   -12750.086    925.97634   -13676.063    10.200716    238.22536 
    2450     76.11922   -600.38972    57597.284    -12750.27    922.10915   -13672.379    10.328894    237.23045 
    2500    78.091367   -419.66175      57568.9   -12738.089    945.99976   -13684.089    10.505168    243.37677 
    2550    78.452635   -482.51437    57612.417   -12763.169    950.37617   -13713.545    10.808935    244.50269 
    2600    77.227714    -896.4172    57603.352   -12772.367    935.53746   -13707.905    11.087832    240.68515 
    2650    77.665432   -737.45528    57549.267    -12755.42    940.83998    -13696.26    11.107386    242.04932 
    2700    75.072792    -752.9868    57435.989   -12756.513     909.4327   -13665.946    11.358717    233.96919 
    2750    74.349723   -682.16514    57390.072   -12770.294    900.67344   -13670.968    11.559411     231.7157 
    2800    75.940411   -466.28809    57447.952   -12791.593    919.94306   -13711.536    11.627775    236.67318 
    2850    78.082081   -50.956494    57564.935   -12768.781    945.88727   -13714.668     11.83851    243.34784 
    2900    77.381245   -575.57274    57642.148   -12789.829    937.39733   -13727.227    12.141078    241.16363 
    2950    75.031429   -175.04671    57726.339   -12771.321    908.93164   -13680.253    12.451688    233.84028 
    3000    76.879831   -774.58583    57797.461   -12762.936     931.3232   -13694.259     12.55979    239.60095 
    3050    79.130143   -506.30461    57850.008   -12755.215    958.58351   -13713.798    12.746874    246.61419 
    3100    78.981461   -499.84209    57902.846   -12758.147    956.78238   -13714.929    13.144841    246.15081 
    3150    78.097801   -429.75508    57928.594   -12748.773     946.0777    -13694.85    13.197931    243.39683 
    3200    77.884443   -573.72218    57910.109   -12756.316    943.49308   -13699.809    13.371705    242.73188 
    3250    77.289453   -754.64875    57861.524   -12727.991    936.28537   -13664.276    13.435889    240.87756 
    3300    80.701876   -729.39279    57865.492   -12718.621     977.6235   -13696.244    13.495736    251.51259 
    3350     79.02315   -690.53388    57888.688   -12732.227    957.28739   -13689.514    13.711909    246.28074 
    3400    75.771043   -590.12501    57854.065   -12767.362    917.89133   -13685.254    13.700777    236.14534 
    3450     77.44167   -823.45802    57868.533   -12749.489    938.12932   -13687.618    13.792545    241.35195 
    3500    80.021178   -609.82435    57873.231   -12753.267    969.37752   -13722.645    14.065712    249.39116 
    3550    79.312898   -581.35191    57881.248   -12736.193     960.7974    -13696.99    14.220584    247.18376 
    3600    76.482466   -576.64505    57907.058   -12759.129    926.50951   -13685.638    14.485853    238.36253 
    3650    74.417285   -785.33383    57931.801   -12767.924    901.49189   -13669.416    14.598021    231.92626 
    3700    77.499263   -867.87443    57911.256   -12767.295    938.82701   -13706.122     14.56882    241.53145 
    3750     76.51548   -707.23532     57873.69   -12771.314    926.90945   -13698.223    14.757122    238.46542 
    3800    76.454345   -422.15959    57838.212   -12778.096    926.16886   -13704.265    15.090694    238.27489 
    3850     77.37745   -651.21417    57826.037   -12796.927    937.35137   -13734.279    15.439252    241.15181 
    3900    76.514866   -580.57128    57820.329   -12795.393    926.90201   -13722.295    15.882182    238.46351 
    3950    76.560657   -675.26247    57805.509   -12769.286    927.45672   -13696.743    16.131906    238.60622 
    4000    75.330856    -880.3274    57748.377   -12781.968     912.5589   -13694.527    16.418788    234.77347 
    4050    75.443664   -689.59125    57674.685   -12773.406    913.92545   -13687.332     16.81522    235.12504 
    4100    77.171518   -784.48037    57670.484   -12771.732     934.8567   -13706.589    16.871998    240.51001 
    4150    77.925404   -265.98164    57646.721   -12733.951    943.98928   -13677.941    17.094245    242.85954 
    4200    78.510277   -865.93122    57626.922     -12741.4    951.07444   -13692.474    17.380871    244.68234 
    4250    77.521787   -689.61232    57585.454   -12736.151    939.09986   -13675.251    17.394315    241.60164 
    4300    75.147341   -833.77454    57547.237   -12770.186    910.33579   -13680.522    17.376034    234.20153 
    4350    75.738781   -371.33525    57481.979   -12780.501     917.5005   -13698.001    17.413751    236.04479 
    4400     76.92668   -936.22573    57512.124   -12775.741    931.89072   -13707.632    17.515361    239.74695 
    4450    78.383066   -410.92467    57455.914     -12768.6     949.5334   -13718.134    18.013216    244.28587 
    4500    77.688682   -419.92602    57456.608   -12734.842    941.12163   -13675.964    18.571575    242.12178 
    4550    77.821582   -426.22835     57457.76   -12766.754    942.73158   -13709.485    18.952079    242.53597 
    4600    78.243362   -907.07116    57423.674   -12774.437    947.84103   -13722.278     19.00537    243.85048 
    4650    76.430087   -1085.2173    57395.601     -12779.5    925.87499   -13705.375    18.956815    238.19929 
    4700    78.633075    -793.5365     57354.47   -12800.706    952.56202   -13753.269    19.368572    245.06504 
    4750      76.3431   -562.84452    57368.036   -12797.261    924.82124   -13722.082    19.527369    237.92819 
    4800    74.569245   -521.97238    57388.615   -12819.296    903.33273   -13722.629    19.752758    232.39985 
    4850    76.082917   -635.27078    57364.768   -12818.141    921.66937   -13739.811    20.200956    237.11731 
    4900    75.703331   -508.36658      57422.2   -12825.079    917.07106    -13742.15    20.706649    235.93431 
    4950    76.299122   -83.752621    57482.696   -12836.089    924.28848   -13760.378    21.045548    237.79113 
    5000    74.831064   -524.62746    57505.857   -12820.582    906.50441   -13727.086    21.058907    233.21583 
    5050    77.710705    -62.60109    57550.864   -12822.235    941.38841   -13763.623    21.159184    242.19042 
    5100    78.615369   -399.73031    57535.334   -12815.249    952.34752   -13767.597     21.41203    245.00986 
    5150    75.904136   -34.965733    57532.119   -12803.584    919.50362   -13723.087    21.632006    236.56013 
    5200    77.917365   -597.79925    57515.886    -12822.46     943.8919   -13766.352    21.763841    242.83449 
    5250     75.30128   -718.28547    57516.544   -12836.388    912.20061   -13748.588    21.485947    234.68129 
    5300    75.130977   -431.87137    57519.757   -12837.536    910.13756   -13747.673    21.447127    234.15053 
    5350    72.446122   -533.09837    57506.947   -12852.166     877.6132   -13729.779    21.379592    225.78301 
    5400    75.663114   -407.66366    57517.678   -12834.927    916.58388   -13751.511    21.479077    235.80897 
    5450    73.723616   -434.66892        57532   -12848.479    893.08877   -13741.567    21.547713     229.7644 
    5500    75.613268   -648.10767    57576.288   -12834.678    915.98004   -13750.658    21.743775    235.65362 
    5550    73.518836   -525.61047    57531.708   -12826.898    890.60807   -13717.506      21.9462    229.12619 
    5600    75.654689   -345.78165    57508.572    -12819.99    916.48181   -13736.471     22.16428    235.78271 
    5650    77.200202   -337.01599    57543.934   -12820.751    935.20417   -13755.955    22.369624     240.5994 
    5700    75.647163   -390.59573    57583.998   -12791.495    916.39064   -13707.885    22.363401    235.75926 
    5750    78.572839   -291.43698    57601.333   -12793.065    951.83232   -13744.897     22.72319    244.87732 
    5800    76.322781   -614.75322    57587.052   -12778.512    924.57509   -13703.087    22.918603    237.86486 
    5850    76.632142   -756.07686    57563.051   -12773.067    928.32269    -13701.39    23.060815    238.82901 
    5900    76.915915    -794.5413    57545.316   -12763.159    931.76031   -13694.919    23.323604     239.7134 
    5950     79.36362   -205.36019    57544.194   -12738.742    961.41185   -13700.154    23.471174    247.34184 
    6000    76.605399   -944.11161    57486.164   -12774.887    927.99872   -13702.885    23.592632    238.74566 
    6050     77.35531    -612.3941    57463.231   -12789.901    937.08315   -13726.985    23.642601    241.08281 
    6100    77.536119    -821.7274    57428.428   -12768.915    939.27348   -13708.189    24.014064    241.64631 
    6150    78.424891   -589.05989    57389.375   -12758.246    950.04008   -13708.286     24.53694    244.41623 
    6200     76.17342   -648.57079    57371.018   -12758.103    922.76573   -13680.868    24.958096    237.39937 
    6250    76.885068   -939.16428    57359.295   -12783.802    931.38664   -13715.189    25.052031    239.61727 
    6300    75.268223    -1066.913    57341.349   -12819.799    911.80016   -13731.599    25.239704    234.57827 
    6350     74.65091   -876.11284    57373.175   -12810.258    904.32202    -13714.58    25.519855    232.65437 
    6400    74.156642   -882.97908    57325.514   -12819.084    898.33445   -13717.419    25.811706    231.11395 
    6450    73.980139    -610.7036      57307.4   -12809.625     896.1963   -13705.821    25.750355    230.56387 
    6500    77.497591   -502.46547    57286.335    -12787.58    938.80675   -13726.387    25.812407    241.52624 
    6550    75.823683   -999.33015    57308.394   -12782.544      918.529   -13701.073    26.166755    236.30939 
    6600    76.468938   -329.98888    57313.668   -12752.789    926.34564   -13679.135      26.4205    238.32037 
    6650    77.307415   -1055.8113    57279.209   -12768.452    936.50295   -13704.955    26.709672    240.93354 
    6700    76.191493   -745.35577    57243.309   -12766.425    922.98467   -13689.409    26.719695     237.4557 
    6750    78.584441   -592.31022     57250.33   -12757.564    951.97286   -13709.537    26.943228    244.91347 
    6800     77.29747   -139.48685     57304.09   -12740.695    936.38248   -13677.077    27.397588    240.90254 
    6850    78.563989   -524.77121    57387.247   -12747.332    951.72511   -13699.057    27.414373    244.84973 
    6900    74.344675   -242.16369    57410.856   -12738.712    900.61229   -13639.325    27.532695    231.69997 
    6950    74.771945   -645.04913     57481.81   -12735.741    905.78824   -13641.529    28.024453    233.03158 
    7000    81.230224   -656.48126    57513.411   -12753.369    984.02391   -13737.393    28.026952    253.15923 
    7050    79.607416   -842.86755    57508.331   -12752.908     964.3652   -13717.274    28.136235    248.10164 
    7100    76.977148   -580.79428    57545.295   -12775.312     932.5021   -13707.814    28.118104    239.90424 
    7150    76.755565   -853.33353    57505.169   -12783.785    929.81783   -13713.603    27.913619    239.21366 
    7200    76.782893   -507.39957    57443.775   -12783.587     930.1489   -13713.736    27.815469    239.29883 
    7250     74.52537   -595.64502     57428.97   -12816.904    902.80123   -13719.706    28.108143    232.26312 
    7300    74.657258    -786.2108    57367.417   -12816.114    904.39892   -13720.513    28.315723    232.67415 
    7350    76.283525   -813.70158    57318.049    -12800.46    924.09955    -13724.56    28.553519    237.74252 
    7400    76.834887   -970.18267    57284.491   -12797.616    930.77875   -13728.395    28.733853    239.46088 
    7450    78.592778   -807.90489     57290.85   -12790.822    952.07386   -13742.896    28.969722    244.93946 
    7500    76.779062   -744.85559    57381.294   -12771.639    930.10249   -13701.742    29.378022    239.28689 
    7550    77.236138   -114.67283    57403.961   -12758.939     935.6395   -13694.579     29.68695     240.7114 
    7600    78.353762   -305.86672    57472.837   -12733.993    949.17841   -13683.172    29.949364    244.19455 
    7650     80.06109   -405.18134    57525.805   -12733.494    969.86101   -13703.355    30.137355    249.51554 
    7700    80.041246   -669.08839    57523.364   -12744.042    969.62062   -13713.662    30.429871     249.4537 
    7750    77.091671   -648.70817    57526.292   -12751.576    933.88943   -13685.466    30.497184    240.26116 
    7800    77.778284   -529.45669    57571.221   -12768.517    942.20707   -13710.724    30.757553    242.40103 
    7850    77.099727    -671.5809    57576.415    -12733.68    933.98702   -13667.667    31.125302    240.28627 
    7900    78.307945   -727.59356     57601.98   -12753.226    948.62338   -13701.849    31.074437    244.05175 
    7950    77.817896   -426.61204    57562.233   -12753.989    942.68693   -13696.676    31.210033    242.52449 
    8000    73.709502   -612.42753     57523.02   -12770.165    892.91779   -13663.083    31.373907    229.72041 
    8050    76.716047   -586.97108    57517.739   -12766.189    929.33912   -13695.528    31.188353     239.0905 
    8100    75.408439   -638.38743    57498.007   -12789.406    913.49874   -13702.905    31.207807    235.01526 
    8150     75.94388   -308.23042    57520.596    -12772.04    919.98507   -13692.025    31.188312    236.68399 
    8200    75.303725   -452.18434    57508.354   -12786.095    912.23024   -13698.325    31.443112    234.68891 
    8250    76.994667   -525.11737    57592.915   -12770.804    932.71433   -13703.518      31.8687    239.95884 
    8300    77.432294   -647.17855    57624.738   -12755.768    938.01574   -13693.783    31.762152    241.32273 
    8350    77.547731   -587.30351    57626.928   -12732.865    939.41415   -13672.279    31.934695     241.6825 
    8400    76.349659   -798.20699    57681.753   -12734.504    924.90069   -13659.404    32.201258    237.94863 
    8450    76.771219   -615.15703    57698.905   -12728.327    930.00747   -13658.334    32.483592    239.26245 
    8500    78.951912    -281.9252     57767.37   -12736.073    956.42442   -13692.497    32.732401    246.05872 
    8550     76.36714   -1033.6529    57779.708   -12731.788    925.11246     -13656.9    32.830656    238.00311 
    8600    76.992408   -668.75853    57725.973   -12722.404    932.68696   -13655.091    32.979164     239.9518 
    8650     76.00912   -705.58048    57730.647   -12726.877     920.7754   -13647.652    32.942707    236.88732 
    8700    76.076717    -409.8746    57705.878   -12751.336    921.59427    -13672.93    32.741596    237.09799 
    8750     75.39808   -494.04974    57684.852   -12735.682    913.37325   -13649.055      33.3172    234.98297 
    8800    77.795896   -702.67208    57670.564   -12743.144    942.42042   -13685.565    33.442069    242.45592 
    8850     79.12393   -883.16266    57610.674   -12750.614    958.50824   -13709.122    33.722387    246.59482 
    8900     77.34223   -826.66456    57624.283   -12784.815    936.92471   -13721.739    34.090712    241.04204 
    8950    73.871387   -897.32649    57619.432   -12779.142    894.87887   -13674.021    34.372189    230.22494 
    9000    77.910297   -838.46795    57607.326    -12740.92    943.80628   -13684.726    34.669867    242.81246 
    9050    76.282529   -878.03202      57561.1   -12745.985    924.08748   -13670.073     34.84366    237.73942 
    9100    75.485757   -905.94788    57515.447   -12735.487    914.43537   -13649.922    35.359273    235.25622 
    9150    81.002941   -835.41729    57509.772   -12720.071     981.2706   -13701.341    35.557431    252.45088 
    9200    78.004035   -599.96186    57454.707   -12731.237    944.94182   -13676.179    35.659402     243.1046 
    9250    76.633604   -556.15398    57408.583   -12740.932    928.34041   -13669.272     35.85136    238.83356 
    9300    75.382511   -689.63724    57395.601   -12775.636    913.18465   -13688.821    36.052337    234.93445 
    9350     75.00567   -805.57252    57403.135   -12768.208    908.61959   -13676.827    36.299821       233.76 
    9400    75.213019   -442.79781    57403.176   -12758.782    911.13142   -13669.914    36.828313    234.40622 
    9450    77.783111   -295.14073    57376.873   -12741.379    942.26555   -13683.644    36.627168    242.41608 
    9500    76.781374   -744.37005    57395.585   -12739.819    930.13049    -13669.95    36.663227     239.2941 
    9550    78.280367   -307.27447    57405.109   -12737.025    948.28931   -13685.315    36.779653    243.96581 
    9600    78.038156   -969.98108    57495.968   -12758.155    945.35516    -13703.51    36.883722    243.21094 
    9650    79.541077   -664.10386    57500.093   -12734.203    963.56156   -13697.764    36.963771    247.89489 
    9700    78.031112   -832.52191    57532.927   -12745.037    945.26983   -13690.307    36.982941    243.18899 
    9750    78.304022   -790.79154    57556.473   -12739.956    948.57587   -13688.532    37.278557    244.03953 
    9800    76.599196   -753.87143    57608.767   -12739.901    927.92358   -13667.825    38.032417    238.72633 
    9850    75.794102   -694.40794     57651.05   -12737.812    918.17067   -13655.983    38.171291     236.2172 
    9900    77.656548   -861.19822    57659.079   -12748.259    940.73235   -13688.992    38.427722    242.02163 
    9950    77.043944   -586.70926    57638.484    -12758.12    933.31126   -13691.432    38.642133    240.11241 
   10000    77.630184   -833.67534     57597.59   -12723.236    940.41298   -13663.649    38.647764    241.93947 
   10050    77.995315   -924.07995      57617.3   -12726.755    944.83619   -13671.591     38.59627    243.07742 
   10100    77.238171   -833.21185    57621.297   -12720.507    935.66413   -13656.171    38.569608    240.71773 
   10150     78.06347   -532.93096     57606.61   -12715.435    945.66181   -13661.097    38.829206    243.28983 
   10200    76.737239   -503.91011     57624.35   -12742.688    929.59584   -13672.284    39.283292    239.15655 
   10250    81.044163   -736.64494    57607.235   -12734.607    981.76996   -13716.377    39.661904    252.57935 
   10300    78.564493   -386.19116    57605.207    -12714.87    951.73121   -13666.601     39.85569     244.8513 
   10350    78.116249   -992.28884    57613.139   -12768.451    946.30119   -13714.753    40.183758    243.45432 
   10400    77.480605   -418.62705    57598.837   -12735.882    938.60098   -13674.483    40.456563     241.4733 
   10450    76.658693   -598.12999    57589.512   -12749.348    928.64434   -13677.993    40.624963    238.91176 
   10500    74.494998   -571.14126    57625.762   -12743.555     902.4333   -13645.989    40.759697    232.16846 
   10550    76.880136   -756.92469    57624.165   -12777.963     931.3269    -13709.29    40.978272     239.6019 
   10600     77.77633   -997.91219    57575.778   -12771.237     942.1834    -13713.42    40.901115    242.39494 
   10650    77.819945   -1151.5842    57536.131   -12752.702    942.71175   -13695.413     41.09359    242.53087 
   10700    76.991949   -663.05235    57520.647   -12725.072    932.68139   -13657.753    41.054175    239.95037 
   10750    77.955346    -823.0795     57528.63   -12737.057      944.352   -13681.409    41.197067    242.95286 
   10800    78.180957   -436.38847    57571.941   -12747.302    947.08506   -13694.387    41.800198    243.65599 
   10850    77.385769   -1090.6465    57575.809   -12748.103    937.45213   -13685.555    41.910567    241.17773 
   10900    79.790326   -760.88594    57571.156    -12732.07    966.58097   -13698.651    41.830977    248.67169 
   10950    79.167596   -942.98791    57535.659   -12731.424    959.03721   -13690.461    41.872318    246.73091 
   11000    78.102701   -354.33924    57532.335   -12745.576    946.13706   -13691.713    42.081264     243.4121 
   11050     75.96477   -702.81232     57529.58   -12772.137    920.23814   -13692.375     42.29995     236.7491 
   11100    76.770544   -751.48884    57501.835   -12773.799     929.9993   -13703.798    42.390127    239.26035 
   11150    76.492619   -53.219553    57494.808   -12750.514    926.63251   -13677.146    42.781722    238.39418 
   11200    78.084506   -756.26243     57514.62   -12760.285    945.91665   -13706.202    42.865896    243.35539 
   11250    76.528267   -642.34993    57486.588   -12778.837    927.06435   -13705.901    42.983747    238.50527 
   11300    76.428094   -949.16216    57430.563   -12793.623    925.85085   -13719.474    43.011112    238.19308 
   11350    73.150486   -683.41681     57420.08   -12772.441    886.14587   -13658.587    43.401305     227.9782 
   11400    74.844467   -448.96395    57415.984   -12773.655    906.66678   -13680.321    43.688141     233.2576 
   11450    75.232659   -353.31813    57460.963   -12797.056    911.36934   -13708.425    43.920985    234.46743 
   11500     76.84433   -162.12398    57523.435   -12789.785    930.89314   -13720.679    44.148218     239.4903 
   11550    75.176636    -504.0005    57541.995   -12801.205    910.69067   -13711.896    44.530984    234.29283 
   11600    75.300515   -714.18555    57526.576   -12782.888    912.19134    -13695.08    44.355588     234.6789 
   11650    72.981607   -1013.1953     57566.37   -12774.567    884.10007   -13658.667    44.481819    227.45188 
   11700    78.778241   -814.15383    57547.061   -12746.817    954.32056   -13701.138     44.60118    245.51746 
   11750    74.939346   -655.44257    57602.271   -12777.449    907.81614   -13685.266    44.232227     233.5533 
   11800     73.93821   -465.12293    57634.773   -12780.135    895.68836   -13675.824     44.49639    230.43319 
   11850    75.642794   -1154.6134    57612.965   -12769.241    916.33771   -13685.578    44.729952    235.74564 
   11900    73.270952   -648.13527    57538.616   -12773.111    887.60519   -13660.716    45.245504    228.35364 
   11950    75.787756   -1042.4149     57527.85   -12772.624    918.09379   -13690.718    45.361408    236.19742 
   12000    74.966885   -1113.6601    57472.816   -12771.275    908.14975   -13679.425    45.683596    233.63913 
   12050    76.891593   -478.41838    57467.309   -12751.579    931.46569   -13683.045    46.135742     239.6376 
   12100    76.924149    -623.3855    57498.277   -12748.759    931.86006   -13680.619    46.564177    239.73906 
   12150    76.889044   -518.71092    57520.327   -12749.428     931.4348   -13680.863    46.781123    239.62966 
   12200    79.665116   -655.88007    57594.509   -12710.019    965.06417   -13675.083    47.125517    248.28147 
   12250    78.003065   -1236.4073    57627.431   -12710.775    944.93007   -13655.705    47.224791    243.10158 
   12300    79.295132   -725.69756    57652.578   -12725.666    960.58219   -13686.248    47.248629    247.12839 
   12350    77.024357   -434.94855    57686.933   -12678.441    933.07399   -13611.515    47.713431    240.05137 
   12400    79.872395    -628.0424    57740.309   -12695.327    967.57515   -13662.902    47.654705    248.92746 
   12450    76.627085   -229.85133    57805.175    -12726.45    928.26143   -13654.712    47.721314    238.81325 
   12500    78.106674   -480.23171     57830.79   -12696.819    946.18519   -13643.005    47.616949    243.42448 
   12550    77.722884   -535.73125    57823.578   -12719.315    941.53595   -13660.851    47.824258    242.22837 
   12600    77.643661   -801.43184    57828.938   -12731.253    940.57624   -13671.829    47.866461    241.98147 
   12650    77.131402   -681.93977     57810.86    -12713.85    934.37073   -13648.221    47.847477    240.38498 
   12700    76.117792   -1100.5197    57779.532   -12760.775    922.09185   -13682.867    47.820115      237.226 
   12750     77.36612   -414.62632    57766.169   -12766.211    937.21411   -13703.425    47.710989     241.1165 
   12800    75.843396   -738.01492    57756.357   -12775.046    918.76782   -13693.814    48.185083    236.37083 
   12850    79.716222   -46.030297    57829.011   -12726.738    965.68327   -13692.421    48.247479    248.44074 
   12900    74.985019   -747.97344    57859.258   -12734.587    908.36943   -13642.957    48.458385    233.69564 
   12950    75.503483   -594.53412    57824.654    -12701.23     914.6501    -13615.88     48.60734    235.31147 
   13000    77.399053   -829.57693    57821.799   -12725.672    937.61306   -13663.285    48.884864    241.21914 
   13050    77.271017   -781.01242    57769.639   -12725.446    936.06203   -13661.508    49.385789     240.8201 
   13100    75.963189   -806.81502    57774.728   -12738.342    920.21899   -13658.561    49.480028    236.74417 
   13150    78.343407   -686.80809    57745.323   -12724.517    949.05298    -13673.57    49.827398    244.16227 
   13200    76.040496   -711.13682    57725.249     -12730.6    921.15548   -13651.755    50.408862     236.9851 
   13250    76.108377   -491.00787    57724.513   -12726.545    921.97779   -13648.523    50.496817    237.19666 
   13300    77.008349   -1064.4133    57707.837   -12740.638    932.88007   -13673.518    50.639309    240.00148 
   13350    75.231407   -577.67389     57726.73   -12764.479    911.35417   -13675.833    50.838231    234.46352 
   13400     77.76203   -641.63674    57689.541   -12752.728    942.01017   -13694.738    51.146958    242.35038 
   13450      78.9727   -907.30529    57693.429    -12714.32    956.67624   -13670.996    51.865641    246.12351 
   13500    75.434641   -801.55793    57676.508   -12711.569    913.81615   -13625.385    52.238854    235.09692 
   13550    79.153289   -1080.2818    57635.379   -12718.972    958.86389   -13677.836    52.814218    246.68632 
   13600    76.017523   -802.08507    57561.149   -12730.414    920.87719   -13651.291    53.240719    236.91351 
   13650    78.143427   -706.07864    57551.694   -12721.124    946.63042   -13667.755    53.589082    243.53903 
   13700    77.604346   -941.70949    57509.139   -12702.963    940.09999   -13643.063    53.469921    241.85894 
   13750    79.621968   -493.94096    57499.946   -12684.463    964.54148   -13649.004    53.565945    248.14699 
   13800    79.020131   -597.84834    57520.743   -12696.964    957.25082   -13654.215     53.59585    246.27133 
   13850    79.740281   -493.51265    57543.943   -12682.777    965.97473   -13648.752    53.918304    248.51572 
   13900    75.647263   -832.95299    57512.178    -12695.89    916.39186   -13612.281     54.30129    235.75957 
   13950    78.319751   -292.23357     57578.16    -12695.49    948.76641   -13644.256    54.433128    244.08855 
   14000    75.930165   -570.07517    57627.186   -12680.793    919.81894   -13600.612    54.628817    236.64125 
   14050    80.572492   -824.88129    57679.517   -12692.762    976.05614   -13668.818    54.893407    251.10936 
   14100    77.728664   -285.08214    57717.902   -12720.732    941.60597   -13662.338     54.96243    242.24639 
   14150    79.475844   -723.77785    57731.368   -12729.725    962.77133   -13692.496    55.256904    247.69159 
   14200    75.678186   -665.85732    57734.073   -12744.043    916.76646   -13660.809    55.257606    235.85594 
   14250    76.802577   -962.17022    57692.669   -12743.035    930.38734   -13673.422    55.571614    239.36018 
   14300    78.188878   -565.20833    57682.623   -12757.751    947.18101   -13704.932    56.237155    243.68068 
   14350    76.666584   -793.62733    57709.077   -12746.209    928.73992   -13674.949    56.334145    238.93635 
   14400    76.871172   -519.87257    57664.022   -12758.614    931.21831   -13689.832    56.749684    239.57396 
   14450    78.461221    -602.8194    57643.421   -12734.911    950.48018   -13685.391    57.045127    244.52945 
   14500    78.614353   -235.67221    57697.156   -12725.816    952.33522   -13678.151      57.0359     245.0067 
   14550    77.723197   -595.32509    57669.287   -12717.537    941.53975   -13659.077    57.548513    242.22935 
   14600    77.651856   -634.87191    57637.543   -12729.782    940.67552   -13670.458    57.846019    242.00701 
   14650    76.750044   -453.84266    57619.606   -12770.224    929.75096   -13699.975    58.234802    239.19646 
   14700    76.146603   -406.01926     57594.62   -12769.362    922.44086   -13691.803    58.656316    237.31579 
   14750      76.0034   -542.15963    57551.418   -12771.762     920.7061   -13692.468    58.700109    236.86949 
   14800    76.268754   -526.11874    57486.375   -12779.643     923.9206   -13703.563    58.415369    237.69648 
   14850    77.921906   -804.94789    57476.553   -12778.447     943.9469   -13722.394    58.305671    242.84864 
   14900    73.447477   -696.45124    57439.594    -12818.24    889.74362   -13707.984    58.724471    228.90379 
   14950    77.337068   -850.36735    57356.242   -12802.681    936.86217   -13739.544     58.70458    241.02595 
   15000     78.05173   -359.99162    57337.516     -12833.3    945.51959   -13778.819    58.671395    243.25324 
   15050    77.063319   -108.61192    57359.185   -12795.698    933.54597   -13729.244    58.855897     240.1728 
   15100    77.360342   -364.94001    57423.666   -12807.633    937.14412   -13744.778    59.288533    241.09849 
   15150    76.982157   -640.58162    57445.017   -12797.859    932.56278   -13730.422     59.28795    239.91985 
   15200    76.815741    40.721005    57440.988   -12786.776    930.54682   -13717.323    59.110638    239.40121 
   15250    78.679465   -489.09196    57448.015   -12769.674    953.12399   -13722.798    59.012023    245.20962 
   15300    79.287186   -704.82587    57450.282   -12757.342    960.48592   -13717.827    58.869024    247.10362 
   15350    79.159226   -715.71598    57412.343   -12755.741    958.93582   -13714.676    58.959414    246.70483 
   15400    80.034707    -924.8132    57396.995   -12731.528     969.5414   -13701.069    59.237023    249.43332 
   15450    77.475635   -615.02869    57389.294   -12744.113    938.54078   -13682.653    59.464301    241.45781 
   15500    76.481935   -523.29665    57340.924   -12792.452    926.50309   -13718.955     59.63562    238.36088 
   15550    77.105329   -483.43549     57338.57   -12781.331    934.05489   -13715.386    60.151087    240.30373 
   15600    78.491025   -501.80024    57333.842   -12788.911    950.84122   -13739.752    60.617698    244.62233 
   15650    76.206824   -404.41409    57367.665   -12762.502    923.17038   -13685.672    60.789755    237.50348 
   15700    73.077919   -563.42333    57336.259   -12773.885    885.26679   -13659.152    60.826272    227.75204 
   15750    76.506244   -684.55202    57343.132   -12754.288    926.79756   -13681.086    60.887251    238.43664 
   15800    77.707883   -316.29046    57383.904   -12736.397    941.35423   -13677.751    61.272022    242.18162 
   15850    80.418879     -839.584    57426.447   -12709.507    974.19527   -13683.702    61.420408    250.63062 
   15900    77.587205   -579.97939    57401.238   -12743.601    939.89234   -13683.493    61.222321    241.80552 
   15950    78.295003   -1064.5836    57372.464    -12731.36     948.4666   -13679.826    61.284938    244.01142 
   16000     77.61627   -724.84769    57337.612   -12741.648    940.24443   -13681.892    61.549895     241.8961 
   16050    77.987072   -486.93587    57298.268   -12742.151    944.73633   -13686.887     61.57036    243.05173 
   16100    79.422516   -760.25721    57340.389   -12725.311    962.12531   -13687.436     61.84528    247.52539 
   16150    78.616199   -814.83599    57363.733   -12734.385    952.35758   -13686.743    62.109053    245.01245 
   16200    77.836052   -962.31936     57377.01   -12720.816    942.90688   -13663.723    61.868801    242.58107 
   16250     74.24252   -933.14048    57365.258   -12745.052    899.37478   -13644.427    62.257486     231.3816 
   16300    77.750244   -467.63452    57327.866   -12745.296     941.8674   -13687.163    62.056083    242.31364 
   16350    78.174056   -881.54701    57325.775   -12779.392    947.00146   -13726.393    62.105338    243.63448 
   16400    75.139557   -629.21102    57316.436   -12783.901     910.2415   -13694.142    62.038221    234.17727 
   16450    75.850098   -135.90159    57287.981   -12767.148      918.849   -13685.997    62.232107    236.39172 
   16500    75.378101   -656.17955    57283.455   -12774.977    913.13122   -13688.108    62.358669    234.92071 
   16550    77.883718   -784.12379    57324.341    -12759.55    943.48429   -13703.035    62.714634    242.72962 
   16600    79.294813   -870.54613    57348.019   -12715.726    960.57832   -13676.304    63.080913    247.12739 
   16650    77.957668   -211.26656    57379.659   -12708.408    944.38013   -13652.788    62.997683    242.96009 
   16700     76.87365    -282.9712    57470.009   -12732.939    931.24832   -13664.187    63.521002    239.58168 
   16750    75.992768   -483.70683    57453.032   -12733.016    920.57731   -13653.593    63.392741    236.83636 
   16800    77.799083   -464.25001    57438.042   -12754.645    942.45903   -13697.104    63.436197    242.46585 
   16850    77.605935   -663.32508    57397.095    -12749.81    940.11923    -13689.93    63.571353     241.8639 
   16900    78.096013   -928.45855    57372.734   -12740.912    946.05604   -13686.968    63.868731    243.39126 
   16950    82.045249   -541.46455    57325.368   -12676.032    993.89713    -13669.93    63.892636     255.6993 
   17000    78.894573   -610.40511    57334.592   -12693.135     955.7298   -13648.865    63.965781    245.88002 
   17050      79.4299   -270.17131     57353.83   -12684.905    962.21476   -13647.119    64.151215     247.5484 
   17100    80.761801   -612.25549    57433.162   -12685.452    978.34943   -13663.801    64.303448    251.69936 
   17150    80.553246    -447.8804    57450.434    -12686.51    975.82299   -13662.332    64.833454    251.04938 
   17200    78.518593   -813.49803    57428.637   -12710.712    951.17519   -13661.887    64.993109    244.70825 
   17250    77.826005   -558.09374    57394.587   -12716.232    942.78516   -13659.017     65.19524    242.54976 
   17300    78.468065   -614.34925    57448.426   -12706.945    950.56309   -13657.508    65.761118    244.55078 
   17350      80.7677   -270.24513    57477.091    -12694.72    978.42088   -13673.141      66.0294    251.71774 
   17400    78.211696   -775.01863    57469.761   -12714.446    947.45743   -13661.904    66.304722    243.75179 
   17450    79.648438   -806.04335     57450.02   -12735.845    964.86214   -13700.707    66.666894    248.22949 
   17500    73.108641   -601.64934    57393.754   -12797.195    885.63895   -13682.834    66.983123    227.84779 
   17550    75.833037   -581.68297    57380.069   -12788.313    918.64232   -13706.955    67.174026    236.33854 
   17600    74.657441   -546.86802    57323.255   -12769.702    904.40114   -13674.103    67.304362    232.67472 
   17650     78.25239   -669.27553    57292.387   -12765.229    947.95039   -13713.179    67.469879    243.87861 
   17700    77.304136   -610.88385    57321.075   -12800.991    936.46324   -13737.454    67.576833    240.92332 
   17750    75.426552   -254.84988    57294.587   -12808.073    913.71816   -13721.791    67.811634    235.07171 
   17800    73.240574   -604.11718    57293.172    -12811.44     887.2372   -13698.677    68.042217    228.25897 
   17850    74.277895   -140.28063    57339.472   -12779.725    899.80332   -13679.529     67.93417    231.49185 
   17900    75.660308    -395.1247    57396.785    -12753.54    916.54989    -13670.09    67.930744    235.80023 
   17950    75.700472   -427.44148    57441.838   -12757.014    917.03642    -13674.05    68.255435     235.9254 
   18000    76.525667   -401.04912    57484.216   -12757.624    927.03285   -13684.657    68.415528    238.49717 
   18050      76.0984   -188.52864    57520.392   -12740.751    921.85694   -13662.608    68.393737    237.16557 
   18100     80.14003   -325.53107     57548.05   -12712.637    970.81728   -13683.455    68.259451    249.76156 
   18150    76.210128   -744.87223    57509.653   -12762.901    923.21041   -13686.112    68.635302    237.51377 
   18200    77.037848   -495.03527     57504.72    -12756.15    933.23742   -13689.387    69.198281    240.09342 
   18250    77.148874    -716.8227    57509.924   -12760.744    934.58238   -13695.327    69.451326    240.43943 
   18300    78.379773   -274.60287    57543.008   -12735.252    949.49351   -13684.745    69.639873    244.27561 
   18350    75.408178   -599.29111    57596.072   -12763.813    913.49558   -13677.308    69.987566    235.01444 
   18400    76.443564   -260.64451     57584.61   -12754.835    926.03825   -13680.873    70.039498    238.24129 
   18450    75.199643   -732.68658    57572.615   -12748.882    910.96938   -13659.852    70.281733    234.36453 
   18500     76.16988    -237.7285    57631.104   -12768.154    922.72284   -13690.877    70.251057    237.38834 
   18550    75.729238   -902.12692     57637.01   -12793.576     917.3849   -13710.961    70.552428    236.01505 
   18600     77.58905    -774.8309    57634.695   -12754.041    939.91468   -13693.955    70.761671    241.81127 
   18650    77.502142   -852.33759    57655.435   -12751.635    938.86188   -13690.497    71.065027    241.54042 
   18700    78.024017   -481.63782    57678.964   -12737.082    945.18388   -13682.266    70.944611    243.16688 
   18750    79.746892   -671.44405    57720.877   -12723.098    966.05481   -13689.153      71.2416    248.53633 
   18800    81.937144   -531.61296    57784.031   -12686.465    992.58755   -13679.052    70.817142    255.36239 
   18850    81.670542   -786.11239    57767.234   -12694.362    989.35793    -13683.72    70.956083    254.53151 
   18900    77.888862   -825.15755    57772.294   -12714.299    943.54661   -13657.846    71.324509    242.74565 
   18950    78.748173   -830.78194    57749.326   -12711.343    953.95632     -13665.3    71.110042    245.42375 
   19000    77.205017   -672.05123    57691.587    -12737.35     935.2625   -13672.613     71.12987    240.61441 
   19050    79.867956   -845.01472    57703.617   -12731.413    967.52138   -13698.934    71.449576    248.91363 
   19100    77.429982   -874.28348    57702.353   -12755.091    937.98774   -13693.078    71.322948    241.31553 
   19150    77.745056   -588.01205    57711.537   -12725.937    941.80455   -13667.741    71.849168    242.29748 
   19200    77.752308   -790.39548    57721.785   -12701.332     941.8924   -13643.225    72.293921    242.32008 
   19250    77.498884   -671.91709     57776.28   -12726.069    938.82242   -13664.892     72.57144    241.53027 
   19300      76.4081   -694.66366    57816.879   -12729.295    925.60865   -13654.903    72.832729    238.13077 
   19350    74.683274   -627.24697    57828.755   -12748.493    904.71408   -13653.207    73.096275    232.75523 
   19400    76.636399    -211.1222    57847.336   -12754.951    928.37426   -13683.325    73.500595    238.84227 
   19450    79.423993   -380.73011    57899.442   -12741.794    962.14321   -13703.937    73.339221    247.52999 
   19500    77.284547    -407.2386    57882.731   -12754.721    936.22593   -13690.947    73.286261    240.86227 
   19550    77.875542   -324.00328    57913.492   -12736.501    943.38525   -13679.887    73.415275    242.70414 
   19600    73.593969   -473.45875    57923.894   -12732.879    891.51823   -13624.397    73.892249    229.36035 
   19650    80.273777   -711.39234    57951.114   -12721.568     972.4375   -13694.006    73.976331     250.1784 
   19700    78.306292   -658.58829    57996.447   -12769.306    948.60336   -13717.909    74.366519     244.0466 
   19750    75.741793   -409.74828    57987.169   -12806.565      917.537   -13724.102    74.356905    236.05418 
   19800    76.908838   -846.48598    57979.947   -12807.562    931.67459   -13739.237    74.151652    239.69135 
   19850    75.739461   -351.61506     58040.42   -12789.532    917.50874    -13707.04    74.030988    236.04691 
   19900    73.828315   -777.90676    58064.183    -12796.19     894.3571   -13690.547     74.23719     230.0907 
   19950    77.060617   -256.59189    58104.769   -12772.777    933.51324    -13706.29    74.546187    240.16438 
   20000     76.68797   -694.97011    58171.629   -12762.092    928.99899   -13691.091    74.764109      239.003 
   20050    77.273816   -671.45389    58177.179   -12774.488    936.09593   -13710.584    75.141707    240.82882 
   20100    74.569854    -1007.234    58137.915   -12774.525    903.34011   -13677.865    75.625546    232.40175 
   20150    75.053813   -843.41076    58094.767   -12804.511    909.20279   -13713.714    75.778962    233.91004 
   20200    78.161575   -255.25633    58116.013   -12767.486    946.85026   -13714.336    76.009679    243.59558 
   20250    77.549494   -853.44982    58079.152   -12790.642     939.4355   -13730.077    75.911551    241.68799 
   20300    78.618201   -878.05871    58030.948   -12752.301    952.38183   -13704.683    76.009259    245.01869 
   20350    76.151561   -1254.4896    58038.594   -12761.728    922.50092   -13684.229    76.364925    237.33124 
   20400    80.307536   -663.96831    58075.277   -12746.564    972.84646   -13719.411    76.310585    250.28361 
   20450    74.610828   -957.03649    58023.004   -12765.008    903.83646   -13668.844    76.443027    232.52945 
   20500    80.145671   -664.69254    58029.638   -12754.596    970.88562   -13725.482    76.208643    249.77915 
   20550    77.834063   -999.33852    58015.243   -12773.686    942.88278   -13716.568    76.483568    242.57487 
   20600    76.888508   -349.10232    58045.022   -12763.099    931.42831   -13694.528    76.599155    239.62799 
   20650    77.265193   -453.96376    58095.794   -12761.836    935.99147   -13697.827    77.064866    240.80195 
   20700    78.344149   -648.85784    58145.848   -12738.399    949.06196   -13687.461    77.263264    244.16459 
   20750    79.223628   -550.35306     58105.19   -12751.437    959.71598   -13711.153    77.645868    246.90554 
   20800    77.661645   -823.22637    58056.026   -12751.762     940.7941   -13692.557    77.600541    242.03752 
   20850    76.613018   -536.23064    58032.083   -12778.179    928.09103    -13706.27    77.372704    238.76941 
   20900    75.321899   -844.76084    58077.902   -12788.929    912.45039   -13701.379    77.362104    234.74555 
   20950    76.689927   -340.79519    58026.966   -12757.124     929.0227   -13686.147    77.805593     239.0091 
   21000    76.492017   -667.36892    58027.729   -12777.213    926.62522   -13703.838    77.790314     238.3923 
   21050    76.026449   -481.26502    58044.716   -12787.302    920.98532   -13708.287     77.82005    236.94133 
   21100    75.179907   -664.12946     58116.13   -12765.833     910.7303   -13676.563     77.69571    234.30302 
   21150    78.093456   -458.80462    58146.907   -12723.844    946.02506   -13669.869     77.62919    243.38329 
   21200    78.038634   -561.26547     58116.44   -12693.087    945.36095   -13638.448    77.907174    243.21243 
   21250    79.151689   -899.36105    58123.347   -12703.064    958.84451   -13661.909    77.833037    246.68134 
   21300    81.413728   -882.07236    58113.509   -12670.638    986.24688   -13656.885    77.998146    253.73113 
   21350    78.565887   -679.25286    58022.856   -12686.511     951.7481   -13638.259    78.038931    244.85565 
   21400    78.437103   -853.99861    57963.647   -12710.545    950.18801   -13660.733    78.267686    244.45428 
   21450    77.753638   -472.25809    57953.394   -12718.997     941.9085   -13660.906    78.337888    242.32422 
   21500    77.091838   -599.04105    57988.787   -12729.721    933.89145   -13663.612    78.721439    240.26168 
   21550    79.078412    -750.5627    58003.955   -12719.856    957.95684   -13677.813    79.279311    246.45297 
   21600    78.995846   -785.59851    58045.975   -12749.309    956.95663   -13706.266    79.626981    246.19564 
   21650    78.037441   -707.40947    58017.388   -12765.993    945.34649    -13711.34    79.587455    243.20871 
   21700    76.542942   -863.21427    58047.891   -12759.151    927.24212   -13686.393    79.916442    238.55101 
   21750    80.966576   -499.23962     58025.09   -12748.643    980.83007   -13729.473    79.912212    252.33755 
   21800    75.862986   -770.78637    58019.294    -12764.18    919.00512   -13683.185    80.231062    236.43188 
   21850    80.090146   -405.59436    57981.188   -12758.052      970.213   -13728.265     80.30514     249.6061 
   21900    76.572375    -311.4593    57930.212   -12790.823    927.59867   -13718.422    80.495499    238.64274 
   21950    78.163418    -1055.508    57930.875   -12774.986    946.87259   -13721.859    80.569732    243.60133 
   22000    78.409726   -590.53949    57915.919   -12773.258    949.85637   -13723.114    81.018804    244.36896 
   22050    79.910358   -329.51146    57939.054   -12782.451    968.03504   -13750.486    81.018051    249.04578 
   22100    75.182061   -408.65268    57956.507   -12795.109     910.7564   -13705.866    80.862427    234.30974 
   22150    76.236226   -575.49953    57971.689   -12800.718    923.52656   -13724.244    80.514245    237.59511 
   22200    76.677785   -804.77792    57963.945   -12791.969    928.87561   -13720.845    80.640422    238.97125 
   22250    78.060078   -1147.0224    57970.269   -12784.802    945.62072   -13730.423     80.66183    243.27926 
   22300    77.066154   -593.96346    57983.014    -12794.29    933.58032    -13727.87    80.794349    240.18163 
   22350    78.377281    -1006.512    57953.038   -12755.888    949.46332   -13705.351    81.220425    244.26784 
   22400     78.98399   -518.39237    57902.834   -12736.008    956.81301   -13692.821     81.56856    246.15869 
   22450    76.738348    -623.6163    57862.104    -12748.82    929.60927    -13678.43    82.170856    239.16001 
   22500    75.383565   -746.55182    57857.875    -12790.73    913.19742   -13703.927    82.744248    234.93774 
   22550    76.701742   -490.09625    57823.544   -12780.361    929.16582   -13709.527    82.363412    239.04592 
   22600    79.219973   -419.03432    57818.269    -12748.87    959.67171   -13708.541    82.367841    246.89415 
   22650    76.245006   -483.39106    57825.485   -12741.317    923.63292    -13664.95    82.978636    237.62247 
   22700    78.023325   -864.54472    57845.316    -12782.98    945.17549   -13728.155     82.99909    243.16472 
   22750    79.329901   -901.74921    57785.114   -12763.312    961.00338   -13724.315    82.732034    247.23675 
   22800    74.433734   -558.17171    57774.218   -12794.063    901.69115   -13695.755    82.961101    231.97753 
   22850    77.331472   -737.82807    57743.282   -12783.578    936.79438   -13720.372    82.997749    241.00851 
   22900      78.9335   -602.96315    57777.996   -12767.863    956.20137   -13724.064    83.313181    246.00134 
   22950    75.826253   -317.73395    57765.494   -12784.002    918.56014   -13702.562    83.091399     236.3174 
   23000    77.476946   -682.67216    57720.086   -12793.011    938.55666   -13731.568    82.986471    241.46189 
   23050    77.784017   -493.11567    57751.246   -12792.148    942.27652   -13734.425    83.172663     242.4189 
   23100    75.340253   -1058.2723    57721.686   -12786.486    912.67273   -13699.159    83.242538    234.80275 
   23150    75.949191   -569.57445    57656.595    -12778.88    920.04941    -13698.93    83.448544    236.70055 
   23200     78.00117   -585.12088    57639.627   -12784.546    944.90711   -13729.454    83.930258    243.09567 
   23250    78.657863   -104.96765    57684.321   -12769.337     952.8623     -13722.2    84.275062     245.1423 
   23300    76.810532   -369.99706    57681.112    -12790.53    930.48371   -13721.014    84.971707    239.38497 
   23350    78.400085   -556.33813    57718.993   -12771.989    949.73957   -13721.728    85.573143    244.33892 
   23400    77.394946   -739.31391    57692.358    -12767.75    937.56331   -13705.313    85.927798    241.20633 
   23450    77.541768   -480.62608     57722.13   -12794.108    939.34191    -13733.45    86.042654    241.66391 
   23500     77.52852     -1027.44    57708.439   -12807.422    939.18142   -13746.603    86.105834    241.62263 
   23550    77.002315   -1040.9327    57643.268   -12817.594    932.80697   -13750.401    86.558497    239.98267 
   23600    77.046164   -512.09517    57628.265   -12792.851    933.33816    -13726.19    86.824454    240.11933 
   23650    77.288439   -1003.0399    57641.969    -12793.39    936.27308   -13729.664    87.371486     240.8744 
   23700     75.92521   -788.32112    57632.036   -12770.482    919.75891    -13690.24    87.929824    236.62581 
   23750     77.57501   -441.10972    57610.313   -12763.888    939.74461   -13703.633    88.033805    241.76752 
   23800    77.715571   -917.63207    57631.731   -12746.556    941.44736   -13688.004     88.18851    242.20558 
   23850    78.686064   -846.04034     57662.14   -12726.888    953.20393   -13680.092    88.445956    245.23019 
   23900    78.640237   -513.32338    57598.564   -12702.593    952.64878   -13655.242    88.629594    245.08737 
   23950     79.98599   -674.31641    57676.766   -12695.098    968.95124   -13664.049    88.758706    249.28149 
   24000    78.699629   -703.41159    57705.609   -12732.925    953.36825   -13686.294    88.588281    245.27246 
   24050    77.320559   -709.01558    57696.484   -12732.609    936.66219   -13669.271    88.997679     240.9745 
   24100    78.648149   -394.51172    57712.585   -12739.827    952.74462   -13692.571    89.064518    245.11202 
   24150    77.568896    -764.9397    57733.979   -12723.459    939.67054    -13663.13    89.427752    241.74846 
   24200    78.477124   -275.21881    57720.802   -12746.292    950.67282   -13696.964    89.219481    244.57901 
   24250    76.764851   -1060.3255    57790.853   -12770.726    929.93033   -13700.656    89.606746     239.2426 
   24300    76.987413   -435.86868    57837.346   -12783.391    932.62645   -13716.018    89.858716    239.93623 
   24350    76.195427   -1102.5502    57857.723   -12792.469    923.03232   -13715.502    89.846439    237.46796 
   24400    77.893115   -880.02371    57833.451   -12790.344    943.59813   -13733.942    89.537789    242.75891 
   24450    75.887557   -551.63895    57841.365   -12796.043    919.30278   -13715.346    89.401086    236.50846 
   24500    75.472552   -652.18651    57856.761   -12830.679    914.27541   -13744.954    89.630774    235.21507 
   24550    78.554626   -934.68879    57794.797   -12812.304    951.61169   -13763.916    89.683822    244.82055 
   24600    74.724099   -948.77093    57739.335   -12829.859    905.20863   -13735.068    90.053784    232.88247 
   24650    73.129515   -723.59412    57703.943   -12862.157    885.89182   -13748.049    90.082913    227.91284 
   24700    74.133315   -784.16695     57662.07   -12845.165    898.05188   -13743.217    90.443187    231.04125 
   24750    75.279974   -316.65545    57676.455   -12824.678    911.94251    -13736.62     90.50358    234.61489 
   24800    74.381868   -762.23553    57724.863   -12861.143    901.06284   -13762.206    90.669614    231.81588 
   24850      77.3731   -975.30039    57716.927   -12847.568    937.29867   -13784.866    90.456709    241.13825 
   24900    74.782831   -792.42492    57669.475   -12848.004    905.92011   -13753.924    90.765307    233.06551 
   24950    75.282077   -752.84243    57625.608   -12835.578    911.96799   -13747.546    90.907119    234.62144 
   25000    73.829228   -804.25754    57617.596   -12854.807    894.36816   -13749.175    91.041674    230.09354 
   25050    76.390533    -541.7922    57617.962   -12840.379    925.39584   -13765.775    91.339078    238.07602 
   25100    74.813325   -658.67814    57655.151   -12807.352    906.28952   -13713.641    92.268768    233.16055 
   25150    77.364782   -613.30911    57619.737   -12781.685     937.1979   -13718.883    92.319126    241.11233 
   25200     78.19313   -573.17624    57549.182   -12769.427    947.23252    -13716.66    92.510129    243.69393 
   25250    78.013788   -474.13687     57601.21   -12769.983    945.05997   -13715.043    92.622096      243.135 
   25300      79.1227   -824.66403    57613.682   -12756.969    958.49334   -13715.462    92.593047    246.59099 
   25350    78.149667   -882.71898    57565.178   -12742.412      946.706   -13689.118    92.760779    243.55847 
   25400    76.078422   -601.42724    57519.495   -12762.077    921.61492   -13683.692    92.902908     237.1033 
   25450    76.584343   -768.57097    57499.086   -12750.162    927.74365   -13677.906    93.342814    238.68004 
   25500    75.017926   -681.55903    57472.188    -12755.11    908.76806   -13663.878    93.025489     233.7982 
   25550    79.137306   -81.324487    57449.704   -12785.302    958.67027   -13743.973    92.826032    246.63651 
   25600    79.019472   -498.93975    57452.703   -12788.454    957.24283   -13745.697    92.969792    246.26927 
   25650    77.951203    -272.4125    57487.024   -12780.685    944.30181   -13724.987    92.911272    242.93995 
   25700    76.006957   -761.02025     57486.96   -12810.908    920.74919   -13731.657    93.131297    236.88058 
   25750    74.375201   -319.43546    57469.107   -12797.593    900.98208   -13698.575     93.26724     231.7951 
   25800    76.017847   -391.69929    57474.743   -12813.825    920.88111   -13734.706    93.576147    236.91452 
   25850    74.268014   -106.52477    57511.337   -12811.982    899.68361   -13711.665    93.525574    231.46105 
   25900     76.43393    -291.7259    57548.576   -12801.081    925.92155   -13727.003    93.826948    238.21127 
   25950    78.041225   -411.48139    57619.273   -12769.479    945.39234   -13714.872    94.150584     243.2205 
   26000    76.070196   -773.23853    57594.202   -12801.922    921.51528   -13723.438    94.527742    237.07767 
   26050    74.283413   -197.33039    57598.874    -12782.35    899.87016    -13682.22    94.709839    231.50904 
   26100    78.499243   -568.42424     57651.32   -12792.012    950.94077   -13742.953    94.670577    244.64795 
   26150    77.927545    -387.4853    57684.467   -12806.765    944.01522    -13750.78    95.014036    242.86621 
   26200    77.495507   -445.50174    57755.231   -12813.166    938.78151   -13751.948    95.293714    241.51974 
   26250    73.660271   -109.24665    57799.221   -12825.293    892.32141   -13717.614    95.512879    229.56698 
   26300    76.581689   -639.75817    57852.685   -12806.356     927.7115   -13734.067     95.68732    238.67177 
   26350    77.921266   -431.36935     57859.04   -12771.699    943.93916   -13715.638     95.86283    242.84665 
   26400    77.751926   -443.45918    57851.255   -12772.879    941.88777   -13714.766    96.112621    242.31889 
   26450    75.767984   -342.80106    57877.534   -12767.523    917.85428   -13685.377    96.319583     236.1358 
   26500    79.126048   -612.96196    57878.693   -12745.158     958.5339   -13703.692    96.517686    246.60143 
   26550    78.471962   -1108.6506    57845.267   -12728.789     950.6103   -13679.399    96.778339    244.56293 
   26600    78.821829   -651.70304    57838.575   -12726.056    954.84858   -13680.905    96.535998    245.65331 
   26650    76.776338   -647.94749    57791.652   -12751.891    930.06948    -13681.96    96.684974     239.2784 
   26700    79.779409   -581.39218    57823.301   -12761.059    966.44872   -13727.508    96.531345    248.63767 
   26750    77.630233   -599.15231    57800.205   -12766.144    940.41358   -13706.558    96.620294    241.93962 
   26800    78.915323   -337.47318    57816.719   -12743.639    955.98117    -13699.62    96.739308    245.94469 
   26850    76.223453   -729.00109     57869.67   -12784.886    923.37183   -13708.258    96.791677     237.5553 
   26900    77.256546   -218.47497    57861.828   -12756.889    935.88673   -13692.776    97.124841      240.775 
   26950     77.14788   -107.45688    57925.756   -12799.936    934.57034   -13734.506    97.863657    240.43634 
   27000    77.675427   -446.61934    57918.661   -12786.671    940.96105   -13727.632    98.102917    242.08047 
   27050    77.656712   -519.13968    57878.323   -12773.079    940.73434   -13713.813    98.217939    242.02214 
   27100    75.425716    -728.7708    57892.983   -12779.085    913.70803   -13692.793    98.696409     235.0691 
   27150    76.378599   -763.58692    57913.368   -12778.393    925.25127   -13703.644    99.203018    238.03882 
   27200    80.561468   -761.18416    57896.218   -12766.804     975.9226   -13742.727    99.041012    251.07501 
   27250    77.957621   -575.06726    57916.655   -12778.105    944.37956   -13722.485    99.872264    242.95995 
   27300    77.011539   -586.80936    57960.617   -12772.815    932.91871   -13705.734    100.33587    240.01142 
   27350    75.013449   -524.91487    57993.889    -12788.76    908.71382   -13697.473    100.08612    233.78425 
   27400    78.947042   -555.81609    58017.251   -12779.449    956.36542   -13735.814     100.4367    246.04354 
   27450    78.875706   -544.36948    58018.312   -12775.213    955.50125   -13730.714    100.76077    245.82122 
   27500    75.898391   -439.41821    58052.914   -12777.193    919.43402   -13696.627    100.87132    236.54222 
   27550    76.972313   -734.45734    58066.147   -12789.281    932.44353   -13721.725    100.83181    239.88917 
   27600    78.257475   -433.30797    58035.211   -12774.471      948.012   -13722.483    100.72103    243.89446 
   27650    80.352503   -563.60642     58035.29   -12754.897    973.39119   -13728.288    100.37595    250.42375 
   27700    80.383675   -489.85361    58033.093   -12761.884     973.7688   -13735.653    100.33152     250.5209 
   27750    76.011536   -655.91429    58018.043   -12733.494    920.80467   -13654.298    100.17835    236.89485 
   27800    76.699052   -720.94057    58058.844   -12769.132    929.13324   -13698.266    100.24158    239.03754 
   27850     74.58496   -463.32678    58049.667   -12755.124     903.5231   -13658.648    99.984852    232.44883 
   27900    75.692436   -1017.6708     58088.63   -12772.035    916.93908   -13688.974    100.31694    235.90035 
   27950    77.102809   -688.30089    58035.987   -12772.165    934.02436   -13706.189    100.48778    240.29587 
   28000    75.792674   -665.13136    58061.049   -12757.902    918.15336   -13676.055    100.92702    236.21275 
   28050    78.354437   -392.10886    58028.017   -12756.732    949.18659   -13705.918    100.95008    244.19665 
   28100    74.317098   -570.85307    58047.214   -12787.573    900.27822   -13687.852    101.24111    231.61402 
   28150    76.850152   -831.29457    58058.972   -12795.002    930.96367   -13725.965       101.17    239.50845 
   28200    76.169978   -520.66863    58053.557   -12822.198    922.72403   -13744.922    101.40896    237.38864 
   28250    75.366539   -826.06508    58080.386   -12801.078    912.99116   -13714.069    101.29159    234.88467 
   28300    76.137585   -453.90168    58030.555    -12812.17    922.33162   -13734.502    101.71877    237.28769 
   28350    76.732409   -516.82845    58028.774   -12817.748    929.53732   -13747.285    101.94856    239.14149 
   28400    74.847705    66.629779     58044.18   -12843.239    906.70599   -13749.945    101.92544    233.26769 
   28450    76.973649   -449.52046      58113.3   -12828.446    932.45971   -13760.906    101.83876    239.89334 
   28500    79.089923   -578.01448    58169.131   -12763.504    958.09628     -13721.6    101.89223    246.48884 
   28550    76.841053   -692.95772    58171.241    -12788.68    930.85344   -13719.533    102.12511    239.48009 
   28600    77.263068   -216.02689     58154.53   -12812.645    935.96574   -13748.611    102.10024    240.79533 
   28650      75.5882   -1044.4216    58174.796   -12797.036    915.67636   -13712.712     102.3587    235.57549 
   28700    78.360985   -436.99098    58133.433   -12796.353    949.26591   -13745.619    102.05089    244.21706 
   28750    77.388825   -1202.5804    58096.679   -12825.567    937.48916   -13763.056    102.01763    241.18726 
   28800    75.004052   -451.25512    58068.006   -12841.717    908.59999   -13750.317    102.06061    233.75496 
   28850    74.736632   -725.11671    58080.485   -12825.597    905.36046   -13730.958    102.47186    232.92153 
   28900    76.302069   -603.81355    58086.831   -12841.261    924.32418   -13765.586    101.75721    237.80031 
   28950    74.078734   -955.20713    58030.418   -12824.663    897.39068   -13722.054    101.82989    230.87115 
   29000    76.705251   -403.10009    57992.518   -12819.259    929.20833   -13748.468    101.72938    239.05685 
   29050    76.581715   -611.59565    57977.658   -12814.765    927.71182   -13742.476    102.11483    238.67185 
   29100    76.731369   -576.96865    57999.777   -12802.986    929.52473   -13732.511     102.6102    239.13825 
   29150    75.367199   -375.59053    58014.537   -12840.738    912.99915   -13753.738    102.51897    234.88673 
   29200    76.009335   -649.72822     58046.37   -12833.726      920.778   -13754.504    102.38806    236.88799 
   29250     74.87226   -688.63747    57986.363    -12843.31    907.00346   -13750.314    102.50797    233.34422 
   29300    77.862684   -565.27167    58027.724   -12798.023    943.22949   -13741.253    102.94942    242.66407 
   29350    75.943825   -361.69404     58003.37   -12808.001    919.98441   -13727.986    103.11699    236.68382 
   29400    77.205703   -460.82095    57995.349   -12788.974    935.27082   -13724.245    103.39765    240.61655 
   29450    76.209484   -841.48212    57981.584   -12786.876    923.20261   -13710.078    103.51026    237.51177 
   29500    76.944197   -611.21611    57940.932    -12821.36    932.10292   -13753.463     103.6282    239.80155 
   29550    75.855276   -731.73383    57954.944   -12840.238    918.91172    -13759.15    103.71079    236.40785 
   29600    74.983505   -290.51228    57893.284   -12814.431    908.35108   -13722.782     103.7413    233.69092 
   29650    76.728189   -579.69153    57884.792   -12791.777     929.4862   -13721.263    103.85232    239.12834 
   29700     75.85659   -477.12751    57865.183   -12815.685    918.92764   -13734.612    103.89741    236.41195 
   29750    78.224076   -279.99561    57837.158   -12789.082     947.6074    -13736.69    104.00812    243.79037 
   29800    81.160014   -657.46857    57870.805   -12736.665    983.17339   -13719.838    104.17341    252.94041 
   29850    82.670887   -141.42524     57847.87   -12706.276    1001.4761   -13707.752    104.14321    257.64915 
   29900    78.841128   -547.98269    57861.255   -12737.847    955.08237    -13692.93    104.24945    245.71345 
   29950    77.495372   -431.62353    57832.561   -12745.083    938.77987   -13683.863    104.21638    241.51932 
   30000    80.078109   -917.94514    57823.684   -12720.244    970.06718   -13690.311    104.67756    249.56858 
   30050    79.548043   -480.33947    57766.136   -12702.791    963.64595   -13666.437     104.7511     247.9166 
   30100    79.682997   -869.68206    57811.446    -12708.63    965.28078   -13673.911    104.90743    248.33719 
   30150     77.75115   -451.09792    57755.124   -12720.491    941.87837   -13662.369    105.08512    242.31647 
   30200    78.392214   -435.35287    57730.037   -12734.243    949.64422   -13683.887    105.16272    244.31438 
   30250    79.446054   -898.18001    57723.079    -12786.63    962.41045   -13749.041    105.44562    247.59874 
   30300    77.957658   -596.06117     57692.85   -12770.982    944.38001   -13715.362    105.44552    242.96006 
   30350    76.303278   -340.60769    57659.071   -12779.265    924.33883   -13703.603    105.60573    237.80408 
   30400    76.876583   -418.09931    57672.402   -12775.048    931.28386   -13706.332    105.80499    239.59082 
   30450    78.324269   -669.39963      57681.3   -12738.921    948.82114   -13687.743    106.18222    244.10263 
   30500    79.388068   -392.85393    57696.522    -12742.97    961.70801   -13704.678    106.24382    247.41803 
   30550    78.235572   -610.27206    57635.202   -12770.871    947.74667   -13718.617    106.66581     243.8262 
   30600    79.141947   -626.52844    57583.262   -12759.659     958.7265   -13718.385     107.2541    246.65098 
   30650    79.088657   -583.53283    57584.395   -12793.502    958.08094   -13751.583    107.73607    246.48489 
   30700    75.889005   -776.04463    57558.253   -12820.175    919.32032   -13739.496    107.71864    236.51297 
   30750    73.817775   -781.95913    57585.759   -12801.718    894.22941   -13695.947    108.06217    230.05785 
   30800    75.606789    -705.6596    57502.803   -12808.885    915.90155   -13724.787    107.75429    235.63343 
   30850     77.08637   -631.67343    57497.167   -12804.432    933.82521   -13738.257    108.48547    240.24464 
   30900    76.211912   -417.59634    57498.763   -12819.625    923.23203   -13742.857    108.78747    237.51933 
   30950    74.777877   -851.87445    57512.842   -12811.038     905.8601   -13716.898    108.90173    233.05007 
   31000    77.796728    -271.9216    57525.111   -12772.002     942.4305   -13714.432    109.28017    242.45851 
   31050    76.055267   -556.89863    57574.163   -12761.484    921.33442   -13682.818    109.73149    237.03114 
   31100    79.417379   -814.69623    57593.257   -12744.192    962.06308   -13706.255    110.24185    247.50938 
   31150    78.092581   -962.37506    57585.476   -12732.276    946.01446    -13678.29    110.36869    243.38056 
   31200    78.832007   -738.81671    57565.819   -12714.456    954.97188   -13669.428    110.29474    245.68503 
   31250    76.932504   -359.43544    57513.063   -12697.399    931.96128    -13629.36    110.65178     239.7651 
   31300    76.794987   -1064.9049    57490.253   -12725.533     930.2954   -13655.829    111.10273    239.33652 
   31350    77.266254   -1348.0246     57514.83   -12710.885    936.00434   -13646.889    111.95223    240.80526 
   31400    78.062207    -477.1267     57491.67    -12715.57    945.64651   -13661.217    112.59401     243.2859 
   31450    75.851843   -776.39168    57505.532   -12709.944    918.87014   -13628.814    113.27844    236.39715 
   31500    76.407555   -529.25034    57569.157   -12710.689    925.60204   -13636.291    113.15387    238.12907 
   31550    77.262816    -669.7651    57511.639   -12717.672    935.96269   -13653.634    113.35541    240.79454 
   31600    76.386883   -736.43437    57510.294   -12713.779    925.35162    -13639.13    113.25024    238.06464 
   31650    77.211969   -537.05928    57528.216   -12711.263    935.34672    -13646.61    113.18922    240.63608 
   31700     76.87601   -991.43895    57497.246    -12719.31    931.27691   -13650.587    113.66242    239.58904 
   31750    76.928378   -463.98044    57514.758   -12716.951     931.9113   -13648.862    113.92739    239.75225 
   31800    74.916875   -720.77817    57434.043    -12747.97    907.54392   -13655.514    114.04361    233.48327 
   31850    76.531262   -619.99754    57437.328   -12741.677    927.10063   -13668.777    114.23944    238.51461 
   31900    79.252063   -767.39237    57440.738   -12727.297    960.06044   -13687.357     114.8795    246.99416 
   31950    76.588983   -443.44321    57484.323   -12754.067    927.79986   -13681.867    115.71647     238.6945 
   32000    76.283477   -398.25363    57471.497    -12771.86    924.09896   -13695.958    115.93148    237.74237 
   32050    76.375229   -594.39971    57483.089   -12789.622    925.21045   -13714.833    116.10114    238.02832 
   32100    72.086883   -806.20434    57427.764   -12810.046    873.26137   -13683.307     116.4656    224.66342 
   32150     75.87152   -779.79358    57419.647   -12785.619    919.10851   -13704.728    116.31148    236.45848 
   32200    77.305829   -870.26803    57479.257    -12767.81    936.48374   -13704.294    116.62915     240.9286 
   32250    72.651882   -615.03042     57494.49   -12781.503    880.10577   -13661.609    116.89554    226.42427 
   32300    73.557822   -900.18224    57466.548   -12795.997    891.08035   -13687.077    117.26403    229.24769 
   32350    78.030957   -459.07043    57484.751   -12777.735    945.26795   -13723.003    117.16157     243.1885 
   32400    74.592522   -758.90717     57529.94   -12800.209    903.61471   -13703.824    117.53065     232.4724 
   32450    75.517031   -618.05441    57497.461    -12795.33    914.81422   -13710.144    117.51056    235.35369 
   32500    76.608623   -842.89277     57488.96   -12784.821    928.03778   -13712.859    117.86618    238.75571 
   32550    74.143525   -510.32543    57481.578   -12787.846    898.17556   -13686.021    117.77011    231.07307 
   32600    75.810409   -1141.4018    57479.793   -12808.592    918.36821    -13726.96    118.24474    236.26802 
   32650    76.841314    -711.3055    57468.985   -12797.797    930.85661   -13728.654    118.17754    239.48091 
   32700    76.413956   -446.60731    57455.779    -12782.99    925.67958    -13708.67    118.58307    238.14902 
   32750    78.750567   -475.18455    57473.747   -12753.591    953.98531   -13707.577    119.00955    245.43121 
   32800    76.753246   -570.99261    57512.703   -12739.877    929.78975   -13669.667    119.14326    239.20644 
   32850     78.02936   -496.54026    57505.984   -12746.678    945.24861   -13691.926    119.14301    243.18353 
   32900     78.95818   -837.66583    57551.837   -12717.692    956.50034   -13674.192    119.11141    246.07825 
   32950    76.652601      -292.72    57562.785   -12759.488    928.57053   -13688.058    119.76637    238.89277 
   33000    75.554825   -954.55191    57549.908   -12754.056    915.27206   -13669.328    119.75752    235.47148 
   33050    77.137555   -490.12553    57541.337   -12729.268    934.44527   -13663.713    120.40958    240.40416 
   33100    75.568659    -605.5648    57592.874   -12746.994    915.43964   -13662.434    120.86852    235.51459 
   33150    76.867822   -619.32724     57593.01   -12738.822    931.17772       -13670    121.23438    239.56352 
   33200    79.089147   -864.84136    57565.199   -12747.874    958.08688   -13705.961    121.74978    246.48642 
   33250    75.833044   -521.97121    57575.761    -12725.39    918.64241   -13644.032    121.95425    236.33857 
   33300    76.304529   -643.29815    57553.156   -12733.163    924.35398   -13657.517    121.56151    237.80798 
   33350    78.049222   -346.69934    57504.335   -12703.533    945.48922   -13649.022    121.26969    243.24543 
   33400    80.033286   -702.18606    57545.255   -12715.529    969.52419   -13685.053      121.847    249.42889 
   33450    75.213234   -917.99791    57555.157   -12724.601    911.13403   -13635.735    121.56982    234.40689 
   33500    77.785959   -809.91821    57516.828    -12726.04    942.30005    -13668.34    121.86004    242.42495 
   33550     75.12051   -261.74939    57552.386   -12750.439    910.01076    -13660.45    122.10423    234.11791 
   33600    78.169731   -339.87948    57598.389   -12722.824    946.94906   -13669.773    122.63516      243.621 
   33650    78.603457   -112.22455    57618.247   -12722.342    952.20322   -13674.545     122.8749    244.97274 
   33700    77.719053   -467.64733    57668.222   -12740.843    941.48954   -13682.332    122.86033    242.21643 
   33750    77.470951   -156.02796    57655.534   -12729.072    938.48403   -13667.556    123.47682    241.44321 
   33800    74.598604   -710.67411     57663.31   -12756.971    903.68838    -13660.66    123.98018    232.49135 
   33850     78.00754    -459.8046    57682.754   -12734.072    944.98428   -13679.056    124.01017    243.11552 
   33900    74.981036   -516.49489    57736.405   -12727.522    908.32117   -13635.843    124.55143    233.68323 
   33950    76.269026   -488.65147    57694.267   -12748.424     923.9239   -13672.348    124.68112    237.69733 
[...]
   92050    78.071961   -745.86557    57456.871   -12709.127    945.76468   -13654.892    323.52756     243.3163 
   92100    82.061645   -288.27288    57484.609   -12707.187    994.09576   -13701.283     324.0167     255.7504 
   92150    78.700168   -243.61287    57562.446   -12693.001    953.37479   -13646.376    323.95714    245.27414 
   92200    80.022099   -538.33626    57612.415   -12705.961    969.38867    -13675.35    324.72722    249.39403 
   92250    79.167239   -285.32117    57656.603   -12711.904    959.03289   -13670.937    325.11479     246.7298 
   92300    76.361122    -587.4418    57662.204   -12756.091    925.03955    -13681.13    324.99081    237.98435 
   92350    75.885667    -771.1494    57715.323   -12739.522    919.27989   -13658.802    326.36072    236.50257 
   92400    79.313181   -650.65127    57767.416   -12742.987    960.80083   -13703.788    326.32318    247.18464 
   92450    74.324226    -841.1059    57720.401   -12774.436    900.36457   -13674.801    325.97641    231.63624 
   92500    75.729745   -928.68721    57694.104   -12772.845    917.39104   -13690.236    326.16979    236.01663 
   92550    79.017035   -881.44223    57665.899   -12740.566    957.21332    -13697.78    325.86107    246.26168 
   92600    78.620234   -446.23104    57615.819   -12734.505    952.40646   -13686.911    326.11874    245.02502 
   92650    79.011585   -322.01079    57614.356   -12707.481    957.14729   -13664.628    326.63752    246.24469 
   92700    78.251247   -589.40123    57613.622   -12686.863    947.93654   -13634.799    327.09189    243.87505 
   92750    77.979839   -598.57445    57625.117   -12705.756    944.64871   -13650.405    326.89304    243.02919 
   92800    79.202514   -201.22311    57622.846   -12724.737     959.4602   -13684.197    327.45931    246.83974 
   92850    77.043805   -663.59099    57604.042   -12751.123    933.30959   -13684.432    327.84627    240.11198 
   92900    77.086928   -518.32843    57549.752   -12740.758    933.83197    -13674.59    327.24189    240.24638 
   92950    78.132995   -488.87749    57543.572   -12732.628    946.50404   -13679.132    327.67814    243.50651 
   93000    76.133725   -492.78096    57529.731    -12724.96    922.28486   -13647.245    327.39017    237.27566 
   93050    77.687602   -525.45925    57551.724   -12719.361    941.10855   -13660.469    327.75148    242.11842 
   93100     78.23243   -164.19708    57613.835   -12714.273     947.7086   -13661.982    328.38548    243.81641 
   93150    79.916491   -645.67269    57642.357   -12719.456    968.10933   -13687.566    327.70727    249.06489 
   93200    78.276652   -900.65958    57567.699   -12723.965    948.24431   -13672.209    328.15007    243.95423 
   93250    77.463728   -831.90987    57479.579   -12738.271    938.39654   -13676.668    329.11122     241.4207 
   93300    74.814497   -719.63434     57438.02   -12764.699    906.30372   -13671.002    329.44716     233.1642 
   93350    77.374057    -729.9661    57395.495    -12738.12    937.31026    -13675.43    329.08754    241.14123 
   93400    78.569181   -475.28009    57369.955   -12738.573    951.78801   -13690.361    328.62047    244.86592 
   93450    77.141206   -709.76074    57394.556   -12740.144     934.4895   -13674.634    329.29025    240.41554 
   93500    78.041807   -680.22653    57362.911   -12742.629    945.39939   -13688.028    329.35666    243.22232 
   93550    77.295205    -611.0819    57380.923   -12749.462    936.35504   -13685.817    329.57595    240.89548 
   93600    77.139161   -310.81492    57466.979   -12765.666    934.46473   -13700.131    329.66212    240.40916 
   93650    76.760736    -506.7986    57474.329   -12773.798    929.88048   -13703.678    330.30892    239.22978 
   93700    76.346704   -672.67472     57458.51   -12773.731     924.8649   -13698.596    330.28529    237.93942 
   93750    77.176261   -795.61058    57495.137   -12774.547    934.91416   -13709.461     330.6728    240.52479 
   93800    76.053427   -1132.3071    57454.331    -12762.38    921.31213   -13683.692    330.99123    237.02541 
   93850    76.920835   -614.41751    57451.687   -12732.625    931.81992   -13664.445    330.79542    239.72874 
   93900    79.261385   -637.74502    57459.962   -12717.967    960.17337    -13678.14     330.6465    247.02321 
   93950    79.297649   -386.81217    57510.041   -12740.117    960.61268    -13700.73    330.75935    247.13623 
   94000    78.442992   -477.40927    57546.918   -12743.004    950.25934   -13693.263    330.63894    244.47264 
   94050    76.063547   -565.85415    57566.529   -12786.193    921.43472   -13707.627    330.85939    237.05694 
   94100    76.495231   -813.91626    57577.013   -12794.165    926.66415   -13720.829    331.41857    238.40232 
   94150    78.020112   -665.45594    57512.536    -12741.37    945.13658   -13686.507    331.44744     243.1547 
   94200     78.73455   -655.35145     57459.92   -12719.829    953.79129   -13673.621    331.87008     245.3813 
   94250    79.840212   -652.94252    57469.225   -12706.725    967.18529    -13673.91    332.23237    248.82716 
   94300    80.162368   -327.62953    57484.858   -12730.725     971.0879   -13701.812    332.60278    249.83118 
   94350     80.09726   -677.87767    57524.699    -12726.99    970.29917   -13697.289     333.0145    249.62827 
   94400    78.390411   -379.00906     57519.83   -12721.639    949.62239   -13671.261    333.60799    244.30877 
   94450    76.769375   -832.43963    57495.205   -12732.546    929.98513   -13662.531    333.23656     239.2567 
   94500      76.7478   -732.32992     57465.77   -12735.657    929.72377   -13665.381    333.67225    239.18946 
   94550    74.418285   -511.95145    57455.035   -12742.414      901.504   -13643.918    333.08551    231.92938 
   94600    79.079501   -535.84819    57518.615   -12757.212    957.97003   -13715.182    333.09821    246.45636 
   94650    77.817136    -757.2115    57493.759   -12764.887    942.67773   -13707.565    332.62242    242.52212 
   94700    75.261836   -1114.6329    57448.919   -12773.281    911.72279   -13685.003    333.26138    234.55836 
   94750    77.699412   -860.30796    57445.846   -12781.082    941.25161   -13722.333    333.58586    242.15522 
   94800    77.681032   -791.09891    57424.754   -12812.041    941.02896    -13753.07    333.79363    242.09794 
   94850    75.821249   -541.68764    57400.368   -12823.683    918.49952   -13742.183    334.10794    236.30181 
   94900    78.832486   -586.87738    57391.898    -12791.71    954.97768   -13746.688    334.02584    245.68652 
   94950    79.701253   -642.93874    57429.185   -12777.084    965.50193   -13742.586    333.96652    248.39409 
   95000    77.981241   -404.88849    57454.434   -12743.538     944.6657   -13688.203     333.3452    243.03356 
   95050     76.68489   -736.89452    57503.395   -12740.298    928.96168    -13669.26    333.20986     238.9934 
   95100    76.187264   -569.89851    57521.329   -12746.653    922.93343   -13669.587    332.42193    237.44252 
   95150    78.309716   -1131.0486    57599.893   -12727.594    948.64484   -13676.238    332.60229    244.05727 
   95200    79.604743   -721.60708    57568.518   -12734.994    964.33281   -13699.327    331.95675    248.09331 
   95250    77.325517   -541.99148    57556.196   -12768.387    936.72224    -13705.11    331.54822    240.98995 
   95300    76.522283   -781.00131    57624.411   -12757.135    926.99186   -13684.127    332.63053    238.48662 
   95350    76.097855   -1032.4468    57617.538   -12780.194    921.85033   -13702.044     332.9763    237.16387 
   95400    75.505393   -435.11406    57591.739   -12795.329    914.67323   -13710.002    332.60579    235.31742 
   95450    77.453657   -739.91041    57613.678   -12767.894    938.27453   -13706.169    332.85126    241.38931 
   95500    77.029371   -302.93918    57635.108   -12753.318    933.13473   -13686.453    332.06315      240.067 
   95550    76.150469   -829.02653    57646.521   -12770.137     922.4877   -13692.625    332.35682    237.32784 
   95600     75.79068   -585.86414    57646.645   -12770.976    918.12921   -13689.106    331.67217    236.20654 
   95650    74.696099   -1156.6224    57605.203    -12811.16    904.86944   -13716.029     332.0067     232.7952 
   95700    77.193651    -529.1309    57600.672   -12811.906    935.12481    -13747.03    331.79012    240.57898 
   95750    74.122556   -950.15914    57624.683   -12787.811    897.92153   -13685.732    331.73481    231.00772 
   95800    75.210413   -593.49168    57607.219   -12783.465    911.09985   -13694.564     332.6492     234.3981 
   95850    77.151498   -301.95648     57592.25   -12761.277    934.61417   -13695.891    332.05924    240.44761 
   95900    75.331677   -1089.3432     57586.12   -12767.825    912.56885   -13680.394     332.3791    234.77603 
   95950    77.296018   -625.16828    57569.867   -12749.218    936.36489   -13685.583    332.55245    240.89802 
   96000    76.072117   -416.96487    57582.113   -12767.306    921.53855   -13688.844    332.07993    237.08365 
   96050    74.790428   -200.60212    57611.574   -12780.447    906.01214    -13686.46    332.10425    233.08919 
   96100    72.949347   -476.00635    57716.013   -12809.552    883.70927   -13693.261    332.85458    227.35134 
   96150    75.817112   -564.88145    57721.889   -12814.527    918.44941   -13732.976    333.29547    236.28891 
   96200     75.78832   -715.38146     57705.88   -12803.936    918.10062   -13722.036    333.59423    236.19918 
   96250    75.846003   -681.59452     57675.41   -12793.452    918.79939   -13712.251    333.76706    236.37895 
   96300    75.643737   -427.79828    57693.355    -12820.23    916.34914    -13736.58    333.48466    235.74858 
   96350    76.634953   -283.29147    57772.267    -12805.79    928.35675   -13734.147    333.48015    238.83777 
   96400    75.414084   -254.95958    57772.321   -12812.467    913.56712   -13726.035     333.5142    235.03285 
   96450    76.131038   -937.51261    57791.312   -12798.227    922.25231   -13720.479    333.54877    237.26728 
   96500    77.113309   -573.86621    57772.837   -12779.096    934.15155   -13713.247    333.85919    240.32859 
   96550    76.661388   -677.00995    57775.872   -12784.493    928.67698    -13713.17    335.14706    238.92015 
   96600    78.150654    -703.8533    57836.228   -12756.744    946.71797   -13703.462    335.42115    243.56155 
   96650    77.463264   -576.27575    57792.078   -12765.205    938.39092   -13703.596    335.43705    241.41925 
   96700    76.654959   -523.37112    57780.178   -12760.303    928.59909   -13688.902    335.00884    238.90012 
   96750    78.114791   -634.41957    57798.993   -12752.901    946.28352   -13699.184    336.16954    243.44978 
   96800    78.438009   -642.61227    57780.556   -12749.188    950.19899   -13699.387    335.94748    244.45711 
   96850    77.297942   -662.32274    57732.963   -12751.791    936.38819   -13688.179    335.81842    240.90401 
   96900    77.758685   -737.17552    57684.112   -12756.762    941.96965   -13698.732    336.05778    242.33995 
   96950    76.818295   -453.51282    57697.973   -12785.662    930.57775    -13716.24    336.44923    239.40917 
   97000    75.711729   -509.67209    57685.339   -12777.487     917.1728    -13694.66     336.8297    235.96048 
   97050    78.256425    -637.5841    57695.937   -12761.128    947.99927   -13709.127    337.75193    243.89119 
   97100    77.734076   -460.68518    57738.582   -12780.901    941.67153   -13722.573    337.70381    242.26325 
   97150    77.522627   -574.55515    57710.631   -12766.543    939.11003   -13705.653    337.38648    241.60426 
   97200    79.783298   -484.15783    57792.712   -12750.888    966.49584   -13717.383    338.16509    248.64979 
   97250    80.509684   -799.65744    57804.019   -12719.462    975.29528   -13694.758    338.59416    250.91362 
   97300    77.950256   -508.56178    57725.337   -12731.479    944.29034   -13675.769    338.93089      242.937 
   97350     78.01492   -229.14884    57754.499   -12722.198    945.07369   -13667.272    338.83449    243.13853 
   97400    78.341819   -338.87186     57745.38   -12732.523    949.03374   -13681.557    339.43901    244.15732 
   97450    77.504392   -662.31567    57775.131   -12764.612    938.88914   -13703.501    339.48081    241.54743 
   97500    76.786459   -369.23098    57722.021   -12761.887    930.19209   -13692.079    339.19335    239.30995 
   97550    77.754328   -643.60469    57714.652   -12757.238    941.91686   -13699.154    339.88664    242.32637 
   97600    79.533885   -523.09581    57713.887   -12768.625    963.47445   -13732.099    340.53026    247.87248 
   97650    78.151619   -796.93546     57706.22   -12744.211    946.72965   -13690.941    340.83842    243.56455 
   97700    77.537206   -1014.1278    57689.131   -12733.274    939.28664   -13672.561    341.41487     241.6497 
   97750    79.593086   -774.98189    57680.804   -12741.098     964.1916    -13705.29    342.00964    248.05698 
   97800    77.888487    -423.1494     57662.05   -12762.468    943.54207    -13706.01    342.34846    242.74449 
   97850    75.968114   -849.66777    57601.762   -12777.067    920.27865   -13697.346    342.45056    236.75952 
   97900    77.508501    -699.3281    57576.995   -12779.295    938.93892   -13718.234    342.74268    241.56024 
   97950    77.651839   -938.20464    57551.201   -12773.932    940.67532   -13714.608    343.59214    242.00696 
   98000    76.585939   -983.09673    57491.023   -12750.733    927.76298   -13678.496    343.00064    238.68501 
   98050    76.205374   -1046.5205    57472.352    -12751.44    923.15282   -13674.593    341.98398    237.49896 
   98100    77.177897   -889.37714    57477.015   -12790.347    934.93398   -13725.281    341.69107    240.52989 
   98150     74.36551    -726.3683    57512.018   -12803.262    900.86469   -13704.126    341.97446     231.7649 
   98200    74.289911   -784.41618    57477.619   -12790.348    899.94888   -13690.297     342.5261    231.52929 
   98250    76.305559   -307.78412    57517.203   -12765.532    924.36646   -13689.898    342.63082    237.81119 
   98300    78.778894   -551.37716    57565.068   -12744.692    954.32848    -13699.02    341.69865     245.5195 
   98350    75.636478   -626.67325    57581.918   -12737.963    916.26121   -13654.225    342.45756    235.72596 
   98400    76.803243   -675.12479    57586.472   -12712.393    930.39541   -13642.788    342.67416    239.36225 
   98450    77.871987   -703.77203    57579.306   -12743.391    943.34219   -13686.733    343.44569    242.69306 
   98500     73.62897   -854.42536    57546.042   -12790.914    891.94223   -13682.857    344.09937    229.46943 
   98550    75.497222    -835.1997    57546.931   -12798.451    914.57425   -13713.025    344.57132    235.29195 
   98600    75.978354   -501.50057    57539.017   -12768.952     920.4027   -13689.355    343.97431    236.79144 
   98650    77.873201   -559.74725    57558.385    -12771.28    943.35689   -13714.637    343.41743    242.69685 
   98700    76.650924    -497.1461    57603.855   -12761.851    928.55022   -13690.401    344.13016    238.88754 
   98750    76.642347   -763.03657    57616.781   -12738.278    928.44631   -13666.724    343.98205    238.86081 
   98800    76.419155   -983.86642    57610.466   -12707.702    925.74256   -13633.444    344.02283    238.16522 
   98850    78.385443   -792.50394    57606.923   -12697.651     949.5622   -13647.213    343.77543    244.29328 
   98900    79.331424    -521.0829     57672.19   -12689.899    961.02183    -13650.92    344.11533    247.24149 
   98950    78.514335   -595.33105    57684.935   -12705.801     951.1236   -13656.925     344.5628    244.69498 
   99000    75.327564   -246.27324    57699.469   -12695.957    912.51902   -13608.476    344.51333    234.76321 
   99050    76.662784   -956.51139    57650.878   -12708.818    928.69389   -13637.512    345.79645     238.9245 
   99100    78.492432   -969.62842     57623.73   -12734.016    950.85827   -13684.874    346.11321    244.62672 
   99150    77.448257   -781.84618    57602.376   -12701.115    938.20911   -13639.324    346.60851    241.37248 
   99200    77.376998   -751.88084    57577.936   -12709.288    937.34589   -13646.634    346.32949     241.1504 
   99250    75.872204   -490.88005     57550.19   -12731.695    919.11679   -13650.811    346.76446    236.46061 
   99300    75.614835   -533.85717     57544.79   -12748.593    915.99903   -13664.592     347.0325    235.65851 
   99350     76.58847   -494.98341    57530.352   -12727.049    927.79365   -13654.842    347.47816     238.6929 
   99400    77.288214   -491.66025     57533.97   -12742.113    936.27036   -13678.383    347.32137     240.8737 
   99450    75.781447   -331.42096     57518.08   -12751.927    918.01737   -13669.944    347.86553    236.17776 
   99500    78.680408   -760.48067    57510.244   -12768.788    953.13541   -13721.923    348.22034    245.21256 
   99550    77.192468   -422.27556    57556.528    -12770.55    935.11049   -13705.661    349.01529     240.5753 
   99600    75.816345   -852.65388    57639.136   -12759.604    918.44011   -13678.044    350.13352    236.28652 
   99650    77.358146   -680.66115    57624.437   -12760.418    937.11751   -13697.535    349.27701    241.09165 
   99700    75.513651   -971.25904      57548.3   -12759.053    914.77328   -13673.826    348.79038    235.34316 
   99750    79.008704   -641.90581    57552.118   -12724.564    957.11239   -13681.677    347.72292    246.23572 
   99800    75.540443   -722.81822     57577.82   -12763.175    915.09783   -13678.273     347.8457    235.42666 
   99850    78.710386   -615.59354    57612.663   -12758.428    953.49857   -13711.927    347.68297    245.30599 
   99900    76.811665   -506.50872    57619.974   -12748.906    930.49744   -13679.403    347.12915     239.3885 
   99950    76.100797   -554.66821     57632.17    -12775.67    921.88597   -13697.556    347.98358    237.17303 
  100000    76.127045    -1027.737    57606.753   -12771.925    922.20394   -13694.129    347.83996    237.25484 
Loop time of 64.9503 on 58 procs for 100000 steps with 4065 atoms

Performance: 665.124 ns/day, 0.036 hours/ns, 1539.639 timesteps/s
99.9% CPU use with 58 MPI tasks x no OpenMP threads

MPI task timing breakdown:
Section |  min time  |  avg time  |  max time  |%varavg| %total
---------------------------------------------------------------
Pair    | 30.746     | 33.627     | 41.42      |  49.0 | 51.77
Neigh   | 1.1309     | 1.4516     | 2.1209     |  27.9 |  2.23
Comm    | 12.831     | 19.776     | 25.195     |  78.5 | 30.45
Output  | 0.13304    | 0.13883    | 0.1559     |   1.7 |  0.21
Modify  | 6.3911     | 9.0578     | 11.304     |  50.1 | 13.95
Other   |            | 0.8992     |            |       |  1.38

Nlocal:    70.0862 ave 100 max 49 min
Histogram: 9 22 5 0 0 0 0 6 11 5
Nghost:    1454.26 ave 1548 max 1397 min
Histogram: 12 10 7 12 3 0 0 1 4 9
Neighs:    0 ave 0 max 0 min
Histogram: 58 0 0 0 0 0 0 0 0 0
FullNghs:  7761.62 ave 11232 max 5476 min
Histogram: 21 15 0 0 0 0 0 1 11 10

Total # of neighbors = 450174
Ave neighs/atom = 110.744
Neighbor list builds = 5534
Dangerous builds = 0

write_data		${DIR}/data.eq-${NAME}-${TEMP}
write_data		run_9/data.eq-${NAME}-${TEMP}
write_data		run_9/data.eq-het_freeze_9-${TEMP}
write_data		run_9/data.eq-het_freeze_9-240
WARNING: Proc sub-domain size < neighbor skin, could lead to lost atoms (../domain.cpp:937)
undump          1

reset_timestep  0

unfix           2
unfix           3
unfix           4


################################################
#######         Run Simulation         #########
################################################

log				${DIR}/log.run_${NAME}
log				run_9/log.run_${NAME}
log				run_9/log.run_het_freeze_9
