LAMMPS data file via write_data, version 16 Mar 2018, timestep = 100000

5021 atoms
2 atom types

0.0000000000000000e+00 4.9219999999999999e+01 xlo xhi
0.0000000000000000e+00 4.9019635930410494e+01 ylo yhi
1.5157561276789480e+00 3.8484243872322224e+01 zlo zhi

Masses

1 18.015
2 12.01

Atoms # atomic

201 2 0.0000000000000000e+00 2.8417180249513345e+00 3.1954943141883634e+00 0 0 0
203 2 0.0000000000000000e+00 0.0000000000000000e+00 3.1954943141883634e+00 0 0 0
205 2 1.2305000000000001e+00 7.1042950623783474e-01 3.1954943141883634e+00 0 0 0
212 2 1.2305000000000001e+00 2.1312885187134998e+00 3.1954943141883634e+00 0 0 0
214 2 2.4610000000000003e+00 2.8417180249513345e+00 3.1954943141883634e+00 0 0 0
216 2 2.4610000000000003e+00 0.0000000000000000e+00 3.1954943141883634e+00 0 0 0
218 2 3.6915000000000004e+00 7.1042950623783474e-01 3.1954943141883634e+00 0 0 0
233 2 3.6914999999999996e+00 2.1312885187134998e+00 3.1954943141883634e+00 0 0 0
235 2 4.9220000000000006e+00 2.8417180249513332e+00 3.1954943141883634e+00 0 0 0
237 2 4.9220000000000006e+00 0.0000000000000000e+00 3.1954943141883634e+00 0 0 0
239 2 6.1524999999999999e+00 7.1042950623783407e-01 3.1954943141883634e+00 0 0 0
262 2 6.1524999999999999e+00 2.1312885187134989e+00 3.1954943141883634e+00 0 0 0
264 2 7.3829999999999991e+00 2.8417180249513345e+00 3.1954943141883634e+00 0 0 0
266 2 7.3829999999999991e+00 0.0000000000000000e+00 3.1954943141883634e+00 0 0 0
268 2 8.6134999999999984e+00 7.1042950623783407e-01 3.1954943141883634e+00 0 0 0
299 2 8.6134999999999984e+00 2.1312885187135002e+00 3.1954943141883634e+00 0 0 0
208 2 0.0000000000000000e+00 4.2625770374269996e+00 3.1954943141883634e+00 0 0 0
210 2 1.2305000000000001e+00 4.9730065436648339e+00 3.1954943141883634e+00 0 0 0
225 2 1.2305000000000001e+00 6.3938655561404980e+00 3.1954943141883634e+00 0 0 0
229 2 2.4610000000000003e+00 4.2625770374269996e+00 3.1954943141883634e+00 0 0 0
231 2 3.6914999999999996e+00 4.9730065436648339e+00 3.1954943141883634e+00 0 0 0
254 2 3.6914999999999996e+00 6.3938655561404980e+00 3.1954943141883634e+00 0 0 0
206 2 0.0000000000000000e+00 7.1042950623783341e+00 3.1954943141883634e+00 0 0 0
227 2 2.4610000000000003e+00 7.1042950623783341e+00 3.1954943141883634e+00 0 0 0
258 2 4.9220000000000006e+00 4.2625770374269978e+00 3.1954943141883634e+00 0 0 0
260 2 6.1524999999999999e+00 4.9730065436648339e+00 3.1954943141883634e+00 0 0 0
291 2 6.1524999999999999e+00 6.3938655561404980e+00 3.1954943141883634e+00 0 0 0
295 2 7.3829999999999991e+00 4.2625770374269996e+00 3.1954943141883634e+00 0 0 0
297 2 8.6135000000000002e+00 4.9730065436648339e+00 3.1954943141883634e+00 0 0 0
336 2 8.6135000000000002e+00 6.3938655561404980e+00 3.1954943141883634e+00 0 0 0
256 2 4.9220000000000006e+00 7.1042950623783341e+00 3.1954943141883634e+00 0 0 0
293 2 7.3830000000000009e+00 7.1042950623783341e+00 3.1954943141883634e+00 0 0 0
221 2 0.0000000000000000e+00 8.5251540748539991e+00 3.1954943141883634e+00 0 0 0
223 2 1.2305000000000001e+00 9.2355835810918343e+00 3.1954943141883634e+00 0 0 0
250 2 2.4610000000000003e+00 8.5251540748539991e+00 3.1954943141883634e+00 0 0 0
252 2 3.6915000000000004e+00 9.2355835810918343e+00 3.1954943141883634e+00 0 0 0
219 2 0.0000000000000000e+00 1.1366872099805333e+01 3.1954943141883634e+00 0 0 0
246 2 1.2305000000000001e+00 1.0656442593567498e+01 3.1954943141883634e+00 0 0 0
248 2 2.4610000000000003e+00 1.1366872099805333e+01 3.1954943141883634e+00 0 0 0
283 2 3.6914999999999996e+00 1.0656442593567499e+01 3.1954943141883634e+00 0 0 0
287 2 4.9220000000000006e+00 8.5251540748539991e+00 3.1954943141883634e+00 0 0 0
289 2 6.1524999999999999e+00 9.2355835810918343e+00 3.1954943141883634e+00 0 0 0
332 2 7.3830000000000009e+00 8.5251540748539991e+00 3.1954943141883634e+00 0 0 0
334 2 8.6134999999999984e+00 9.2355835810918343e+00 3.1954943141883634e+00 0 0 0
285 2 4.9220000000000006e+00 1.1366872099805333e+01 3.1954943141883634e+00 0 0 0
328 2 6.1524999999999999e+00 1.0656442593567499e+01 3.1954943141883634e+00 0 0 0
330 2 7.3829999999999991e+00 1.1366872099805333e+01 3.1954943141883634e+00 0 0 0
375 2 8.6134999999999984e+00 1.0656442593567498e+01 3.1954943141883634e+00 0 0 0
202 2 0.0000000000000000e+00 1.4208590124756650e+00 6.2715360142490217e+00 0 0 0
204 2 0.0000000000000000e+00 0.0000000000000000e+00 6.2715360142490217e+00 0 0 0
213 2 1.2305000000000001e+00 2.1312885187134998e+00 6.2715360142490217e+00 0 0 0
215 2 2.4610000000000003e+00 1.4208590124756650e+00 6.2715360142490217e+00 0 0 0
217 2 2.4610000000000003e+00 0.0000000000000000e+00 6.2715360142490217e+00 0 0 0
234 2 3.6914999999999996e+00 2.1312885187134998e+00 6.2715360142490217e+00 0 0 0
211 2 1.2305000000000001e+00 3.5521475311891644e+00 6.2715360142490217e+00 0 0 0
232 2 3.6914999999999996e+00 3.5521475311891644e+00 6.2715360142490217e+00 0 0 0
530 2 0.0000000000000000e+00 2.8417180249513345e+00 9.3475777143090681e+00 0 0 0
531 2 0.0000000000000000e+00 0.0000000000000000e+00 9.3475777143090681e+00 0 0 0
532 2 1.2305000000000001e+00 7.1042950623783474e-01 9.3475777143090681e+00 0 0 0
536 2 1.2305000000000001e+00 2.1312885187134998e+00 9.3475777143090681e+00 0 0 0
537 2 2.4610000000000003e+00 2.8417180249513345e+00 9.3475777143090681e+00 0 0 0
538 2 2.4610000000000003e+00 0.0000000000000000e+00 9.3475777143090681e+00 0 0 0
539 2 3.6915000000000004e+00 7.1042950623783474e-01 9.3475777143090681e+00 0 0 0
547 2 3.6914999999999996e+00 2.1312885187134998e+00 9.3475777143090681e+00 0 0 0
236 2 4.9220000000000006e+00 1.4208590124756650e+00 6.2715360142490217e+00 0 0 0
238 2 4.9220000000000006e+00 0.0000000000000000e+00 6.2715360142490217e+00 0 0 0
263 2 6.1524999999999999e+00 2.1312885187134989e+00 6.2715360142490217e+00 0 0 0
265 2 7.3829999999999991e+00 1.4208590124756659e+00 6.2715360142490217e+00 0 0 0
267 2 7.3829999999999991e+00 0.0000000000000000e+00 6.2715360142490217e+00 0 0 0
300 2 8.6134999999999984e+00 2.1312885187135002e+00 6.2715360142490217e+00 0 0 0
261 2 6.1524999999999999e+00 3.5521475311891644e+00 6.2715360142490217e+00 0 0 0
298 2 8.6134999999999984e+00 3.5521475311891657e+00 6.2715360142490217e+00 0 0 0
548 2 4.9220000000000006e+00 2.8417180249513332e+00 9.3475777143090681e+00 0 0 0
549 2 4.9220000000000006e+00 0.0000000000000000e+00 9.3475777143090681e+00 0 0 0
550 2 6.1524999999999999e+00 7.1042950623783407e-01 9.3475777143090681e+00 0 0 0
562 2 6.1524999999999999e+00 2.1312885187134989e+00 9.3475777143090681e+00 0 0 0
563 2 7.3829999999999991e+00 2.8417180249513345e+00 9.3475777143090681e+00 0 0 0
564 2 7.3829999999999991e+00 0.0000000000000000e+00 9.3475777143090681e+00 0 0 0
565 2 8.6134999999999984e+00 7.1042950623783407e-01 9.3475777143090681e+00 0 0 0
581 2 8.6134999999999984e+00 2.1312885187135002e+00 9.3475777143090681e+00 0 0 0
207 2 0.0000000000000000e+00 5.6834360499026637e+00 6.2715360142490217e+00 0 0 0
209 2 0.0000000000000000e+00 4.2625770374269996e+00 6.2715360142490217e+00 0 0 0
226 2 1.2305000000000001e+00 6.3938655561404980e+00 6.2715360142490217e+00 0 0 0
228 2 2.4610000000000003e+00 5.6834360499026637e+00 6.2715360142490217e+00 0 0 0
230 2 2.4610000000000003e+00 4.2625770374269996e+00 6.2715360142490217e+00 0 0 0
255 2 3.6914999999999996e+00 6.3938655561404980e+00 6.2715360142490217e+00 0 0 0
224 2 1.2305000000000001e+00 7.8147245686161639e+00 6.2715360142490217e+00 0 0 0
253 2 3.6914999999999996e+00 7.8147245686161639e+00 6.2715360142490217e+00 0 0 0
534 2 0.0000000000000000e+00 4.2625770374269996e+00 9.3475777143090681e+00 0 0 0
535 2 1.2305000000000001e+00 4.9730065436648339e+00 9.3475777143090681e+00 0 0 0
543 2 1.2305000000000001e+00 6.3938655561404980e+00 9.3475777143090681e+00 0 0 0
545 2 2.4610000000000003e+00 4.2625770374269996e+00 9.3475777143090681e+00 0 0 0
546 2 3.6914999999999996e+00 4.9730065436648339e+00 9.3475777143090681e+00 0 0 0
558 2 3.6914999999999996e+00 6.3938655561404980e+00 9.3475777143090681e+00 0 0 0
533 2 0.0000000000000000e+00 7.1042950623783341e+00 9.3475777143090681e+00 0 0 0
544 2 2.4610000000000003e+00 7.1042950623783341e+00 9.3475777143090681e+00 0 0 0
257 2 4.9220000000000006e+00 5.6834360499026637e+00 6.2715360142490217e+00 0 0 0
259 2 4.9220000000000006e+00 4.2625770374269978e+00 6.2715360142490217e+00 0 0 0
292 2 6.1524999999999999e+00 6.3938655561404980e+00 6.2715360142490217e+00 0 0 0
294 2 7.3829999999999991e+00 5.6834360499026637e+00 6.2715360142490217e+00 0 0 0
296 2 7.3829999999999991e+00 4.2625770374269996e+00 6.2715360142490217e+00 0 0 0
337 2 8.6135000000000002e+00 6.3938655561404980e+00 6.2715360142490217e+00 0 0 0
290 2 6.1524999999999999e+00 7.8147245686161639e+00 6.2715360142490217e+00 0 0 0
335 2 8.6135000000000002e+00 7.8147245686161639e+00 6.2715360142490217e+00 0 0 0
560 2 4.9220000000000006e+00 4.2625770374269978e+00 9.3475777143090681e+00 0 0 0
561 2 6.1524999999999999e+00 4.9730065436648339e+00 9.3475777143090681e+00 0 0 0
577 2 6.1524999999999999e+00 6.3938655561404980e+00 9.3475777143090681e+00 0 0 0
579 2 7.3829999999999991e+00 4.2625770374269996e+00 9.3475777143090681e+00 0 0 0
580 2 8.6135000000000002e+00 4.9730065436648339e+00 9.3475777143090681e+00 0 0 0
600 2 8.6135000000000002e+00 6.3938655561404980e+00 9.3475777143090681e+00 0 0 0
559 2 4.9220000000000006e+00 7.1042950623783341e+00 9.3475777143090681e+00 0 0 0
578 2 7.3830000000000009e+00 7.1042950623783341e+00 9.3475777143090681e+00 0 0 0
220 2 0.0000000000000000e+00 9.9460130873296642e+00 6.2715360142490217e+00 0 0 0
222 2 0.0000000000000000e+00 8.5251540748539991e+00 6.2715360142490217e+00 0 0 0
249 2 2.4610000000000003e+00 9.9460130873296642e+00 6.2715360142490217e+00 0 0 0
251 2 2.4610000000000003e+00 8.5251540748539991e+00 6.2715360142490217e+00 0 0 0
245 2 1.2305000000000001e+00 1.2077301606043163e+01 6.2715360142490217e+00 0 0 0
247 2 1.2305000000000001e+00 1.0656442593567498e+01 6.2715360142490217e+00 0 0 0
282 2 3.6914999999999996e+00 1.2077301606043163e+01 6.2715360142490217e+00 0 0 0
284 2 3.6914999999999996e+00 1.0656442593567499e+01 6.2715360142490217e+00 0 0 0
541 2 0.0000000000000000e+00 8.5251540748539991e+00 9.3475777143090681e+00 0 0 0
542 2 1.2305000000000001e+00 9.2355835810918343e+00 9.3475777143090681e+00 0 0 0
556 2 2.4610000000000003e+00 8.5251540748539991e+00 9.3475777143090681e+00 0 0 0
557 2 3.6915000000000004e+00 9.2355835810918343e+00 9.3475777143090681e+00 0 0 0
540 2 0.0000000000000000e+00 1.1366872099805333e+01 9.3475777143090681e+00 0 0 0
554 2 1.2305000000000001e+00 1.0656442593567498e+01 9.3475777143090681e+00 0 0 0
555 2 2.4610000000000003e+00 1.1366872099805333e+01 9.3475777143090681e+00 0 0 0
573 2 3.6914999999999996e+00 1.0656442593567499e+01 9.3475777143090681e+00 0 0 0
286 2 4.9220000000000006e+00 9.9460130873296642e+00 6.2715360142490217e+00 0 0 0
288 2 4.9220000000000006e+00 8.5251540748539991e+00 6.2715360142490217e+00 0 0 0
331 2 7.3830000000000009e+00 9.9460130873296642e+00 6.2715360142490217e+00 0 0 0
333 2 7.3830000000000009e+00 8.5251540748539991e+00 6.2715360142490217e+00 0 0 0
327 2 6.1524999999999999e+00 1.2077301606043163e+01 6.2715360142490217e+00 0 0 0
329 2 6.1524999999999999e+00 1.0656442593567499e+01 6.2715360142490217e+00 0 0 0
374 2 8.6135000000000002e+00 1.2077301606043163e+01 6.2715360142490217e+00 0 0 0
376 2 8.6134999999999984e+00 1.0656442593567498e+01 6.2715360142490217e+00 0 0 0
575 2 4.9220000000000006e+00 8.5251540748539991e+00 9.3475777143090681e+00 0 0 0
576 2 6.1524999999999999e+00 9.2355835810918343e+00 9.3475777143090681e+00 0 0 0
598 2 7.3830000000000009e+00 8.5251540748539991e+00 9.3475777143090681e+00 0 0 0
599 2 8.6134999999999984e+00 9.2355835810918343e+00 9.3475777143090681e+00 0 0 0
574 2 4.9220000000000006e+00 1.1366872099805333e+01 9.3475777143090681e+00 0 0 0
596 2 6.1524999999999999e+00 1.0656442593567499e+01 9.3475777143090681e+00 0 0 0
597 2 7.3829999999999991e+00 1.1366872099805333e+01 9.3475777143090681e+00 0 0 0
620 2 8.6134999999999984e+00 1.0656442593567498e+01 9.3475777143090681e+00 0 0 0
5016 1 2.3582804129799664e+00 2.7426882538126014e+00 1.1939622781712934e+01 -1 1 0
3920 1 5.4414946921492326e+00 2.2978992739395609e+00 1.5022063193443406e+01 0 1 1
9 1 1.5871831777838323e+00 9.2302919387809350e+00 1.7632614495459979e+01 0 0 0
19 1 7.9459385722437395e+00 4.3077250446533784e+00 1.9575617004623137e+01 0 1 0
3823 1 4.7029152755686905e+00 1.5709373147715342e+00 1.2282411546986568e+01 0 1 0
3799 1 6.8572758715934636e+00 4.7706987734506985e+00 1.5816561165487123e+01 1 1 1
4983 1 6.8461397340754004e+00 3.4229063642186524e+00 1.2160212431023973e+01 1 1 0
3454 1 2.9050499097946259e+00 5.5803476099350524e+00 1.1868711042808515e+01 0 0 1
4830 1 1.9913386581738535e+00 5.4037777491300973e+00 1.4458863323912423e+01 1 1 -1
5015 1 8.1763319898514109e+00 2.5680701719415935e+00 1.7679737157955000e+01 1 1 0
3802 1 4.9133585958895161e+00 7.8953093710730045e+00 1.2283046447718965e+01 1 1 0
127 1 7.9321383897886619e+00 6.0640568469876346e+00 1.2199670175959652e+01 0 1 0
1355 1 6.3038900094618331e+00 7.4393622122111482e+00 1.4437974009071688e+01 0 0 0
4764 1 1.2670791112457094e+00 1.1974734208160500e+01 1.1679515265866552e+01 1 1 -1
2695 1 2.7733829543890023e+00 1.0198346959033000e+01 1.4293491925654692e+01 0 0 0
1290 1 3.9606970643809336e+00 1.0519355733242124e+01 1.2013542566836506e+01 0 0 0
3820 1 2.7987334050116369e-01 6.5978524460236425e+00 1.1847998933765208e+01 1 -1 0
3861 1 4.6934744953245389e+00 1.0309481069423358e+01 1.8676617599749211e+01 0 0 0
3759 1 8.3579781089864635e+00 1.0129216929562702e+01 1.1703058710333607e+01 0 0 -1
4815 1 6.1870852925137312e+00 1.1911256341071953e+01 1.2376581967055742e+01 0 1 0
2620 1 8.1329660223883042e+00 9.4865381029939577e+00 1.4429202780352469e+01 0 0 1
1047 1 2.6134849655307888e+00 2.7278054454083152e+00 1.4843789085721960e+01 1 1 0
2393 1 3.1852974503501739e+00 2.9359809965313075e+00 1.9831523257823019e+01 1 0 0
3779 1 9.4735951181801253e-02 9.9050006805574213e+00 1.4744797024952739e+01 1 0 0
1274 1 6.6736967550660200e+00 8.7003758909110083e+00 1.8153423983918593e+01 0 1 -1
4889 1 5.5824231704072664e+00 5.7333889232625985e+00 1.7915870813559280e+01 1 1 0
1452 1 2.1171990632433362e+00 1.2075301714476247e+01 1.8099846202516645e+01 1 2 0
1202 1 8.3101933105474490e+00 1.0698963617560503e+01 1.6843034343479907e+01 0 0 -1
3956 1 6.1184923381196619e+00 5.0903152205302715e-01 1.7578306925970129e+01 1 1 -1
3434 1 4.0911262010274649e+00 8.6531653143366682e+00 1.5992308652622551e+01 1 -1 0
4643 1 2.8883746315316006e+00 5.7979750732854241e+00 1.7409109719811948e+01 0 0 0
4780 1 1.7964128770542049e+00 2.5484954975100313e+00 1.7643500873198835e+01 1 0 0
3819 1 8.9272671559564714e+00 2.3271251145167455e+00 1.4579459400602458e+01 0 0 0
1080 1 6.1336363563640701e-02 4.8025504376135775e+00 1.7737823777495436e+01 0 1 -1
2372 1 3.9457365415070209e-02 1.0036578777666818e+00 1.5183148099989124e+01 1 1 0
2429 1 9.5718781296488462e+00 2.0461573746644741e+00 1.2002756614798347e+01 0 0 0
1281 1 5.7356008928762070e-01 8.0611595308048258e+00 2.0109203551902102e+01 1 0 -1
4937 1 1.7099065328170659e+00 2.7508388381677005e+00 2.3137620826580243e+01 0 1 -1
4821 1 7.4908913722122197e+00 1.2006426624854219e+01 2.7194656548495736e+01 1 1 -1
4969 1 4.8778909465738547e+00 2.5313189882144367e+00 2.2696639587009141e+01 2 1 0
2376 1 9.2026723267261001e+00 4.1928547740504234e+00 2.2166631633772163e+01 1 0 -1
2325 1 8.8315994001594724e+00 1.2167909119353388e+00 2.2169151611217998e+01 0 0 0
3971 1 1.5812476641228077e+00 4.7113734811974055e+00 2.1299574619442023e+01 0 1 0
1488 1 7.9347544505422984e+00 8.6879616404570115e+00 2.0639610278614086e+01 0 -1 0
3937 1 2.8560652498587271e+00 4.3563670646726993e-01 2.1153341285061185e+01 0 0 0
4836 1 6.5971204516525122e+00 4.8191389332105619e+00 2.3593586956620229e+01 1 1 0
2582 1 5.3061022253702186e+00 4.7937588252837946e+00 2.0576259463133873e+01 1 0 0
1326 1 9.2604585607142127e+00 7.9873646965179628e+00 2.4802312120944450e+01 0 0 0
3562 1 4.5623446934386386e-01 9.3151397256356034e+00 2.8735590030484310e+01 1 0 0
2192 1 1.3701360719492708e+00 1.0335217093891950e+01 2.1458977182630946e+01 0 0 0
3892 1 4.2727523713791058e+00 9.4971554150203001e+00 2.1192377462309082e+01 1 0 0
2350 1 6.1603656250172181e+00 5.6443394134297276e-01 2.0807219042226961e+01 0 0 0
23 1 6.6683260531268775e+00 8.0593941274277174e+00 2.3083264381204746e+01 1 2 1
2304 1 3.6414505338496044e+00 6.7452417262548190e+00 2.2099352593920305e+01 0 -1 0
1005 1 3.9580011316246373e+00 1.4003646130190539e+00 2.5675647790415375e+01 0 0 0
3438 1 8.5987338228184242e+00 1.0862987838926964e+01 2.3390208957416263e+01 -1 0 0
3962 1 5.7280273600807181e+00 2.1543846078188200e+00 2.7393895785574898e+01 -1 0 1
3918 1 4.7613331357506778e+00 1.1269602947031501e+01 2.6184542116974086e+01 1 0 0
3423 1 3.9368467465723351e+00 8.4419275567234493e+00 2.5442209127380060e+01 0 0 0
2383 1 5.7875064045526248e+00 1.0784839917939568e+01 2.3426175823841046e+01 0 0 0
2562 1 1.0762260853351651e+00 7.4920116931567673e+00 2.2980516194542478e+01 0 0 0
2551 1 2.7950857195708507e+00 4.1484376376385441e+00 2.5580243146286129e+01 0 1 -1
2430 1 8.2278637393120924e-01 5.4550404294510466e+00 2.6877610090200271e+01 1 0 -1
2639 1 4.3599203856096471e+00 5.9624714897428568e+00 2.4429334383257320e+01 0 0 0
1216 1 9.7792586196474129e+00 2.6123125238095906e+00 2.4983144756566567e+01 1 0 -1
3960 1 7.5306818921840248e+00 3.7617900082503919e+00 2.6090679387309049e+01 1 0 0
2406 1 8.0182115062611299e+00 6.6806309909119541e+00 2.6934645992291383e+01 0 0 -1
4786 1 7.6976341657925218e-01 1.0207901912855718e+01 2.4361611524418631e+01 0 1 0
1207 1 1.4490565827896731e+00 8.1879774786552630e+00 2.6352088046169722e+01 1 1 -1
3590 1 5.6661162113181609e+00 7.6603967434945703e+00 2.7680078913410018e+01 0 0 1
3529 1 3.5744567055293484e+00 9.9186570818618183e+00 2.9211579836586925e+01 1 0 0
2193 1 1.3450609860873070e-01 6.9951241820362786e-01 2.8324737677136834e+01 2 1 0
3677 1 2.9200145497676433e-01 1.2082017490301736e+01 2.7699935381619706e+01 0 0 0
2530 1 3.7139414139512290e+00 5.8066487089965690e+00 2.8626327875208673e+01 1 1 0
4995 1 9.7461649812587172e+00 7.4318968103661842e-02 2.6177723186670107e+01 1 1 -1
3440 1 1.7618738448823661e+00 1.4126086999715943e+00 3.2774726781173044e+01 1 0 0
3868 1 3.6893090969179210e+00 6.6131875620149416e-01 3.0641524788546725e+01 1 0 0
3895 1 3.5119457946635568e-01 3.7833826991940840e+00 3.4347071761529854e+01 1 0 0
2692 1 9.4880566715231662e+00 1.6723009595496392e+00 3.0864745394754479e+01 -1 0 0
1028 1 2.2877281155462681e-01 3.3161211438701597e+00 3.7407368643008034e+01 0 1 0
1160 1 2.2746933153012128e+00 1.0327017487560035e+01 3.7928534174750830e+01 0 0 -1
4884 1 8.7205893002238426e+00 1.0944868880595864e+01 3.7546342948208803e+01 0 -1 0
160 1 2.6253155134755750e+00 7.0394834604280607e+00 3.0849964720698019e+01 1 0 0
3489 1 4.3969656206585062e-01 5.8967620561860299e+00 3.2448810843753648e+01 1 0 -1
3681 1 6.8638241027745890e+00 5.0303453843382044e+00 3.0449780550563318e+01 0 1 -1
910 1 6.9253307720454771e+00 6.9112021686683764e+00 3.2364974974775947e+01 0 1 0
3896 1 8.4510277705221029e+00 6.5622920301484400e-01 3.5284915458856688e+01 1 1 0
1301 1 5.7022953001336496e-01 7.7353635733916644e+00 3.4803371753362804e+01 1 1 0
2286 1 4.3707168218034749e+00 7.2314269683173462e+00 3.3030010634873221e+01 0 0 0
5002 1 6.0907462799667611e+00 9.1831112264749919e+00 3.0273334077975829e+01 1 0 -1
3503 1 8.4514903220043252e+00 1.2050091182153254e+01 3.4485905819814761e+01 0 0 0
1150 1 5.6152499439815351e+00 1.2020037504026648e+01 3.1622340099137876e+01 1 0 0
4945 1 2.9604676613959455e+00 2.4297470118562119e+00 3.7782924009580043e+01 1 1 0
2425 1 3.9801559371211535e+00 2.9375021236282497e+00 3.5055952575228460e+01 0 0 -1
3701 1 2.9619121771117314e+00 1.1868717650187136e+01 3.1188181239015158e+01 1 1 -1
122 1 7.2269666731246414e+00 2.8597213819399525e+00 3.1900784427932500e+01 0 0 0
2594 1 7.5316117302852010e+00 2.2852806353326858e+00 3.7516933159506287e+01 1 0 0
3788 1 2.2773695419280022e+00 9.9319611325854087e+00 3.3679287997695035e+01 1 0 0
4687 1 5.4823700436866876e+00 4.4392226663172476e+00 3.7650096557286723e+01 0 0 -1
3974 1 7.5720388437084374e+00 9.2696435837550748e+00 3.4571631494054223e+01 2 0 -1
16 1 3.3348880832746612e+00 6.0850688227531284e+00 3.7297964304042964e+01 1 1 1
3777 1 1.7400438411977543e+00 3.7415664552960695e+00 3.1120697689587111e+01 1 1 0
1280 1 2.8606451674802775e+00 5.4123546620565790e+00 3.4612095039728580e+01 1 1 -1
3794 1 6.8416290532244988e+00 3.4907648128473205e+00 3.4756598993269975e+01 1 0 -1
3433 1 8.2526950791958686e+00 5.7651922435783973e+00 3.4442958361548023e+01 1 1 -1
933 1 5.9465535583402163e-01 7.5870747158308891e+00 3.7447534050928425e+01 0 -1 0
2677 1 8.0528787638419210e+00 5.9590638540652163e+00 3.7316004302476600e+01 0 0 0
2421 1 4.3997102911019343e+00 8.5793780140501017e+00 3.7451961503257635e+01 0 1 0
1350 1 4.7035050242365584e+00 9.1536812100293936e+00 3.4880658189711042e+01 1 0 0
1214 1 4.6008369112876411e+00 3.5481036603312712e+00 2.9977584979041776e+01 1 1 -1
32 1 7.2417598216773591e+00 8.5490248848583654e+00 3.7592322013970801e+01 1 1 0
1233 1 9.1936631074541548e+00 6.0197897702333378e+00 2.9394892238300905e+01 0 0 -1
2290 1 8.0101630477068877e+00 1.1045500684845527e+01 2.9667956126159126e+01 1 2 -1
1039 1 5.3022548503517006e+00 1.1967773987954290e+01 3.7617431481772400e+01 1 1 -1
2470 1 5.3502942110207750e+00 1.2110655497484109e+01 3.4657150349493904e+01 1 0 0
3966 1 6.3633318024951437e+00 4.0393215076829997e-02 3.1559146776053769e+01 0 0 0
242 2 0.0000000000000000e+00 1.2787731112280996e+01 3.1954943141883634e+00 0 0 0
244 2 1.2305000000000001e+00 1.3498160618518829e+01 3.1954943141883634e+00 0 0 0
279 2 2.4610000000000003e+00 1.2787731112280996e+01 3.1954943141883634e+00 0 0 0
281 2 3.6915000000000004e+00 1.3498160618518829e+01 3.1954943141883634e+00 0 0 0
240 2 0.0000000000000000e+00 1.5629449137232333e+01 3.1954943141883634e+00 0 0 0
275 2 1.2305000000000001e+00 1.4919019630994494e+01 3.1954943141883634e+00 0 0 0
277 2 2.4610000000000003e+00 1.5629449137232328e+01 3.1954943141883634e+00 0 0 0
320 2 3.6915000000000004e+00 1.4919019630994494e+01 3.1954943141883634e+00 0 0 0
324 2 4.9220000000000006e+00 1.2787731112280996e+01 3.1954943141883634e+00 0 0 0
326 2 6.1524999999999990e+00 1.3498160618518829e+01 3.1954943141883634e+00 0 0 0
371 2 7.3829999999999991e+00 1.2787731112280996e+01 3.1954943141883634e+00 0 0 0
373 2 8.6135000000000002e+00 1.3498160618518835e+01 3.1954943141883634e+00 0 0 0
322 2 4.9220000000000006e+00 1.5629449137232333e+01 3.1954943141883634e+00 0 0 0
367 2 6.1524999999999990e+00 1.4919019630994494e+01 3.1954943141883634e+00 0 0 0
369 2 7.3829999999999991e+00 1.5629449137232333e+01 3.1954943141883634e+00 0 0 0
414 2 8.6135000000000002e+00 1.4919019630994494e+01 3.1954943141883634e+00 0 0 0
271 2 0.0000000000000000e+00 1.7050308149707998e+01 3.1954943141883634e+00 0 0 0
316 2 2.4610000000000003e+00 1.7050308149707998e+01 3.1954943141883634e+00 0 0 0
269 2 0.0000000000000000e+00 1.9892026174659328e+01 3.1954943141883634e+00 0 0 0
273 2 1.2305000000000001e+00 1.7760737655945832e+01 3.1954943141883634e+00 0 0 0
312 2 1.2305000000000001e+00 1.9181596668421495e+01 3.1954943141883634e+00 0 0 0
314 2 2.4610000000000003e+00 1.9892026174659328e+01 3.1954943141883634e+00 0 0 0
318 2 3.6914999999999996e+00 1.7760737655945832e+01 3.1954943141883634e+00 0 0 0
359 2 3.6914999999999996e+00 1.9181596668421495e+01 3.1954943141883634e+00 0 0 0
363 2 4.9220000000000006e+00 1.7050308149707998e+01 3.1954943141883634e+00 0 0 0
410 2 7.3830000000000009e+00 1.7050308149707998e+01 3.1954943141883634e+00 0 0 0
361 2 4.9220000000000006e+00 1.9892026174659328e+01 3.1954943141883634e+00 0 0 0
365 2 6.1524999999999999e+00 1.7760737655945832e+01 3.1954943141883634e+00 0 0 0
406 2 6.1524999999999999e+00 1.9181596668421495e+01 3.1954943141883634e+00 0 0 0
408 2 7.3829999999999991e+00 1.9892026174659328e+01 3.1954943141883634e+00 0 0 0
412 2 8.6134999999999984e+00 1.7760737655945832e+01 3.1954943141883634e+00 0 0 0
448 2 8.6135000000000002e+00 1.9181596668421495e+01 3.1954943141883634e+00 0 0 0
306 2 0.0000000000000000e+00 2.4154603212086325e+01 3.1954943141883634e+00 0 0 0
308 2 0.0000000000000000e+00 2.1312885187134999e+01 3.1954943141883634e+00 0 0 0
310 2 1.2304999999999993e+00 2.2023314693372832e+01 3.1954943141883634e+00 0 0 0
351 2 1.2304999999999993e+00 2.3444173705848499e+01 3.1954943141883634e+00 0 0 0
353 2 2.4610000000000003e+00 2.4154603212086325e+01 3.1954943141883634e+00 0 0 0
355 2 2.4610000000000003e+00 2.1312885187134995e+01 3.1954943141883634e+00 0 0 0
357 2 3.6914999999999996e+00 2.2023314693372832e+01 3.1954943141883634e+00 0 0 0
398 2 3.6915000000000004e+00 2.3444173705848499e+01 3.1954943141883634e+00 0 0 0
400 2 4.9220000000000006e+00 2.4154603212086325e+01 3.1954943141883634e+00 0 0 0
402 2 4.9220000000000006e+00 2.1312885187134995e+01 3.1954943141883634e+00 0 0 0
404 2 6.1524999999999990e+00 2.2023314693372832e+01 3.1954943141883634e+00 0 0 0
440 2 6.1524999999999999e+00 2.3444173705848499e+01 3.1954943141883634e+00 0 0 0
442 2 7.3830000000000009e+00 2.4154603212086336e+01 3.1954943141883634e+00 0 0 0
444 2 7.3829999999999991e+00 2.1312885187134999e+01 3.1954943141883634e+00 0 0 0
446 2 8.6135000000000002e+00 2.2023314693372832e+01 3.1954943141883634e+00 0 0 0
474 2 8.6134999999999984e+00 2.3444173705848499e+01 3.1954943141883634e+00 0 0 0
243 2 0.0000000000000000e+00 1.2787731112280996e+01 6.2715360142490217e+00 0 0 0
280 2 2.4610000000000003e+00 1.2787731112280996e+01 6.2715360142490217e+00 0 0 0
241 2 0.0000000000000000e+00 1.4208590124756663e+01 6.2715360142490217e+00 0 0 0
276 2 1.2305000000000001e+00 1.4919019630994494e+01 6.2715360142490217e+00 0 0 0
278 2 2.4610000000000003e+00 1.4208590124756663e+01 6.2715360142490217e+00 0 0 0
321 2 3.6915000000000004e+00 1.4919019630994494e+01 6.2715360142490217e+00 0 0 0
552 2 0.0000000000000000e+00 1.2787731112280996e+01 9.3475777143090681e+00 0 0 0
553 2 1.2305000000000001e+00 1.3498160618518829e+01 9.3475777143090681e+00 0 0 0
571 2 2.4610000000000003e+00 1.2787731112280996e+01 9.3475777143090681e+00 0 0 0
572 2 3.6915000000000004e+00 1.3498160618518829e+01 9.3475777143090681e+00 0 0 0
551 2 0.0000000000000000e+00 1.5629449137232333e+01 9.3475777143090681e+00 0 0 0
569 2 1.2305000000000001e+00 1.4919019630994494e+01 9.3475777143090681e+00 0 0 0
570 2 2.4610000000000003e+00 1.5629449137232328e+01 9.3475777143090681e+00 0 0 0
592 2 3.6915000000000004e+00 1.4919019630994494e+01 9.3475777143090681e+00 0 0 0
325 2 4.9220000000000006e+00 1.2787731112280996e+01 6.2715360142490217e+00 0 0 0
372 2 7.3829999999999991e+00 1.2787731112280996e+01 6.2715360142490217e+00 0 0 0
323 2 4.9220000000000006e+00 1.4208590124756663e+01 6.2715360142490217e+00 0 0 0
368 2 6.1524999999999990e+00 1.4919019630994494e+01 6.2715360142490217e+00 0 0 0
370 2 7.3830000000000009e+00 1.4208590124756663e+01 6.2715360142490217e+00 0 0 0
415 2 8.6135000000000002e+00 1.4919019630994494e+01 6.2715360142490217e+00 0 0 0
594 2 4.9220000000000006e+00 1.2787731112280996e+01 9.3475777143090681e+00 0 0 0
595 2 6.1524999999999990e+00 1.3498160618518829e+01 9.3475777143090681e+00 0 0 0
618 2 7.3829999999999991e+00 1.2787731112280996e+01 9.3475777143090681e+00 0 0 0
619 2 8.6135000000000002e+00 1.3498160618518835e+01 9.3475777143090681e+00 0 0 0
593 2 4.9220000000000006e+00 1.5629449137232333e+01 9.3475777143090681e+00 0 0 0
616 2 6.1524999999999990e+00 1.4919019630994494e+01 9.3475777143090681e+00 0 0 0
617 2 7.3829999999999991e+00 1.5629449137232333e+01 9.3475777143090681e+00 0 0 0
640 2 8.6135000000000002e+00 1.4919019630994494e+01 9.3475777143090681e+00 0 0 0
272 2 0.0000000000000000e+00 1.7050308149707998e+01 6.2715360142490217e+00 0 0 0
274 2 1.2305000000000001e+00 1.6339878643470165e+01 6.2715360142490217e+00 0 0 0
317 2 2.4610000000000003e+00 1.7050308149707998e+01 6.2715360142490217e+00 0 0 0
319 2 3.6915000000000004e+00 1.6339878643470165e+01 6.2715360142490217e+00 0 0 0
270 2 0.0000000000000000e+00 1.8471167162183658e+01 6.2715360142490217e+00 0 0 0
313 2 1.2305000000000001e+00 1.9181596668421495e+01 6.2715360142490217e+00 0 0 0
315 2 2.4610000000000003e+00 1.8471167162183658e+01 6.2715360142490217e+00 0 0 0
360 2 3.6914999999999996e+00 1.9181596668421495e+01 6.2715360142490217e+00 0 0 0
567 2 0.0000000000000000e+00 1.7050308149707998e+01 9.3475777143090681e+00 0 0 0
590 2 2.4610000000000003e+00 1.7050308149707998e+01 9.3475777143090681e+00 0 0 0
566 2 0.0000000000000000e+00 1.9892026174659328e+01 9.3475777143090681e+00 0 0 0
568 2 1.2305000000000001e+00 1.7760737655945832e+01 9.3475777143090681e+00 0 0 0
588 2 1.2305000000000001e+00 1.9181596668421495e+01 9.3475777143090681e+00 0 0 0
589 2 2.4610000000000003e+00 1.9892026174659328e+01 9.3475777143090681e+00 0 0 0
591 2 3.6914999999999996e+00 1.7760737655945832e+01 9.3475777143090681e+00 0 0 0
612 2 3.6914999999999996e+00 1.9181596668421495e+01 9.3475777143090681e+00 0 0 0
364 2 4.9220000000000006e+00 1.7050308149707998e+01 6.2715360142490217e+00 0 0 0
366 2 6.1524999999999999e+00 1.6339878643470165e+01 6.2715360142490217e+00 0 0 0
411 2 7.3830000000000009e+00 1.7050308149707998e+01 6.2715360142490217e+00 0 0 0
413 2 8.6134999999999984e+00 1.6339878643470165e+01 6.2715360142490217e+00 0 0 0
362 2 4.9220000000000006e+00 1.8471167162183658e+01 6.2715360142490217e+00 0 0 0
407 2 6.1524999999999999e+00 1.9181596668421495e+01 6.2715360142490217e+00 0 0 0
409 2 7.3829999999999991e+00 1.8471167162183658e+01 6.2715360142490217e+00 0 0 0
449 2 8.6135000000000002e+00 1.9181596668421495e+01 6.2715360142490217e+00 0 0 0
614 2 4.9220000000000006e+00 1.7050308149707998e+01 9.3475777143090681e+00 0 0 0
638 2 7.3830000000000009e+00 1.7050308149707998e+01 9.3475777143090681e+00 0 0 0
613 2 4.9220000000000006e+00 1.9892026174659328e+01 9.3475777143090681e+00 0 0 0
615 2 6.1524999999999999e+00 1.7760737655945832e+01 9.3475777143090681e+00 0 0 0