LAMMPS data file via write_data, version 16 Mar 2018, timestep = 6000000

5021 atoms
2 atom types

0.0000000000000000e+00 4.9219999999999999e+01 xlo xhi
0.0000000000000000e+00 4.9019635930410494e+01 ylo yhi
8.7295713833555411e-01 3.9127042861659383e+01 zlo zhi

Masses

1 18.015
2 12.01

Atoms # atomic

201 2 0.0000000000000000e+00 2.8417180249513345e+00 2.6111090752860351e+00 0 0 0
203 2 0.0000000000000000e+00 0.0000000000000000e+00 2.6111090752860351e+00 0 0 0
205 2 1.2305000000000001e+00 7.1042950623783474e-01 2.6111090752860351e+00 0 0 0
212 2 1.2305000000000001e+00 2.1312885187134998e+00 2.6111090752860351e+00 0 0 0
214 2 2.4610000000000003e+00 2.8417180249513345e+00 2.6111090752860351e+00 0 0 0
216 2 2.4610000000000003e+00 0.0000000000000000e+00 2.6111090752860351e+00 0 0 0
218 2 3.6915000000000004e+00 7.1042950623783474e-01 2.6111090752860351e+00 0 0 0
233 2 3.6914999999999996e+00 2.1312885187134998e+00 2.6111090752860351e+00 0 0 0
235 2 4.9220000000000006e+00 2.8417180249513332e+00 2.6111090752860351e+00 0 0 0
237 2 4.9220000000000006e+00 0.0000000000000000e+00 2.6111090752860351e+00 0 0 0
239 2 6.1524999999999999e+00 7.1042950623783407e-01 2.6111090752860351e+00 0 0 0
262 2 6.1524999999999999e+00 2.1312885187134989e+00 2.6111090752860351e+00 0 0 0
264 2 7.3829999999999991e+00 2.8417180249513345e+00 2.6111090752860351e+00 0 0 0
266 2 7.3829999999999991e+00 0.0000000000000000e+00 2.6111090752860351e+00 0 0 0
268 2 8.6134999999999984e+00 7.1042950623783407e-01 2.6111090752860351e+00 0 0 0
299 2 8.6134999999999984e+00 2.1312885187135002e+00 2.6111090752860351e+00 0 0 0
208 2 0.0000000000000000e+00 4.2625770374269996e+00 2.6111090752860351e+00 0 0 0
210 2 1.2305000000000001e+00 4.9730065436648339e+00 2.6111090752860351e+00 0 0 0
225 2 1.2305000000000001e+00 6.3938655561404980e+00 2.6111090752860351e+00 0 0 0
229 2 2.4610000000000003e+00 4.2625770374269996e+00 2.6111090752860351e+00 0 0 0
231 2 3.6914999999999996e+00 4.9730065436648339e+00 2.6111090752860351e+00 0 0 0
254 2 3.6914999999999996e+00 6.3938655561404980e+00 2.6111090752860351e+00 0 0 0
206 2 0.0000000000000000e+00 7.1042950623783341e+00 2.6111090752860351e+00 0 0 0
227 2 2.4610000000000003e+00 7.1042950623783341e+00 2.6111090752860351e+00 0 0 0
258 2 4.9220000000000006e+00 4.2625770374269978e+00 2.6111090752860351e+00 0 0 0
260 2 6.1524999999999999e+00 4.9730065436648339e+00 2.6111090752860351e+00 0 0 0
291 2 6.1524999999999999e+00 6.3938655561404980e+00 2.6111090752860351e+00 0 0 0
295 2 7.3829999999999991e+00 4.2625770374269996e+00 2.6111090752860351e+00 0 0 0
297 2 8.6135000000000002e+00 4.9730065436648339e+00 2.6111090752860351e+00 0 0 0
336 2 8.6135000000000002e+00 6.3938655561404980e+00 2.6111090752860351e+00 0 0 0
256 2 4.9220000000000006e+00 7.1042950623783341e+00 2.6111090752860351e+00 0 0 0
293 2 7.3830000000000009e+00 7.1042950623783341e+00 2.6111090752860351e+00 0 0 0
221 2 0.0000000000000000e+00 8.5251540748539991e+00 2.6111090752860351e+00 0 0 0
223 2 1.2305000000000001e+00 9.2355835810918343e+00 2.6111090752860351e+00 0 0 0
250 2 2.4610000000000003e+00 8.5251540748539991e+00 2.6111090752860351e+00 0 0 0
252 2 3.6915000000000004e+00 9.2355835810918343e+00 2.6111090752860351e+00 0 0 0
219 2 0.0000000000000000e+00 1.1366872099805333e+01 2.6111090752860351e+00 0 0 0
246 2 1.2305000000000001e+00 1.0656442593567498e+01 2.6111090752860351e+00 0 0 0
248 2 2.4610000000000003e+00 1.1366872099805333e+01 2.6111090752860351e+00 0 0 0
283 2 3.6914999999999996e+00 1.0656442593567499e+01 2.6111090752860351e+00 0 0 0
287 2 4.9220000000000006e+00 8.5251540748539991e+00 2.6111090752860351e+00 0 0 0
289 2 6.1524999999999999e+00 9.2355835810918343e+00 2.6111090752860351e+00 0 0 0
332 2 7.3830000000000009e+00 8.5251540748539991e+00 2.6111090752860351e+00 0 0 0
334 2 8.6134999999999984e+00 9.2355835810918343e+00 2.6111090752860351e+00 0 0 0
285 2 4.9220000000000006e+00 1.1366872099805333e+01 2.6111090752860351e+00 0 0 0
328 2 6.1524999999999999e+00 1.0656442593567499e+01 2.6111090752860351e+00 0 0 0
330 2 7.3829999999999991e+00 1.1366872099805333e+01 2.6111090752860351e+00 0 0 0
375 2 8.6134999999999984e+00 1.0656442593567498e+01 2.6111090752860351e+00 0 0 0
202 2 0.0000000000000000e+00 1.4208590124756650e+00 5.7941216912045403e+00 0 0 0
204 2 0.0000000000000000e+00 0.0000000000000000e+00 5.7941216912045403e+00 0 0 0
213 2 1.2305000000000001e+00 2.1312885187134998e+00 5.7941216912045403e+00 0 0 0
215 2 2.4610000000000003e+00 1.4208590124756650e+00 5.7941216912045403e+00 0 0 0
217 2 2.4610000000000003e+00 0.0000000000000000e+00 5.7941216912045403e+00 0 0 0
234 2 3.6914999999999996e+00 2.1312885187134998e+00 5.7941216912045403e+00 0 0 0
211 2 1.2305000000000001e+00 3.5521475311891644e+00 5.7941216912045403e+00 0 0 0
232 2 3.6914999999999996e+00 3.5521475311891644e+00 5.7941216912045403e+00 0 0 0
530 2 0.0000000000000000e+00 2.8417180249513345e+00 8.9771343071250715e+00 0 0 0
531 2 0.0000000000000000e+00 0.0000000000000000e+00 8.9771343071250715e+00 0 0 0
532 2 1.2305000000000001e+00 7.1042950623783474e-01 8.9771343071250715e+00 0 0 0
536 2 1.2305000000000001e+00 2.1312885187134998e+00 8.9771343071250715e+00 0 0 0
537 2 2.4610000000000003e+00 2.8417180249513345e+00 8.9771343071250715e+00 0 0 0
538 2 2.4610000000000003e+00 0.0000000000000000e+00 8.9771343071250715e+00 0 0 0
539 2 3.6915000000000004e+00 7.1042950623783474e-01 8.9771343071250715e+00 0 0 0
547 2 3.6914999999999996e+00 2.1312885187134998e+00 8.9771343071250715e+00 0 0 0
236 2 4.9220000000000006e+00 1.4208590124756650e+00 5.7941216912045403e+00 0 0 0
238 2 4.9220000000000006e+00 0.0000000000000000e+00 5.7941216912045403e+00 0 0 0
263 2 6.1524999999999999e+00 2.1312885187134989e+00 5.7941216912045403e+00 0 0 0
265 2 7.3829999999999991e+00 1.4208590124756659e+00 5.7941216912045403e+00 0 0 0
267 2 7.3829999999999991e+00 0.0000000000000000e+00 5.7941216912045403e+00 0 0 0
300 2 8.6134999999999984e+00 2.1312885187135002e+00 5.7941216912045403e+00 0 0 0
261 2 6.1524999999999999e+00 3.5521475311891644e+00 5.7941216912045403e+00 0 0 0
298 2 8.6134999999999984e+00 3.5521475311891657e+00 5.7941216912045403e+00 0 0 0
548 2 4.9220000000000006e+00 2.8417180249513332e+00 8.9771343071250715e+00 0 0 0
549 2 4.9220000000000006e+00 0.0000000000000000e+00 8.9771343071250715e+00 0 0 0
550 2 6.1524999999999999e+00 7.1042950623783407e-01 8.9771343071250715e+00 0 0 0
562 2 6.1524999999999999e+00 2.1312885187134989e+00 8.9771343071250715e+00 0 0 0
563 2 7.3829999999999991e+00 2.8417180249513345e+00 8.9771343071250715e+00 0 0 0
564 2 7.3829999999999991e+00 0.0000000000000000e+00 8.9771343071250715e+00 0 0 0
565 2 8.6134999999999984e+00 7.1042950623783407e-01 8.9771343071250715e+00 0 0 0
581 2 8.6134999999999984e+00 2.1312885187135002e+00 8.9771343071250715e+00 0 0 0
207 2 0.0000000000000000e+00 5.6834360499026637e+00 5.7941216912045403e+00 0 0 0
209 2 0.0000000000000000e+00 4.2625770374269996e+00 5.7941216912045403e+00 0 0 0
226 2 1.2305000000000001e+00 6.3938655561404980e+00 5.7941216912045403e+00 0 0 0
228 2 2.4610000000000003e+00 5.6834360499026637e+00 5.7941216912045403e+00 0 0 0
230 2 2.4610000000000003e+00 4.2625770374269996e+00 5.7941216912045403e+00 0 0 0
255 2 3.6914999999999996e+00 6.3938655561404980e+00 5.7941216912045403e+00 0 0 0
224 2 1.2305000000000001e+00 7.8147245686161639e+00 5.7941216912045403e+00 0 0 0
253 2 3.6914999999999996e+00 7.8147245686161639e+00 5.7941216912045403e+00 0 0 0
534 2 0.0000000000000000e+00 4.2625770374269996e+00 8.9771343071250715e+00 0 0 0
535 2 1.2305000000000001e+00 4.9730065436648339e+00 8.9771343071250715e+00 0 0 0
543 2 1.2305000000000001e+00 6.3938655561404980e+00 8.9771343071250715e+00 0 0 0
545 2 2.4610000000000003e+00 4.2625770374269996e+00 8.9771343071250715e+00 0 0 0
546 2 3.6914999999999996e+00 4.9730065436648339e+00 8.9771343071250715e+00 0 0 0
558 2 3.6914999999999996e+00 6.3938655561404980e+00 8.9771343071250715e+00 0 0 0
533 2 0.0000000000000000e+00 7.1042950623783341e+00 8.9771343071250715e+00 0 0 0
544 2 2.4610000000000003e+00 7.1042950623783341e+00 8.9771343071250715e+00 0 0 0
257 2 4.9220000000000006e+00 5.6834360499026637e+00 5.7941216912045403e+00 0 0 0
259 2 4.9220000000000006e+00 4.2625770374269978e+00 5.7941216912045403e+00 0 0 0
292 2 6.1524999999999999e+00 6.3938655561404980e+00 5.7941216912045403e+00 0 0 0
294 2 7.3829999999999991e+00 5.6834360499026637e+00 5.7941216912045403e+00 0 0 0
296 2 7.3829999999999991e+00 4.2625770374269996e+00 5.7941216912045403e+00 0 0 0
337 2 8.6135000000000002e+00 6.3938655561404980e+00 5.7941216912045403e+00 0 0 0
290 2 6.1524999999999999e+00 7.8147245686161639e+00 5.7941216912045403e+00 0 0 0
335 2 8.6135000000000002e+00 7.8147245686161639e+00 5.7941216912045403e+00 0 0 0
560 2 4.9220000000000006e+00 4.2625770374269978e+00 8.9771343071250715e+00 0 0 0
561 2 6.1524999999999999e+00 4.9730065436648339e+00 8.9771343071250715e+00 0 0 0
577 2 6.1524999999999999e+00 6.3938655561404980e+00 8.9771343071250715e+00 0 0 0
579 2 7.3829999999999991e+00 4.2625770374269996e+00 8.9771343071250715e+00 0 0 0
580 2 8.6135000000000002e+00 4.9730065436648339e+00 8.9771343071250715e+00 0 0 0
600 2 8.6135000000000002e+00 6.3938655561404980e+00 8.9771343071250715e+00 0 0 0
559 2 4.9220000000000006e+00 7.1042950623783341e+00 8.9771343071250715e+00 0 0 0
578 2 7.3830000000000009e+00 7.1042950623783341e+00 8.9771343071250715e+00 0 0 0
220 2 0.0000000000000000e+00 9.9460130873296642e+00 5.7941216912045403e+00 0 0 0
222 2 0.0000000000000000e+00 8.5251540748539991e+00 5.7941216912045403e+00 0 0 0
249 2 2.4610000000000003e+00 9.9460130873296642e+00 5.7941216912045403e+00 0 0 0
251 2 2.4610000000000003e+00 8.5251540748539991e+00 5.7941216912045403e+00 0 0 0
245 2 1.2305000000000001e+00 1.2077301606043163e+01 5.7941216912045403e+00 0 0 0
247 2 1.2305000000000001e+00 1.0656442593567498e+01 5.7941216912045403e+00 0 0 0
282 2 3.6914999999999996e+00 1.2077301606043163e+01 5.7941216912045403e+00 0 0 0
284 2 3.6914999999999996e+00 1.0656442593567499e+01 5.7941216912045403e+00 0 0 0
541 2 0.0000000000000000e+00 8.5251540748539991e+00 8.9771343071250715e+00 0 0 0
542 2 1.2305000000000001e+00 9.2355835810918343e+00 8.9771343071250715e+00 0 0 0
556 2 2.4610000000000003e+00 8.5251540748539991e+00 8.9771343071250715e+00 0 0 0
557 2 3.6915000000000004e+00 9.2355835810918343e+00 8.9771343071250715e+00 0 0 0
540 2 0.0000000000000000e+00 1.1366872099805333e+01 8.9771343071250715e+00 0 0 0
554 2 1.2305000000000001e+00 1.0656442593567498e+01 8.9771343071250715e+00 0 0 0
555 2 2.4610000000000003e+00 1.1366872099805333e+01 8.9771343071250715e+00 0 0 0
573 2 3.6914999999999996e+00 1.0656442593567499e+01 8.9771343071250715e+00 0 0 0
286 2 4.9220000000000006e+00 9.9460130873296642e+00 5.7941216912045403e+00 0 0 0
288 2 4.9220000000000006e+00 8.5251540748539991e+00 5.7941216912045403e+00 0 0 0
331 2 7.3830000000000009e+00 9.9460130873296642e+00 5.7941216912045403e+00 0 0 0
333 2 7.3830000000000009e+00 8.5251540748539991e+00 5.7941216912045403e+00 0 0 0
327 2 6.1524999999999999e+00 1.2077301606043163e+01 5.7941216912045403e+00 0 0 0
329 2 6.1524999999999999e+00 1.0656442593567499e+01 5.7941216912045403e+00 0 0 0
374 2 8.6135000000000002e+00 1.2077301606043163e+01 5.7941216912045403e+00 0 0 0
376 2 8.6134999999999984e+00 1.0656442593567498e+01 5.7941216912045403e+00 0 0 0
575 2 4.9220000000000006e+00 8.5251540748539991e+00 8.9771343071250715e+00 0 0 0
576 2 6.1524999999999999e+00 9.2355835810918343e+00 8.9771343071250715e+00 0 0 0
598 2 7.3830000000000009e+00 8.5251540748539991e+00 8.9771343071250715e+00 0 0 0
599 2 8.6134999999999984e+00 9.2355835810918343e+00 8.9771343071250715e+00 0 0 0
574 2 4.9220000000000006e+00 1.1366872099805333e+01 8.9771343071250715e+00 0 0 0
596 2 6.1524999999999999e+00 1.0656442593567499e+01 8.9771343071250715e+00 0 0 0
597 2 7.3829999999999991e+00 1.1366872099805333e+01 8.9771343071250715e+00 0 0 0
620 2 8.6134999999999984e+00 1.0656442593567498e+01 8.9771343071250715e+00 0 0 0
2584 1 2.3854141340821169e+00 3.4484969807874255e+00 1.1875156815124997e+01 0 -1 -1
175 1 2.6691105315681014e+00 3.1470049878849640e+00 1.4643214302879954e+01 0 1 0
3797 1 2.2452132247838570e+00 6.4966142535247595e-01 1.1342828175867295e+01 2 -2 1
3437 1 6.9991490434797994e+00 3.2994900991856579e+00 1.2288526906068174e+01 0 2 0
64 1 6.9568868506894308e+00 5.6719980394087632e-01 1.1539795898251228e+01 0 2 1
122 1 7.1188364688081478e+00 3.0938452529426854e+00 1.5002340357334418e+01 0 0 0
1250 1 4.6880227141139352e+00 4.4812370106204300e+00 1.1208130320788266e+01 1 2 0
4966 1 2.4238903897105132e-02 7.2783658704347323e+00 1.2396977367420902e+01 1 0 -1
3752 1 2.9712519262097004e-01 7.0123130228753450e+00 1.5026153207351253e+01 -2 0 0
4770 1 4.7827638640842647e+00 7.0984106027053802e+00 1.2034841241648166e+01 -1 1 -1
2480 1 4.9390911803743265e+00 7.0652579163992755e+00 1.4924348295395463e+01 1 -1 0
1067 1 9.5636234213626690e+00 7.0605937958220180e+00 1.1993451723141215e+01 2 0 0
2588 1 9.5314717454066216e+00 7.0669582559184256e+00 1.4755131155146987e+01 0 -2 0
3459 1 9.4508132578193162e+00 4.5212597369014409e+00 1.1415253438773320e+01 -1 -1 0
2338 1 2.3718191372279112e+00 8.2906731052678655e+00 1.1259631960447173e+01 -2 -1 0
2166 1 2.4104941402978324e+00 1.0874110435485603e+01 1.2003484326716773e+01 0 -1 0
3516 1 2.4318182055741908e+00 1.0898341852473095e+01 1.4770885994134911e+01 3 1 -1
2368 1 7.2459416451343923e+00 8.2326473910762683e+00 1.1434120492292065e+01 1 -2 0
2186 1 7.3077949590896436e+00 1.0773403540773442e+01 1.1900923144904672e+01 -1 0 0
2542 1 7.2473877673710474e+00 1.0819171383170806e+01 1.4796732329533757e+01 1 0 -1
2378 1 5.0738758623273137e+00 1.2120386309526610e+01 1.1715350202261320e+01 -1 0 0
4777 1 2.8351426953710388e+00 5.7049686969150859e-01 1.6161560376497846e+01 0 1 0
4859 1 2.9871002383137042e+00 7.1630980689677892e-01 1.8886202661651854e+01 0 1 0
18 1 2.8751045639630863e+00 3.3720444390438313e+00 1.9671308080555921e+01 -1 -3 0
2187 1 7.5083106500413779e+00 7.7136208868784306e-01 1.8744272573234074e+01 0 -1 -1
3866 1 6.8943781834671816e+00 5.9012574290181441e-01 1.6005716874657971e+01 1 -1 0
2496 1 7.2134710321266340e+00 3.2109313795948671e+00 1.9732677501783069e+01 0 0 -1
2656 1 5.9361270677712663e-01 6.8576793138578216e+00 1.9540799272446790e+01 0 1 1
2535 1 3.3144377053507718e-01 4.3269985971718548e+00 1.8393686281718129e+01 -2 1 0
956 1 4.7992444355843968e+00 4.3698712444331020e+00 1.5876339008236233e+01 1 0 0
3836 1 3.9641843924036763e-01 4.4078859049265677e+00 1.5479026907367473e+01 2 -2 1
4826 1 7.2374868583196346e+00 8.1479299190637775e+00 1.5652317101614948e+01 1 2 0
1097 1 9.6364420886761355e+00 7.1875088438140837e+00 1.9555870449127561e+01 0 -1 0
4994 1 9.5575697399541664e+00 4.5905006501335857e+00 1.8495392163084745e+01 1 -1 0
3534 1 5.0856343928769085e+00 4.4552866816388317e+00 1.8776208621633280e+01 -1 -1 -1
2280 1 5.1761122189604203e+00 7.0068390292088978e+00 1.9414159197815231e+01 -2 -1 0
2145 1 9.4313553054820733e+00 4.5970041783811473e+00 1.5842975421326599e+01 2 -2 1
2681 1 2.6449194349214715e+00 8.1754575630446649e+00 1.5753965676880210e+01 0 1 1
3453 1 2.7845838175187159e+00 8.2300188777408589e+00 1.8549241147274753e+01 2 3 -1
1262 1 2.5659307257098787e+00 1.0854140064250727e+01 1.9745194044253871e+01 0 -1 -1
95 1 5.2869464410358480e-01 1.2176924798020444e+01 1.8392780225852594e+01 1 0 0
1175 1 4.8197733066701343e+00 1.2153382115464639e+01 1.5887946876714430e+01 0 1 0
80 1 7.1875654327025140e+00 1.0620416130262827e+01 1.9890737304246681e+01 2 0 0
21 1 7.3722838792754430e+00 8.3496046160626509e+00 1.8310605249250241e+01 0 -2 0
2596 1 4.9479542387130042e+00 1.2083071859433442e+01 1.8707478781160997e+01 0 2 0
4646 1 9.2039828020018533e+00 1.2033041217814107e+01 1.8702200971009248e+01 0 1 -1
1396 1 9.3933911400284273e+00 1.2062799533897014e+01 1.6031488316765490e+01 -2 0 0
3712 1 3.2280983205634270e+00 3.6198942275201769e+00 2.2649869336248194e+01 2 -1 0
2168 1 8.0788802719271080e-01 2.6492599755887647e+00 2.3254660495673630e+01 0 -1 0
3738 1 3.4782955999175996e-01 1.7526459153828000e-02 2.2451817267303944e+01 0 0 -1
1029 1 5.2300569114856712e+00 2.1412098864314797e+00 2.3629384102867892e+01 0 0 0
2365 1 7.3462684678008969e+00 3.2251115384104079e+00 2.2552168781025994e+01 1 -2 -1
929 1 9.5152173346283710e+00 2.0270057665471732e+00 2.3458122294082312e+01 0 0 0
2266 1 3.0615165875742276e+00 6.1046525751603431e+00 2.3781553597899762e+01 0 2 1
940 1 8.9003484474502736e-01 7.0873686925266810e+00 2.2743312397430905e+01 2 0 0
4893 1 9.1430275459883923e+00 7.2052329813257989e+00 2.2297368647054981e+01 0 2 0
2586 1 5.1686724565369762e+00 7.1585206058594535e+00 2.2214105697281582e+01 -1 -1 0
2400 1 7.2562494013145464e+00 5.7703545565420189e+00 2.3351811995268665e+01 2 2 0
2698 1 2.7250172683880240e+00 1.1287210749086197e+01 2.2518593460786398e+01 4 1 1
3904 1 4.8420492329193259e+00 9.7734596585726674e+00 2.3626492848654795e+01 0 0 0
4941 1 5.2391946599808037e-01 9.6966928664556367e+00 2.3311941140778828e+01 -2 0 0
2582 1 7.2868370180982573e+00 1.1305775602080802e+01 2.2744460662582316e+01 -2 2 0
2549 1 9.4660177777867158e+00 9.8137695245907217e+00 2.3388068574064636e+01 1 0 0
1144 1 6.6368570480279132e-01 2.3083597093274988e+00 2.5923665791386867e+01 3 -1 -1
4837 1 3.1022324405055115e+00 1.0504872154359119e+00 2.6884213083862960e+01 0 0 0
1334 1 5.2046186680629640e+00 2.4415618193407091e+00 2.6485502699430555e+01 0 -1 0
1237 1 9.3906678718667376e+00 2.2140529347340392e+00 2.6232568409400347e+01 1 0 -1
2654 1 7.2591160201290066e+00 1.1486841961230230e+00 2.7421124019439432e+01 2 -1 0
2563 1 6.2678225713654256e-01 4.8393775340358856e+00 2.7136277640721950e+01 2 0 0
1263 1 3.0050249090887928e+00 6.1441614132653513e+00 2.6400307700153217e+01 0 2 0
2601 1 5.2663643112908511e+00 5.1366632459997241e+00 2.7206341348092842e+01 3 -1 0
2686 1 7.1892550135954938e+00 6.2142133562332589e+00 2.6020765147189046e+01 -1 -1 0
4820 1 9.3415830974369616e+00 4.9354860543135368e+00 2.7034596746358186e+01 -2 5 -1
2150 1 3.7944072297719028e-01 9.6789799075880723e+00 2.5984311889225577e+01 -1 -1 0
2503 1 2.4716859122221275e+00 8.4823037891420299e+00 2.7172036618431598e+01 1 1 0
52 1 4.5335352014862735e+00 1.0094476414323774e+01 2.6489017192075639e+01 0 2 0
4964 1 7.2443849373630362e+00 8.8405481601045341e+00 2.7306552715895656e+01 3 1 0
4650 1 9.5331645471940600e+00 9.9042978567057069e+00 2.6073380494066054e+01 0 3 0
152 1 2.7147999235527709e+00 3.6164379099096249e+00 3.0816990612538021e+01 -1 -1 0
51 1 2.6832855264708511e+00 3.8635550025180962e+00 3.3537747667177712e+01 3 0 0
185 1 6.4679364737665779e-01 2.3845340977357674e-01 3.3710631086742808e+01 1 2 0
2429 1 4.7680683671071353e+00 2.1572113634044188e-01 3.3740091136926011e+01 1 1 0
4676 1 2.7478889080569919e+00 1.0563031322202303e+00 2.9727510623025633e+01 0 3 0
1300 1 4.2846322123187408e-01 5.1004627059347656e-03 3.0913674087819068e+01 0 0 0
1024 1 4.9046928910369925e+00 8.5465566026336148e-02 3.1060001074623539e+01 1 0 0
1127 1 7.0801801092423107e+00 1.3523990617052846e+00 3.0138825613158755e+01 0 3 0
1212 1 7.0806318269595403e+00 4.0446909503610993e+00 3.3944839304425514e+01 0 2 0
2517 1 9.4241022192807993e+00 3.5345676266307641e-01 3.3889364358923828e+01 -1 1 -1
3910 1 6.8590095847700390e+00 3.6463486617013889e+00 3.1256196969965480e+01 -1 3 0
2171 1 9.4359777861133640e+00 1.7915511540654330e-01 3.1160735008816790e+01 -1 3 0
3639 1 2.8709096232661530e-01 7.5199750001109162e+00 3.0981905685295882e+01 -1 0 0
3687 1 4.5441676490180223e+00 7.6875405046659111e+00 3.3969328695619197e+01 1 -1 0
176 1 3.7082593713293277e-01 5.1549674051925427e+00 3.0052005024494768e+01 0 2 0
1118 1 4.6651728980258262e+00 7.7902249128527670e+00 3.1243896166858516e+01 3 -1 0
2444 1 4.5624287252814466e-01 7.6983378873239179e+00 3.3744255683933417e+01 1 2 -1
2458 1 4.7729035647519185e+00 5.1222614857573623e+00 2.9942546475790135e+01 2 0 0
2440 1 9.0544539108716933e+00 7.7537563970131851e+00 3.3715566310906524e+01 0 2 0
125 1 9.1129827888826629e+00 4.5865174602862542e+00 2.9944985214177457e+01 0 0 0
3713 1 9.0265500970897872e+00 7.1707360950787518e+00 3.1028746017846395e+01 2 2 0
2395 1 2.7034429223675827e+00 1.1296526890188538e+01 3.1100125009638404e+01 0 1 0
1040 1 2.4555878739171857e+00 1.1426629508825966e+01 3.4111790662077254e+01 2 0 0
133 1 2.4154512311630705e+00 8.6037344563001792e+00 2.9918172791955239e+01 -3 -1 0
3449 1 7.0734303215723040e+00 8.8208883276497012e+00 2.9991727571013126e+01 2 1 0
3648 1 7.2042935427209800e+00 1.1156791483486279e+01 3.1232820896531948e+01 1 -1 0
3793 1 7.2119745288169188e+00 1.1683518856531563e+01 3.4035171898380014e+01 0 0 1
978 1 2.7451112584001987e+00 1.0842555892325465e+00 3.8762525706910509e+01 -1 0 -1
998 1 4.8136557789409480e+00 2.8881808607685509e+00 3.4788150848265587e+01 4 2 0
2392 1 4.6922912475634364e+00 2.5649944207755118e+00 3.7429874815924819e+01 1 3 -1
2325 1 5.5499440411620393e-01 2.6815871305312240e+00 3.7667997599511665e+01 0 0 0
3539 1 6.9382018331202533e-01 2.6364685680952187e+00 3.4941306027252509e+01 -2 1 0
1039 1 9.3203004135202843e+00 2.7212046793137916e+00 3.5115273015117836e+01 0 -1 -1
2209 1 6.7512115096148504e+00 9.5920508731529730e-01 3.8210860115338008e+01 1 3 0
2417 1 9.2191245397095187e+00 2.1529021987218657e+00 3.7835620934394726e+01 0 1 0
1028 1 2.4890268808805711e+00 6.2044396378327269e+00 3.4956618430958585e+01 -1 1 0
2247 1 2.4055045180651398e+00 6.4682988301536986e+00 3.7599973576632735e+01 1 -1 0
4944 1 4.3597224546647704e+00 5.0910160786831371e+00 3.8645949038936223e+01 0 3 -1
3500 1 2.8314608295684707e-01 5.2830812660221387e+00 3.8741116385438957e+01 -1 -2 -1
1222 1 9.2307099425926449e+00 4.8667379362560581e+00 3.8218924692810475e+01 -2 0 0
4667 1 7.0260888677948428e+00 6.4735932426427247e+00 3.5053734928016610e+01 -1 0 0
2648 1 6.8525807611183520e+00 6.0891326724778922e+00 3.8027203447483018e+01 -2 0 0
2525 1 2.4350879432200840e+00 9.0345449236844466e+00 3.8480154347390553e+01 1 -4 0
2539 1 4.7914009093158576e+00 1.0383801611577212e+01 3.7717490169914214e+01 -2 1 0
3766 1 3.7044371743671278e-01 1.0095082922239813e+01 3.7636750222542233e+01 1 -2 -1
3880 1 3.7610150678063931e-01 1.0005553980669516e+01 3.4782232399061883e+01 2 0 0
1229 1 6.8217075920894796e+00 8.6702290351450948e+00 3.8450686393427659e+01 1 0 0
2315 1 5.0398018269685663e+00 1.0158929189905669e+01 3.4864037478481833e+01 0 -2 0
4896 1 9.2175443562969637e+00 1.0085250923647457e+01 3.4643478387911514e+01 1 -1 0
1384 1 9.2441241985293381e+00 9.8795740887421761e+00 3.7630281857667541e+01 2 -1 1
242 2 0.0000000000000000e+00 1.2787731112280996e+01 2.6111090752860351e+00 0 0 0
244 2 1.2305000000000001e+00 1.3498160618518829e+01 2.6111090752860351e+00 0 0 0
279 2 2.4610000000000003e+00 1.2787731112280996e+01 2.6111090752860351e+00 0 0 0
281 2 3.6915000000000004e+00 1.3498160618518829e+01 2.6111090752860351e+00 0 0 0
240 2 0.0000000000000000e+00 1.5629449137232333e+01 2.6111090752860351e+00 0 0 0
275 2 1.2305000000000001e+00 1.4919019630994494e+01 2.6111090752860351e+00 0 0 0
277 2 2.4610000000000003e+00 1.5629449137232328e+01 2.6111090752860351e+00 0 0 0
320 2 3.6915000000000004e+00 1.4919019630994494e+01 2.6111090752860351e+00 0 0 0
324 2 4.9220000000000006e+00 1.2787731112280996e+01 2.6111090752860351e+00 0 0 0
326 2 6.1524999999999990e+00 1.3498160618518829e+01 2.6111090752860351e+00 0 0 0
371 2 7.3829999999999991e+00 1.2787731112280996e+01 2.6111090752860351e+00 0 0 0
373 2 8.6135000000000002e+00 1.3498160618518835e+01 2.6111090752860351e+00 0 0 0
322 2 4.9220000000000006e+00 1.5629449137232333e+01 2.6111090752860351e+00 0 0 0
367 2 6.1524999999999990e+00 1.4919019630994494e+01 2.6111090752860351e+00 0 0 0
369 2 7.3829999999999991e+00 1.5629449137232333e+01 2.6111090752860351e+00 0 0 0
414 2 8.6135000000000002e+00 1.4919019630994494e+01 2.6111090752860351e+00 0 0 0
271 2 0.0000000000000000e+00 1.7050308149707998e+01 2.6111090752860351e+00 0 0 0
316 2 2.4610000000000003e+00 1.7050308149707998e+01 2.6111090752860351e+00 0 0 0
269 2 0.0000000000000000e+00 1.9892026174659328e+01 2.6111090752860351e+00 0 0 0
273 2 1.2305000000000001e+00 1.7760737655945832e+01 2.6111090752860351e+00 0 0 0
312 2 1.2305000000000001e+00 1.9181596668421495e+01 2.6111090752860351e+00 0 0 0
314 2 2.4610000000000003e+00 1.9892026174659328e+01 2.6111090752860351e+00 0 0 0
318 2 3.6914999999999996e+00 1.7760737655945832e+01 2.6111090752860351e+00 0 0 0
359 2 3.6914999999999996e+00 1.9181596668421495e+01 2.6111090752860351e+00 0 0 0
363 2 4.9220000000000006e+00 1.7050308149707998e+01 2.6111090752860351e+00 0 0 0
410 2 7.3830000000000009e+00 1.7050308149707998e+01 2.6111090752860351e+00 0 0 0
361 2 4.9220000000000006e+00 1.9892026174659328e+01 2.6111090752860351e+00 0 0 0
365 2 6.1524999999999999e+00 1.7760737655945832e+01 2.6111090752860351e+00 0 0 0
406 2 6.1524999999999999e+00 1.9181596668421495e+01 2.6111090752860351e+00 0 0 0
408 2 7.3829999999999991e+00 1.9892026174659328e+01 2.6111090752860351e+00 0 0 0
412 2 8.6134999999999984e+00 1.7760737655945832e+01 2.6111090752860351e+00 0 0 0
448 2 8.6135000000000002e+00 1.9181596668421495e+01 2.6111090752860351e+00 0 0 0
306 2 0.0000000000000000e+00 2.4154603212086325e+01 2.6111090752860351e+00 0 0 0
308 2 0.0000000000000000e+00 2.1312885187134999e+01 2.6111090752860351e+00 0 0 0
310 2 1.2304999999999993e+00 2.2023314693372832e+01 2.6111090752860351e+00 0 0 0
351 2 1.2304999999999993e+00 2.3444173705848499e+01 2.6111090752860351e+00 0 0 0
353 2 2.4610000000000003e+00 2.4154603212086325e+01 2.6111090752860351e+00 0 0 0
355 2 2.4610000000000003e+00 2.1312885187134995e+01 2.6111090752860351e+00 0 0 0
357 2 3.6914999999999996e+00 2.2023314693372832e+01 2.6111090752860351e+00 0 0 0
398 2 3.6915000000000004e+00 2.3444173705848499e+01 2.6111090752860351e+00 0 0 0
400 2 4.9220000000000006e+00 2.4154603212086325e+01 2.6111090752860351e+00 0 0 0
402 2 4.9220000000000006e+00 2.1312885187134995e+01 2.6111090752860351e+00 0 0 0
404 2 6.1524999999999990e+00 2.2023314693372832e+01 2.6111090752860351e+00 0 0 0
440 2 6.1524999999999999e+00 2.3444173705848499e+01 2.6111090752860351e+00 0 0 0
442 2 7.3830000000000009e+00 2.4154603212086336e+01 2.6111090752860351e+00 0 0 0
444 2 7.3829999999999991e+00 2.1312885187134999e+01 2.6111090752860351e+00 0 0 0
446 2 8.6135000000000002e+00 2.2023314693372832e+01 2.6111090752860351e+00 0 0 0
474 2 8.6134999999999984e+00 2.3444173705848499e+01 2.6111090752860351e+00 0 0 0
243 2 0.0000000000000000e+00 1.2787731112280996e+01 5.7941216912045403e+00 0 0 0
280 2 2.4610000000000003e+00 1.2787731112280996e+01 5.7941216912045403e+00 0 0 0
241 2 0.0000000000000000e+00 1.4208590124756663e+01 5.7941216912045403e+00 0 0 0
276 2 1.2305000000000001e+00 1.4919019630994494e+01 5.7941216912045403e+00 0 0 0
278 2 2.4610000000000003e+00 1.4208590124756663e+01 5.7941216912045403e+00 0 0 0
321 2 3.6915000000000004e+00 1.4919019630994494e+01 5.7941216912045403e+00 0 0 0
552 2 0.0000000000000000e+00 1.2787731112280996e+01 8.9771343071250715e+00 0 0 0
553 2 1.2305000000000001e+00 1.3498160618518829e+01 8.9771343071250715e+00 0 0 0
571 2 2.4610000000000003e+00 1.2787731112280996e+01 8.9771343071250715e+00 0 0 0
572 2 3.6915000000000004e+00 1.3498160618518829e+01 8.9771343071250715e+00 0 0 0
551 2 0.0000000000000000e+00 1.5629449137232333e+01 8.9771343071250715e+00 0 0 0
569 2 1.2305000000000001e+00 1.4919019630994494e+01 8.9771343071250715e+00 0 0 0
570 2 2.4610000000000003e+00 1.5629449137232328e+01 8.9771343071250715e+00 0 0 0
592 2 3.6915000000000004e+00 1.4919019630994494e+01 8.9771343071250715e+00 0 0 0
325 2 4.9220000000000006e+00 1.2787731112280996e+01 5.7941216912045403e+00 0 0 0
372 2 7.3829999999999991e+00 1.2787731112280996e+01 5.7941216912045403e+00 0 0 0
323 2 4.9220000000000006e+00 1.4208590124756663e+01 5.7941216912045403e+00 0 0 0
368 2 6.1524999999999990e+00 1.4919019630994494e+01 5.7941216912045403e+00 0 0 0
370 2 7.3830000000000009e+00 1.4208590124756663e+01 5.7941216912045403e+00 0 0 0
415 2 8.6135000000000002e+00 1.4919019630994494e+01 5.7941216912045403e+00 0 0 0
594 2 4.9220000000000006e+00 1.2787731112280996e+01 8.9771343071250715e+00 0 0 0
595 2 6.1524999999999990e+00 1.3498160618518829e+01 8.9771343071250715e+00 0 0 0
618 2 7.3829999999999991e+00 1.2787731112280996e+01 8.9771343071250715e+00 0 0 0
619 2 8.6135000000000002e+00 1.3498160618518835e+01 8.9771343071250715e+00 0 0 0
593 2 4.9220000000000006e+00 1.5629449137232333e+01 8.9771343071250715e+00 0 0 0
616 2 6.1524999999999990e+00 1.4919019630994494e+01 8.9771343071250715e+00 0 0 0
617 2 7.3829999999999991e+00 1.5629449137232333e+01 8.9771343071250715e+00 0 0 0
640 2 8.6135000000000002e+00 1.4919019630994494e+01 8.9771343071250715e+00 0 0 0
272 2 0.0000000000000000e+00 1.7050308149707998e+01 5.7941216912045403e+00 0 0 0
274 2 1.2305000000000001e+00 1.6339878643470165e+01 5.7941216912045403e+00 0 0 0
317 2 2.4610000000000003e+00 1.7050308149707998e+01 5.7941216912045403e+00 0 0 0
319 2 3.6915000000000004e+00 1.6339878643470165e+01 5.7941216912045403e+00 0 0 0
270 2 0.0000000000000000e+00 1.8471167162183658e+01 5.7941216912045403e+00 0 0 0
313 2 1.2305000000000001e+00 1.9181596668421495e+01 5.7941216912045403e+00 0 0 0
315 2 2.4610000000000003e+00 1.8471167162183658e+01 5.7941216912045403e+00 0 0 0
360 2 3.6914999999999996e+00 1.9181596668421495e+01 5.7941216912045403e+00 0 0 0
567 2 0.0000000000000000e+00 1.7050308149707998e+01 8.9771343071250715e+00 0 0 0
590 2 2.4610000000000003e+00 1.7050308149707998e+01 8.9771343071250715e+00 0 0 0
566 2 0.0000000000000000e+00 1.9892026174659328e+01 8.9771343071250715e+00 0 0 0
568 2 1.2305000000000001e+00 1.7760737655945832e+01 8.9771343071250715e+00 0 0 0
588 2 1.2305000000000001e+00 1.9181596668421495e+01 8.9771343071250715e+00 0 0 0
589 2 2.4610000000000003e+00 1.9892026174659328e+01 8.9771343071250715e+00 0 0 0
591 2 3.6914999999999996e+00 1.7760737655945832e+01 8.9771343071250715e+00 0 0 0
612 2 3.6914999999999996e+00 1.9181596668421495e+01 8.9771343071250715e+00 0 0 0