
# Create simulation box and atoms

read_data data.ML_graphite_m500atm_240K
  orthogonal box = (0 0 1.53529) to (49.22 49.0196 38.4647)
  5 by 4 by 4 MPI processor grid
  reading atoms ...
  5021 atoms
  reading velocities ...
  5021 velocities
group water type 1
2261 atoms in group water
group graphite type 2
2760 atoms in group graphite

# Define potential

pair_style sw
pair_coeff * * MLC_e.sw mW C


# Fix graphite atoms in place

fix 5 graphite setforce 0.0 0.0 0.0
velocity graphite set 0.0 0.0 0.0


# Equilibration of molecular water

# Add velocity/set timestep

velocity	    water create ${TEMP} ${SEED} rot yes dist gaussian
velocity	    water create 240 ${SEED} rot yes dist gaussian
velocity	    water create 240 11697 rot yes dist gaussian
timestep	    5.0

# Define output

compute			1 water msd
compute			3 water temp
thermo	    	50
thermo_style	custom step temp press vol etotal ke pe c_1[4] c_3

# Neighbor lists

neigh_modify    delay 0 every 1 check yes

# Set fixes

fix             1 water momentum 10 linear 1 1 1 rescale
fix             2 water nve
fix             3 water temp/csvr ${TEMP} ${TEMP} 500.0 ${SEED}
fix             3 water temp/csvr 240 ${TEMP} 500.0 ${SEED}
fix             3 water temp/csvr 240 240 500.0 ${SEED}
fix             3 water temp/csvr 240 240 500.0 11697
fix             4 water press/berendsen z ${PRES} ${PRES} 1000.0 modulus 20000
fix             4 water press/berendsen z -500 ${PRES} 1000.0 modulus 20000
fix             4 water press/berendsen z -500 -500 1000.0 modulus 20000

# Run 0.5 ns equilibration

dump		    1 all atom 2000 ${DIR}/eq.${NAME}-${TEMP}.dump
dump		    1 all atom 2000 run_16/eq.${NAME}-${TEMP}.dump
dump		    1 all atom 2000 run_16/eq.het_freeze_16-${TEMP}.dump
dump		    1 all atom 2000 run_16/eq.het_freeze_16-240.dump

reset_timestep  0

run	            100000
Neighbor list info ...
  update every 1 steps, delay 0 steps, check yes
  max neighbors/atom: 2000, page size: 100000
  master list distance cutoff = 6.67472
  ghost atom cutoff = 6.67472
  binsize = 3.33736, bins = 15 15 12
  1 neighbor lists, perpetual/occasional/extra = 1 0 0
  (1) pair sw, perpetual
      attributes: full, newton on
      pair build: full/bin/atomonly
      stencil: full/bin/3d
      bin: standard
Per MPI rank memory allocation (min/avg/max) = 4.069 | 4.188 | 4.476 Mbytes
Step Temp Press Volume TotEng KinEng PotEng c_1[4] c_3 
       0    108.04781   -816.58172    89101.337   -21796.007    1616.7914   -23412.799            0          240 
      50    107.96092   -841.67744    89117.347   -21795.985    1615.4912   -23411.476   0.51479701    239.80699 
     100    109.33144    -1325.155    89050.887   -21811.476    1635.9992   -23447.475   0.84978545    242.85126 
     150    107.34493   -812.68494    88987.301   -21816.445    1606.2737   -23422.719    1.0855679    238.43873 
     200    110.09656   -869.12906     88965.07   -21795.517    1647.4482   -23442.965    1.2811077    244.55076 
     250      109.814   -429.22793    88998.594   -21788.664      1643.22   -23431.884    1.4628311    243.92313 
     300    105.61547   -749.01953    89081.323   -21798.084    1580.3947   -23378.479    1.6112748     234.5972 
     350    109.03806   -638.58466    89089.127   -21793.263    1631.6091   -23424.872    1.7072182    242.19957 
     400    109.48365   -760.74867    89126.791   -21791.815    1638.2769   -23430.092    1.9023261    243.18935 
     450    111.12537   -545.76436    89149.107    -21755.49     1662.843   -23418.333    2.0955312    246.83601 
     500    109.84378   -932.89981    89185.277    -21767.71    1643.6657   -23411.376    2.2620955    243.98929 
     550    112.01503   -717.31245    89162.627   -21733.853    1676.1555   -23410.008    2.4489334    248.81215 
     600    109.94872    -770.1806    89172.989   -21751.283     1645.236   -23396.519    2.6676211    244.22238 
     650    107.92372   -535.17509    89157.039   -21766.088    1614.9345   -23381.023    2.8258223    239.72436 
     700    114.03907    -745.8542    89141.043   -21758.695    1706.4426   -23465.137     2.905649    253.30802 
     750    108.13101   -881.96199    89166.863   -21779.353    1618.0363   -23397.389     3.035225     240.1848 
     800    110.42338   -517.88865    89116.567   -21736.116    1652.3386   -23388.455    3.1723662    245.27671 
     850    107.19962   -688.22132    89158.165   -21774.263    1604.0993   -23378.362    3.3129644    238.11596 
     900    107.99673   -865.39649    89178.084   -21802.687     1616.027   -23418.714     3.450445    239.88653 
     950    108.06163   -809.10498    89182.812    -21794.71    1616.9981   -23411.708     3.621231    240.03069 
    1000     112.2841   -624.93695    89098.055   -21771.943    1680.1819   -23452.125     3.771204    249.40982 
    1050    107.50275   -641.14814     89092.83   -21823.315    1608.6353    -23431.95    3.9176937    238.78929 
    1100    106.21027   -553.75938    89137.326   -21841.911    1589.2951   -23431.206    4.0822438    235.91839 
    1150    106.94721   -769.21747    89141.025   -21853.645    1600.3224   -23453.967    4.1509305    237.55531 
    1200    107.94871   -933.54405    89159.114   -21831.679    1615.3085   -23446.987    4.3135918    239.77988 
    1250    107.44919   -900.82399    89190.671   -21840.149    1607.8339   -23447.983    4.4236993    238.67033 
    1300    105.46959   -946.60731    89181.937   -21867.228    1578.2117    -23445.44    4.4593746    234.27315 
    1350    106.82006   -650.18897    89154.937   -21844.661    1598.4198    -23443.08     4.623463    237.27288 
    1400    109.13667    -827.4602    89067.657   -21837.857    1633.0847   -23470.942    4.7700673    242.41862 
    1450    103.07804   -845.08226    89051.171   -21864.831    1542.4254   -23407.257    4.8760515    228.96096 
    1500    106.45797   -570.89217    89009.932   -21888.536    1593.0016   -23481.537    5.0181413    236.46859 
    1550    105.84917   -852.73916    89015.493   -21889.106    1583.8917   -23472.998    5.2028475     235.1163 
    1600    106.25118   -1013.6779     88960.05   -21904.305    1589.9072   -23494.212    5.4040043    236.00925 
    1650     103.4473   -1011.3588    88963.263    -21870.83    1547.9508   -23418.781    5.5766511    229.78116 
    1700    108.46876   -952.83568    89000.425   -21916.232    1623.0903   -23539.323    5.6829685    240.93503 
    1750    105.82235   -805.87574    89026.098    -21869.34    1583.4903    -23452.83    5.7097894    235.05672 
    1800    109.35681   -973.21191    89132.788   -21826.617    1636.3788   -23462.995     5.836477    242.90761 
    1850    106.82976   -756.79314    89139.366    -21813.63    1598.5649   -23412.195    6.0064706    237.29443 
    1900    107.35185    -789.0026    89187.993   -21818.228    1606.3773   -23424.605    6.0426206    238.45412 
    1950    108.89123      -693.86    89124.316   -21773.849     1629.412   -23403.261    6.2206263    241.87343 
    2000    109.41647   -517.43683    89245.622   -21776.894    1637.2716   -23414.165    6.3770259    243.04013 
    2050    107.64516   -758.39284    89271.414   -21818.974    1610.7662    -23429.74    6.5768456    239.10561 
    2100    105.22835   -836.91093    89204.605    -21835.38    1574.6019   -23409.982     6.551806     233.7373 
    2150    106.73155   -954.39132    89204.078     -21869.6    1597.0953   -23466.695    6.6100964    237.07627 
    2200    107.42351   -778.05685    89255.055   -21855.511    1607.4496    -23462.96    6.7801486    238.61329 
    2250    105.27213   -442.94056    89295.197   -21832.168     1575.257   -23407.425    6.9795652    233.83455 
    2300    108.73084    -950.8182    89321.116   -21815.979     1627.012   -23442.991    7.0963478    241.51717 
    2350    107.05397   -759.71169    89296.437   -21841.511    1601.9199   -23443.431    7.2114614    237.79244 
    2400    106.65412   -568.86366    89261.559   -21881.168    1595.9366   -23477.105    7.3805105    236.90428 
    2450    106.25994   -920.66956    89321.397   -21881.811    1590.0382   -23471.849    7.4630209    236.02871 
    2500    106.15257   -884.64017    89324.384   -21887.492    1588.4316   -23475.923     7.637909    235.79022 
    2550    106.14375   -710.05762     89324.73   -21879.852    1588.2996   -23468.151    7.9726429    235.77063 
    2600    109.76686   -647.84911    89408.698   -21867.183    1642.5146   -23509.697     8.141314    243.81842 
    2650    104.76382   -873.43045    89450.811   -21879.713    1567.6509   -23447.364    8.2409427    232.70548 
    2700    107.51292   -927.55562     89510.73   -21872.875    1608.7875   -23481.663    8.3884604    238.81188 
    2750    111.75324   -790.12943     89519.79   -21810.782    1672.2382    -23483.02    8.4967822    248.23064 
    2800    110.68758   -928.85245    89543.194   -21791.753     1656.292   -23448.045    8.5647056    245.86356 
    2850    109.40847   -645.89077    89598.115   -21822.906    1637.1518   -23460.058    8.4983411    243.02235 
    2900    109.44878   -904.87611    89583.037   -21862.344     1637.755   -23500.099    8.5447696    243.11188 
    2950    107.59313   -992.09086    89529.663   -21880.852    1609.9877    -23490.84    8.7592686    238.99004 
    3000    106.58195   -831.97848    89522.869   -21918.063    1594.8567    -23512.92    9.0089389    236.74398 
    3050    104.14683   -796.38419    89518.259   -21956.612    1558.4184    -23515.03     9.195508    231.33498 
    3100    107.28035    -727.9616    89520.255   -21955.771    1605.3074   -23561.078     9.384503     238.2953 
    3150    108.23393   -1060.7453    89501.362   -21966.967    1619.5765   -23586.543    9.4878882    240.41343 
    3200    103.42813   -1059.9068    89515.972   -21996.991    1547.6641   -23544.655    9.7109317    229.73859 
    3250     103.8128   -1005.7688    89476.076   -21997.848    1553.4201   -23551.268     9.775297    230.59303 
    3300    105.59067   -562.34172    89506.705   -21958.278    1580.0236   -23538.301    9.8632236    234.54211 
    3350    103.95872   -768.34338    89609.491   -21978.832    1555.6036   -23534.436    10.063256    230.91715 
    3400    106.08263   -552.65172    89675.541   -21960.481    1587.3851   -23547.866     10.29557    235.63487 
    3450    105.70999   -646.35936    89758.064   -21977.588     1581.809   -23559.397    10.259405    234.80714 
    3500    106.73654   -752.22792    89780.138   -21963.339    1597.1699   -23560.509    10.412848    237.08735 
    3550     107.5827    -857.5778    89834.559   -21986.891    1609.8317   -23596.723    10.522726    238.96689 
    3600    107.34162    -802.3776    89849.188   -21950.504    1606.2241   -23556.728    10.636452    238.43138 
    3650    105.23681   -896.53658    89881.811   -21946.562    1574.7285   -23521.291    10.748027     233.7561 
    3700    107.81518   -740.19634    89896.964   -21938.599    1613.3104    -23551.91    10.956084    239.48328 
    3750    104.75338   -1183.4591    89822.346   -21957.312    1567.4947   -23524.807    11.063725     232.6823 
    3800     107.4849   -806.98378     89801.09   -21924.078    1608.3682   -23532.446    11.112513    238.74964 
    3850    111.35462   -890.02291    89836.227   -21921.547    1666.2734   -23587.821    11.272838    247.34521 
    3900    105.98768   -827.00105    89849.406     -21926.4    1585.9642   -23512.364    11.317485    235.42395 
    3950    112.16332   -882.01817    89896.196   -21906.409    1678.3746   -23584.784    11.425916    249.14154 
    4000    102.86992   -902.46176    89999.588   -21942.665    1539.3112   -23481.977    11.648714    228.49867 
    4050     105.9355   -1102.9098     90054.55   -21934.562    1585.1835   -23519.746    11.812577    235.30806 
    4100    105.33333   -858.49027    90050.353   -21911.186    1576.1729   -23487.359    11.761205     233.9705 
    4150    108.25213   -881.78409    90037.617   -21888.409    1619.8487   -23508.258    11.995421    240.45384 
    4200    109.11672   -1060.2403    90023.897    -21882.83    1632.7862   -23515.616    12.121035    242.37431 
    4250    108.77525   -1233.2899    89942.559   -21848.224    1627.6765   -23475.901    12.270736    241.61582 
    4300    105.73499   -929.52161    89934.181   -21886.492    1582.1831   -23468.675    12.315856    234.86267 
    4350    106.89114   -857.22322    89963.567    -21889.16    1599.4834   -23488.643    12.385289    237.43077 
    4400    106.32166   -777.50769    89966.266   -21883.082    1590.9619   -23474.044    12.534925    236.16582 
    4450    107.71092    -551.2077    90055.013   -21867.761    1611.7503   -23479.512    12.638998    239.25169 
    4500    107.78361   -1001.6782    90080.579   -21873.985     1612.838   -23486.823     12.82147    239.41316 
    4550    108.71759   -1047.5948    90059.823   -21844.046    1626.8138    -23470.86    12.982474    241.48775 
    4600    108.31851   -786.47467    89961.044   -21877.312     1620.842   -23498.154    13.064401    240.60129 
    4650    106.16366   -985.04999    89948.063   -21934.123    1588.5975    -23522.72    13.338212    235.81485 
    4700    104.96794   -923.39499    89955.454   -21931.655    1570.7053    -23502.36    13.459202    233.15889 
    4750    111.12143   -906.21185    89938.612   -21899.107     1662.784   -23561.891    13.653322    246.82724 
    4800    108.20567   -615.34906    90003.485   -21936.882    1619.1536   -23556.036    13.873546    240.35065 
    4850     106.9102   -771.15191    90022.178   -21946.296    1599.7685   -23546.064    14.055521    237.47309 
    4900    108.83041   -598.34029    90101.619   -21922.416     1628.502   -23550.918     14.19511    241.73835 
    4950    108.91266   -724.46071    90154.139   -21921.807    1629.7327    -23551.54    14.453372    241.92104 
    5000    110.96728   -942.39314     90189.45   -21894.843    1660.4773    -23555.32    14.840419    246.48484 
    5050     108.3989   -760.27176    90266.251   -21873.769    1622.0451   -23495.814    15.042755    240.77987 
    5100    110.75716   -703.79806     90276.61   -21856.074    1657.3332   -23513.407      15.1866    246.01811 
    5150    106.00689   -1000.9113     90223.55   -21910.014    1586.2517   -23496.265    15.284589    235.46662 
    5200    108.30356   -1029.5938    90261.932   -21872.831    1620.6184   -23493.449    15.423069    240.56809 
    5250    109.19364   -899.38376    90196.619   -21858.525    1633.9372   -23492.462    15.717256    242.54517 
    5300    108.36548   -901.66477    90214.124   -21923.845     1621.545    -23545.39      15.8282    240.70563 
    5350    106.66823   -936.47634    90141.864   -21955.603    1596.1478   -23551.751    16.001671    236.93563 
    5400    106.81992   -1046.8844    90116.591   -21920.584    1598.4176   -23519.002    16.072043    237.27256 
    5450    107.28141   -995.79198    90147.241   -21935.545    1605.3232   -23540.868    16.137381    238.29764 
    5500    110.86749   -955.00924    90114.215   -21881.888    1658.9842   -23540.872    16.178185     246.2632 
    5550    107.54639   -1089.2703    90120.951   -21903.233    1609.2883   -23512.521    16.112723    238.88624 
    5600    106.69865   -992.12809    90054.867   -21910.178     1596.603   -23506.781    16.155856    237.00319 
    5650    107.71991   -881.13963    90020.174   -21949.279    1611.8848   -23561.164    16.300581    239.27166 
    5700    107.86557   -838.02035    89997.237   -21931.236    1614.0645     -23545.3    16.525853    239.59521 
    5750    111.89942   -793.30519    90026.369   -21896.689    1674.4256   -23571.115    16.620727    248.55535 
    5800    107.73449    -695.5125    90078.922   -21891.911     1612.103   -23504.014    16.700598    239.30404 
    5850    107.95888   -728.06808    90093.004   -21941.184    1615.4606   -23556.645    16.882259    239.80246 
    5900    107.72124   -840.12095    90148.189   -21951.189    1611.9047   -23563.094    16.972301    239.27461 
    5950    107.91739   -834.07404    90142.158    -21939.21    1614.8398    -23554.05    17.130566    239.71031 
    6000    108.43106   -587.15831    90198.197   -21911.925    1622.5262   -23534.452     17.05718    240.85129 
    6050    105.85635   -528.29201    90283.093   -21946.628    1583.9992   -23530.627    17.173396    235.13226 
    6100     106.5499   -831.97812    90288.142   -21902.917    1594.3772   -23497.295    17.141981     236.6728 
    6150    106.50326   -843.62386    90313.438    -21928.51    1593.6792   -23522.189    17.311316    236.56918 
    6200    106.95962   -1056.9349    90250.131    -21915.41    1600.5081   -23515.918    17.451274    237.58288 
    6250    106.75137   -849.67642    90147.339   -21903.569    1597.3918   -23500.961    17.629089    237.12029 
    6300    105.60946   -744.12574    90131.322   -21945.151    1580.3047   -23525.456    17.758285    234.58384 
    6350    107.64493   -785.74932    90162.045   -21948.554    1610.7628   -23559.317    17.916077    239.10511 
    6400    107.28096    -718.6548    90281.805   -21920.425    1605.3164   -23525.742     18.05147    238.29663 
    6450    107.90814   -814.32392     90287.11   -21931.167    1614.7014   -23545.869    18.152317    239.68976 
    6500    106.29529     -873.913    90270.415   -21933.504    1590.5672   -23524.072    18.230694    236.10723 
    6550    109.45206   -923.49766    90333.833   -21907.157    1637.8041   -23544.961     18.27948    243.11917 
    6600    109.01741   -992.80221    90343.512   -21880.904    1631.3002   -23512.205     18.36973    242.15372 
    6650    109.65352   -781.83376     90236.51   -21904.051    1640.8188    -23544.87    18.396694    243.56668 
    6700    110.49678   -1047.7539    90151.804    -21904.93     1653.437   -23558.367    18.736717    245.43975 
    6750    108.77544   -932.61363    90133.126   -21885.925    1627.6793   -23513.604     19.02322    241.61623 
    6800    106.77696   -1030.6681    90125.629   -21887.769    1597.7749   -23485.543    19.124778    237.17715 
    6850    106.28563   -888.40005    90146.025    -21900.66    1590.4227   -23491.082    19.213649    236.08578 
    6900    108.02957   -954.90299    90183.944   -21879.957    1616.5185   -23496.476    19.462248    239.95949 
    6950    108.65237    -770.9016    90187.751   -21892.929    1625.8378   -23518.767    19.493498    241.34287 
    7000    108.74767   -1047.8195    90181.254   -21902.764    1627.2639   -23530.028    19.525573    241.55457 
    7050    108.49691   -1077.1215    90191.971     -21885.9    1623.5116   -23509.412    19.646646    240.99756 
    7100    108.58707   -1065.7854    90101.308   -21882.036    1624.8606   -23506.896    19.866361    241.19782 
    7150     109.1125   -1007.7455    90022.623   -21900.969     1632.723   -23533.692    20.102314    242.36492 
    7200    107.46022   -915.68155    90048.859   -21867.489    1607.9989   -23475.488    20.228823    238.69483 
    7250    107.44896   -820.02702    90070.922   -21898.285    1607.8303   -23506.115    20.411772     238.6698 
    7300     108.5803   -829.76555    90087.173    -21852.84    1624.7594   -23477.599    20.628742    241.18279 
    7350     110.7595   -1017.2876    90078.723   -21850.633    1657.3682   -23508.001    20.811041    246.02332 
    7400    106.80896    -1204.351    90004.776   -21861.886    1598.2536   -23460.139    21.109831    237.24821 
    7450    104.51749   -983.49913    89992.596   -21891.124    1563.9649   -23455.089    21.423608    232.15832 
    7500    103.15009   -1226.1269    89900.433   -21919.674    1543.5036   -23463.177    21.299813      229.121 
    7550    105.89836   -934.02765    89838.876   -21913.314    1584.6277   -23497.942    21.346589    235.22555 
    7600    104.72473   -898.72735    89848.538   -21997.899     1567.066   -23564.965    21.539346    232.61865 
    7650    106.95737   -1067.3919    89835.889   -21967.642    1600.4745   -23568.116    21.703411    237.57789 
    7700    104.86125   -1059.0622    89868.507   -21979.815    1569.1087   -23548.924    21.858799    232.92188 
    7750    106.39681   -781.32537    89843.751   -21954.769    1592.0863   -23546.855    21.839649    236.33273 
    7800    107.52035   -945.25402    89856.639   -21940.578    1608.8987   -23549.476    22.030207    238.82839 
    7850    109.20861    -946.0297    89825.602   -21947.306    1634.1612   -23581.467    22.316927    242.57841 
    7900    108.48815   -961.66068    89865.414   -21896.906    1623.3804   -23520.286    22.530868     240.9781 
    7950     105.3587   -775.55196     89847.25   -21877.634    1576.5524   -23454.187    22.668909    234.02684 
    8000    108.83251   -827.83018    89901.101   -21828.598    1628.5334   -23457.132    22.607162    241.74302 
    8050     109.1407   -1007.2291    89928.241   -21844.261     1633.145   -23477.406    22.532827    242.42757 
    8100    109.58394   -988.11378    89936.935   -21832.719    1639.7776   -23472.496    22.578876    243.41212 
    8150    109.09682   -849.55288    89908.512   -21839.297    1632.4884   -23471.785    22.708278     242.3301 
    8200    107.22968   -819.73018    89920.849   -21839.629    1604.5492   -23444.178    22.637758    238.18275 
    8250    109.67169   -878.11885    89995.798   -21859.496    1641.0906   -23500.586    22.758991    243.60703 
    8300    107.28035    -1045.943    89980.247   -21895.059    1605.3074   -23500.366    22.854653     238.2953 
    8350    108.27611   -684.79574    90026.966   -21887.009    1620.2075   -23507.216    22.926189     240.5071 
    8400    107.93475   -842.03026    90086.559   -21870.881    1615.0997    -23485.98    23.251085    239.74888 
    8450    108.54404   -981.08754    90165.013   -21849.783    1624.2168       -23474    23.360048    241.10225 
    8500    108.05703   -1012.3627    90146.615   -21841.853    1616.9294   -23458.782    23.534089    240.02048 
    8550    108.19502   -963.05995    90125.483   -21866.565    1618.9941   -23485.559    23.692773    240.32698 
    8600    105.90201   -893.34874    90054.018   -21906.246    1584.6824   -23490.928    23.813967    235.23367 
    8650    109.72149   -557.65464    90077.556   -21888.343    1641.8357   -23530.179    23.976709    243.71764 
    8700    106.09574   -929.62549     90061.74   -21903.327    1587.5812   -23490.908    24.251314    235.66398 
    8750    109.63605   -845.98244    90013.096   -21890.197    1640.5573   -23530.754     24.34684    243.52787 
    8800    106.40431   -618.76035    90033.589   -21915.577    1592.1987   -23507.775    24.539071    236.34941 
    8850     109.0155   -807.52469    90061.056   -21920.439    1631.2715   -23551.711    24.634261    242.14946 
    8900    105.21856   -889.82145    89963.022   -21910.445    1574.4554     -23484.9     24.55431    233.71556 
    8950    109.66362   -887.48511    89893.879     -21906.9    1640.9698   -23547.869    24.571279     243.5891 
    9000    106.84974   -1032.4248    89879.024   -21946.441    1598.8639   -23545.305    24.819994    237.33881 
    9050    108.67785   -649.53265    89874.754   -21944.293    1626.2191   -23570.512    24.982928    241.39948 
    9100    108.55087   -990.36319    89860.777   -21910.897    1624.3191   -23535.216    25.068411    241.11743 
    9150    109.04308   -781.52747    89813.978   -21893.839    1631.6843   -23525.523    25.147778    242.21073 
    9200    107.21097   -814.23655     89801.59   -21891.762    1604.2692   -23496.031    25.183076    238.14117 
    9250    110.13888   -590.71631    89827.242   -21870.981    1648.0815   -23519.063    25.277025    244.64477 
    9300    107.49493   -839.85049     89774.47   -21901.132    1608.5183    -23509.65    25.439491    238.77193 
    9350    108.93444   -787.71349    89812.643   -21871.571    1630.0586    -23501.63    25.523354    241.96941 
    9400    110.86405   -635.14704    89841.343   -21865.769    1658.9326   -23524.702     25.70837    246.25553 
    9450    107.97523   -1009.4954    89913.503   -21865.917    1615.7053   -23481.622    26.044761    239.83878 
    9500    107.24067   -945.89729    89844.298   -21874.453    1604.7136   -23479.167    26.334791    238.20715 
    9550    109.61294    -956.5429    89771.123   -21838.698    1640.2114   -23478.909    26.573373    243.47652 
    9600    108.50657   -1054.5462    89677.119    -21840.18    1623.6561   -23463.836    26.724928    241.01901 
    9650    108.48613   -1053.9643    89638.819   -21887.827    1623.3502   -23511.177    26.665947    240.97361 
    9700    111.69588   -907.73875    89578.402   -21871.254    1671.3798   -23542.634    26.640901    248.10323 
    9750    108.94028   -905.31311    89591.112   -21891.214     1630.146    -23521.36    26.766216    241.98239 
    9800    109.23749   -695.77301    89648.035   -21847.774    1634.5933   -23482.368    26.870937    242.64256 
    9850    109.42533   -1147.9212    89598.486   -21872.355    1637.4042   -23509.759    26.888209    243.05981 
    9900    104.32458   -768.21335    89613.143   -21912.908    1561.0782   -23473.987    27.210183    231.72982 
    9950    108.97029   -1045.3195    89562.481   -21865.689    1630.5951   -23496.284    27.324005    242.04905 
   10000    105.45951   -1164.5152    89509.263   -21887.285    1578.0609   -23465.345    27.420243    234.25077 
   10050    108.08233    -958.7224    89479.453   -21895.205    1617.3079   -23512.513    27.611061    240.07668 
   10100    109.72893   -949.72306    89523.993   -21839.869     1641.947   -23481.817    27.898477    243.73416 
   10150    109.70282   -944.81436    89432.597   -21814.034    1641.5565   -23455.591    28.159457    243.67618 
   10200    110.38105   -962.41982    89398.066   -21823.604    1651.7052   -23475.309    28.289958    245.18268 
   10250    107.77924   -733.34375    89407.369   -21848.104    1612.7726   -23460.876    28.391182    239.40345 
   10300    106.95806   -1109.4147      89372.3   -21841.178    1600.4847   -23441.663    28.524159     237.5794 
   10350    106.43398   -848.92031    89369.623   -21890.863    1592.6426   -23483.506    28.836773    236.41531 
   10400    107.87244   -922.41438     89356.25   -21914.087    1614.1672   -23528.254    28.896634    239.61046 
   10450     106.2255   -713.15937    89339.913   -21902.209    1589.5229   -23491.732    29.251345    235.95221 
   10500    106.50247   -965.58879    89329.337   -21871.625    1593.6674   -23465.292    29.289019    236.56742 
   10550     106.1117   -862.41815    89356.833   -21863.656    1587.8201   -23451.476    29.316057    235.69945 
   10600    106.45868   -896.60333    89398.232   -21840.716    1593.0122   -23433.728     29.23598    236.47016 
   10650    109.57061   -685.84199    89472.052   -21888.378    1639.5781   -23527.956    29.490994     243.3825 
   10700    107.33004   -1128.5262    89464.665   -21881.587    1606.0509   -23487.637    29.671611    238.40566 
   10750    106.61664   -1132.3448     89492.88   -21900.678    1595.3759   -23496.054    29.622406    236.82104 
   10800    110.62433   -974.68064    89461.007   -21889.331    1655.3456   -23544.677    29.982661    245.72307 
   10850    107.30053   -947.69042    89515.426   -21881.512    1605.6094   -23487.122    30.121971    238.34013 
   10900    105.46355   -797.91155    89530.141   -21906.802    1578.1213   -23484.923    30.101217    234.25974 
   10950    106.96756   -603.18236     89541.37   -21870.176    1600.6269   -23470.803    30.120951    237.60051 
   11000    109.58562   -910.77137    89524.432   -21814.995    1639.8026   -23454.797    30.166721    243.41584 
   11050    109.27581   -878.87767    89555.471   -21826.652    1635.1667   -23461.819    30.222577    242.72767 
   11100    109.43265   -817.94528    89528.853   -21830.092    1637.5136   -23467.605     30.35529    243.07605 
   11150    107.83264    -868.6214    89557.518   -21822.489    1613.5716   -23436.061     30.34467    239.52205 
   11200    105.59809   -1011.3707    89565.206   -21862.143    1580.1346   -23442.278    30.345438    234.55859 
   11250    106.40137   -898.51036    89518.125   -21837.176    1592.1546    -23429.33    30.557881    236.34286 
   11300    106.69303   -899.16184    89504.214   -21834.311    1596.5189    -23430.83    30.873504    236.99071 
   11350    106.42464   -884.22232    89507.155   -21848.127    1592.5029    -23440.63    31.095288    236.39456 
   11400    108.69922   -846.26795    89553.896   -21851.605    1626.5389   -23478.144    31.350995    241.44694 
   11450    108.42961   -943.27826    89554.399   -21847.316    1622.5045    -23469.82     31.49738    240.84807 
   11500    108.11362   -877.33231    89540.629   -21828.206    1617.7761   -23445.982    31.688075    240.14618 
   11550    110.05594   -838.46333    89584.934   -21796.547    1646.8403   -23443.387     31.83662    244.46053 
   11600    109.05108    -704.7065    89575.931   -21806.347    1631.8039   -23438.151    32.208163     242.2285 
   11650    107.57138   -727.23341    89572.872   -21815.215    1609.6622   -23424.877    32.259187    238.94173 
   11700    109.80664   -1010.5379    89555.583   -21837.453    1643.1099   -23480.563    32.070549    243.90678 
   11750    111.37495   -1248.7465    89554.491   -21850.022    1666.5776   -23516.599    32.311261    247.39038 
   11800    108.73408   -947.81648    89489.654   -21867.804    1627.0606   -23494.864    32.542561    241.52438 
   11850    106.06638   -898.46598    89413.365   -21877.701    1587.1419   -23464.843    32.670443    235.59877 
   11900    106.64839   -878.33864    89358.177   -21912.354    1595.8509   -23508.205     32.87658    236.89156 
   11950    107.79319   -974.17567    89376.528   -21891.033    1612.9813   -23504.015    33.058914    239.43443 
   12000    105.98681   -865.16599    89383.374   -21883.653    1585.9512   -23469.604    33.216613    235.42202 
   12050    107.65355   -927.03474    89353.197   -21854.609    1610.8918   -23465.501    33.497654    239.12425 
   12100    109.74166   -990.59559    89370.172   -21866.092    1642.1376    -23508.23    33.572872    243.76245 
   12150    109.56756   -904.32903    89348.837   -21810.501    1639.5325   -23450.033    33.576071    243.37574 
   12200    111.37164   -944.73006    89339.631    -21795.09     1666.528   -23461.618    33.500384    247.38301 
   12250    106.03468   -660.96272    89340.248   -21826.222    1586.6676   -23412.889    33.704255    235.52836 
   12300    110.18665   -569.88072     89396.01   -21787.791    1648.7963   -23436.587    33.705881    244.75089 
   12350    109.06237   -796.54549    89420.041   -21820.383    1631.9729   -23452.355    33.961298    242.25358 
   12400    106.62469   -786.00857     89404.77   -21846.091    1595.4963   -23441.587     34.00242    236.83891 
   12450    109.55957   -817.64891    89387.355   -21819.708    1639.4128   -23459.121    34.165603    243.35798 
   12500    106.47169   -896.00282    89377.021   -21848.224    1593.2068   -23441.431    34.430943    236.49905 
   12550    105.35433   -1153.6512    89263.792   -21854.986     1576.487   -23431.473    34.501282    234.01714 
   12600    105.45036   -911.08665    89217.629   -21881.625     1577.924   -23459.549    34.692606    234.23044 
   12650    104.57265   -1045.3599    89123.576   -21929.533    1564.7902   -23494.323    34.803732    232.28084 
   12700    107.43083   -730.30696    89055.087   -21910.693    1607.5592   -23518.252    35.072228    238.62955 
   12750    107.23969   -717.48801    89113.623   -21886.309     1604.699   -23491.008     35.27261    238.20499 
   12800    106.21176   -680.08889    89082.673   -21927.245    1589.3174   -23516.563    35.235503    235.92171 
   12850     104.5818   -656.23011    89086.528   -21914.893    1564.9272   -23479.821    35.235125    232.30117 
   12900    105.03555   -620.26611    89092.444   -21900.437     1571.717   -23472.154    35.538148    233.30906 
   12950    108.26907   -742.47971    89090.616   -21882.168    1620.1022    -23502.27    35.791774    240.49147 
   13000    107.91488   -592.52278    89116.338   -21843.432    1614.8022   -23458.234    35.968414    239.70473 
   13050    110.98503   -691.74698    89193.116    -21806.77     1660.743   -23467.513    36.182591    246.52427 
   13100    106.87536   -819.36132    89179.108   -21831.848    1599.2472   -23431.095    36.515355     237.3957 
   13150    108.60592   -962.35548    89135.462   -21829.193    1625.1428   -23454.336      36.5647     241.2397 
   13200    105.87419   -684.91844    89145.324   -21807.654    1584.2661    -23391.92    36.606897    235.17188 
   13250    106.89223   -432.33167    89249.489   -21832.085    1599.4996   -23431.585    36.670619    237.43318 
   13300    105.86691   -812.61182    89334.602    -21835.21    1584.1571   -23419.367    36.902138    235.15569 
   13350    106.50429   -926.62689    89336.705   -21867.457    1593.6946   -23461.152    36.970568    236.57147 
   13400    107.50452    -773.8291    89318.361   -21836.374    1608.6618   -23445.036    37.194683    238.79323 
   13450     106.6554   -532.95339    89356.599   -21878.441    1595.9559   -23474.397    37.358759    236.90714 
   13500    105.19725   -962.84427    89409.204   -21868.237    1574.1365   -23442.374    37.402829    233.66822 
   13550    105.91496   -939.32558    89393.094   -21855.557    1584.8761   -23440.433    37.581966    235.26243 
   13600    107.03553   -648.51416    89379.095   -21826.303     1601.644   -23427.947    37.727405    237.75149 
   13650    110.32905    -824.1272    89464.506   -21767.483    1650.9271    -23418.41    37.958227    245.06717 
   13700    110.03386   -770.62048    89545.859   -21771.478      1646.51   -23417.988    37.955702     244.4115 
   13750    110.22356    -552.1783    89539.935    -21740.39    1649.3486   -23389.738    37.750323    244.83286 
   13800    106.01738   -889.40384    89612.129   -21758.838    1586.4088   -23345.247    38.035384    235.48994 
   13850     109.2446   -705.40413    89636.825   -21759.649    1634.6998   -23394.349    38.227182    242.65836 
   13900    111.76069   -609.62935    89652.434   -21731.369    1672.3497   -23403.719    38.354064     248.2472 
   13950    110.67843   -635.64475    89726.649   -21739.034    1656.1551   -23395.189    38.641957    245.84324 
   14000    111.48835   -840.50282    89745.174   -21712.497    1668.2745   -23380.772    38.714656    247.64226 
   14050    111.28535   -967.61886      89797.7     -21745.4    1665.2369   -23410.637    38.551927    247.19135 
   14100    109.64697   -806.91062    89713.325   -21731.189    1640.7207    -23371.91    38.705887    243.55212 
   14150    108.91227   -800.09655      89744.4   -21714.513    1629.7269    -23344.24    38.822695    241.92018 
   14200    109.55221   -963.92885    89692.776    -21688.64    1639.3027   -23327.942    38.944818    243.34163 
   14250     111.1341   -877.04717    89595.065   -21677.514    1662.9736   -23340.488    39.305182    246.85539 
   14300    110.24202    -985.3171     89612.12   -21686.992    1649.6247   -23336.617    39.812273    244.87386 
   14350    111.45319   -887.97026    89641.909   -21725.944    1667.7483   -23393.692    40.153218    247.56416 
   14400    106.32415   -902.74481    89704.172   -21727.134    1590.9991   -23318.133     40.18479    236.17134 
   14450     110.2684   -790.49106    89736.994   -21717.666    1650.0196   -23367.685    40.165553    244.93247 
   14500    110.06368   -948.50294    89733.745   -21748.086    1646.9562   -23395.043    40.398929    244.47774 
   14550    107.79148   -964.38053    89727.834   -21747.536    1612.9557   -23360.491    40.856072    239.43063 
   14600    108.51119   -1126.7731    89662.069   -21800.553    1623.7252   -23424.279     40.86813    241.02928 
   14650    107.58294   -939.62076    89604.045   -21810.257    1609.8352   -23420.093    40.907077    238.96742 
   14700    106.45478   -971.22122    89539.727   -21836.922    1592.9539   -23429.875    41.060055    236.46151 
   14750    109.51845   -880.76035    89474.426   -21849.637    1638.7975   -23488.434    41.215012    243.26664 
   14800    107.14567   -795.07721    89400.457   -21850.895    1603.2921   -23454.187    41.267099    237.99614 
   14850    107.91615   -1089.4102    89362.556   -21884.443    1614.8213   -23499.265    41.535833    239.70755 
   14900    105.21614   -625.54338    89355.669   -21865.345    1574.4192   -23439.764    41.881368    233.71018 
   14950    107.15108   -777.74044    89402.854    -21838.71     1603.373   -23442.083     42.04819    238.00815 
   15000    107.28549   -705.66658    89359.388   -21835.581    1605.3843   -23440.965    42.138387    238.30671 
   15050    105.77185   -969.18501     89281.91   -21848.101    1582.7348   -23430.836    42.411614    234.94456 
   15100     109.5546   -1044.4083     89255.56    -21840.46    1639.3384   -23479.798    42.693188    243.34693 
   15150     107.5732   -885.08649    89201.695   -21820.522    1609.6896   -23430.212    43.143286    238.94579 
   15200    107.42899    -777.1528    89144.114   -21849.638    1607.5316    -23457.17    43.196181    238.62546 
   15250    105.16013   -529.99157    89227.876   -21817.266    1573.5811   -23390.847    43.296923    233.58578 
   15300    110.15922   -1009.5419    89276.866   -21768.928    1648.3858   -23417.314    43.434665    244.68995 
   15350     106.2666   -848.18458    89245.776   -21758.908    1590.1379   -23349.046    43.429534     236.0435 
   15400    106.91474   -814.75843    89205.983   -21766.511    1599.8365   -23366.347    43.546804    237.48318 
   15450     108.4127   -930.80859    89211.228   -21750.661    1622.2515   -23372.912    43.485333    240.81051 
   15500    111.64293   -636.18779     89259.97   -21717.428    1670.5875   -23388.016    43.468967    247.98562 
   15550    109.63709   -968.60905    89194.536   -21747.397    1640.5729    -23387.97    43.667741    243.53018 
   15600     110.9018   -871.08553    89181.022   -21748.697    1659.4976   -23408.195    44.038338    246.33941 
   15650    110.56491   -898.75073    89159.052   -21753.605    1654.4564   -23408.062    44.348489    245.59108 
   15700    107.89724   -759.38894    89154.351   -21779.661    1614.5383     -23394.2    44.441079    239.66555 
   15750    107.84232   -480.16599    89184.003   -21754.331    1613.7166   -23368.048    44.810084    239.54357 
   15800    108.62725   -670.13635    89196.921   -21768.306    1625.4619   -23393.768    45.188522    241.28707 
   15850      108.037   -508.69954    89210.454   -21772.138    1616.6296   -23388.767    45.393741    239.97599 
   15900    107.19129   -669.99495    89279.151   -21775.465    1603.9747    -23379.44    45.233739    238.09746 
   15950    108.67461   -1019.0199    89297.967   -21737.812    1626.1706   -23363.983    45.504344    241.39228 
   16000    110.71797   -856.29353    89303.696   -21753.664    1656.7467   -23410.411    45.791804    245.93106 
   16050    109.97095   -1018.5802    89287.337   -21772.655    1645.5686   -23418.223     45.86456    244.27176 
   16100    109.78681   -581.54433    89290.962   -21780.649    1642.8133   -23423.463    45.920389    243.86274 
   16150    109.96584   -896.11279    89331.796   -21781.817    1645.4921   -23427.309    46.115576     244.2604 
   16200    109.12674   -1036.0237    89352.079   -21778.095    1632.9361   -23411.031    46.148291    242.39656 
   16250    109.01584   -1048.0298    89278.118   -21739.405    1631.2766   -23370.682    46.215513    242.15022 
   16300    112.08205   -765.69756    89278.181   -21723.806    1677.1585   -23400.964    46.258685    248.96102 
   16350    107.32735   -1095.1375    89300.602   -21713.815    1606.0106   -23319.825    46.501047    238.39969 
   16400    111.48118   -633.78079    89294.356   -21699.446    1668.1672   -23367.613    46.608838    247.62634 
   16450    112.16652   -742.19517    89331.234   -21727.739    1678.4223   -23406.161    46.559752    249.14863 
   16500    110.38066     -719.229    89319.355   -21722.792    1651.6994   -23374.491    46.929809    245.18182 
   16550     108.2558   -826.27102    89323.044   -21741.276    1619.9036    -23361.18    47.198976    240.46199 
   16600     111.9399   -747.01772    89326.639   -21697.456    1675.0313   -23372.487    47.375123    248.64526 
   16650    105.75523   -766.26283    89379.087   -21746.349     1582.486   -23328.835     47.36387    234.90764 
   16700    109.23352   -844.59343    89400.344   -21736.779     1634.534   -23371.313    47.631194    242.63375 
   16750    107.21755   -884.92837    89424.544   -21803.318    1604.3677   -23407.686    47.775166     238.1558 
   16800    106.76997   -727.85795    89418.366   -21789.032    1597.6703   -23386.702    47.937397    237.16162 
   16850    108.84927    -793.4427    89426.556   -21800.844    1628.7842   -23429.628    48.185887    241.78024 
   16900    105.72287    -858.1011    89358.979   -21805.106    1582.0018   -23387.107    48.410576    234.83576 
   16950    106.06183   -795.85396    89394.143   -21779.739    1587.0739   -23366.813    48.732749    235.58867 
   17000    106.59868   -992.09627    89408.364   -21811.116    1595.1072   -23406.223    48.757077    236.78115 
   17050    110.06385    -783.4183    89394.838   -21785.844    1646.9587   -23432.803    48.786159     244.4781 
   17100    108.30308    -747.9092    89341.754   -21800.872    1620.6112   -23421.484    48.739333    240.56703 
   17150    106.83745   -768.03076    89323.224   -21756.815      1598.68   -23355.495    49.001381    237.31151 
   17200    110.26745    -875.9566    89335.004   -21777.597    1650.0054   -23427.602    49.158387    244.93036 
   17250    109.42994   -622.52161    89390.268   -21734.212    1637.4732   -23371.685    49.466503    243.07005 
   17300    110.57201   -628.51955    89448.861   -21713.958    1654.5627   -23368.521    49.879328    245.60686 
   17350    109.64965   -1089.3243     89442.38   -21731.023    1640.7608   -23371.784     50.02468    243.55808 
   17400    107.64382   -925.70932    89409.387   -21756.844    1610.7463    -23367.59    50.291826    239.10265 
   17450    106.62841    -949.1264    89349.768   -21780.243     1595.552   -23375.795    50.627076    236.84718 
   17500    108.12181   -836.22442    89291.176   -21781.378    1617.8987   -23399.277     50.46324    240.16438 
   17550    109.96079   -1107.3727    89242.178   -21834.851    1645.4166   -23480.267    50.512074     244.2492 
   17600     106.0033   -793.71438    89227.747   -21809.619     1586.198   -23395.817    50.633054    235.45865 
   17650    108.30815   -712.58171    89247.795   -21781.416     1620.687   -23402.103    50.940404    240.57827 
   17700    108.90462   -752.17664    89318.653   -21766.584    1629.6125   -23396.196    51.327853    241.90319 
   17750    105.60857   -1080.4071    89338.712   -21767.446    1580.2914   -23347.738    51.551648    234.58187 
   17800    107.78609   -804.44194    89378.149   -21760.349    1612.8752   -23373.224     51.57923    239.41867 
   17850    108.23955   -958.82532    89466.568    -21761.45    1619.6605    -23381.11     51.62111     240.4259 
   17900    108.02204     -947.849    89484.119   -21729.522    1616.4058   -23345.928    51.821603    239.94277 
   17950    107.70929   -995.67929    89495.045   -21744.136    1611.7258   -23355.862    52.197045    239.24806 
   18000    108.32616   -976.97568    89479.019   -21740.028    1620.9565   -23360.985    52.089982    240.61828 
   18050    107.17241   -958.16025    89405.394   -21751.083    1603.6922   -23354.775    52.085595    238.05553 
   18100    109.47455   -990.89745    89386.753    -21806.69    1638.1406   -23444.831    51.983637    243.16913 
   18150    106.82452   -870.13671    89420.739   -21788.203    1598.4865    -23386.69    52.354422    237.28279 
   18200    108.54865   -944.96195    89387.546   -21781.108    1624.2857   -23405.394    52.678449    241.11248 
   18250    107.11052   -1022.3442    89366.453   -21820.459    1602.7662   -23423.226    53.018376    237.91807 
   18300       107.22   -703.96172     89456.38   -21801.927    1604.4043   -23406.331    53.245679    238.16124 
   18350    110.26097    -822.1237     89507.46   -21799.161    1649.9084   -23449.069    53.332933    244.91597 
   18400    108.01719   -917.36164     89558.92   -21809.948    1616.3332   -23426.281     53.65881    239.93199 
   18450    109.36195   -775.62536     89578.71   -21816.482    1636.4557   -23452.938    53.659091    242.91902 
   18500    108.21262   -1163.9707    89595.076   -21800.523    1619.2575    -23419.78    53.855952    240.36608 
   18550    108.03273   -906.03065    89630.086   -21799.601    1616.5657   -23416.166    54.152213    239.96651 
   18600    107.98251    -799.2801     89666.73    -21782.72    1615.8143   -23398.534    54.169796    239.85496 
   18650    106.11587    -703.1183    89689.343   -21807.482    1587.8825   -23395.365     54.12945    235.70871 
   18700     106.8183   -945.91348     89719.68   -21802.415    1598.3934   -23400.809    54.293876    237.26897 
   18750    110.21287   -1187.0424    89656.772   -21775.262    1649.1886   -23424.451    54.354505    244.80911 
   18800    108.56472   -741.41153     89688.95   -21845.241    1624.5263   -23469.767    54.540831    241.14819 
   18850    106.01252   -949.73866    89759.936   -21850.653     1586.336   -23436.989    54.731606    235.47915 
   18900    104.89072   -949.59558     89814.53   -21873.778    1569.5498   -23443.328    54.721819    232.98736 
   18950    108.18882   -905.27977    89836.217   -21843.725    1618.9014   -23462.626    54.789772    240.31322 
   19000    109.53672   -806.13875    89872.747   -21831.604    1639.0709   -23470.675    55.150452    243.30722 
   19050    108.93788   -977.24894    89904.167    -21824.11    1630.1101   -23454.221    54.961104    241.97706 
   19100    106.13637   -839.76481    89945.169   -21848.394    1588.1892   -23436.583     55.27439    235.75423 
   19150    107.99261   -961.99889    89944.476   -21800.188    1615.9653   -23416.154    55.678427    239.87738 
   19200    107.87036   -784.86317    89963.488   -21774.547    1614.1361   -23388.683    55.791343    239.60584 
   19250    109.97899   -1213.3598    89978.124   -21787.474    1645.6889   -23433.163    56.058202    244.28961 
   19300    112.10892   -770.42623    89900.917     -21782.5    1677.5604    -23460.06    56.299677    249.02069 
   19350    108.65341   -676.52507    89910.088    -21821.61    1625.8535   -23447.463    56.559078     241.3452 
   19400    110.88227   -1079.9455     89920.85   -21768.046    1659.2054   -23427.251    56.978529    246.29602 
   19450    110.21081   -885.05712    89856.694   -21780.715    1649.1577   -23429.873    56.891872    244.80453 
   19500    108.17485   -648.41623    89811.337   -21795.793    1618.6924   -23414.485    56.992423     240.2822 
   19550    109.65422   -904.60252    89824.788   -21810.985    1640.8292   -23451.814    56.999464    243.56823 
   19600    108.51087   -905.48337    89768.803   -21818.274    1623.7205   -23441.995    56.670837    241.02857 
   19650    105.92375   -869.75126    89704.832    -21868.63    1585.0077   -23453.638    56.811514    235.28196 
   19700     105.7799   -958.43092     89661.19   -21854.185    1582.8551   -23437.041    56.727109    234.96243 
   19750     108.7345   -1027.4764    89650.683   -21880.675    1627.0667   -23507.741    56.977404    241.52529 
   19800    107.64879   -699.91299    89575.721   -21855.398    1610.8206   -23466.219    57.349811    239.11369 
   19850    107.75421   -794.15939    89539.648   -21840.823    1612.3981   -23453.221    57.529436    239.34785 
   19900    109.26353   -928.79047    89527.933   -21800.508    1634.9831   -23435.491    57.686714    242.70041 
   19950    108.59739   -707.45881    89540.149   -21775.795    1625.0151    -23400.81    58.020829    241.22074 
   20000    109.27817   -537.72317    89514.736   -21771.131    1635.2021   -23406.333    58.036654    242.73292 
   20050    110.55407   -521.56426    89527.314   -21831.848    1654.2942   -23486.143     58.12669    245.56701 
   20100    106.14163    -593.3615    89513.483   -21850.059     1588.268   -23438.328    58.502272    235.76593 
   20150     108.0786   -623.01193     89532.62   -21873.214    1617.2521   -23490.466    58.341453     240.0684 
   20200    106.00977   -696.30917    89501.423   -21889.794    1586.2948   -23476.089    58.644999    235.47303 
   20250    108.02997   -912.29603    89487.767   -21827.737    1616.5245   -23444.261    58.744487    239.96038 
   20300     109.4782   -913.77731    89406.238   -21813.608    1638.1953   -23451.803    58.996582    243.17725 
   20350    109.35429     -630.724    89436.666    -21793.99    1636.3411   -23430.331    59.355598      242.902 
   20400    108.75461   -1030.1142    89466.725   -21782.096    1627.3677   -23409.463    59.563215    241.56998 
   20450    108.55003    -952.7448    89396.537   -21773.117    1624.3064   -23397.423    59.724988    241.11554 
   20500    108.73889   -944.79137    89342.541   -21776.006    1627.1324   -23403.138    59.779092    241.53505 
   20550    110.26331   -537.19823    89351.656   -21820.582    1649.9434   -23470.525     59.89224    244.92116 
   20600    108.00317   -896.35971    89388.562   -21819.104    1616.1233   -23435.227    60.089935    239.90084 
   20650    109.83283   -788.13307     89431.55   -21784.831    1643.5018   -23428.333    60.112184    243.96496 
   20700    105.95343   -815.72315    89448.328   -21876.298    1585.4518    -23461.75    60.207462    235.34789 
   20750    108.59552   -864.18465    89505.324   -21836.255    1624.9872   -23461.242    60.330266     241.2166 
   20800    106.99403    -911.0774    89547.874   -21826.476    1601.0229   -23427.499    60.588388    237.65929 
   20850    109.47532   -950.73963    89605.107   -21829.387    1638.1522    -23467.54    60.597657    243.17085 
   20900    107.76467   -973.86059    89565.168   -21799.848    1612.5545   -23412.403    60.907216    239.37107 
   20950    106.53316   -988.79049    89510.036   -21836.959    1594.1267   -23431.086    61.103709     236.6356 
   21000    112.94771   -1056.9957    89504.439    -21820.29    1690.1118   -23510.402    61.206528    250.88385 
   21050    107.56233   -917.42522    89477.491   -21860.025    1609.5269   -23469.551    61.499004    238.92164 
   21100     109.0114   -855.37943    89477.147     -21841.2    1631.2102    -23472.41    61.815084    242.14037 
   21150    106.15878     -1074.83    89444.135    -21820.01    1588.5246   -23408.535    61.755283    235.80402 
   21200    109.70282   -1252.3041    89393.606   -21793.836    1641.5564   -23435.393    61.981224    243.67618 
   21250    106.76521   -1107.4868    89408.234   -21828.588     1597.599   -23426.187    62.177324    237.15105 
   21300    108.43084   -969.39897    89497.112   -21809.242     1622.523   -23431.765    62.333254    240.85081 
   21350    108.40518    -1031.547    89558.921   -21812.882    1622.1389   -23435.021    62.559512     240.7938 
   21400    111.87852   -721.32095    89601.701   -21795.119    1674.1129   -23469.232    62.659383    248.50893 
   21450    109.13113   -666.57539    89687.721   -21807.767    1633.0018   -23440.769    62.811246     242.4063 
   21500    107.96274   -879.19148      89783.5   -21787.526    1615.5184   -23403.045    63.027993    239.81104 
   21550    109.02767   -887.39997    89776.265   -21766.849    1631.4537   -23398.302    63.326987    242.17651 
   21600    109.51915   -904.89737    89755.704   -21804.992     1638.808     -23443.8    63.571761     243.2682 
   21650    106.46409   -1101.8603    89775.326   -21834.544    1593.0932   -23427.637    63.750625    236.48219 
   21700    106.84412   -908.77091    89718.778    -21859.59    1598.7798   -23458.369    63.922292    237.32632 
   21750    109.12081   -1031.7409    89701.328   -21840.051    1632.8474   -23472.899    64.087688    242.38339 
   21800    107.52833    -724.5792    89679.399   -21827.322    1609.0181    -23436.34    64.238754    238.84612 
   21850    109.00563   -783.79971    89724.013   -21851.006    1631.1239    -23482.13    64.840567    242.12755 
   21900    106.76314   -752.87586    89732.541   -21872.351    1597.5681   -23469.919    65.270133    237.14645 
   21950    107.59705   -1015.6449    89694.277   -21826.329    1610.0464   -23436.375    65.327003    238.99876 
   22000     109.1458   -570.93226    89752.685    -21777.08    1633.2214   -23410.301    65.408642    242.43891 
   22050    107.63017   -972.58756    89748.356   -21792.191     1610.542   -23402.733    65.257168    239.07233 
   22100    108.40716   -883.33297    89712.505   -21765.549    1622.1686   -23387.718    65.290018     240.7982 
   22150    110.85375   -833.46475    89726.514   -21761.412    1658.7785   -23420.191    65.439333    246.23266 
   22200    111.03424   -982.72018     89729.81   -21746.842    1661.4793   -23408.321    65.557814    246.63357 
   22250    109.53199   -855.11156    89736.276   -21765.362    1639.0002   -23404.362    65.824878    243.29672 
   22300    111.29198   -1052.2802    89683.372   -21781.107     1665.336   -23446.443    65.730436    247.20608 
   22350    110.37688   -1244.3825     89666.62   -21823.573    1651.6428   -23475.216    65.967827    245.17342 
   22400    108.65629    -944.5481    89658.644   -21809.951    1625.8965   -23435.848    66.355889    241.35158 
   22450    106.98176   -1002.1227    89576.644   -21779.245    1600.8394   -23380.084    66.606449    237.63206 
   22500    107.96613    -940.2089    89496.982   -21796.217    1615.5692   -23411.786    66.494932    239.81858 
   22550    109.62757   -1043.9508    89492.347   -21768.563    1640.4303   -23408.994    66.827523    243.50902 
   22600    106.89871   -757.40134    89443.953   -21793.479    1599.5967   -23393.075    67.161495    237.44758 
   22650    108.47694   -953.89226    89447.751   -21776.199    1623.2127   -23399.412    67.376709    240.95319 
   22700    111.58493   -775.45216    89483.051   -21772.671    1669.7196    -23442.39    67.510128    247.85679 
   22750    108.86199   -1010.2621    89414.999   -21816.123    1628.9745   -23445.098    67.566537    241.80848 
   22800    108.42901   -614.99395    89378.975   -21813.617    1622.4956   -23436.113     67.31276    240.84675 
   22850    107.52978   -965.90486    89395.978   -21804.974    1609.0397   -23414.014    67.416211    238.84933 
   22900    105.42239   -1041.4151    89371.578    -21829.81    1577.5055   -23407.315    67.633568    234.16832 
   22950    107.25927   -977.32004    89388.013   -21818.585    1604.9919   -23423.577    67.934526    238.24847 
   23000    109.92413   -978.80594    89441.444   -21848.524     1644.868   -23493.392    68.160762    244.16775 
   23050    108.47455   -826.77217    89470.618   -21825.772     1623.177   -23448.949     68.15135    240.94789 
   23100    111.98074    -607.9883    89473.524   -21814.518    1675.6425    -23490.16    68.567934    248.73599 
   23150    108.06017   -660.58369     89486.14   -21827.567    1616.9763   -23444.543    68.700379    240.02745 
   23200    108.37561   -1041.4714    89538.009   -21807.836    1621.6965   -23429.533    69.030181    240.72812 
   23250    112.22348   -840.33143      89525.4     -21800.5    1679.2747   -23479.775    69.333016    249.27515 
   23300    109.99198   -557.33766    89554.122   -21784.808    1645.8834   -23430.691    69.546655    244.31848 
   23350    109.82888   -805.22886    89607.682   -21760.405    1643.4428   -23403.848    69.364336    243.95619 
   23400    110.29911   -843.10361    89558.803   -21782.897    1650.4791   -23433.377    69.665485    245.00068 
   23450    111.46194   -544.89098    89558.091   -21756.689    1667.8792   -23424.568    70.103193    247.58359 
   23500    109.16683   -731.32757    89615.815   -21758.511     1633.536   -23392.047    70.337748    242.48561 
   23550     108.3987   -910.57029    89632.247   -21807.345     1622.042   -23429.387    70.583305    240.77942 
   23600    107.11941   -948.38829    89579.859   -21819.416    1602.8991   -23422.315    70.416388     237.9378 
   23650    109.12083   -1087.8905    89550.633   -21828.593    1632.8477   -23461.441    70.745647    242.38343 
   23700    107.38595   -1094.2265    89531.823   -21810.817    1606.8876   -23417.705    70.797939    238.52986 
   23750    107.55203   -593.94977    89496.424   -21811.227    1609.3727   -23420.599    71.066356    238.89875 
   23800     109.8496   -973.20473    89517.069   -21809.436    1643.7527   -23453.189    71.324054     244.0022 
   23850    108.88793   -1039.3638    89470.098   -21807.244    1629.3627   -23436.607    71.412891    241.86612 
   23900    108.80517   -764.73304     89464.76    -21828.42    1628.1243   -23456.545    71.623403    241.68228 
   23950    107.16778   -709.06173    89424.327   -21818.272    1603.6229   -23421.895    71.544697    238.04524 
   24000    108.20594   -1165.3256    89392.688   -21813.944    1619.1575   -23433.101    71.369144    240.35124 
   24050    110.17041   -790.19955    89332.255   -21811.041    1648.5532   -23459.594    71.714438     244.7148 
   24100    112.77922   -682.06321    89367.111   -21771.516    1687.5907   -23459.106    71.659074     250.5096 
   24150    111.08667    -1128.291    89341.081   -21806.738    1662.2639   -23469.002    71.683544    246.75004 
   24200    110.04335   -829.16613    89292.936   -21781.191     1646.652   -23427.843    71.821596    244.43258 
   24250    108.65923   -846.88157    89352.823   -21809.026    1625.9404   -23434.966     71.92945    241.35811 
   24300     111.8106   -688.38425    89396.006   -21773.387    1673.0965   -23446.483    71.937407    248.35805 
   24350    111.49745   -774.49551    89378.547    -21825.45    1668.4107    -23493.86    72.192259    247.66249 
   24400    110.22912   -793.73028    89404.144   -21845.686    1649.4319   -23495.118    72.522624    244.84522 
   24450    110.15779   -703.34596    89334.235   -21851.807    1648.3644   -23500.171    72.436413    244.68677 
   24500    105.59247   -624.83782    89324.556   -21865.549    1580.0505     -23445.6     72.54985    234.54611 
   24550    105.02375   -931.18599    89285.826   -21843.172    1571.5404   -23414.713    72.667424    233.28284 
   24600    105.08902   -853.33594    89262.353   -21856.533     1572.517    -23429.05    73.025138    233.42782 
   24650    104.82342   -732.83944    89307.891   -21859.011    1568.5427   -23427.554    73.222719    232.83787 
   24700    108.45464    -876.6943    89307.747   -21833.642    1622.8791   -23456.521    73.128146    240.90368 
   24750    109.16648   -716.65599    89376.602   -21841.056    1633.5308   -23474.587    73.064182    242.48483 
   24800    108.72477    -690.7134    89406.986   -21863.477    1626.9212   -23490.398    72.997964    241.50369 
   24850    108.54632   -950.63124    89465.465   -21850.911    1624.2509   -23475.161    73.055499    241.10731 
   24900    107.06815   -1220.7612     89425.89   -21854.567    1602.1321   -23456.699    73.369506    237.82395 
   24950    110.16878   -518.49031    89391.426   -21862.849    1648.5288   -23511.378    73.638443    244.71118 
   25000    109.90846   -950.27514    89416.949   -21875.702    1644.6335   -23520.336     74.01219    244.13295 
   25050    107.18017   -848.84765    89432.917    -21876.71    1603.8083   -23480.518    74.232031    238.07276 
   25100    107.80448    -1034.282    89371.705   -21845.842    1613.1502   -23458.992    74.803358     239.4595 
   25150     110.7777   -827.60677    89390.001   -21817.909    1657.6406    -23475.55    75.325698    246.06375 
   25200    108.64772   -1180.0184    89378.071   -21864.908    1625.7683   -23490.676    75.565561    241.33256 
   25250    108.16455   -647.63221    89418.367    -21861.53    1618.5383   -23480.069    75.446105    240.25931 
   25300    109.26257   -958.81546    89394.908   -21821.774    1634.9687   -23456.742    75.758681    242.69828 
   25350    108.27708   -691.64589    89398.758    -21791.02    1620.2222   -23411.242    75.731806    240.50927 
   25400    109.88489   -1066.2204    89365.916   -21777.129    1644.2809    -23421.41    75.975869     244.0806 
   25450    108.84234   -885.15396    89327.077   -21808.449    1628.6805   -23437.129    75.751591    241.76485 
   25500    112.42674   -625.31692    89312.938   -21825.694    1682.3162    -23508.01    75.589185    249.72665 
   25550    110.77722   -970.58903    89351.897   -21822.039    1657.6333   -23479.672    75.872741    246.06267 
   25600    110.96842   -847.56263    89384.532   -21857.043    1660.4944   -23517.538    75.770815    246.48737 
   25650    108.16342   -1091.1527    89363.842   -21832.163    1618.5214   -23450.684    75.727849     240.2568 
   25700    107.80356   -833.52298    89372.944   -21827.696    1613.1366   -23440.832    75.862018    239.45747 
   25750    106.66238   -609.64987    89392.321   -21862.529    1596.0603   -23458.589    76.226582    236.92264 
   25800    107.65831   -842.91912     89406.45   -21857.495     1610.963   -23468.458    76.392056    239.13482 
   25850    106.78851   -884.38103    89342.746   -21809.371    1597.9477   -23407.318    76.495035     237.2028 
   25900    110.70759   -753.31629    89306.446   -21796.856    1656.5915   -23453.448    76.614652    245.90801 
   25950    111.88889   -864.28795    89237.023   -21795.748     1674.268   -23470.016     76.93957    248.53196 
   26000    106.44707   -913.80811    89176.992   -21832.871    1592.8385    -23425.71     77.14976    236.44438 
   26050    106.36601   -771.94711     89188.71   -21838.108    1591.6255   -23429.734    77.596874    236.26432 
   26100    109.96722   -1301.6783    89142.147   -21858.394    1645.5128   -23503.906    77.768725    244.26347 
   26150    109.32201   -828.39668    89112.842   -21806.606    1635.8581   -23442.464     77.81782     242.8303 
   26200    105.06854   -837.43756    89117.233   -21853.864    1572.2105   -23426.075    78.001922    233.38232 
   26250    105.25471   -1002.5488    89105.676   -21903.094    1574.9964    -23478.09    78.087866    233.79586 
   26300    105.42228   -887.76947    89086.913   -21881.177    1577.5038   -23458.681    78.263514    234.16806 
   26350     107.0393    -571.5045    89093.639   -21879.091    1601.7004   -23480.791    78.293354    237.75986 
   26400    106.74807   -622.59798    89144.955   -21861.145    1597.3424   -23458.487    78.327497    237.11296 
   26450    105.48083   -843.49025    89188.676   -21865.508      1578.38   -23443.888     78.48248    234.29813 
   26500    109.23571   -1074.1191    89173.526   -21900.562    1634.5667   -23535.128    78.448794    242.63861 
   26550    105.05637   -609.53672    89204.166   -21904.674    1572.0285   -23476.702    78.679639     233.3553 
   26600    105.86872   -466.19055    89267.006   -21894.623    1584.1842   -23478.807    79.159141    235.15972 
   26650    104.86803   -545.47911    89278.777   -21916.641    1569.2102   -23485.851    79.578778    232.93695 
   26700    107.11453   -631.87824    89334.823   -21936.436     1602.826   -23539.262    79.904741    237.92696 
   26750    107.84166   -793.28582    89314.954   -21905.196    1613.7066   -23518.902    79.990045    239.54209 
   26800    109.68037   -998.89752    89287.267   -21898.342    1641.2205   -23539.563    79.963488    243.62631 
   26850    108.02353    -768.3942    89341.753   -21878.996    1616.4281   -23495.424    80.317587    239.94607 
   26900    107.56122   -794.76031    89363.853    -21878.13    1609.5102    -23487.64    80.774461    238.91917 
   26950    110.08679   -586.48626     89364.76    -21852.07     1647.302   -23499.372    81.025496    244.52907 
   27000    106.51643   -858.07939    89388.275   -21873.711    1593.8763   -23467.587    80.911755    236.59844 
   27050    105.47787    -714.3987    89432.186   -21903.086    1578.3357   -23481.422    81.026767    234.29155 
   27100    106.36811   -865.33077    89353.346   -21893.629    1591.6569   -23485.286    81.024561    236.26898 
   27150    106.27045    -755.4209    89391.531   -21876.241    1590.1956   -23466.437    81.198597    236.05207 
   27200     109.4018   -774.70597     89390.48   -21859.735     1637.052   -23496.787    81.412252    243.00753 
   27250    107.13995   -791.81815     89393.66   -21888.253    1603.2065   -23491.459    81.646436    237.98344 
   27300    109.15908   -887.69763    89449.027   -21893.397    1633.4201   -23526.817     81.74712     242.4684 
   27350    107.92765   -734.68783    89494.153   -21850.105    1614.9934   -23465.098    81.855607     239.7331 
   27400    109.38291   -485.36514    89497.001   -21849.904    1636.7694   -23486.674    81.782581    242.96558 
   27450    107.03286   -912.41959    89531.899   -21873.384     1601.604   -23474.988    81.933079    237.74555 
   27500    105.92847   -819.08743    89469.476     -21860.1    1585.0783   -23445.179    81.978931    235.29244 
   27550    106.27056   -894.94164    89445.417   -21872.972    1590.1972    -23463.17    82.122823     236.0523 
   27600    107.39035   -524.90232    89426.839   -21858.722    1606.9534   -23465.675    82.427791    238.53964 
   27650    106.06174   -835.50402    89477.277   -21868.292    1587.0725   -23455.364     82.76735    235.58846 
   27700    102.49249   -1006.5026    89498.573   -21885.354    1533.6634   -23419.017    82.985913     227.6603 
   27750    106.29811   -917.66094    89519.857   -21879.551    1590.6095   -23470.161    82.902077    236.11351 
   27800    106.61526   -1107.8407    89522.197   -21891.496    1595.3551   -23486.851    83.041023    236.81796 
   27850    107.39179   -687.22273    89511.714     -21846.5    1606.9749   -23453.475    82.958163    238.54282 
   27900    108.86471   -731.34616    89534.563   -21853.426    1629.0152   -23482.441    82.864595    241.81453 
   27950    107.46443   -690.01434    89561.063    -21840.06    1608.0618   -23448.122     82.47069    238.70417 
   28000    104.47945   -1051.3388     89606.66   -21882.384    1563.3956   -23445.779     82.65505    232.07382 
   28050    107.54683   -879.22246     89600.87   -21896.228    1609.2949   -23505.523    82.577221    238.88721 
   28100    104.62923   -1053.5654    89643.868    -21885.47     1565.637   -23451.107     82.97379    232.40653 
   28150    107.70018   -975.87114    89686.155   -21877.391    1611.5895    -23488.98    83.103298    239.22783 
   28200    106.20281   -981.38752    89658.499   -21883.815    1589.1834   -23472.998     83.55798    235.90181 
   28250    106.81782   -786.26072    89602.069   -21893.966    1598.3863   -23492.352    83.936236    237.26791 
   28300    107.04727   -896.21577    89560.414   -21911.115    1601.8197   -23512.935    84.127974    237.77757 
   28350    105.83349   -758.11736      89523.6   -21853.421     1583.657   -23437.078    84.364715    235.08147 
   28400     108.7008    -1077.144    89571.514   -21835.251    1626.5625   -23461.814    84.264458    241.45045 
   28450    108.83888   -820.92962    89630.273   -21822.295    1628.6287   -23450.924    84.708206    241.75716 
   28500    109.71656   -773.41298    89597.362   -21853.588     1641.762    -23495.35    84.463826     243.7067 
   28550    107.09146   -1057.8175    89475.359   -21850.351    1602.4809   -23452.832    84.855638    237.87572 
   28600    106.62998   -609.97968    89472.307   -21877.042    1595.5755   -23472.618    84.912204    236.85067 
   28650    109.38547   -1092.5301    89464.115   -21886.294    1636.8076   -23523.102    85.366594    242.97126 
   28700    108.45986   -1078.1737     89450.16   -21900.085    1622.9572   -23523.042    85.550472    240.91527 
   28750    106.45668   -914.73628    89348.098   -21920.959    1592.9823   -23513.941    85.527355    236.46573 
   28800    105.56555   -1071.3671    89361.766   -21876.657    1579.6477   -23456.305    85.563596    234.48631 
   28850    106.01443   -800.58091    89355.642   -21881.736    1586.3645   -23468.101    85.492846    235.48337 
   28900    107.20787   -844.97134    89381.588   -21886.585    1604.2228   -23490.808    85.672429    238.13429 
   28950    106.47609   -947.89917    89418.436   -21893.961    1593.2726   -23487.234    85.923785    236.50883 
   29000    104.11702   -902.15207    89422.385   -21924.111    1557.9723   -23482.084    86.158236    231.26877 
   29050    105.64506   -1067.6009    89386.753   -21964.897    1580.8374   -23545.734    86.482209    234.66291 
   29100     105.2819   -786.45432    89374.526   -21931.297    1575.4033     -23506.7      86.6804    233.85626 
   29150    104.34054   -832.74733    89423.213   -21923.844    1561.3171   -23485.161    87.151859    231.76528 
   29200    105.96766   -924.34967    89391.561   -21874.634    1585.6647   -23460.298    87.317629     235.3795 
   29250      106.262   -849.50046    89336.868   -21885.277    1590.0691   -23475.346     87.17759    236.03329 
   29300    107.05092   -1174.9221    89365.485   -21852.926    1601.8743     -23454.8    87.397774    237.78568 
   29350    105.93175    -938.6804    89359.059   -21877.703    1585.1274    -23462.83    87.645969    235.29973 
   29400    108.14737   -805.52133    89342.844   -21915.496    1618.2812   -23533.777    87.462921    240.22115 
   29450    103.93701   -747.63531    89342.152    -21969.14    1555.2788   -23524.419    87.277755    230.86894 
   29500    106.10587   -912.87413    89347.129   -21969.241    1587.7328   -23556.974    87.368519    235.68648 
   29550    105.77252   -739.65964     89416.23   -22007.746    1582.7447   -23590.491    87.547149    234.94604 
   29600    103.04198   -1007.2221    89473.914   -21980.492    1541.8859   -23522.378    87.714735    228.88087 
   29650    104.19582   -1020.3477    89535.065   -21962.211    1559.1515   -23521.362    88.079843    231.44382 
   29700    102.93349   -911.11634    89549.087   -21972.277    1540.2624   -23512.539    88.059168    228.63987 
   29750    104.35027   -977.08567    89546.235   -21940.532    1561.4626   -23501.995    87.743551    231.78688 
   29800    106.96695   -1099.9396    89594.534   -21905.826    1600.6177   -23506.443    87.838209    237.59914 
   29850    107.82445   -1008.1428    89663.107   -21877.098    1613.4492   -23490.547    88.310952    239.50387 
   29900    105.24076   -913.69008    89711.897   -21902.582    1574.7876    -23477.37     88.92469    233.76487 
   29950    109.56644   -863.75882    89701.587    -21837.02    1639.5156   -23476.535    88.961759    243.37324 
   30000    112.04585   -884.74705    89690.571   -21777.223    1676.6168    -23453.84    88.942404    248.88061 
   30050    110.19694   -887.48154    89650.337   -21783.179    1648.9502   -23432.129    88.983447    244.77372 
   30100    108.59478   -953.23158    89592.566   -21820.226    1624.9761   -23445.202    89.027243    241.21496 
   30150      108.257    -1046.014    89584.654   -21799.435    1619.9216   -23419.356    89.043948    240.46466 
   30200    107.24458   -1177.7613    89510.752   -21810.126    1604.7722   -23414.898    89.285363    238.21584 
   30250     110.7745   -1263.4766    89381.294   -21758.439    1657.5927   -23416.032    89.641424    246.05663 
   30300    109.63915   -833.92501    89290.098   -21759.675    1640.6037   -23400.278     90.06489    243.53475 
   30350    110.19786   -664.79178    89353.351   -21773.908     1648.964   -23422.872    90.365044    244.77578 
   30400     110.3262   -818.04202     89347.03   -21810.537    1650.8844   -23461.421    90.723259    245.06085 
   30450    106.63445   -936.60575    89318.946   -21867.685    1595.6423   -23463.327    90.462525    236.86059 
   30500    108.29189   -884.41563    89348.205   -21843.303    1620.4437   -23463.747    90.290334    240.54216 
   30550    107.93142   -1014.0032    89341.138   -21851.968    1615.0498   -23467.017    90.325367    239.74148 
   30600    106.57038   -1022.6173    89297.096   -21845.948    1594.6836   -23440.632    90.448649    236.71827 
   30650    106.84313   -964.67741    89316.453   -21867.872    1598.7649   -23466.637    90.608024    237.32412 
   30700     107.1585   -1025.5252    89308.612   -21882.655    1603.4841   -23486.139    90.830617    238.02464 
   30750    109.29938   -1124.4862      89364.1   -21823.371    1635.5194    -23458.89    91.524651    242.78003 
   30800    108.24034   -1090.0619    89326.129   -21807.074    1619.6723   -23426.746    91.890129    240.42765 
   30850    107.86777   -1372.2402    89230.292   -21799.105    1614.0974   -23413.202    92.069654     239.6001 
   30900    105.88351   -1110.0556    89176.719    -21786.69    1584.4055   -23371.095     92.28751    235.19257 
   30950      109.221   -965.30148    89145.194   -21784.505    1634.3467   -23418.852    92.582299    242.60595 
   31000    109.74823   -743.73764    89127.513   -21769.203    1642.2359   -23411.439     93.05188    243.77704 
   31050     109.4056   -728.31989    89133.703   -21800.341     1637.109    -23437.45    93.558528    243.01599 
   31100    107.55802   -976.63689    89100.875   -21815.236    1609.4624   -23424.698     93.56331    238.91207 
   31150    107.27953   -864.54098    89150.818   -21795.293     1605.295   -23400.588    93.403971    238.29346 
   31200    108.66757   -731.75657    89218.375   -21786.803    1626.0653   -23412.868    93.378747    241.37665 
   31250    107.48429   -1380.5012    89157.099   -21802.627    1608.3591   -23410.986    93.531649    238.74829 
   31300    109.15854   -866.18405    89143.732   -21812.482     1633.412   -23445.894    93.568244     242.4672 
   31350    105.91615   -1091.1994    89085.614   -21842.375     1584.894   -23427.269    93.891684    235.26508 
   31400    106.96313    -1056.612    89120.787    -21822.12    1600.5606   -23422.681    94.118888    237.59067 
   31450    107.14156    -806.4715    89120.215   -21830.093    1603.2306   -23433.323    94.443885      237.987 
   31500    108.36157   -875.83623    89132.478   -21794.808    1621.4863   -23416.294    94.921292    240.69693 
   31550    107.71875   -877.97714     89100.42   -21819.875    1611.8675   -23431.742     95.15827    239.26908 
   31600    107.49503   -829.84289     89142.57   -21865.759    1608.5198   -23474.279    95.318932    238.77215 
   31650    106.70775   -1024.4099    89168.126     -21855.6    1596.7392   -23452.339    95.822596    237.02341 
   31700    107.22029   -529.61901    89202.499   -21866.729    1604.4087   -23471.138    95.594379    238.16189 
   31750    108.91862   -534.44006    89246.378   -21857.298    1629.8219    -23487.12    95.424914    241.93429 
   31800    108.51615   -927.17174    89297.462   -21840.884    1623.7995   -23464.684    95.580467     241.0403 
   31850    105.91551   -890.68728    89307.076   -21863.971    1584.8844   -23448.856    95.566375    235.26366 
   31900     103.9547   -915.21239    89306.819   -21882.696    1555.5435   -23438.239    95.644783    230.90824 
   31950    103.12349   -920.02246    89283.204   -21874.876    1543.1055   -23417.982    95.845885     229.0619 
   32000    104.35577   -693.02508    89287.317   -21869.895    1561.5449    -23431.44    95.971237     231.7991 
   32050    105.30245   -782.93535    89349.204   -21873.877    1575.7107   -23449.588     96.18321    233.90189 
   32100    106.30202    -627.1185    89361.364   -21831.089    1590.6679   -23421.757    96.310402    236.12218 
   32150    105.82033   -766.36094    89349.428   -21861.696    1583.4602   -23445.156     96.33831    235.05225 
   32200    107.27903   -970.54389    89296.024   -21835.314    1605.2876   -23440.601    96.442104    238.29236 
   32250    108.23314   -530.05783    89314.764   -21844.048    1619.5646   -23463.612    96.666451    240.41166 
   32300    108.09379   -409.88417     89307.89   -21830.122    1617.4795   -23447.602    96.676288    240.10215 
   32350    110.23132   -838.17163     89310.96   -21818.638    1649.4646   -23468.103    96.748394    244.85009 
   32400    108.56037   -678.80492    89402.148   -21864.239    1624.4612     -23488.7     96.88219    241.13853 
   32450    109.46108   -579.32599    89443.125   -21835.662    1637.9391   -23473.602    97.057701    243.13921 
   32500    107.77293   -699.44336    89520.839   -21870.344    1612.6781   -23483.022    96.982315    239.38942 
   32550    107.43717   -448.98147     89557.25   -21838.703     1607.654   -23446.357    97.234913    238.64363 
   32600    107.64438   -678.52507    89585.945   -21779.305    1610.7546    -23390.06    97.287823    239.10389 
   32650      108.126   -551.30615    89615.429   -21786.421    1617.9614   -23404.382    97.619988    240.17368 
   32700    107.22435   -693.00846    89610.004   -21771.774    1604.4694   -23376.243    97.714105     238.1709 
   32750    110.46186    -704.5928    89605.029    -21746.47    1652.9145   -23399.384    97.716293    245.36219 
   32800    111.24633   -774.83345    89600.697    -21779.93     1664.653   -23444.583    97.573123    247.10468 
   32850    106.58326   -670.73933    89636.993   -21799.837    1594.8763   -23394.713    97.615819    236.74688 
   32900      108.181   -946.21694    89625.927   -21824.119    1618.7844   -23442.903     98.05302    240.29584 
   32950    107.08608   -745.72945    89577.002    -21833.82    1602.4004   -23436.221    98.137267    237.86377 
   33000    111.56061   -965.22571    89561.412   -21793.643    1669.3557   -23462.999    98.130479    247.80276 
   33050    108.01694   -583.71479    89550.933   -21803.388    1616.3295   -23419.717     97.75063    239.93144 
   33100    106.33182   -962.70577    89503.634   -21832.141    1591.1138   -23423.255    97.326302    236.18837 
   33150    108.16549   -759.14123    89415.438   -21817.171    1618.5523   -23435.724    97.430213    240.26139 
   33200    110.18262   -684.36933    89390.801   -21808.014    1648.7359    -23456.75     97.49253    244.74192 
   33250    105.39001   -899.54076     89346.78   -21851.219     1577.021    -23428.24    97.580326     234.0964 
   33300    106.76512   -917.32883    89331.731   -21847.759    1597.5977   -23445.356    97.810156    237.15085 
   33350    109.19646   -711.33402      89333.1   -21828.258    1633.9794   -23462.237    98.067882    242.55142 
   33400    108.15105   -774.92149      89407.2   -21809.197    1618.3362   -23427.534    98.064121    240.22931 
   33450    106.78036   -633.57232    89428.695   -21843.634    1597.8256    -23441.46    98.136428    237.18469 
   33500    107.78039    -1032.899    89384.808     -21866.1    1612.7897   -23478.889    98.413835    239.40599 
   33550    106.33042   -509.02864    89427.186   -21907.873    1591.0929   -23498.966    98.490602    236.18527 
   33600    105.83692   -804.08219    89467.315   -21908.082    1583.7084    -23491.79    98.744025    235.08909 
   33650    106.27925   -773.79125    89514.476   -21882.873    1590.3272     -23473.2    99.119268    236.07161 
   33700    105.30361    -952.4341    89586.624   -21890.019    1575.7282   -23465.748    99.053372    233.90449 
   33750    104.16429   -871.96058    89591.283   -21889.117    1558.6797   -23447.797    99.030501    231.37377 
   33800    104.97779   -918.85462    89589.647   -21899.057    1570.8526   -23469.909     98.99634    233.18075 
   33850    106.15129   -797.88964    89667.485   -21880.637    1588.4125    -23469.05    99.081259    235.78738 
   33900    106.14694   -1016.7934     89609.98   -21847.109    1588.3474   -23435.457    99.034733    235.77771 
   33950    109.50772   -1221.1217    89544.973   -21817.394     1638.637   -23456.031    99.135934    243.24282 
[...]
   92000    106.21643   -965.27109    90260.442   -21916.539    1589.3872   -23505.926    274.06391    235.93206 
   92050    107.04558   -552.24068    90303.932   -21871.291    1601.7944   -23473.085    274.65259    237.77382 
   92100    110.16185   -816.17439    90327.537   -21830.148    1648.4252   -23478.573    275.18441    244.69579 
   92150     108.6757   -694.17181    90359.223   -21824.294    1626.1869   -23450.481    275.15848     241.3947 
   92200    107.83807   -863.14221    90304.664   -21825.702     1613.653   -23439.355    275.24667    239.53413 
   92250    105.83884   -632.66261    90327.029   -21848.147     1583.737   -23431.884    275.43883    235.09334 
   92300     108.2816   -958.94311    90356.149   -21840.042    1620.2897   -23460.332    275.91502     240.5193 
   92350    107.86026   -792.25292    90280.626   -21884.655    1613.9849    -23498.64     275.7062    239.58341 
   92400    107.01087   -750.67688    90271.287   -21895.445    1601.2749    -23496.72    276.19066    237.69671 
   92450    105.28967   -925.04718    90235.435   -21868.005    1575.5195   -23443.525    276.72296    233.87352 
   92500    107.57591   -1052.8982    90236.107   -21903.768      1609.73   -23513.498    276.70942    238.95179 
   92550     106.2908   -806.96481    90181.478   -21882.409    1590.5001   -23472.909    277.01017    236.09726 
   92600    107.47317    -764.6019    90169.707   -21875.447    1608.1926   -23483.639    276.90231    238.72358 
   92650    105.18757   -939.49814    90190.831   -21861.551    1573.9917   -23435.543    277.65931    233.64673 
   92700    106.49817   -784.32875    90239.734   -21872.289    1593.6031   -23465.892    277.89092    236.55788 
   92750    107.50813   -807.59648    90225.177   -21866.422    1608.7158   -23475.137    277.91089    238.80124 
   92800    107.99998   -779.47136     90229.56   -21872.326    1616.0757   -23488.402    278.21489    239.89376 
   92850    106.79437   -966.67041      90242.7   -21846.513    1598.0353   -23444.548    278.10544    237.21581 
   92900    109.22075   -832.54756    90237.247   -21829.742    1634.3428   -23464.085    278.32213    242.60538 
   92950    109.88542   -1098.4688    90219.508   -21857.125    1644.2888   -23501.413    278.15474    244.08178 
   93000    109.70473   -642.83929    90209.516   -21832.566     1641.585   -23474.151    278.11101    243.68042 
   93050    112.27656   -876.85982     90209.88   -21818.705    1680.0689   -23498.774    278.87334    249.39306 
   93100    105.79311   -852.93639    90229.324   -21847.182    1583.0528   -23430.235    278.88482    234.99178 
   93150     110.7841   -838.08547    90269.143   -21865.446    1657.7363   -23523.182    278.90053    246.07795 
   93200    107.94719   -788.57299    90315.868   -21878.762    1615.2857   -23494.048    278.70408    239.77649 
   93250    110.29721   -970.28238    90324.679   -21869.078    1650.4507   -23519.528    278.95607    244.99646 
   93300    108.34034   -754.31182    90272.405   -21883.686    1621.1687   -23504.855    278.93753    240.64978 
   93350    106.52273   -855.35512    90214.706   -21921.296    1593.9706   -23515.267    278.67076    236.61243 
   93400    107.27866   -669.05198    90182.708   -21904.447     1605.282   -23509.729    278.40098    238.29153 
   93450    107.83831   -959.61081    90199.942   -21897.318    1613.6565   -23510.975    278.49522    239.53466 
   93500    106.12532   -619.32072     90208.14   -21859.021    1588.0239   -23447.045    278.82322     235.7297 
   93550    108.05858   -796.54917    90285.542   -21821.217    1616.9526   -23438.169    278.25548    240.02393 
   93600    109.51661   -950.87464    90367.886   -21814.187      1638.77   -23452.957    278.42024    243.26255 
   93650    108.04806   -1049.7213    90384.497    -21847.81    1616.7951   -23464.605    278.36852    240.00056 
   93700    106.76703   -728.94109    90304.637   -21858.882    1597.6263   -23456.508    278.58567    237.15509 
   93750    106.26878   -773.49333    90246.245   -21850.293    1590.1706   -23440.463    278.77575    236.04835 
   93800    107.93022   -1086.4788    90208.003    -21865.09    1615.0319   -23480.122    278.75745    239.73882 
   93850    109.84261   -688.71732    90170.841   -21846.169    1643.6481   -23489.818    279.42649    243.98668 
   93900    108.08222   -643.94085    90165.775   -21835.757    1617.3063   -23453.063      279.122    240.07644 
   93950    108.98553   -1116.4653    90147.542   -21847.198    1630.8232   -23478.022     279.2933    242.08291 
   94000    110.73943   -888.59452    90044.232    -21820.89     1657.068   -23477.958    279.21331    245.97874 
   94050    112.78536    -938.5713    90002.286   -21816.816    1687.6824   -23504.499    279.65461    250.52322 
   94100    104.30542   -949.15755    89884.038   -21890.799    1560.7915    -23451.59    279.55427    231.68726 
   94150    106.93919   -626.79981    89844.099   -21898.708    1600.2023    -23498.91    279.85842    237.53749 
   94200    107.94836   -780.84128    89845.472   -21909.112    1615.3032   -23524.416    280.17165     239.7791 
   94250    108.40389   -927.90444    89831.498   -21897.372    1622.1196   -23519.492    280.11343    240.79094 
   94300     107.1496   -789.41688    89831.124   -21909.932    1603.3508   -23513.282    280.18797    238.00486 
   94350    110.36404   -693.46734    89841.493   -21856.033    1651.4507   -23507.484    280.54763    245.14491 
   94400    110.91284   -804.51409    89842.015   -21844.209    1659.6628   -23503.872    280.41413    246.36393 
   94450     109.3877   -804.09217     89810.66   -21847.569     1636.841    -23484.41    280.31562    242.97622 
   94500     107.4823   -511.87768    89780.832   -21869.195    1608.3293   -23477.524    280.60661    238.74388 
   94550    113.15091   -872.47078    89732.958   -21848.913    1693.1525   -23542.065    281.04811    251.33522 
   94600    111.86231   -610.13805    89723.203   -21844.077    1673.8702   -23517.947     281.0738    248.47291 
   94650    107.64291   -626.03269      89823.5    -21817.34    1610.7326   -23428.072    280.93714    239.10062 
   94700    108.73948   -1002.4825    89825.649   -21853.002    1627.1412   -23480.143    280.84893    241.53636 
   94750    108.61927   -879.81006    89826.735   -21846.988    1625.3425    -23472.33    280.66311    241.26935 
   94800    110.64545   -729.64151    89862.242   -21814.851    1655.6616   -23470.513     280.7988    245.76999 
   94850    110.81581   -916.86776    89853.065   -21792.645    1658.2108   -23450.855    280.94725    246.14839 
   94900    108.72574   -912.64167    89855.777   -21772.168    1626.9357   -23399.104    281.71364    241.50585 
   94950    111.45649   -850.15233    89908.196    -21752.04    1667.7978   -23419.837    282.05094     247.5715 
   95000    107.96215   -670.26531    89946.716   -21786.459    1615.5095   -23401.969    281.83052    239.80972 
   95050    109.91454   -777.29336    89993.231   -21786.475    1644.7245     -23431.2     282.1128    244.14645 
   95100    109.77902   -731.26275    90013.812   -21788.421    1642.6967   -23431.118    281.80209    243.84544 
   95150    110.16881   -491.24657    90104.304   -21796.178    1648.5293   -23444.707     281.8574    244.71124 
   95200    111.49881   -603.28875    90128.111   -21794.228     1668.431   -23462.659    282.17967     247.6655 
   95250    108.73326   -729.97008    90115.618   -21812.853    1627.0483   -23439.901    281.90518    241.52256 
   95300    106.17568   -952.95114    90147.876   -21852.193    1588.7775    -23440.97    281.88111    235.84155 
   95350    109.64919   -957.27145    90169.509   -21852.251    1640.7539   -23493.005    282.07211    243.55706 
   95400     105.8783   -896.34592    90198.467   -21865.338    1584.3276   -23449.665     282.2108    235.18101 
   95450     108.3609   -651.75746     90219.81   -21870.323    1621.4764   -23491.799    282.38698    240.69546 
   95500    108.61107   -878.88842    90230.223   -21838.606    1625.2198   -23463.826    282.04236    241.25113 
   95550    106.67672   -999.64582    90227.001   -21843.526    1596.2749   -23439.801    282.18293    236.95449 
   95600    106.48168   -854.64763    90207.975   -21835.951    1593.3563   -23429.307    282.92608    236.52125 
   95650    109.15123   -1082.8123    90188.836   -21844.651    1633.3025   -23477.954      283.184    242.45095 
   95700    110.53279   -908.34416    90142.599   -21890.668    1653.9758   -23544.644    283.58595    245.51974 
   95750     111.0291   -661.31024    90147.146   -21857.987    1661.4024   -23519.389    283.34805    246.62215 
   95800    109.41692   -796.64188     90145.36   -21859.979    1637.2783   -23497.257    283.48798    243.04112 
   95850    108.15744   -668.30222    90200.774   -21860.131    1618.4318   -23478.563    283.68101    240.24352 
   95900    110.91558   -579.02497    90262.864   -21861.307    1659.7037   -23521.011    283.76073       246.37 
   95950    110.75765   -953.07045    90297.014   -21899.704    1657.3405   -23557.045    284.14164     246.0192 
   96000     110.0601   -426.27622    90345.126   -21888.976    1646.9027   -23535.879    284.44878    244.46979 
   96050     109.5054   -747.25077    90421.935   -21849.656    1638.6023   -23488.258    283.91622    243.23767 
   96100     108.7971   -946.89271    90465.374   -21833.417    1628.0035   -23461.421    284.26587    241.66435 
   96150    109.33883   -644.86712    90528.081   -21820.117    1636.1097   -23456.226    283.65943    242.86766 
   96200    110.31457   -950.45077    90481.295   -21854.798    1650.7104   -23505.508    283.61845    245.03501 
   96250    112.09908   -978.32685    90490.447   -21863.256    1677.4132   -23540.669    283.07045    248.99884 
   96300     109.5321   -870.12498    90425.902   -21878.071    1639.0018   -23517.072    282.82317    243.29697 
   96350     111.3417   -864.30268    90364.548   -21834.755      1666.08   -23500.835    283.34575    247.31652 
   96400    109.46883   -940.07458    90332.608   -21880.236    1638.0551   -23518.292    283.26992    243.15644 
   96450    106.90188     -820.425    90308.946   -21885.786    1599.6441    -23485.43    283.49276    237.45462 
   96500    105.76412     -1028.02    90259.601   -21843.321    1582.6191    -23425.94    283.64053    234.92739 
   96550    111.40048    -1077.826    90157.024   -21838.283    1666.9597   -23505.242    283.84084    247.44709 
   96600    110.24475   -828.16659    90127.487    -21856.16    1649.6657   -23505.825    284.46898    244.87994 
   96650    107.33943   -816.14183    90136.866    -21858.87    1606.1914   -23465.061    284.90794    238.42652 
   96700    109.75234   -1008.1043    90150.543   -21857.699    1642.2974   -23499.997     284.9634    243.78617 
   96750    107.25388   -1026.7253    90232.562   -21883.516    1604.9113   -23488.427    285.40261    238.23649 
   96800    109.80918   -816.61911    90184.419   -21882.532    1643.1479    -23525.68    285.23742    243.91242 
   96850    109.64595   -1103.8544    90190.648   -21874.166    1640.7054   -23514.872    285.72951    243.54986 
   96900    110.48052   -850.97769     90181.88   -21812.196    1653.1937    -23465.39     285.5872    245.40364 
   96950    107.33696    -748.1018    90229.305   -21846.106    1606.1545    -23452.26    286.24309    238.42103 
   97000    108.54201   -1125.6238    90189.587   -21835.737    1624.1864   -23459.923    286.00335    241.09774 
   97050    109.00481   -798.90913    90206.518   -21823.856    1631.1116   -23454.968    285.35902    242.12573 
   97100    110.43722   -1014.1293    90178.434   -21816.818    1652.5457   -23469.364    286.10048    245.30745 
   97150    108.82899   -1043.2155    90175.743   -21821.008    1628.4807   -23449.489    286.42025    241.73519 
   97200    108.86508   -684.29973    90145.472   -21831.128    1629.0208   -23460.149    286.93704    241.81536 
   97250    107.55625   -843.04003    90141.752   -21823.753    1609.4359   -23433.189    287.28639    238.90814 
   97300    108.91891   -844.38976    90132.022   -21835.214    1629.8262    -23465.04    287.26712    241.93492 
   97350    108.20585   -951.51724    90126.673   -21858.007    1619.1563   -23477.163    287.65764    240.35105 
   97400    111.05909   -951.62479    90157.064   -21825.976    1661.8512   -23487.827    287.72182    246.68878 
   97450    110.12658   -780.27037     90167.22   -21791.193    1647.8975   -23439.091    287.82816    244.61746 
   97500    111.27594   -863.46323    90133.095    -21788.21     1665.096   -23453.306     287.6788    247.17044 
   97550    111.65406   -999.41427    90162.612   -21805.682    1670.7541   -23476.436    287.62169    248.01035 
   97600    108.56955    -667.7115    90158.158   -21798.354    1624.5985   -23422.953    288.04098     241.1589 
   97650    112.75927   -934.80074    90100.076   -21801.266    1687.2921   -23488.558    288.16132    250.46527 
   97700    109.76926    -882.0624     90110.68   -21767.239    1642.5506    -23409.79    288.46036    243.82375 
   97750    110.40572   -773.79973    90122.663   -21781.062    1652.0743   -23433.136    288.25754    245.23748 
   97800    108.96381   -939.95336    90133.651   -21777.672    1630.4981    -23408.17    288.41197    242.03466 
   97850    111.64721   -894.85037    90098.149   -21767.065    1670.6517   -23437.717    288.46504    247.99514 
   97900    108.73097   -1031.7154    90058.774   -21781.195    1627.0139   -23408.209    288.57983    241.51746 
   97950    108.91675   -1330.0491    90055.426   -21776.214    1629.7939   -23406.008    288.76337    241.93012 
   98000    107.96063   -837.38867     89998.03   -21785.455    1615.4868   -23400.942    289.04415    239.80635 
   98050    109.95504   -1068.0107    89997.223   -21782.399    1645.3305    -23427.73    289.47562    244.23641 
   98100    108.81792   -754.39047    89980.547   -21834.347     1628.315   -23462.662     289.8203    241.71059 
   98150    106.03753   -874.29802    90000.528   -21829.388    1586.7102   -23416.098    290.23062    235.53468 
   98200    107.08701   -1074.6118    90038.021   -21818.448    1602.4143   -23420.862    290.28492    237.86584 
   98250    108.39011   -749.45997    89957.971   -21721.638    1621.9134   -23343.552    290.51788    240.76033 
   98300    109.78967   -869.71809    89948.015   -21720.041    1642.8559   -23362.897    290.85675    243.86908 
   98350    109.00847   -1034.1382    89931.484   -21751.851    1631.1663   -23383.018     291.0009    242.13385 
   98400    108.00679   -1170.2614    89854.431   -21814.043    1616.1776   -23430.221    290.83158    239.90889 
   98450    108.07057   -1113.6464    89840.331   -21805.395     1617.132   -23422.527    291.44365    240.05056 
   98500     109.3104   -1117.7581    89748.732   -21812.099    1635.6844   -23447.783     291.3979    242.80452 
   98550    107.62535   -898.66954    89741.458   -21838.827    1610.4698   -23449.297    291.48589    239.06161 
   98600    107.67076   -1122.3592    89764.768   -21852.141    1611.1494   -23463.291     291.7536    239.16249 
   98650     108.1979   -1002.6361    89693.817   -21875.284    1619.0373   -23494.321    291.78363    240.33339 
   98700    108.73997   -1004.9747    89690.324   -21861.228    1627.1486   -23488.377    291.72141    241.53745 
   98750    109.51959   -724.62412    89686.156   -21816.175    1638.8146    -23454.99    291.63657    243.26918 
   98800    108.34964   -824.87269    89641.272   -21821.124    1621.3079   -23442.432    291.78366    240.67044 
   98850    110.35582   -1009.3623    89640.005   -21806.413    1651.3277    -23457.74    292.50597    245.12665 
   98900    110.95162   -909.12916    89630.136   -21803.771    1660.2431   -23464.014    292.63376    246.45007 
   98950    110.08531   -682.71778    89636.899   -21842.216    1647.2798   -23489.496    292.42067    244.52577 
   99000    106.61316   -942.34253    89696.632   -21877.576    1595.3237     -23472.9    292.76271     236.8133 
   99050    110.18189   -1016.9713    89686.603   -21847.006    1648.7251   -23495.731    292.78877    244.74031 
   99100    107.64011   -1030.6481    89603.858   -21854.704    1610.6907   -23465.395    292.91187    239.09441 
   99150    109.33721   -982.90638    89569.946   -21856.313    1636.0856   -23492.399    293.18684    242.86408 
   99200    105.15876   -1259.3469     89590.09   -21867.625    1573.5606   -23441.186    294.04908    233.58273 
   99250     105.7891   -950.08493    89613.771   -21843.232    1582.9928   -23426.225    293.78618    234.98286 
   99300    110.28648   -1102.3584    89649.689   -21851.481      1650.29   -23501.771    293.94563    244.97261 
   99350    106.01306   -985.70114    89642.204   -21831.195     1586.344   -23417.539    294.44857    235.48033 
   99400    109.06875   -913.28059    89592.975   -21806.361    1632.0684   -23438.429    293.99179    242.26776 
   99450    110.21282   -811.67942    89586.819   -21829.791    1649.1879   -23478.979    294.22673    244.80901 
   99500    107.24302   -898.42312    89582.848   -21826.919    1604.7487   -23431.668    294.40727    238.21236 
   99550    106.38026   -1166.7797     89583.91   -21873.278    1591.8388   -23465.116       294.69    236.29598 
   99600     103.2913   -1182.9025    89511.585   -21865.086    1545.6165   -23410.702    294.80661    229.43465 
   99650    106.78161   -650.99835    89472.501   -21880.258    1597.8444   -23478.102     294.3141    237.18747 
   99700    106.01458   -964.57978    89504.947   -21901.002    1586.3668   -23487.369    294.03157    235.48371 
   99750    106.13151   -838.89124     89480.04   -21867.044    1588.1165    -23455.16    294.40516    235.74345 
   99800    105.54508   -1067.4782    89399.016   -21890.765    1579.3413   -23470.106    294.12767    234.44083 
   99850    106.20649   -1236.2262    89335.888   -21877.972    1589.2384   -23467.211    293.83326    235.90998 
   99900    108.32656   -1052.0629    89280.328   -21831.934    1620.9625   -23452.897    294.42674    240.61917 
   99950    108.84375   -894.90958    89273.589   -21784.755    1628.7016   -23413.457    294.66797    241.76798 
  100000    110.71357   -1214.2956    89195.589   -21791.833    1656.6809   -23448.514    294.66082    245.92128 
Loop time of 43.4098 on 80 procs for 100000 steps with 5021 atoms

Performance: 995.166 ns/day, 0.024 hours/ns, 2303.625 timesteps/s
100.0% CPU use with 80 MPI tasks x no OpenMP threads

MPI task timing breakdown:
Section |  min time  |  avg time  |  max time  |%varavg| %total
---------------------------------------------------------------
Pair    | 5.8956     | 18.095     | 25.861     | 174.2 | 41.68
Neigh   | 0.4616     | 1.2145     | 3.2461     |  93.9 |  2.80
Comm    | 9.7895     | 17.258     | 28.871     | 168.8 | 39.76
Output  | 0.12492    | 0.1279     | 0.22469    |   3.1 |  0.29
Modify  | 3.9808     | 5.8787     | 7.3809     |  40.2 | 13.54
Other   |            | 0.8354     |            |       |  1.92

Nlocal:    62.7625 ave 144 max 30 min
Histogram: 55 5 0 0 0 0 0 0 5 15
Nghost:    673.975 ave 835 max 391 min
Histogram: 20 0 0 0 0 0 0 40 0 20
Neighs:    0 ave 0 max 0 min
Histogram: 80 0 0 0 0 0 0 0 0 0
FullNghs:  5958.65 ave 18805 max 1136 min
Histogram: 60 0 0 0 0 0 0 0 0 20

Total # of neighbors = 476692
Ave neighs/atom = 94.9397
Neighbor list builds = 5757
Dangerous builds = 0

write_data		${DIR}/data.eq-${NAME}-${TEMP}
write_data		run_16/data.eq-${NAME}-${TEMP}
write_data		run_16/data.eq-het_freeze_16-${TEMP}
write_data		run_16/data.eq-het_freeze_16-240
undump          1

reset_timestep  0

unfix           2
unfix           3
unfix           4


################################################
#######         Run Simulation         #########
################################################

log				${DIR}/log.run_${NAME}
log				run_16/log.run_${NAME}
log				run_16/log.run_het_freeze_16
