LAMMPS data file via write_data, version 29 Oct 2020, timestep = 200625

2677 atoms
1 atom types

0.0 49.22 xlo xhi
0.0 49.019635930410494 ylo yhi
-0.16781749220865194 34.10781749221001 zlo zhi

Masses

1 18.015

Atoms # atomic

1708 1 1.597559718518297 4.331016418596699 1.8910697770580673 0 1 1
118 1 3.816966074270367 3.6431941707028432 2.963092448788273 0 0 0
1153 1 12.704179941676948 7.482869309322231 14.789846264858483 0 0 0
1298 1 10.09740611967455 1.2237482838182996 0.5098883588011393 0 0 1
1299 1 10.217249091004767 0.29770697243040817 3.1282752455909555 0 0 1
1493 1 12.844640349640203 20.274968805945463 1.9571024596387403 0 0 0
342 1 13.808971236371283 23.521545428527453 13.90760246934435 0 0 0
2005 1 6.617298072424908 3.5596006478759787 5.248363985545944 1 0 0
424 1 5.493018460681218 4.576185193643186 0.8605131593467967 0 0 0
1796 1 0.7518717592542133 18.79195661419161 0.9540267696593453 1 0 0
968 1 13.022134824364613 4.886225027239676 1.8594157880655409 0 0 1
295 1 12.148859948843901 24.060160795780515 16.160576370663367 0 0 0
1307 1 4.6174153953087185 7.67134307989742 0.26170180871630505 0 0 1
1720 1 6.850432900931905 5.870526133574706 3.7827487681965164 0 1 1
406 1 11.044385283419885 6.720916579477424 1.1611622319678694 0 0 1
1431 1 10.87927224240726 18.105499280340304 1.636369698383401 0 0 0
2277 1 0.5385974462512225 6.207650332311594 3.8479103007217335 1 1 0
481 1 3.3198027705845794 13.80424111389056 1.3737264733883738 0 0 1
2469 1 8.29328973831161 6.0886491136081435 1.1646589025277552 1 0 1
1609 1 11.020880341127716 9.556865411273455 2.2768992682345184 0 1 1
1839 1 12.69445547646917 11.151955122188928 0.275821495957996 0 0 0
1496 1 9.131107295813505 1.0977167000517916 6.267819645707826 1 1 0
231 1 8.116097456559366 10.852711484887335 1.788058506182126 0 0 1
1887 1 7.827035471142717 13.552152155776687 1.7876068599503965 0 0 0
467 1 14.448364859183163 13.738470016029542 0.26029234957694636 0 0 0
334 1 10.460372716618073 13.642734828068996 2.527224966840627 0 0 0
1510 1 4.8351410863109106 16.953293817933755 2.5200833304181294 1 0 0
150 1 2.0019903013013924 16.46725362816245 2.4103184018458053 0 0 0
2485 1 5.889891698589053 19.43156327112414 1.1540947949630818 1 1 1
2443 1 11.033163558878542 16.06967896613969 3.779351245038474 1 0 0
2236 1 8.465343816186127 17.066495108638907 4.432652110331037 0 0 1
589 1 14.714976580697613 16.197052907590685 16.05105350002082 0 1 0
636 1 14.699697176577125 15.62581387833613 2.196304818571047 0 0 0
541 1 1.9418277607151162 21.469094284650666 1.3212650010361646 0 1 0
726 1 4.590960936092935 21.861310104255068 0.49998035993898937 0 0 1
136 1 8.897455695343364 20.05068168862114 1.719329641174407 0 0 1
780 1 13.416068543340698 21.094400929953956 4.6605038620848 0 0 0
18 1 0.1880391621001388 2.9529618357690093 16.36607357319272 0 0 0
1690 1 1.1334638345350898 7.259916176628721 15.403281592990085 1 0 0
2204 1 3.3475812542077894 12.359945955798237 16.448071036738302 1 0 -1
533 1 5.584961673703456 23.279859397551398 2.497425648657224 0 0 0
1182 1 14.675702194512144 19.98724824995983 16.869954378290544 0 0 0
1957 1 14.787914726232632 18.39232302144677 9.758520645474013 1 0 0
1873 1 5.256267439328906 1.5171487070281844 0.7394457858079188 1 1 0
2455 1 1.496681973506123 1.8511079327054936 4.420678176992048 1 1 0
224 1 6.524622543098083 0.33390001099228206 7.115381187049035 0 0 1
619 1 8.085345309262086 3.2443115252442003 1.422172728677432 0 1 0
1973 1 9.138844798681971 2.929492726971729 4.067015430812705 1 0 0
1139 1 6.4499573949401885 16.15865786351225 0.0022236258732696614 0 0 0
1130 1 12.923116245232523 0.7319764892386329 4.051086126282863 0 0 0
174 1 2.386560155894378 23.57730176361511 3.4948988473324896 0 0 0
1993 1 3.9490690433839575 6.454751273782238 3.9558652925766356 1 0 0
2112 1 8.696731099631801 7.44188893488938 5.431090675441245 0 0 1
166 1 13.425507224598087 3.4225140717014186 4.355461371216869 0 1 0
24 1 11.06098677711957 4.84476470202505 5.119911439084416 0 0 0
1469 1 14.863351456129262 0.4485025951153882 16.410263558019988 1 1 0
704 1 15.081925356993887 3.5594155354906927 6.399191630492831 0 1 1
954 1 0.5401328867990313 8.181917299484798 5.795164509678181 0 0 0
1208 1 3.824578307787778 8.969853239726664 2.7602536718687625 0 0 1
1311 1 5.923787941878383 8.565585784349844 5.888139825479065 0 0 1
91 1 10.556933355170365 9.777926547992958 6.71930342697916 0 0 0
1349 1 11.406836330742449 7.644866171544745 4.365780326858164 0 1 0
2123 1 15.451440307066928 6.076029417125649 3.0937712765843255 1 0 0
747 1 14.125584214384943 7.7418205261188815 5.107185679914781 0 1 0
377 1 1.7094647857394365 10.185575398618928 4.408636303911897 0 0 1
2339 1 5.952294667777323 10.601757849697858 3.7691454927423367 1 0 -1
1272 1 12.274910916577442 12.92563803660466 8.393330637881832 0 0 0
185 1 15.379676876671445 10.383965081827858 5.759859933975128 0 0 0
390 1 4.5543097885093715 13.04200749246826 3.87848572748724 0 0 1
2342 1 6.65158816540103 15.046410332136974 3.4725430544194222 1 0 0
863 1 8.300184467642007 11.564151858968522 5.4509849782192985 0 0 0
2554 1 6.16977362540936 15.682885170334004 6.755421296871627 1 0 0
1312 1 11.176882682154087 11.539995077272305 4.270488612634431 0 0 0
1946 1 13.245798412027131 12.290282673850006 5.737256076338423 1 0 1
1073 1 1.5140274243087155 15.607748330064902 7.285126940332613 1 0 -1
303 1 0.5518244468723217 16.538651981892937 4.832365557956524 0 0 1
140 1 5.346694790626482 18.296534905400232 5.1029244521024015 0 0 0
44 1 8.691319800562784 16.758263708799483 8.35614978868459 0 0 -1
360 1 10.181935905372194 18.347479161858125 6.517667538937871 0 0 0
743 1 13.590307325404282 14.764083031661377 4.494635943386778 0 0 0
473 1 14.070547477401977 16.493985906497684 6.631907778223126 0 0 0
308 1 1.0314427877109849 20.122257671131038 4.141401826516937 0 0 0
1791 1 3.432219229447111 20.22183144638697 5.683477095725401 1 0 0
774 1 4.0809465465567065 19.554205834677138 8.27923889171567 0 0 0
365 1 7.440269148899306 20.028836577563155 4.164218983157215 0 0 1
1888 1 8.828491067530363 20.962269554260708 6.0698694457482585 1 0 0
560 1 13.096268152427239 19.0957753106707 6.5687550661148775 0 0 0
488 1 14.541889934382283 22.726688724311654 8.80829394285635 0 1 0
967 1 4.4068822358516675 22.542579198231515 4.977519669272126 0 0 0
2345 1 11.195695270420519 22.564091787591458 5.333427707969912 1 0 0
956 1 15.859520723990537 15.20869090665553 9.725813544419424 0 0 0
640 1 4.450099895907786 1.4875205281526331 5.710487643051663 0 1 0
627 1 6.631413343297509 2.207638523211457 9.385857131387516 0 1 0
244 1 6.235548489731246 18.890783166066907 16.65352276069677 0 0 0
957 1 11.090865272042956 1.9330814183831229 9.390063812222955 0 0 1
1890 1 14.72999530851853 21.456380873259835 0.22837130939005726 0 0 0
1585 1 3.231784667676947 3.6403478417233632 7.594407242533647 1 0 0
2493 1 4.4911178824940885 6.161354658360305 6.776627985331753 1 1 1
2125 1 7.538321297196995 3.9257889504783328 7.794738200850083 1 0 0
2436 1 10.221884222035172 4.16720433569372 7.962015602405943 1 1 1
243 1 1.418868076697215 7.293326906932034 9.92016450037689 0 0 1
45 1 2.5754393923011425 8.032762161117876 7.5430976728808306 0 0 0
1779 1 6.517584608059292 6.296680880212095 8.919397833058134 0 0 1
1541 1 8.083461256013402 8.869215240636535 8.11196429678572 1 0 0
817 1 12.797798527866679 8.33082353420718 8.32335370422032 0 0 0
637 1 15.301908220077967 24.100689642985667 1.340956038092911 0 0 1
864 1 14.923086229711927 6.409493434456947 7.358668308041679 0 1 1
739 1 4.267782734844157 10.167371199528018 7.3010960308737 0 1 1
540 1 11.865636005791707 10.689950191931048 10.313547783536182 0 0 0
2127 1 7.35086783072219 13.025669215215101 7.646714506157083 1 0 0
1913 1 0.7986701477088773 13.273895755855 8.70201686155026 1 0 0
1111 1 3.017855197680209 12.524385008344801 6.321752668361339 0 0 0
2191 1 4.432624279698393 13.339870919476247 8.460553795891943 1 0 0
17 1 9.75724441129525 14.047458658943132 8.687535798540074 0 0 0
1814 1 9.587832928192066 14.928263242381187 11.207719306164826 1 0 0
309 1 13.212923875348144 15.3392308683559 8.92850634048754 0 0 1
192 1 10.19493037116811 5.691350720387174 16.605739475185803 0 0 -1
842 1 4.09969930628612 0.21893641380419482 3.182125075586088 0 1 0
315 1 4.911003436696963 15.95272358400117 10.862689725449204 0 0 0
1327 1 3.9053337297296675 16.699777758421284 8.34951548587812 1 0 0
902 1 11.684653763090664 16.851358294053156 10.820351057663006 0 0 0
2290 1 15.052477771507093 18.44779053931457 1.7230431339570216 1 0 0
2087 1 1.7591871998407673 20.598615214606934 9.131328249946884 1 0 -1
420 1 1.5252157014395171 18.68225197077034 10.955528919621285 0 0 0
2316 1 6.282567862207106 20.747592977900613 9.334281742686814 1 0 0
2621 1 8.500222562933793 19.2991834759082 10.16962525183293 1 0 0
2286 1 11.407727892699555 18.99659149546866 9.224291925982214 1 0 0
934 1 15.55412852052886 20.52825807717163 7.446710826345485 0 0 0
423 1 2.479119538039243 23.335477919772334 10.003471516928228 0 0 0
868 1 7.842773773716448 22.754058514171334 7.901709393573963 0 1 0
688 1 10.688028503912593 23.360061848071087 8.979134994404701 0 0 0
1819 1 7.19517438790676 12.28072217130412 16.932820099225598 1 0 0
57 1 1.5176563151281843 1.5154216508777645 11.744729681428039 0 0 0
81 1 15.556558335739503 16.65792197900924 12.210893278143027 0 0 0
1008 1 8.951840881063164 1.0099703051113953 10.652236635019104 0 0 0
1914 1 15.678116850760556 2.018625558173894 10.616860647785108 0 0 0
760 1 3.7577933416864258 2.462907022889684 9.805215157324598 1 1 0
2367 1 5.58950338461163 3.843107535943463 11.990421305416032 1 1 1
305 1 13.278891360796193 3.2454457426992933 10.921950032978875 0 0 1
2044 1 13.70521414754384 5.850356957265292 10.174603141877952 0 0 0
1401 1 3.2522295313633602 5.303645828209972 13.141901561724852 1 1 0
1342 1 6.3276592354286985 6.440444823193209 11.675463116988183 1 0 0
1840 1 3.7277813267158173 7.67893843024274 11.558100305112406 1 0 0
267 1 8.851018038778587 7.813688686755659 11.466563986263454 0 0 1
2639 1 10.209331157242364 6.9950093773609305 8.802812648459831 1 0 1
2566 1 11.449566562439507 6.795675994408712 11.663181520261167 1 1 0
206 1 16.303622243960604 6.26997459815911 11.076869164062916 0 0 0
964 1 0.616828822984629 12.01901786601983 16.125046389514072 0 0 -1
82 1 1.088536185253518 10.855573669297264 12.311449561225752 0 0 -1
2397 1 4.582791333403622 10.43393245269764 10.258406776710437 1 0 0
2330 1 5.7208314316854505 11.645700407604453 12.768746599959224 1 0 0
1259 1 7.317696673174941 11.204922301393031 9.845871912258051 0 0 0
225 1 9.312298748711848 10.528147995157873 11.462481611576575 0 0 0
183 1 11.79223685589684 13.292779502145892 12.062501233953046 0 0 0
2197 1 16.025316910575555 10.234506151711045 10.1520790546794 1 0 0
1006 1 2.5530970313399006 12.24499922210143 10.553083050172999 1 0 -1
844 1 4.015533510421041 13.81286666970026 12.396335798795326 0 0 0
1951 1 15.697274390255458 5.117873370658235 15.928433929556528 0 0 0
552 1 1.9571812084537261 16.525310623514972 14.486850162083792 0 0 0
2533 1 7.642807852574927 16.771524214217443 11.250357918482804 1 0 0
1398 1 8.027841296987667 15.803312453852634 14.143597377019733 0 0 0
1409 1 13.194227871033238 15.515041571032196 13.299700029750287 0 1 0
108 1 3.4060760874260336 21.013859452516495 15.307077701546067 0 0 -1
1965 1 3.8850958616922124 17.795043268963113 12.684637990668616 1 0 0
803 1 6.171308992343011 17.799485861204488 14.222741024364922 0 0 0
542 1 7.776084246934804 19.64266366483028 12.96536892973703 0 0 1
761 1 11.363049609791153 17.933295228702647 13.637894834699285 0 0 0
1105 1 7.099032404408315 23.10174804964251 15.092022322637096 0 0 0
971 1 14.881808332184985 19.5505651131351 12.546730627709518 0 0 0
2142 1 1.2827507808878826 23.533671394601164 12.390170763662985 1 0 0
605 1 5.726598046209037 21.330968067706532 13.575898746907203 0 0 0
90 1 5.03930013072049 22.338529645453875 11.17635119367907 0 0 0
2522 1 10.281310409339387 20.47543925144862 13.99050197816415 1 0 0
1598 1 12.346121680143076 21.284227961729883 9.906562788283598 0 0 1
666 1 12.718228895423469 21.405162803781483 12.548655439831164 0 0 0
1270 1 0.9376124932465586 10.031659564380835 1.6749462592180073 0 0 1
2357 1 6.751793856611984 0.3073596288437608 14.82920615805811 1 1 0
31 1 8.835119267098642 1.875870936017147 13.35906200737127 0 0 0
819 1 11.402633909153987 0.6219024119855965 13.366621365447621 0 1 0
759 1 12.973869227765228 3.079092755631259 13.535307076518247 0 1 1
2181 1 0.3081396923660282 3.7466797279734836 7.894385382763089 1 0 0
1725 1 3.0552499096261276 2.6106625710898435 15.457604721263072 0 1 1
2648 1 0.9717186960210722 3.748767996378546 13.060753283740004 1 1 0
2119 1 5.621540611575514 2.8311120138451136 14.684276461479639 1 0 0
1092 1 8.589135685818562 4.65927390977366 13.207067185630843 0 0 0
1026 1 11.174749615276221 5.150013145852599 14.113184596578195 0 0 0
853 1 16.26971596547021 22.098828555983488 15.311336275113655 0 0 0
2451 1 13.49020535104281 2.833457315658173 16.313020779495417 0 1 -1
1685 1 2.564211134741356 8.934911962592283 13.540854688948404 1 0 0
2360 1 3.7190189290266518 6.0888821179570325 15.698451224236523 1 1 0
616 1 0.05304784954099517 21.447891078781268 7.195190314449245 0 0 0
779 1 15.487944049466469 7.180523895083299 13.60661993554988 0 1 1
2070 1 4.461587958943685 10.162181545079013 14.947234948080023 1 0 -1
1088 1 12.235849537859185 10.489312849713507 13.84231125447036 0 0 0
2409 1 13.42287897414677 8.993429812758894 11.777987494858213 1 1 0
2478 1 12.003306494714714 9.738638343161012 16.625610995624243 1 1 0
418 1 3.1908857600103486 11.153517914494953 0.21130497267458348 0 0 0
576 1 10.925711411329843 21.917457533921475 1.0685210482246024 0 0 0
268 1 4.485135062648044 14.870920933357567 15.225115744843826 0 0 0
392 1 6.884456466703247 13.505803885754332 14.69107720752949 0 0 1
854 1 9.829904906632967 12.360238020849916 13.864682297600952 0 0 0
1799 1 11.023596636633226 14.37450501052417 16.571572576443835 1 0 0
1319 1 13.20413910133283 13.359035017501757 15.094869289573017 1 0 0
1611 1 15.584675480367988 12.192972903483007 13.595254146959013 0 1 0
516 1 15.89221895945399 24.165550156284816 10.622951740864565 -1 0 0
1774 1 9.95013367917558 16.761858563854023 15.864183636939064 0 1 0
2437 1 16.39740994378665 21.954106879821836 12.30087888458959 0 0 0
1628 1 0.9143062461537517 18.909569004088755 14.986115705739927 0 1 0
207 1 0.09355277230639639 12.132876776703062 6.032534553444242 0 0 0
731 1 16.20455236451316 11.275631014643437 0.810724974325815 0 1 1
165 1 10.841304984228048 23.769226959558104 3.096170883493952 0 0 -1
662 1 11.866262248690854 19.391410933248597 16.594327335437974 0 0 0
2222 1 16.23219895720867 18.342839921983828 15.13524743520524 1 0 1
1704 1 2.149542690834378 23.47913942232054 15.265234708449292 1 0 0
554 1 7.629153501000008 4.639893336844933 15.936431873420815 0 0 0
1709 1 16.195802552587097 21.58354719018863 4.437438226410657 0 0 1
2486 1 9.836799378318245 22.619992561422016 15.793138785749717 1 0 0
1441 1 15.820526339876384 12.927174686322715 3.8373151948302158 0 0 1
1974 1 6.084057880719432 6.646610497503662 16.739330143586717 1 0 0
1150 1 14.848309880256432 0.2176538773576075 2.2701809779009317 0 0 1
280 1 6.055061433013325 9.44292365835262 16.955654932774006 0 0 0
88 1 0.37951098278609496 9.380868508073526 16.883636728685136 0 0 0
2653 1 11.674669435113762 14.185120963853164 -0.040210858713081166 0 0 1
1174 1 9.946358236874657 11.90694911176732 16.947460477018424 0 0 0
1003 1 0.02242958979687019 11.92668958389689 28.24168489579292 1 0 0
2178 1 5.452788714427854 1.3475270736648115 21.33770562372643 1 0 0
2195 1 0.27300273437873884 11.04026687318561 22.269151972150162 1 0 0
2488 1 3.376456709221034 24.173813520235324 30.19890780176812 1 0 0
2297 1 3.115708586833484 4.162373134825049 17.694402820793673 1 1 -1
816 1 6.678126773011055 3.329978355487732 19.895660849908285 0 1 0
1021 1 4.993414578404512 5.635512963823328 19.024891704794154 1 0 0
2600 1 8.313052908603947 2.6071505779260713 17.870597813725706 0 1 1
777 1 0.1381564312353234 22.88650074633089 24.326460211151986 0 0 0
750 1 10.821912676907063 3.3831693897661883 17.963027733262184 0 1 0
1162 1 13.806782181300049 4.063503602534366 19.080924891496405 0 0 1
1854 1 0.8216174801360722 5.848937963761123 18.064986111434752 1 0 -1
2100 1 1.2918290627379114 12.90533114819621 33.020022949244286 1 0 -1
2383 1 9.905374263881765 8.131724495028516 17.98595451320005 1 0 -1
479 1 13.701010924276833 6.856983368682987 19.843252740446733 0 1 0
850 1 14.39997854998745 3.884614826881694 33.97122192148666 0 1 0
512 1 5.264566815580899 9.902814134268302 19.757127578304214 0 0 0
37 1 4.908421053788546 0.12995355493350275 30.57411095949228 0 0 0
2633 1 0.5035224140523963 4.567271603807347 21.415531850852688 1 1 1
2531 1 14.219910739355917 10.860743371832191 18.20629228050658 1 0 0
1867 1 0.16605964227449954 11.387717093212105 30.94139195099519 1 0 -1
195 1 14.712117542296244 7.594824955175248 17.254902323696907 0 0 -1
2138 1 0.42708661795458414 15.286776859308118 20.23537103380428 1 0 0
433 1 3.7644682737281405 12.51735267866381 19.172105754089134 0 0 0
1166 1 6.224953783971173 13.832705026055516 19.301639025027384 0 0 0
918 1 9.24539992640517 14.29204693956752 19.422720170299865 0 0 0
5 1 0.3059994442449104 6.182924581994157 30.090815558031693 0 0 -1
85 1 14.810008431997995 13.583021914330718 17.68965757475424 0 0 0
1126 1 12.025730876242532 0.6705333068352993 24.476655022004785 0 0 0
2325 1 5.885965555248615 16.574428383604292 19.567794705890897 1 0 -1
855 1 0.6032039825014215 15.304140284633716 23.86219492662123 0 0 0
1583 1 8.410838020045965 17.207013078513114 20.45398194137196 1 0 0
993 1 11.181881690774636 17.25185560840458 21.223412592323683 0 0 0
139 1 14.889030266658128 18.0397381881185 18.605693065834288 0 0 -1
2305 1 16.114128115843066 0.7978785550117119 28.834897150075484 0 1 -1
1992 1 1.4949844332307036 17.307647582589595 18.6608067023577 1 0 0
1861 1 1.8490299099485927 20.074245513970933 19.532215392643348 1 0 0
1380 1 0.8146161864530969 22.896261017987733 33.509493790751236 0 0 -1
223 1 14.70363406433185 21.654754394041255 19.05808131991243 0 0 0
2228 1 0.6906217511921875 22.598794593216997 19.332638386794574 1 0 0
653 1 2.130370207511833 0.9183798523592815 24.267492984443297 0 0 -1
2030 1 5.661541519654047 21.192413648928063 20.42284154984427 1 0 0
1759 1 7.833626429376988 22.73959189328944 19.5085169940736 0 0 0
257 1 0.4506617884872121 15.89431785361092 32.28720028008174 0 0 -1
860 1 11.820745773382319 22.049519296292022 20.10639111421802 0 0 0
2166 1 13.255958369416396 18.936989555557656 20.562371027919774 1 0 0
376 1 12.487243478140885 17.138580134656767 34.006158165361924 0 0 0
2363 1 2.692727864266647 0.9044041785809959 21.581682683067203 1 1 -1
1815 1 10.05270558668747 1.0884332998837518 22.2251130767318 1 0 0
938 1 12.056802451302065 1.005578812170176 19.939465312540175 0 0 0
2261 1 14.570756159094753 1.503140114237773 21.43547460647638 1 1 -1
152 1 2.752469347212565 19.91173975180349 30.774407895554496 0 0 -1
1460 1 1.6537290988734084 2.9049886316743114 19.87418989329774 0 1 0
171 1 8.126360755911762 3.6699815043513584 22.171852328773575 0 0 0
597 1 10.859569769633788 3.9833894140821395 20.69083957904298 0 1 0
1253 1 12.415507912550112 4.667891691527496 23.370227022660238 1 0 -1
2045 1 0.9655484845718675 7.4564334465707 20.83801366132096 1 0 0
389 1 3.5895816117529025 7.621446368130804 19.816591846706697 0 0 -1
2458 1 3.9164764883367957 7.841436953106722 22.697518836869786 1 1 0
1186 1 9.824958607830135 8.132550187574335 22.26322291954377 0 0 0
1683 1 11.007102861594461 6.9711192170329825 20.093719856713246 0 0 0
2619 1 14.325667653924503 6.586990680803803 22.57274561175192 1 0 0
2505 1 1.2755959173651956 8.845218243278627 23.449489168466442 1 1 0
1217 1 6.855512397473242 9.602528402734851 23.070197147000513 0 -1 0
372 1 4.698406991095407 11.271239116643972 22.499028142302596 0 0 0
2188 1 8.290600907280748 9.695074752926953 20.4943549490436 1 0 0
720 1 9.357803721206519 11.940309407475722 21.103058197654704 0 0 0
742 1 12.6996853187444 11.805814741609186 20.607809684971937 0 1 0
71 1 14.465194082685551 11.044391393558627 22.676956774938287 0 0 0
509 1 10.012433084382613 20.93411861913093 18.206572335117954 0 0 0
328 1 2.1667540169340964 12.813979389998268 21.350256466328663 0 0 0
1155 1 3.2127670861742716 14.343774018541323 23.623248826996978 1 0 -1
214 1 6.737595501234224 13.236169718558102 21.99066734052066 0 0 0
2629 1 12.270202693033458 14.649217776772472 19.228977292627402 1 1 0
2192 1 11.309509258515526 14.564270423581185 22.264649448063203 1 0 0
1464 1 12.26903437072731 13.437305593446347 25.98058371073465 0 0 0
1154 1 15.680688237252054 13.841645852791766 23.33784563336272 0 0 0
2212 1 0.02289364961154386 18.29308389739881 23.2267901001517 1 0 0
894 1 4.931343415861972 17.65182274734303 21.922901224948454 0 0 -1
454 1 5.339914490997469 15.877089219036717 23.860490291771548 0 0 0
155 1 10.99284696600448 18.793632428095922 23.550519394431284 0 0 0
1751 1 2.3669943669591356 19.438008833592804 22.171204552922376 0 0 0
1229 1 7.481459710138578 19.33176765009079 21.709268853461197 0 0 0
807 1 9.958729930995538 21.242685500172584 22.625267098584242 0 0 0
551 1 13.857567485653112 18.059516959453635 24.7951070144896 0 1 0
501 1 14.1674217191838 19.980354800726758 22.818538817576048 0 0 0
2410 1 2.496377967942399 22.032476486706773 23.561758017822353 1 0 -1
2224 1 10.263331633596021 4.007172404766131 33.39346261815942 0 1 -1
296 1 4.416980959361306 23.10032086405708 21.962406992223514 0 0 0
301 1 6.709626574045584 23.929418278697607 23.699867395363018 0 0 0
2213 1 8.062028271996857 22.038869335109972 24.60490277177989 1 0 0
373 1 12.501763540385332 22.313484654096783 24.093064471980075 0 0 0
36 1 16.246655594172125 10.860215031417459 28.666454611305316 0 0 0
497 1 6.284163290978952 1.973425562841153 23.759340264253133 0 0 -1
1142 1 8.878991141216035 1.2786670116637162 24.89889854830469 0 1 0
1367 1 9.599498133302655 2.906239614047762 26.955462751295233 1 0 -1
297 1 0.608572393636407 5.568692963999477 24.590862259901254 0 0 0
493 1 2.5113085775921613 3.2219157512973156 25.60716192704512 0 1 0
1194 1 5.136614721346714 4.0439898480786844 25.447823832469975 0 0 0
1870 1 8.525888695744442 6.125527881652379 23.73228041340682 0 0 0
92 1 10.394464562810683 5.054144458419929 25.683642653110645 0 0 -1
1364 1 16.088774935153634 3.687070782869906 20.45329513120864 0 1 -1
1701 1 14.14474718128665 2.6892633592077764 24.092571421328604 0 1 0
125 1 1.586657524146028 9.843989647610236 27.327957855055278 0 0 -1
1726 1 5.998521959061046 6.588796095796618 24.442274478103915 0 0 0
184 1 14.618507493234677 8.445251764120918 24.442212086938394 0 0 -1
2132 1 14.343097478046758 8.885233129372414 27.848732502663132 0 0 0
2069 1 3.537200250474807 9.974123955833715 25.183944572251338 1 0 0
2095 1 5.82271276661238 12.264424263402205 27.427145554312336 1 0 -1
766 1 8.21641676267189 11.896438952842816 24.3725049289206 0 1 1
438 1 11.886617487515336 9.338879960587375 23.64122140175482 0 1 0
357 1 11.712588609156684 9.351823429954143 26.608671229022494 0 0 0
2611 1 4.638182573379443 14.336559099140015 33.10366150134993 1 1 -1
2037 1 3.6185336979192493 12.550020692208694 25.91785880620605 1 0 0
133 1 8.65044319947303 15.370174126480741 22.832638129616157 0 0 -1
236 1 7.561423553814176 14.452120038128824 25.895589291149367 0 0 0
179 1 9.879130237394468 14.22119244755173 27.420689598528792 0 0 0
2225 1 10.935022629355243 11.96274289030303 23.56298721110455 1 0 0
709 1 14.830376747080024 12.978964988948162 27.390123273180183 0 0 -1
1056 1 7.633991882868891 0.2393772844034073 33.915520145904644 0 0 -1
724 1 1.5694254010219624 16.171715825559925 26.411742504778264 0 1 1
2221 1 4.213336813279982 17.121875954200924 26.1782936421601 1 0 1
1979 1 6.000628253085252 15.599244593255754 28.223306893187033 1 0 -1
2205 1 8.889093363167275 17.434108977531753 24.645059831301264 1 0 0
1734 1 9.929079172790495 17.204982534182733 27.49562168895701 1 0 0
1999 1 13.465337667050582 15.493154056257234 24.08018844400098 0 0 0
397 1 5.714482248393781 23.06816365340671 17.490809619653234 0 0 0
1617 1 10.273164445517347 20.633487827138794 31.159215222084786 0 0 -1
273 1 4.18955126970985 19.313473191480323 24.730270621937866 0 0 0
2555 1 6.889738843300154 19.257273711556415 24.454799038813665 0 0 1
1862 1 8.055979975327645 19.963944588841294 27.05484832587674 0 0 0
1040 1 11.230006348324757 19.765389027240463 26.513415067531405 0 0 0
2153 1 8.832074980501732 18.346935857150537 17.687622211006225 1 0 0
111 1 2.7785584566925277 24.410739018325092 19.948260918915626 0 0 -1
1590 1 10.241421313546564 23.20855966954268 25.64011586221975 0 0 0
755 1 14.12399036920523 23.239812300128424 26.545270155028096 0 0 0
398 1 2.556718245229934 5.338737631001983 33.91246989837486 0 0 -1
2398 1 1.565105318017139 2.3868751205174354 28.261012983785196 1 1 0
1288 1 3.728402334421759 2.803430371132093 29.715252462557217 0 0 -1
809 1 16.35671212891231 5.8875010540158454 32.96162817982212 0 1 0
2512 1 6.740301992837458 22.428375890532575 33.06329109201315 1 0 0
935 1 13.858934504167914 2.065648161734119 26.966299734759307 0 0 0
2303 1 5.088565871892159 4.402982404796442 28.18554281269826 1 1 0
621 1 7.934463449636785 4.249909223761032 29.163993415739906 0 1 0
1457 1 8.824854510138652 8.096522344631905 28.68781623912203 1 1 0
1101 1 11.439035598667843 1.183045067593802 28.341526225271927 0 0 -1
2232 1 12.92763790221147 4.4291798044426605 28.310075809691583 1 0 0
2419 1 2.2162488671312595 8.216781138090008 29.237389129428525 1 1 0
1262 1 5.520732129962031 8.505041436325367 26.421346192534973 1 0 -1
658 1 4.975756084964316 7.400807054786437 28.923545219703755 0 1 0
718 1 11.2564752461649 6.775808832233646 27.786785028062017 0 1 0
1790 1 14.57519800671966 6.6725135510511535 29.277575016805674 0 0 0
1932 1 1.7007215678973877 8.05796272134861 33.87597094122186 1 0 -1
1396 1 12.393649393323118 22.01642784824965 32.526287266805 0 0 -1
2598 1 4.582070777602409 11.706249419126673 29.9514520042803 1 0 0
577 1 10.027752033729115 11.32140151933981 27.990347540218313 0 0 -1
2553 1 7.546401298982477 10.140272367005613 26.7760429855869 1 1 0
2241 1 11.963538069900286 10.754720004803692 30.039941771825664 0 0 0
996 1 14.426470625473073 11.797344554687264 30.74601362032394 0 0 -1
1597 1 15.488667109257523 14.917371258458877 32.16131591027721 0 1 0
987 1 2.1646340737201957 13.807140263778987 27.758641716430176 1 0 0
138 1 4.06346975976019 14.543458702954743 29.814599762893927 0 0 -1
1123 1 8.392953297549008 14.028434068039386 29.978710133932942 0 0 0
1968 1 13.097412722756163 14.490227580820537 30.09755136023973 0 0 0
1874 1 16.365387509213257 23.959365358934875 30.119990765104006 0 0 -1
522 1 4.859008298014067 18.189018251972993 30.73158188511846 0 1 0
160 1 7.809103078105804 17.42827855062762 29.259384720900204 0 0 -1
2059 1 8.868987392494486 16.391265404348026 31.75714670107441 0 0 -1
2096 1 12.23504992070643 17.171372070592508 29.422695741266484 1 0 0
775 1 4.291957146433435 16.862793339498843 17.356104292567174 0 0 0
1928 1 1.382057679418164 20.95961320590695 28.610793122858166 1 0 -1
2456 1 3.721759817564255 20.952200480890067 27.01762062226596 1 0 0
1686 1 5.943383333428963 20.225111447409372 28.821375394140524 0 1 0
1120 1 13.718725233843786 18.973526901289542 27.884468303525352 0 0 0
730 1 16.006103063370706 19.551148168684126 31.238348913424794 0 0 0
2528 1 0.8398455599139216 23.41281324849936 29.666308421743608 1 0 0
665 1 5.9437642510727215 22.34221787043356 30.423484389485328 0 1 -1
2175 1 8.365477879590847 23.835042358531396 29.408624751785926 1 0 0
2613 1 9.968275765561236 21.877499297103178 28.40888633135429 0 0 0
148 1 13.116913024225797 21.8173688677339 28.506550021069955 0 0 0
2049 1 14.69081093939726 21.997641567917515 30.94573082168081 0 0 0
2122 1 8.490765866305036 2.4532924230483406 31.394200146502282 1 0 -1
2157 1 11.045960582192336 1.6972346769443574 31.19988891640547 1 0 -1
1581 1 16.39075948201219 11.401027043288094 20.629833853430245 0 1 0
122 1 11.154327118673544 18.12194479726616 31.78112031539517 0 0 -1
103 1 1.794175023832284 4.107775499452711 31.21981459640874 0 1 -1
909 1 7.123457242124902 4.6947178489007015 32.7536691667282 0 0 -1
168 1 9.024800205162748 6.772426207437083 31.007743269180672 0 0 -1
216 1 12.770938326568315 3.8844140441803225 31.362043798341517 0 0 -1
2235 1 11.455251507746555 6.708376162180516 32.53699316135749 0 0 -1
353 1 15.216083690133374 17.546972076998422 32.975932291172555 0 0 0
513 1 2.388910522204176 9.673271213009864 31.725670494925026 0 1 -1
722 1 5.669167199578253 9.152276771896794 31.134915851578533 0 0 0
1179 1 7.343134894693935 7.847978294909682 33.09246749936086 0 0 0
132 1 11.419153936685927 9.687446166892746 32.69207743954733 0 0 -1
1087 1 14.100650770558737 7.1347298573067395 31.81472381233136 0 1 -1
2556 1 3.2429287464801804 22.04330603536146 32.21623030503793 1 0 -1
712 1 9.055401633431764 11.174062991162726 33.29096574062599 0 0 0
1983 1 8.282069823858338 20.253754194281953 33.160954581500974 1 0 -2
2199 1 4.308745149321127 20.73278273250264 17.89970478732959 1 0 0
1328 1 6.410852951205969 12.706276175974331 31.795485400166406 0 0 -1
2255 1 8.643516114391254 14.19046872667427 33.705482372356855 1 0 0
1807 1 10.77372830238591 13.01163267734922 31.32043327215487 1 0 0
1041 1 15.720307202511703 11.156850502500124 25.495401669797854 0 -1 0
1030 1 3.3030134423974005 16.219522181598375 31.59379985655023 0 0 -1
979 1 0.6574688709435902 18.64627991542104 32.17528192724428 0 0 0
2422 1 6.6720292526485006 18.041721068618013 32.60508624869357 0 0 -1
2016 1 0.015628632586772228 1.1447620632425153 18.282258917084587 1 0 0
337 1 3.7124513937837373 23.826853520900322 27.365886391052214 0 0 0
10 1 14.862439608902665 9.316972902634523 33.93277484674675 0 0 -1
1455 1 5.803119802908648 0.07604451112827447 18.70894144346024 0 1 0
740 1 6.014980381263528 10.6627608788532 33.694876797396155 0 1 0