
# read in water data
read_data data.ML_m500atm_240K group water extra/atom/types 1
Reading data file ...
  orthogonal box = (0.0000000 0.0000000 -0.16781749) to (49.220000 49.019636 34.107817)
  3 by 2 by 2 MPI processor grid
  reading atoms ...
  2677 atoms
  reading velocities ...
  2677 velocities
  read_data CPU = 0.006 seconds

# remove area for graphite
region substrate block 0 ${XDIM} 0 ${YDIM} 0 ${Z_G}
region substrate block 0 49.22 0 ${YDIM} 0 ${Z_G}
region substrate block 0 49.22 0 49.019635930410494 0 ${Z_G}
region substrate block 0 49.22 0 49.019635930410494 0 10.062
delete_atoms region substrate
Deleted 781 atoms, new total = 1896

# Insert substrate
read_data data.graphite add append shift 0.0 0.0 0.0 group graphite offset 1 0 0 0 0
Reading data file ...
  orthogonal box = (0.0000000 0.0000000 -0.16781749) to (49.220000 49.019636 34.107817)
  3 by 2 by 2 MPI processor grid
  reading atoms ...
  2760 atoms
  reading velocities ...
  2760 velocities
  read_data CPU = 0.005 seconds


# Define potential
# CHECK ON THIS %%%%%%%%%%%%
#
pair_style sw
pair_coeff * * MLC_e.sw mW C


# Delete water and ice atoms that are overlapping
#
delete_atoms overlap 2.5 water graphite
System init for delete_atoms ...
Neighbor list info ...
  update every 1 steps, delay 10 steps, check yes
  max neighbors/atom: 2000, page size: 100000
  master list distance cutoff = 6.6747184
  ghost atom cutoff = 6.6747184
  binsize = 3.3373592, bins = 15 15 11
  2 neighbor lists, perpetual/occasional/extra = 1 1 0
  (1) command delete_atoms, occasional, copy from (2)
      attributes: full, newton on
      pair build: copy
      stencil: none
      bin: none
  (2) pair sw, perpetual
      attributes: full, newton on
      pair build: full/bin/atomonly
      stencil: full/bin/3d
      bin: standard
Deleted 119 atoms, new total = 4537

# set timestep
#
timestep 10.0

# Define output
#

compute 1 all msd
compute 2 water temp
compute        peratom water stress/atom NULL
compute        p water reduce sum c_peratom[1] c_peratom[2] c_peratom[3]
variable       water_press equal -(c_p[1]+c_p[2]+c_p[3])/(3*(vol-24277.055086535))

thermo 50
thermo_style custom step c_2 v_water_press vol etotal ke pe c_1[4]

# Neighbor lists
#
neigh_modify delay 0 every 1 check yes


# Fix graphite atoms in place
#
fix 1 graphite setforce 0.0 0.0 0.0
velocity graphite set 0.0 0.0 0.0


### Set fixes ###
#

# Run 0.25 ns equilibration of water in NPH ensemble
#
fix 2 water momentum 10 linear 1 1 1 rescale
fix 3 water nph z ${PRES} ${PRES} ${PCOUPL}
fix 3 water nph z -500 ${PRES} ${PCOUPL}
fix 3 water nph z -500 -500 ${PCOUPL}
fix 3 water nph z -500 -500 10000.0
fix 4 water temp/csvr ${TEMP} ${TEMP} ${TCOUPL} 837492
fix 4 water temp/csvr 240 ${TEMP} ${TCOUPL} 837492
fix 4 water temp/csvr 240 240 ${TCOUPL} 837492
fix 4 water temp/csvr 240 240 5000.0 837492

dump 	1 all atom 2000 nph.${NAME}.dump
dump 	1 all atom 2000 nph.ML_graphite_m500atm_240K.dump
run 	25000
Neighbor list info ...
  update every 1 steps, delay 0 steps, check yes
  max neighbors/atom: 2000, page size: 100000
  master list distance cutoff = 6.6747184
  ghost atom cutoff = 6.6747184
  binsize = 3.3373592, bins = 15 15 11
  1 neighbor lists, perpetual/occasional/extra = 1 0 0
  (1) pair sw, perpetual
      attributes: full, newton on
      pair build: full/bin/atomonly
      stencil: full/bin/3d
      bin: standard
Per MPI rank memory allocation (min/avg/max) = 5.324 | 5.327 | 5.332 Mbytes
Step c_2 v_water_press Volume TotEng KinEng PotEng c_1[4] 
       0    235.74937    -1877.872    82698.418   -16169.428     1248.038   -17417.466            0 
      50    269.09377   -3862.7926    82418.288   -16203.207    1424.5605   -17627.767    0.4684133 
     100    265.23164   -3282.0948    81513.782     -16242.7    1404.1147   -17646.815   0.77152672 
     150     272.3479   -2134.2735    80592.055   -16267.689    1441.7876   -17709.476     1.199262 
     200     273.7022   -2698.4051    79917.767   -16344.159    1448.9572   -17793.116     1.581508 
     250    272.13514   -2324.4187    79310.034   -16376.596    1440.6613   -17817.258    1.9607355 
     300    275.71029   -2135.1552    78739.247   -16376.724    1459.5878   -17836.311    2.3015245 
     350     281.2749   -1579.2748    78251.015   -16435.031    1489.0464   -17924.077    2.7110639 
     400    264.82332   -1523.6524    77859.067    -16465.11    1401.9531   -17867.063    3.1442973 
     450    272.66172   -1691.0645    77510.875   -16471.654     1443.449   -17915.103    3.5452237 
     500     268.0497   -2322.5816    77206.688   -16514.919    1419.0333   -17933.952    3.8498033 
     550    268.56966    -2252.422    76857.454    -16547.21    1421.7859   -17968.996     4.157858 
     600    265.99318   -1420.3078    76472.381   -16574.438    1408.1462   -17982.584    4.4862297 
     650    261.89649    -912.5459    76161.744   -16597.523    1386.4587   -17983.982    4.7612057 
     700    266.20605   -1429.3577    75940.583   -16612.843    1409.2732   -18022.116    5.0770973 
     750    271.76638   -1294.6955    75741.736   -16639.983    1438.7091   -18078.692    5.3712563 
     800    263.28003   -1464.9108    75541.356   -16647.776    1393.7831   -18041.559    5.7609716 
     850    265.09591    -1397.735    75368.361   -16652.406    1403.3962   -18055.803     5.914698 
     900    261.64821   -1661.6885    75194.076   -16673.277    1385.1443   -18058.421    6.1893111 
     950    267.42643   -790.38991     75007.86   -16687.273    1415.7338   -18103.006    6.5532401 
    1000    262.75107   -790.22728     74843.07   -16701.993    1390.9828   -18092.976    6.7877381 
    1050    262.98573   -1206.7761    74751.109   -16727.757    1392.2251   -18119.982    7.0931549 
    1100     256.5782   -1231.0976    74711.023    -16746.32    1358.3041   -18104.624    7.3121711 
    1150    259.60872   -868.46151    74642.074     -16761.3    1374.3474   -18135.648    7.5745975 
    1200    262.20478   -1537.6533    74572.532   -16785.182    1388.0908   -18173.272    7.8168089 
    1250     258.6957   -1572.6631    74449.993    -16802.21     1369.514   -18171.724    8.1195924 
    1300    260.10786   -397.79103    74315.842   -16826.373    1376.9899   -18203.363    8.3713403 
    1350    255.43449   -856.82426    74192.734   -16844.059    1352.2494   -18196.309    8.6052271 
    1400    260.71278   -907.83355    74084.908   -16848.202    1380.1922   -18228.394    8.8227028 
    1450    257.23609   -617.84906    74019.054   -16851.596     1361.787   -18213.383    9.1126888 
    1500    258.40389   -967.27813        73952   -16870.539    1367.9692   -18238.508    9.2304104 
    1550    254.15372   -1018.1143    73900.539   -16883.759    1345.4691   -18229.228    9.5121552 
    1600    253.01995   -337.97917    73882.648   -16890.801     1339.467   -18230.268    9.6413094 
    1650    247.43052    -141.5623    73893.796   -16915.969    1309.8771   -18225.846    9.7245712 
    1700    252.79118     -946.071    73905.573   -16912.114    1338.2559    -18250.37    9.9086608 
    1750    253.51856   -948.98745    73888.126    -16923.69    1342.1067   -18265.797    10.108457 
    1800    252.32938   -750.38798    73887.182   -16924.029    1335.8112    -18259.84    10.351589 
    1850    252.97548   -922.85097    73911.246   -16921.047    1339.2316   -18260.278    10.566918 
    1900    258.57066   -1424.3414     73963.41   -16914.087     1368.852   -18282.939    10.700831 
    1950    255.06886   -725.63364    73986.102   -16914.646    1350.3138   -18264.959    10.803682 
    2000    255.20804   -501.07817    73962.827   -16905.686    1351.0506   -18256.736    11.069178 
    2050    256.79705   -921.79513     73937.98   -16935.128    1359.4627   -18294.591    11.235129 
    2100    252.53828   -1058.0998    73894.241    -16946.86    1336.9171   -18283.778    11.460447 
    2150     253.1328   -1483.9045     73819.76   -16952.416    1340.0645   -18292.481    11.717862 
    2200    248.43297   -990.84295    73694.424    -16950.08    1315.1839   -18265.264    11.974246 
    2250    252.99308   -1062.1497    73571.795   -16956.615    1339.3248    -18295.94    12.259701 
    2300    250.89775   -804.98474    73479.537   -16940.764    1328.2323   -18268.996    12.525689 
    2350    244.95208   -171.30671    73445.308   -16933.094    1296.7564   -18229.851    12.684884 
    2400    252.30104    -195.8994    73483.936    -16944.21    1335.6612   -18279.871    12.849851 
    2450    258.02559   -611.54583    73531.206   -16945.124    1365.9665   -18311.091    12.994137 
    2500    255.01729   -1099.0105    73531.406    -16923.48    1350.0408   -18273.521    13.286568 
    2550    257.34807   -493.06239    73519.612   -16934.114    1362.3797   -18296.494    13.459906 
    2600    253.93122   -729.24879    73508.053   -16943.825    1344.2912   -18288.116    13.710419 
    2650    253.60086    -657.9362    73489.481   -16924.263    1342.5423   -18266.806    14.014608 
    2700    250.71351   -650.86418    73477.822   -16941.657    1327.2569   -18268.914    14.247513 
    2750    244.96292   -945.15357     73476.76   -16951.268    1296.8138   -18248.082    14.353697 
    2800    241.43166   -543.89894    73439.479   -16953.703    1278.1196   -18231.822    14.678234 
    2850    247.77576   -704.94928    73419.251   -16967.303    1311.7047   -18279.007    14.959128 
    2900    250.10802   -365.48947    73425.999   -16985.273    1324.0515   -18309.325    15.025384 
    2950    249.65829   -774.92932    73438.842   -17004.645    1321.6707   -18326.316    15.240579 
    3000    247.44022    -400.3297    73494.317   -16994.192    1309.9284    -18304.12    15.456841 
    3050    248.01476   -922.07027    73573.805    -16998.89      1312.97    -18311.86    15.531688 
    3100    239.00169   -726.08678    73604.225   -17006.241    1265.2555   -18271.496    15.555999 
    3150    241.83779   -1335.0559    73627.972   -17010.327    1280.2696   -18290.597    15.719777 
    3200    243.32593   -777.81045    73647.838   -17002.932    1288.1477    -18291.08    15.865584 
    3250    248.12492   -1170.8807    73695.436   -16995.825    1313.5531   -18309.378    16.058852 
    3300    241.72636   -1376.8366    73743.366   -16988.473    1279.6797   -18268.153    16.140567 
    3350    248.28647   -991.05091    73722.252   -16958.095    1314.4084   -18272.503    16.376339 
    3400    244.46833   -556.42949     73672.62   -16994.389    1294.1954   -18288.585    16.519546 
    3450    242.98826   -1848.8517     73659.84   -16997.043    1286.3601   -18283.403    16.759734 
    3500    246.41349   -709.10011    73610.904   -17005.936     1304.493   -18310.429    16.883213 
    3550    249.10824   -965.83601    73591.804   -17002.132    1318.7587   -18320.891    16.864304 
    3600    242.37095   -837.38146    73610.691   -17009.656    1283.0921   -18292.748    16.998217 
    3650    244.47933   -482.88397    73630.282   -17011.094    1294.2537   -18305.347    17.239079 
    3700    245.69881   -1158.7245    73633.781   -17017.835    1300.7095   -18318.544    17.568042 
    3750    238.91388   -790.86076    73606.307   -17023.995    1264.7906   -18288.786    17.684022 
    3800    243.05127    -601.9844     73553.05   -17043.048    1286.6937   -18329.742    18.028243 
    3850    249.60547   -462.23798    73523.027    -17041.06     1321.391   -18362.451    18.203557 
    3900    240.47215   -1115.5184    73492.022   -17047.443      1273.04   -18320.483    18.552909 
    3950    251.00042   -953.74683    73434.995   -17046.245    1328.7758   -18375.021    18.746743 
    4000    241.01717   -1073.2544    73393.166   -17049.122    1275.9253   -18325.048    18.905908 
    4050    243.73051   -620.33366    73302.921   -17048.135    1290.2895   -18338.425    19.183629 
    4100    239.63143   -222.50316    73188.777   -17042.344    1268.5893   -18310.933    19.487683 
    4150    247.54718   -792.99837    73144.937   -17037.707    1310.4946   -18348.202    19.629381 
    4200    242.10382    -1222.075    73144.632   -17045.776    1281.6779   -18327.453    19.747836 
    4250    245.59444    -433.7144    73163.065   -17035.874     1300.157   -18336.031    19.845276 
    4300     243.7847   -713.30594    73219.573   -17039.191    1290.5763   -18329.767    20.044782 
    4350    244.83845   -688.40822     73295.87   -17042.547    1296.1548   -18338.702    20.119726 
    4400    241.41228   -1222.6633    73374.575   -17036.407     1278.017   -18314.424     20.35634 
    4450     236.7592   -1262.0186    73426.745   -17015.101    1253.3839   -18268.485    20.513476 
    4500    246.95615   -889.70849    73440.004   -16996.558    1307.3658   -18303.924    20.597099 
    4550    253.32538   -477.39292    73410.982   -16999.045    1341.0839   -18340.129    20.905675 
    4600    245.67137   -937.52957    73418.676   -17001.033    1300.5642   -18301.597    21.049605 
    4650    248.69111   -1020.6735     73475.12   -16984.213    1316.5505   -18300.763    21.213813 
    4700    252.32574   -487.76811    73523.726   -16972.701    1335.7919   -18308.493    21.415939 
    4750    249.55838   -915.38499    73584.727   -16980.807    1321.1417   -18301.949    21.552213 
    4800    244.87557   -441.96082    73646.921   -16986.748    1296.3513   -18283.099    21.924333 
    4850    249.70896   -828.99937    73745.665   -16987.952    1321.9389   -18309.891     22.06518 
    4900    251.24322   -377.07423    73852.265    -16989.17    1330.0611   -18319.231    22.070469 
    4950    239.94418    -1150.216    73945.977   -16991.804     1270.245   -18262.049    22.228836 
    5000    254.10744   -1162.4725    73998.881   -17004.797    1345.2241   -18350.022    22.382942 
    5050    250.60348    -976.5995     73968.72   -17011.309    1326.6744   -18337.984    22.455898 
    5100    247.07907   -1101.1502    73855.278   -17016.382    1308.0165   -18324.398    22.740988 
    5150    249.67363   -803.42587    73736.503   -17031.152    1321.7519   -18352.904    22.694739 
    5200    253.43077   -536.58539    73626.552   -17028.836    1341.6419   -18370.478    22.787989 
    5250    250.39701   -702.66581    73557.472   -17034.441    1325.5814   -18360.022    23.004256 
    5300    244.31756   -300.73003    73559.733    -17027.53    1293.3973   -18320.928    23.142843 
    5350    253.99974   -1109.9497    73599.181   -17027.498     1344.654   -18372.152    23.208927 
    5400    249.70026   -449.22426    73588.826   -17037.364    1321.8928   -18359.257    23.383197 
    5450    240.78617   -1361.7443    73559.541   -17048.355    1274.7024   -18323.057    23.517627 
    5500    245.50401   -1207.4614    73483.754   -17046.566    1299.6782   -18346.245    23.608165 
    5550    246.56318   -586.28897    73375.051   -17064.778    1305.2854   -18370.064    23.966757 
    5600    237.79959   -705.07591    73299.074   -17091.997    1258.8917   -18350.889    24.096734 
    5650    244.75036   -99.954165    73279.077   -17119.083    1295.6885   -18414.771     24.23311 
    5700    243.16527   -718.74928    73373.279   -17117.784    1287.2972   -18405.081     24.28397 
    5750    249.00033   -1198.5041    73494.608   -17109.873    1318.1875   -18428.061    24.382077 
    5800    237.94497   -1318.1141    73546.063   -17105.615    1259.6613   -18365.276    24.629487 
    5850    241.37374   -521.71471    73528.323   -17091.302     1277.813   -18369.115    24.836451 
    5900    244.04924    110.68749    73504.284   -17110.993    1291.9768    -18402.97    25.013267 
    5950    247.00061   -465.36741    73551.617   -17110.267    1307.6012   -18417.868    25.295747 
    6000    248.40684   -829.11972    73692.467   -17116.283    1315.0456   -18431.329    25.667225 
    6050    243.51881   -734.16047    73864.133    -17099.14    1289.1688   -18388.309     25.81844 
    6100    241.91245   -1142.8412    73982.498   -17099.072    1280.6648   -18379.737    25.799474 
    6150    245.33071   -1304.1683    74032.524   -17101.469    1298.7608    -18400.23    25.936605 
    6200    239.38827   -1145.7872    74043.736   -17099.578     1267.302    -18366.88     26.08058 
    6250    242.67696    -1117.801    74012.394   -17094.459    1284.7121   -18379.171    26.265733 
    6300    244.70619   -1199.9432    73949.801   -17087.468    1295.4546   -18382.923    26.378015 
    6350    246.14389   -1417.9604    73888.057   -17073.542    1303.0657   -18376.608    26.382062 
    6400    241.51221   -839.41187    73805.068   -17106.017     1278.546   -18384.563    26.517149 
    6450    244.81861   -567.37785    73710.729   -17109.179    1296.0498   -18405.229    26.974802 
    6500    245.74256   -334.70192    73638.609   -17090.463    1300.9411   -18391.405     27.16034 
    6550    241.79774   -357.19576    73606.434   -17086.202    1280.0576    -18366.26    27.254081 
    6600      243.216   -486.85805    73609.859   -17099.623    1287.5657   -18387.189    27.132058 
    6650    239.50228   -1024.4153    73623.471   -17107.792    1267.9056   -18375.697     27.35411 
    6700    246.65215   -900.71846    73577.003    -17121.57    1305.7564   -18427.326    27.623028 
    6750    244.12911   -173.30349    73510.285   -17120.443    1292.3996   -18412.842    27.917057 
    6800    240.80022   -995.09528    73508.292   -17110.164    1274.7768   -18384.941    28.039652 
    6850    239.68076   -235.71334    73528.354   -17111.323    1268.8505   -18380.174    28.175935 
    6900     241.3628    -914.6496    73586.065    -17101.26     1277.755   -18379.015    28.518321 
    6950    245.21715   -879.49311    73650.319    -17097.99    1298.1596    -18396.15    28.643535 
    7000    250.90754   -1036.6763    73712.981   -17098.344    1328.2841   -18426.628    28.835468 
    7050    243.10471    -1195.567    73736.642   -17089.558    1286.9766   -18376.535    29.209203 
    7100    244.42492    -1332.544    73695.978   -17100.466    1293.9656   -18394.431    29.304865 
    7150    239.88893   -1125.8682    73589.457   -17117.802    1269.9525   -18387.755    29.425628 
    7200    238.23656    -902.7544     73454.31   -17136.714     1261.205   -18397.919    29.610637 
    7250    244.46266   -40.000313    73341.093   -17115.244    1294.1654   -18409.409    29.848184 
    7300    237.65629    -688.7401    73302.592   -17111.696     1258.133   -18369.829    29.828315 
    7350    247.23313   -532.73946    73300.758    -17114.38    1308.8321   -18423.212    29.945497 
    7400    243.60989   -827.84279    73317.262   -17098.281     1289.651   -18387.932    30.104373 
    7450    234.43227   -798.67852     73356.71   -17090.412    1241.0654   -18331.477    30.226401 
    7500    239.83754   -443.14207    73429.736   -17116.559    1269.6804    -18386.24    30.279161 
    7550    238.59041   -124.61703    73541.792   -17126.569    1263.0782   -18389.647    30.624798 
    7600    244.65339   -1232.3834    73637.946   -17103.651    1295.1752   -18398.826    30.908848 
    7650    241.28694   -1232.0606    73674.216   -17110.023    1277.3534   -18387.377    30.931529 
    7700    238.82349   -489.94503    73660.859   -17107.003    1264.3121   -18371.315     30.91791 
    7750    238.22737   -1079.4073    73607.294   -17105.788    1261.1563   -18366.944    31.270326 
    7800    236.09772    -627.7662    73491.752   -17112.927    1249.8821   -18362.809    31.426176 
    7850    241.64876   -1324.3419      73346.1   -17113.139    1279.2689   -18392.407    31.566881 
    7900    237.93331   -1510.2834    73205.612   -17128.934    1259.5996   -18388.534    31.663967 
    7950      236.354   -541.26712    73073.482   -17141.609    1251.2388   -18392.848    31.775516 
    8000    244.79996   -874.43333    72975.925    -17138.47    1295.9511   -18434.421    32.130928 
    8050    238.88968   -949.14134    72885.119    -17127.87    1264.6625   -18392.532    32.520894 
    8100    243.19704   -655.27081    72863.743   -17146.149    1287.4653   -18433.614    32.747613 
    8150    240.55145   -214.15913    72884.351   -17127.788    1273.4598   -18401.248     32.68409 
    8200    235.98744   -963.54248    72944.744   -17129.232    1249.2983    -18378.53    32.967821 
    8250    241.39528    -1331.668     73013.28   -17128.847     1277.927   -18406.774    33.289082 
    8300     242.6909   -670.73498    73048.166   -17132.417    1284.7859   -18417.203    33.471169 
    8350    236.78337   -469.21392    73103.563   -17151.309    1253.5119   -18404.821    33.467471 
    8400    244.76963   -453.64356    73206.233   -17163.764    1295.7905   -18459.555    33.504914 
    8450    238.26946   -608.32186    73309.426   -17167.697    1261.3791   -18429.076     33.54658 
    8500    241.68167   -980.21024    73400.894    -17164.11    1279.4431   -18443.553    33.624053 
    8550    234.44511   -724.79404    73458.404   -17171.292    1241.1333   -18412.426    33.576404 
    8600     239.0774   -851.26258    73473.235   -17158.468    1265.6563   -18424.124    33.728083 
    8650    238.32925   -913.64972    73469.224   -17166.149    1261.6957   -18427.845    33.699467 
    8700    238.58898   -461.27129    73467.678   -17159.501    1263.0706   -18422.572    33.830766 
    8750    242.21047   -343.77853    73506.098   -17145.223    1282.2425   -18427.466    34.103332 
    8800    235.11029   -388.10573    73577.934   -17155.807    1244.6548   -18400.462    34.382407 
    8850    237.46503   -708.05716    73673.552   -17163.614    1257.1206   -18420.735    34.318201 
    8900    237.60306   -657.38531    73792.526    -17176.23    1257.8513   -18434.082    34.291819 
    8950    236.02097   -506.50794    73924.803   -17173.439    1249.4758   -18422.915    34.287881 
    9000    243.18824   -250.96647    74059.504   -17163.011    1287.4188    -18450.43    34.320373 
    9050    240.90278   -832.63846    74177.686   -17164.657    1275.3197   -18439.977    34.293251 
    9100    240.00602   -715.96403    74224.676   -17188.602    1270.5723   -18459.174    34.582483 
    9150    236.95088   -1353.3985    74201.855    -17170.87    1254.3987   -18425.269    34.535076 
    9200     241.7294   -837.15922    74087.635   -17194.388    1279.6958   -18474.084    34.677572 
    9250    240.22283   -799.74541     73950.44   -17207.454    1271.7201   -18479.174    34.734987 
    9300    235.16524    -530.2068    73909.831    -17214.07    1244.9457   -18459.016    35.084046 
    9350    239.83998   -740.61292    73939.475   -17208.692    1269.6933   -18478.385    35.165227 
    9400    242.42756    -253.6737    73992.614   -17195.569    1283.3918   -18478.961    35.041829 
    9450    245.38338    39.488793    74060.422   -17203.051    1299.0397   -18502.091    35.162611 
    9500    235.07227   -950.20223    74150.278   -17201.761    1244.4535   -18446.214    35.408397 
    9550     239.9396   -1075.8503    74209.583    -17197.25    1270.2207   -18467.471    35.567818 
    9600    237.21393   -708.37961    74213.208   -17187.466    1255.7912   -18443.257    35.641812 
    9650    240.57301   -558.67786    74190.381   -17203.304    1273.5739   -18476.878    35.707554 
    9700    239.30946   -588.56209    74150.626   -17211.043    1266.8848   -18477.927    36.005161 
    9750    236.96811   -192.84445    74070.299   -17202.717    1254.4899   -18457.207    36.059855 
    9800    234.15075   -725.71887    74046.911   -17212.618     1239.575   -18452.193    36.248955 
    9850    236.05185   -780.52009    74052.771   -17201.695    1249.6393   -18451.334     36.49979 
    9900    235.01424   -923.95637    74097.908   -17203.702    1244.1463   -18447.848    36.685263 
    9950     239.5791   -962.17428    74127.533   -17199.743    1268.3123   -18468.055     36.69614 
   10000    237.75484   -647.27248    74116.397   -17193.807    1258.6548   -18452.462    36.712186 
   10050     238.1408   -759.12138    74074.152   -17203.163     1260.698   -18463.861    36.795175 
   10100    239.18504   -970.03877    74020.861   -17188.368    1266.2261   -18454.594    36.980121 
   10150    243.48983   -446.96428    73945.553   -17181.829    1289.0154   -18470.844    37.349734 
   10200    246.53249   -320.34971    73927.275   -17178.514    1305.1229   -18483.637     37.42973 
   10250     239.4807    -721.7449    73973.581   -17178.926    1267.7913   -18446.717    37.531735 
   10300    243.65919   -848.26014    74031.242   -17176.568    1289.9119    -18466.48    37.600082 
   10350    242.25267   -1084.2808    74109.283   -17182.184    1282.4659    -18464.65    37.823677 
   10400    239.56331   -1667.9486    74178.859   -17193.945    1268.2287   -18462.174    37.803379 
   10450    242.56097   -1314.6175    74184.404   -17193.402    1284.0981     -18477.5    37.983127 
   10500     241.3455   -1423.7458    74168.468   -17185.116    1277.6634   -18462.779    38.076918 
   10550    240.23153   -1533.7749    74121.087   -17181.954    1271.7662    -18453.72    38.035798 
   10600    236.73559   -916.84257     74008.18   -17183.583     1253.259   -18436.842    38.194949 
   10650    244.27554   -899.41403    73865.789    -17178.75    1293.1748   -18471.925    38.307127 
   10700     232.2333   -1143.8674    73744.825   -17177.626    1229.4242    -18407.05    38.377269 
   10750    234.28099   -545.25104      73647.7   -17182.335    1240.2645   -18422.599    38.866733 
   10800    237.06793   -522.48346    73617.149   -17183.198    1255.0184   -18438.216    38.920039 
   10850    241.38297   -1553.0686    73608.738   -17167.845    1277.8618   -18445.707    39.056567 
   10900    239.05964   -20.173482    73519.296   -17165.946    1265.5623   -18431.508    39.252952 
   10950    239.20195   -1306.2366    73421.523   -17171.798    1266.3157   -18438.114    39.327716 
   11000    239.45081   -431.26549    73317.776   -17182.733    1267.6331   -18450.366    39.464223 
   11050    225.67966   -583.08263    73267.063    -17198.63    1194.7298    -18393.36    39.782428 
   11100    237.97098    -744.2764     73344.75   -17186.237     1259.799   -18446.036    39.516723 
   11150    238.72105   -712.42508     73455.14   -17182.205    1263.7698   -18445.974    39.671246 
   11200    233.69775   -586.24364     73553.07   -17191.425    1237.1769   -18428.602    39.804543 
   11250    236.37436   -959.17048    73608.872   -17188.684    1251.3466   -18440.031    39.959951 
   11300    238.13537   -693.05662    73619.586   -17190.265    1260.6693   -18450.934    39.943478 
   11350    239.88495   -874.15592    73646.586   -17203.716    1269.9314   -18473.647    40.139177 
   11400    236.50559   -1674.2532    73653.794   -17199.089    1252.0414   -18451.131     40.18909 
   11450    237.59794   -955.80511    73559.424   -17213.657    1257.8242   -18471.481    40.363235 
   11500    243.37333   -1030.8815    73399.619   -17221.057    1288.3986   -18509.455    40.559358 
   11550    243.05586   -495.02168    73289.525   -17213.709    1286.7179   -18500.427    40.796234 
   11600    239.22677   -456.69111    73252.594    -17214.99    1266.4471   -18481.437    40.951709 
   11650    241.46524   -623.17179    73287.414   -17184.807    1278.2974   -18463.104    40.952919 
   11700    231.62344   -561.26936    73323.935   -17175.801    1226.1956   -18401.997    41.131026 
   11750    237.19539   -822.47717    73354.216   -17181.579    1255.6931   -18437.272     41.23789 
   11800    234.17307   -148.40193     73385.42    -17190.23    1239.6932   -18429.923    41.522216 
   11850    236.76144   -366.81611    73461.347   -17174.944    1253.3958    -18428.34    41.612433 
   11900    236.11239   -440.82311    73599.777   -17203.348    1249.9598   -18453.308    41.826385 
   11950    240.73025   -353.64774    73763.544   -17195.287    1274.4064   -18469.693    41.985985 
   12000     239.9625    -908.4268    73951.832   -17199.566     1270.342   -18469.908    42.062152 
   12050    236.78658   -869.80939    74085.451   -17193.308    1253.5289   -18446.837    42.122916 
   12100     238.6053   -1309.7547    74141.748   -17177.695    1263.1571   -18440.852    42.114964 
   12150     232.7667   -994.99091    74121.803   -17176.536     1232.248   -18408.784    42.031926 
   12200    236.66231    -1323.979    74043.615   -17172.581     1252.871   -18425.452    42.226012 
   12250    239.25861   -650.43648    73967.419   -17158.234    1266.6156    -18424.85    42.418921 
   12300     241.1136   -1249.3976    73937.214   -17163.306    1276.4358   -18439.742    42.575708 
   12350    240.51764   -789.17844    73900.093   -17174.814    1273.2808   -18448.095    42.645972 
   12400    235.97943   -1442.0516    73868.042   -17193.649    1249.2559   -18442.905    42.582074 
   12450    244.19137   -629.79824    73769.715   -17186.217    1292.7292   -18478.947    42.713207 
   12500    242.28751    -605.5196    73697.247   -17175.405    1282.6504   -18458.056    42.530358 
   12550     244.0413   -1005.4674    73633.733   -17186.083    1291.9348   -18478.018    42.813557 
   12600     243.1155   -502.48432    73587.873   -17180.226    1287.0337   -18467.259    43.008633 
   12650    247.67575   -575.35343    73583.989   -17176.491    1311.1753   -18487.667    43.275146 
   12700    245.08749    97.680917    73591.324   -17177.097    1297.4732   -18474.571     42.96188 
   12750    242.49045   -84.194784    73650.944   -17190.271    1283.7247   -18473.996    43.197812 
   12800    243.54042   -671.89239    73741.504   -17200.681    1289.2831   -18489.964    43.305925 
   12850    242.38006   -517.04972    73811.984    -17198.88    1283.1403    -18482.02    43.429621 
   12900    240.40512    -622.9163    73892.678   -17193.379    1272.6851   -18466.064    43.424766 
   12950    245.73261   -1282.9321     73965.04   -17199.132    1300.8885    -18500.02    43.565528 
   13000    242.18159   -1030.8384    74028.832   -17184.454    1282.0896   -18466.543    43.564705 
   13050    236.55387   -1085.7246    74067.711   -17179.897    1252.2969   -18432.194    43.852906 
   13100    239.19555   -1022.0857    74090.595   -17176.516    1266.2818   -18442.798    43.768406 
   13150    242.89889   -405.11814    74104.512   -17187.086     1285.887   -18472.973    43.968847 
   13200    238.41239    -947.3022    74115.783   -17188.012    1262.1358   -18450.148    44.344771 
   13250    241.68004   -940.04571    74094.373    -17213.92    1279.4345   -18493.354    44.374435 
   13300    238.65134   -285.85294    74120.892   -17207.278    1263.4008   -18470.679    44.524451 
   13350    234.07806   -941.43655     74223.47    -17202.27    1239.1902    -18441.46    44.642619 
   13400    234.50104   -1269.6071    74309.371   -17213.659    1241.4294   -18455.088     44.85594 
   13450    241.12668    -736.5456    74331.276   -17220.128     1276.505   -18496.634    44.933974 
   13500    239.22767   -546.19143     74315.49   -17215.287    1266.4518   -18481.739    45.152365 
   13550    230.88393   -1149.2141    74265.738   -17240.153    1222.2807   -18462.433    45.509273 
   13600    228.82216   -881.68082    74192.609   -17241.142    1211.3659   -18452.508     45.50171 
   13650    239.05672   -386.34941    74140.203   -17246.378    1265.5468   -18511.925    45.557573 
   13700    231.80074   -1030.8519    74128.928   -17240.795    1227.1342   -18467.929    45.648894 
   13750     235.2626   -1205.7599    74138.475   -17233.588     1245.461   -18479.049    45.932221 
   13800    230.49584   -590.58372    74135.511   -17249.745    1220.2262   -18469.971    45.783335 
   13850    241.92552   -1108.6524    74141.384   -17248.854     1280.734   -18529.588    45.944724 
   13900    235.06749   -792.85318    74130.596   -17240.407    1244.4282   -18484.835    46.035618 
   13950    233.06025   -796.61699    74139.003   -17242.449     1233.802   -18476.251    46.110543 
   14000    241.84952    -1105.893    74214.187   -17233.093    1280.3317   -18513.425    46.017575 
   14050    239.55687   -278.90148    74357.705   -17228.673    1268.1946   -18496.868    46.158967 
   14100    238.36804   -723.64307    74544.832    -17222.05     1261.901   -18483.951    46.076703 
   14150    239.16172   -1362.2967    74699.828   -17216.922    1266.1027   -18483.024    46.253772 
   14200     238.6656   -1249.0856    74759.608   -17217.231    1263.4763   -18480.707    46.316482 
   14250    240.16883   -1099.3802    74729.373   -17186.332    1271.4343   -18457.766    46.237731 
   14300    240.25938   -925.90341    74647.411   -17198.362    1271.9136   -18470.276    46.360521 
   14350    236.60887    -550.0663    74545.777   -17194.759    1252.5881   -18447.347    46.552705 
   14400     243.6532    -290.8776    74459.403   -17187.845    1289.8802   -18477.726    46.921764 
   14450    239.51835   -268.89315     74454.45   -17205.972    1267.9907   -18473.963    46.911911 
   14500    237.47105   -842.99757    74522.323   -17212.946    1257.1524   -18470.098     46.78663 
   14550    234.36887   -1076.4661    74586.559    -17225.96    1240.7297    -18466.69    46.766296 
   14600    227.52826   -783.92985    74589.023   -17224.874    1204.5161   -18429.391    46.804722 
   14650    239.04419   -684.53632     74586.12   -17229.423    1265.4805   -18494.904    47.192158 
   14700    241.05357   -630.11146    74577.217   -17218.945     1276.118   -18495.063    47.286449 
   14750    237.69399   -1318.6895    74555.881   -17222.764    1258.3327   -18481.097    47.358963 
   14800    232.89548   -802.78594    74525.733    -17243.39    1232.9297   -18476.319    47.645245 
   14850    237.19647   -842.94792    74496.149   -17247.842    1255.6988   -18503.541    47.661756 
   14900    235.47315   -927.67945    74420.365   -17248.568    1246.5757   -18495.143    47.767936 
   14950    231.64132   -876.96542     74322.68   -17282.725    1226.2903   -18509.015    48.009022 
   15000     234.2956   -757.65257     74271.97   -17279.849    1240.3418   -18520.191    48.075569 
   15050    236.63376   -928.74543    74268.474   -17283.105    1252.7199   -18535.825    48.328523 
   15100    236.77982   -892.00929    74284.448    -17272.61    1253.4931   -18526.103    48.329604 
   15150    237.90863   -948.74976    74317.867   -17272.557    1259.4689   -18532.026    48.506684 
   15200    235.57576   -971.47961    74331.755   -17274.997    1247.1189   -18522.116    48.449671 
   15250    237.87409    -261.0278    74322.194    -17275.92    1259.2861   -18535.206    48.631564 
   15300    238.33818     -961.193    74332.668   -17261.407    1261.7429    -18523.15    48.752772 
   15350      237.954   -686.52517    74368.751   -17256.846    1259.7091   -18516.555    48.947729 
   15400    237.48658    -1561.064    74442.894   -17243.733    1257.2347   -18500.967    48.739653 
   15450    236.81764   -642.34145    74498.268   -17246.657    1253.6933    -18500.35    48.666739 
   15500    231.56474   -851.16155    74558.011   -17239.626    1225.8849    -18465.51    48.735349 
   15550    237.18373   -975.89463    74593.353   -17248.481    1255.6314   -18504.112    49.067735 
   15600    241.46708   -1000.0709    74609.228   -17241.794    1278.3071   -18520.101    49.388754 
   15650    234.50179   -1369.6433    74603.892   -17250.045    1241.4334   -18491.478    49.232869 
   15700    240.94513   -967.36629    74569.482   -17239.451    1275.5439   -18514.995    49.409658 
   15750    239.79015   -580.46457    74532.715   -17237.729    1269.4296   -18507.159    49.502582 
   15800    232.88106   -1130.5699    74509.611   -17237.667    1232.8534    -18470.52    49.635267 
   15850    234.83782   -1172.6978    74478.962   -17231.196    1243.2123   -18474.408    49.624557 
   15900    233.61769   -1019.4183    74388.417   -17230.598     1236.753   -18467.351    49.536074 
   15950    239.77802   -1158.7581    74259.308   -17220.279    1269.3653   -18489.644    49.689331 
   16000    238.31747   -1370.8823    74127.359   -17212.094    1261.6333   -18473.727     49.73274 
   16050    244.45025   -857.84093    73998.532   -17201.955    1294.0997   -18496.054    49.911322 
   16100    249.56334   -571.43379    73923.423   -17195.094     1321.168   -18516.262    49.934386 
   16150    250.37802   -1228.1757    73892.751   -17198.975    1325.4809   -18524.456    50.076962 
   16200    232.50308   -754.79984    73853.904   -17177.056    1230.8524   -18407.909    50.010165 
   16250    241.97243   -936.94017    73836.959   -17172.281    1280.9824   -18453.264    50.163182 
   16300     243.8246   -636.46566    73830.163   -17184.288    1290.7876   -18475.076    50.353093 
   16350    237.18952   -634.15792    73815.097   -17188.858     1255.662    -18444.52    50.279716 
   16400    240.94935   -675.86956    73791.255   -17175.982    1275.5663   -18451.548    50.748493 
   16450    251.26972   -1137.8323    73796.338   -17196.007    1330.2015   -18526.209     50.87197 
   16500    250.34154   -356.06142     73824.21   -17182.866    1325.2877   -18508.154    50.991317 
   16550    238.50664   -1193.4678    73893.557   -17171.031    1262.6347   -18433.666    51.070003 
   16600    240.04202   -1102.8956     73939.96   -17166.463    1270.7629   -18437.226    51.067502 
   16650    240.95406   -1270.5211    73951.042   -17145.816    1275.5912   -18421.407    51.047806 
   16700     239.9543   -1010.2908    73934.684   -17175.176    1270.2986   -18445.475    50.989199 
   16750    232.11229   -1349.9571     73897.15   -17179.767    1228.7836    -18408.55    51.124417 
   16800    237.95666   -1498.8778    73773.795   -17180.987    1259.7232    -18440.71    51.329864 
   16850    230.16577   -1521.6463    73609.236    -17195.88    1218.4789   -18414.359    51.469992 
   16900    236.92857   -423.57695    73486.936   -17192.506    1254.2806   -18446.786    51.640806 
   16950    231.74478   -584.98387    73403.284   -17173.469     1226.838   -18400.307    51.897122 
   17000    239.83572   -600.82979    73358.001   -17184.437    1269.6708   -18454.108    51.867179 
   17050    238.42581   -853.65574    73390.465   -17169.947    1262.2068   -18432.153    52.058725 
   17100    243.60922   -330.95326    73473.349   -17174.098    1289.6474   -18463.746    52.384578 
   17150    246.17659   -687.46805    73572.187   -17149.351    1303.2388    -18452.59    52.809394 
   17200     241.3222   -767.07654    73644.354   -17128.837    1277.5401   -18406.377    52.962838 
   17250    243.53091   -622.29689    73692.154   -17129.707    1289.2328    -18418.94    53.114018 
   17300    239.67351   -819.72308    73711.468   -17109.303    1268.8121   -18378.115    53.436072 
   17350    239.37866   -896.75932    73700.864   -17118.156    1267.2512   -18385.407    53.380919 
   17400    249.65155   -744.20354    73656.113   -17125.689     1321.635   -18447.324    53.329055 
   17450    241.76864   -895.04734    73577.428   -17115.941    1279.9035   -18395.844    53.512083 
   17500    233.30031   -915.95507    73477.064   -17137.652    1235.0729   -18372.725    53.597724 
   17550    234.81515   -711.60145    73387.767   -17147.664    1243.0923   -18390.756    53.673357 
   17600    245.22551    -1082.528    73314.543   -17138.738    1298.2039   -18436.942    53.779079 
   17650    246.87734    -695.4552    73265.156   -17119.225    1306.9486   -18426.174    53.910077 
   17700    240.05942   -623.34029    73280.224   -17107.456     1270.855   -18378.311     54.27143 
   17750    244.19262   -398.11908    73313.084   -17110.307    1292.7359   -18403.043    54.342511 
   17800    242.24934   -602.48232    73356.105   -17100.431    1282.4483   -18382.879    54.452699 
   17850    239.32169   -790.84464    73349.257   -17113.846    1266.9496   -18380.796    54.412975 
   17900    239.93696   -1338.9422    73335.218   -17121.883    1270.2068    -18392.09      54.6293 
   17950    240.10397    -565.4246    73328.317   -17134.954    1271.0909   -18406.045    54.629872 
   18000    235.75295   -592.57179    73336.317   -17139.105    1248.0569   -18387.162    54.809341 
   18050     242.1255   -284.70396    73359.269   -17162.141    1281.7927   -18443.934    54.835252 
   18100    235.93567   -579.84059    73443.772   -17168.408    1249.0243   -18417.432    54.857436 
   18150    242.33981   -452.71407    73540.811   -17175.582    1282.9273   -18458.509    54.979032 
   18200    235.04256   -403.65024    73620.084   -17162.976    1244.2962   -18407.272    55.142267 
   18250    240.17249   -921.36034    73695.282   -17142.057    1271.4536   -18413.511    55.464181 
   18300    242.72177   -776.38159    73767.019   -17126.149    1284.9493   -18411.098    55.668158 
   18350    239.99356   -1318.0647     73814.25   -17117.795    1270.5064   -18388.301    55.799007 
   18400    239.57178   -531.84131    73788.265   -17128.665    1268.2735   -18396.939    56.023302 
   18450    243.74032   -572.83505    73744.692   -17135.743    1290.3414   -18426.085    56.067714 
   18500    237.04216   -1308.4778    73694.981   -17122.461    1254.8819   -18377.343     56.52751 
   18550     241.1092    -539.3682    73588.523   -17112.004    1276.4125   -18388.416    56.729065 
   18600    248.97993   -149.38401    73526.719   -17104.945    1318.0795   -18423.025      56.7934 
   18650    245.97857   -600.26167    73557.778   -17117.736    1302.1905   -18419.927    57.074243 
   18700    245.91126   -829.70587    73640.826   -17117.768    1301.8342   -18419.602    57.120309 
   18750    250.23849   -1341.9237    73716.572   -17106.067    1324.7422   -18430.809    57.402023 
   18800    243.22781   -1198.5923    73768.335   -17102.623    1287.6283   -18390.252    57.470961 
   18850    247.01375   -501.27783    73756.437     -17114.6    1307.6707    -18422.27     57.67493 
   18900    238.62697   -1364.1186    73768.625   -17126.913    1263.2718   -18390.185     57.71533 
   18950    246.60406    -1040.859    73767.341   -17134.902    1305.5018   -18440.404    58.023915 
   19000    245.42864   -1066.3094    73758.713   -17120.628    1299.2792   -18419.908    58.313383 
   19050    248.66952   -542.37295    73768.336   -17116.161    1316.4362   -18432.598    58.076206 
   19100    238.10888   -739.94433    73789.217   -17131.094    1260.5291   -18391.623    58.232259 
   19150    242.82325   -721.90721    73820.204   -17113.905    1285.4865   -18399.391    58.476415 
   19200    245.22578   -864.59131     73844.73   -17113.155    1298.2053    -18411.36     58.60605 
   19250    244.31414    -1158.595    73853.551   -17114.782    1293.3792   -18408.161    58.759008 
   19300    239.40347   -1315.2745    73795.137   -17125.224    1267.3825   -18392.607    58.856071 
   19350    238.68903   -726.07778    73670.279   -17139.421    1263.6003   -18403.021     59.18822 
   19400    246.00148   -160.97144    73554.406   -17135.551    1302.3118   -18437.863    59.577981 
   19450    244.11062   -532.06296    73517.099    -17146.85    1292.3018   -18439.152     60.02497 
   19500    242.82379     -395.889    73527.694   -17170.738    1285.4894   -18456.227     60.22019 
   19550    240.47832     -1223.33    73565.778   -17151.534    1273.0727   -18424.607     60.18503 
   19600    243.55984   -845.85983    73619.614   -17141.339     1289.386   -18430.725    60.261665 
   19650     238.2787   -834.60605    73669.255    -17124.92     1261.428   -18386.348    60.360241 
   19700    249.43354   -758.26181    73739.497   -17113.678    1320.4809   -18434.159    60.527124 
   19750    244.58479   -931.03032    73855.726   -17120.578     1294.812    -18415.39    60.822208 
   19800    245.11778   -1675.7219    73979.899   -17120.909    1297.6336   -18418.543    60.734375 
   19850    245.21009   -1034.5933    74041.203   -17107.268    1298.1223    -18405.39    60.874106 
   19900    239.65349   -965.89054    74062.116   -17092.046    1268.7061   -18360.752    60.724615 
   19950    245.04999   -881.67842    74053.672   -17104.417    1297.2747   -18401.692    60.788455 
   20000    249.17196   -621.93927    74029.589   -17084.893    1319.0961   -18403.989    60.917098 
   20050    248.51012   -310.27507    74036.341   -17095.292    1315.5924   -18410.885    61.216866 
   20100    241.58987   -646.92721    74083.911   -17113.371    1278.9571   -18392.328    61.138018 
   20150    238.34399   -1041.5211     74088.63   -17121.215    1261.7737   -18382.988    61.200771 
   20200    232.32774   -706.91078    74044.576   -17114.642    1229.9242   -18344.566    61.094327 
   20250    239.33597    -545.8976    73973.162   -17120.015    1267.0251    -18387.04    61.157286 
   20300    246.07165   -876.59483    73923.042   -17115.805    1302.6833   -18418.488    61.537323 
   20350     241.7262   -985.99207    73969.488   -17111.962    1279.6789   -18391.641    61.649741 
   20400    242.74475   -683.37298    74050.563   -17098.931     1285.071   -18384.002    61.805675 
   20450    242.16987   -727.75377    74126.571   -17079.719    1282.0276   -18361.746    61.720682 
   20500    242.66746   -824.91931    74165.906   -17078.107    1284.6618   -18362.769    61.711956 
   20550    246.48192   -1267.2055    74132.344   -17070.158    1304.8552   -18375.013    61.734706 
   20600    237.29305   -428.14547    74028.166   -17068.235    1256.2101   -18324.445    61.937901 
   20650    239.81361   -985.21869    73956.944   -17050.965    1269.5537   -18320.519    62.099878 
   20700    245.19105   -551.10363     73878.62   -17079.317    1298.0215   -18377.338    62.310089 
   20750    239.97836   -643.41174    73854.352   -17073.706    1270.4259   -18344.132    62.391828 
   20800    242.72061   -1013.2083    73837.674   -17068.394    1284.9432   -18353.337    62.579629 
   20850    243.42065   -813.32266    73795.495   -17068.217    1288.6491   -18356.866    62.827893 
   20900    251.05513   -1192.4271    73761.404   -17037.812    1329.0654   -18366.877    62.914456 
   20950     248.1739   -1044.7423    73709.561   -17058.843    1313.8124   -18372.656    63.017662 
   21000    241.46864   -931.72494    73680.674   -17071.462    1278.3153   -18349.778    63.260729 
   21050    244.63505   -760.07158    73689.263   -17056.742    1295.0781    -18351.82    63.383415 
   21100     253.8463   -1035.4379    73702.457   -17050.845    1343.8416   -18394.687    63.600076 
   21150    245.97159   -984.11718    73704.023   -17062.786    1302.1536    -18364.94    63.666215 
   21200    248.78015    -1078.434    73679.639   -17072.435    1317.0219   -18389.457    63.899178 
   21250    239.97487    -1054.277    73640.061   -17087.858    1270.4075   -18358.265    64.061729 
   21300    250.79815   -1204.7314    73607.185   -17086.151     1327.705   -18413.856    64.417555 
   21350    244.45903   -964.22492    73614.876   -17112.724    1294.1462    -18406.87    64.778343 
   21400    243.84536   -768.75834    73641.427   -17115.031    1290.8975   -18405.929    64.690993 
   21450    246.62999   -1504.4894    73715.614   -17109.256    1305.6391   -18414.895    64.762784 
   21500    243.23234   -995.19586    73789.864   -17101.545    1287.6522   -18389.198    64.721291 
   21550    239.47295   -953.57107    73830.048   -17105.297    1267.7503   -18373.048    64.891572 
   21600    248.61761   -1029.0422    73837.896   -17124.703    1316.1614   -18440.864    64.991299 
   21650    239.09765   -475.77656    73787.311   -17126.174    1265.7635   -18391.938    65.072935 
   21700    241.54605   -841.69361    73680.033   -17116.957    1278.7252   -18395.683    65.435474 
   21750    244.45539   -1226.6411    73552.157   -17117.581     1294.127   -18411.707    65.449033 
   21800    242.87565   -1238.4121    73389.491   -17125.945    1285.7639   -18411.709    65.423673 
   21850    243.11211   -109.89113    73218.963   -17126.656    1287.0157   -18413.671     65.47258 
   21900    241.09039   -209.92365    73144.102   -17116.098    1276.3129   -18392.411    65.667102 
   21950    239.92822   -955.89719    73172.455   -17120.648    1270.1605   -18390.809    65.781499 
   22000    242.65488   -1458.4851      73181.1   -17110.615    1284.5952    -18395.21    65.921893 
   22050    242.67048   -442.34258    73124.301   -17103.463    1284.6778   -18388.141    66.038728 
   22100    243.00202   -1019.4675    73097.328   -17080.287    1286.4329    -18366.72    66.013521 
   22150    247.40057   -668.91493    73105.888   -17076.726    1309.7185   -18386.445    66.284187 
   22200     247.9539    -594.8361    73173.808   -17072.452    1312.6478     -18385.1      66.4218 
   22250    247.15022   -707.72275    73250.601   -17079.337    1308.3931    -18387.73    66.586624 
   22300    238.98405   -117.25614    73364.572   -17095.479    1265.1621   -18360.642    66.795365 
   22350    243.04097   -988.45703    73529.373   -17098.152    1286.6391   -18384.792    67.004636 
   22400    243.61188   -362.00093     73668.55   -17100.012    1289.6614   -18389.673    66.946984 
   22450    244.07568   -977.90304     73767.78   -17092.624    1292.1168   -18384.741    67.444319 
   22500    248.08535   -828.16272    73833.053   -17063.073    1313.3437   -18376.417    67.338508 
   22550     251.4788   -761.45089    73902.282    -17079.28    1331.3083   -18410.589    67.447218 
   22600     244.0739   -666.03865    73982.516   -17090.706    1292.1074   -18382.813    67.560019 
   22650     246.0904   -934.86394    74036.362   -17088.975    1302.7826   -18391.757    67.662033 
   22700     256.3299    -928.0864    74074.759   -17092.518    1356.9896   -18449.508    67.718166 
   22750    248.83089   -1371.7157    74075.023   -17089.943    1317.2905   -18407.233    67.708984 
   22800    243.39936   -741.59758    74028.226   -17098.086    1288.5364   -18386.622    67.682146 
   22850    242.66986    -823.2513    73957.798   -17085.467    1284.6745   -18370.141    67.797447 
   22900    246.37886   -777.00689    73870.895   -17070.478    1304.3096   -18374.788     68.09684 
   22950    244.59735   -691.82024    73770.743   -17085.453    1294.8784   -18380.331    68.211296 
   23000    240.49643   -477.05499     73673.83   -17100.549    1273.1685   -18373.718    68.221148 
   23050    246.51001   -418.61484    73617.416   -17105.473     1305.004   -18410.477    68.392979 
   23100    246.69758    -160.1036    73565.606   -17117.524    1305.9969   -18423.521    68.458903 
   23150    234.25407   -928.67425    73517.549   -17119.943     1240.122   -18360.065    68.553198 
   23200    240.99318    -1234.996     73454.43   -17096.186    1275.7983   -18371.984    68.529172 
   23250    238.20338   -640.61309    73399.824   -17094.487    1261.0293   -18355.516    68.779686 
   23300    236.98387   -486.08383    73331.285   -17097.466    1254.5733   -18352.039    69.020839 
   23350    243.90891   -435.77071    73276.255    -17097.08    1291.2339   -18388.314    69.598584 
   23400    240.70399   -444.06001    73251.946   -17099.441    1274.2673   -18373.708     69.84222 
   23450    239.55922   -152.65594    73314.427   -17097.875     1268.207   -18366.082    69.834054 
   23500    238.10974   -436.65235    73432.778   -17116.486    1260.5336    -18377.02    69.759393 
   23550    239.53961   -674.62857     73567.69    -17098.32    1268.1032   -18366.423    69.918929 
   23600    235.74214   -1271.2586    73651.834   -17109.548    1247.9997   -18357.548    69.796327 
   23650    239.97328   -848.31188    73674.935   -17120.074     1270.399   -18390.473    69.979093 
   23700    236.01971   -663.70251    73688.596   -17122.782    1249.4691   -18372.251     70.05214 
   23750    243.76998   -981.47521    73682.566   -17117.125    1290.4984   -18407.624    70.327422 
   23800    240.27773   -821.80029    73683.882   -17110.812    1272.0108   -18382.823    70.372624 
   23850    236.55141   -626.72741     73675.39   -17094.985    1252.2839   -18347.269    70.724014 
   23900    235.41509   -784.53291    73664.034   -17098.684    1246.2683   -18344.952    71.023478 
   23950    234.22643   -1176.4626    73641.369   -17122.045    1239.9757   -18362.021    71.245588 
   24000    245.75275   -769.28811    73607.004   -17108.081    1300.9951   -18409.076    71.080523 
   24050    240.23821   -224.53428    73555.808    -17113.59    1271.8016   -18385.392    70.984386 
   24100    240.68899   -523.46599    73501.179   -17101.579    1274.1879   -18375.767    71.233718 
   24150    242.92674   -603.91539    73461.243   -17106.752    1286.0344   -18392.787    71.289251 
   24200     246.1476   -730.66156    73440.148   -17108.257    1303.0854   -18411.342    71.425857 
   24250    251.88908   -749.50721    73433.294   -17085.383    1333.4803   -18418.863    71.555287 
   24300    247.29407    -862.9786    73442.021   -17102.584    1309.1547   -18411.739    71.431152 
   24350     250.6399   -1187.5639    73458.015   -17112.038    1326.8672   -18438.905    71.637457 
   24400    248.56015   -626.13856    73448.524   -17123.094    1315.8572   -18438.951    71.920094 
   24450    251.56622   -638.83167    73417.378   -17124.014    1331.7711   -18455.785    72.086984 
   24500    237.23126   -850.00687    73350.182   -17129.303     1255.883   -18385.186    72.247819 
   24550    232.33289   -802.27104    73244.954   -17132.559    1229.9514    -18362.51    72.497778 
   24600    240.35221   -96.285769    73145.982   -17147.102     1272.405   -18419.507    72.727082 
   24650    240.00648   -686.46241    73096.733   -17141.734    1270.5748   -18412.309    72.969077 
   24700    243.38351   -636.92947    73070.488   -17138.909    1288.4525   -18427.361    73.235018 
   24750    234.30002   -560.29493    73080.514   -17140.366    1240.3652   -18380.732    73.228923 
   24800    238.47483   -712.62863    73079.687   -17148.251    1262.4663   -18410.717     73.15568 
   24850    237.59189   -641.17031    73058.121   -17141.727    1257.7921   -18399.519    73.346656 
   24900    238.76559   -363.54038    73025.523   -17158.203    1264.0056   -18422.209    73.410751 
   24950    237.33397   -261.33253    73016.207   -17155.073    1256.4268     -18411.5    73.603698 
   25000    235.35757    -696.5861    73111.451   -17143.332    1245.9638   -18389.296    73.828543 
Loop time of 44.5739 on 12 procs for 25000 steps with 4537 atoms

Performance: 484.589 ns/day, 0.050 hours/ns, 560.867 timesteps/s
97.6% CPU use with 12 MPI tasks x no OpenMP threads

MPI task timing breakdown:
Section |  min time  |  avg time  |  max time  |%varavg| %total
---------------------------------------------------------------
Pair    | 21.763     | 26.082     | 31.23      |  78.6 | 58.51
Neigh   | 1.4856     | 3.3577     | 5.3735     |  99.4 |  7.53
Comm    | 5.192      | 12.187     | 18.106     | 162.4 | 27.34
Output  | 0.14623    | 0.14796    | 0.16285    |   1.2 |  0.33
Modify  | 2.3279     | 2.4563     | 2.5838     |   6.9 |  5.51
Other   |            | 0.3428     |            |       |  0.77

Nlocal:        378.083 ave         582 max         205 min
Histogram: 6 0 0 0 0 0 0 0 2 4
Nghost:        1499.50 ave        1569 max        1465 min
Histogram: 3 3 1 1 1 1 0 0 1 1
Neighs:        0.00000 ave           0 max           0 min
Histogram: 12 0 0 0 0 0 0 0 0 0
FullNghs:      38878.5 ave       71803 max       10496 min
Histogram: 6 0 0 0 0 0 0 0 2 4

Total # of neighbors = 466542
Ave neighs/atom = 102.83050
Neighbor list builds = 2821
Dangerous builds = 0

unfix           3
unfix           4
undump          1


# Run 0.25 ns equilibration of water in NVE ensemble
#
fix            3 water nve
dump		1 all atom 2000 nve.${NAME}.dump
dump		1 all atom 2000 nve.ML_graphite_m500atm_240K.dump
run	        25000
Per MPI rank memory allocation (min/avg/max) = 5.052 | 5.055 | 5.061 Mbytes
Step c_2 v_water_press Volume TotEng KinEng PotEng c_1[4] 
   25000    235.35757    -696.5861    73111.451   -17143.332    1245.9638   -18389.296    73.828543 
   25050    237.10786     -753.414    73111.451   -17144.081    1255.2297    -18399.31    73.725607 
   25100    246.15736    261.25954    73111.451   -17145.054    1303.1371   -18448.191     73.98992 
   25150    242.04463   -169.70269    73111.451   -17143.669    1281.3646   -18425.033    74.154625 
   25200    242.97502   -507.08651    73111.451   -17144.794      1286.29   -18431.084    74.242437 
   25250    244.64884   -315.19321    73111.451   -17144.584    1295.1511   -18439.735    74.287305 
   25300    235.86199    34.483546    73111.451   -17144.436    1248.6342    -18393.07     74.73636 
   25350    242.65982   -674.04925    73111.451   -17143.941    1284.6214   -18428.562    74.504194 
   25400    240.27027   -419.02743    73111.451   -17144.408    1271.9713   -18416.379    74.861799 
   25450    237.39439   -876.84217    73111.451   -17143.925    1256.7466   -18400.672    75.114534 
   25500    239.47674   -585.85679    73111.451   -17143.864    1267.7704   -18411.634    75.149551 
   25550    241.97046   -226.36722    73111.451   -17144.705    1280.9719   -18425.677    75.278929 
   25600    247.14101    26.744835    73111.451   -17145.089    1308.3444   -18453.433    75.429552 
   25650    240.20083   -449.69065    73111.451   -17145.162    1271.6037   -18416.766    75.326747 
   25700    243.62888   -984.20413    73111.451   -17144.344    1289.7514   -18434.096    75.335599 
   25750    236.24722   -443.08932    73111.451   -17143.677    1250.6735   -18394.351    75.538009 
   25800    238.18583   -914.52603    73111.451   -17144.089    1260.9364   -18405.026    75.641396 
   25850    245.79302   -820.23499    73111.451   -17144.248    1301.2083   -18445.456     75.80118 
   25900    245.80095   -1111.4365    73111.451   -17144.423    1301.2502   -18445.673     75.86794 
   25950    239.80059   -883.12674    73111.451   -17143.734    1269.4848   -18413.219    76.003583 
   26000    242.37431   -383.52098    73111.451   -17144.183    1283.1099   -18427.293    76.253057 
   26050    242.72835   -1305.0414    73111.451   -17144.909    1284.9841   -18429.893    76.218735 
   26100    239.41887   -948.00544    73111.451   -17143.448     1267.464   -18410.912    76.561323 
   26150    245.99916   -921.56891    73111.451   -17144.614    1302.2996   -18446.914    76.774558 
   26200    241.10707   -345.57569    73111.451   -17144.239    1276.4012    -18420.64    76.846849 
   26250    241.09312   -49.057865    73111.451   -17144.501    1276.3274   -18420.828    76.998426 
   26300    242.45912   -214.27457    73111.451   -17144.829    1283.5588   -18428.388    77.158711 
   26350    235.83304    -140.7094    73111.451   -17143.512    1248.4809   -18391.993    76.857274 
   26400    236.69303    -310.5722    73111.451   -17144.539    1253.0337   -18397.573    77.053119 
   26450    237.94477   -651.37544    73111.451   -17143.661    1259.6602   -18403.321    77.215389 
   26500     233.6355   -651.77662    73111.451    -17143.48    1236.8473   -18380.327      77.3416 
   26550    234.66114   -772.12196    73111.451   -17144.178     1242.277   -18386.455    77.653426 
   26600    239.06678   -813.98363    73111.451   -17143.831    1265.6001   -18409.431    77.751871 
   26650    244.43872   -928.85302    73111.451   -17144.469    1294.0387   -18438.507     77.75488 
   26700    236.47698   -853.33112    73111.451   -17143.244    1251.8899   -18395.134    77.843258 
   26750    239.70176   -722.65682    73111.451   -17143.991    1268.9616   -18412.953     77.95753 
   26800    240.70932   -482.65057    73111.451   -17143.822    1274.2956   -18418.118     77.93647 
   26850    243.65026   -570.95773    73111.451   -17144.282    1289.8647   -18434.146    77.818567 
   26900    236.04632   -535.96513    73111.451   -17143.417      1249.61   -18393.027    78.109805 
   26950     235.2157   -280.33826    73111.451   -17144.086    1245.2128   -18389.299    78.447967 
   27000    240.71507   -227.02014    73111.451   -17143.821     1274.326   -18418.147    78.769084 
   27050    242.38163   -626.15478    73111.451   -17144.631    1283.1486    -18427.78    78.975077 
   27100    240.60753   -480.36571    73111.451   -17144.114    1273.7567   -18417.871    79.073362 
   27150    238.09348    -116.2881    73111.451   -17144.356    1260.4475   -18404.803    78.969387 
   27200    241.85111   -452.68053    73111.451   -17143.601    1280.3401   -18423.942    78.983974 
   27250    239.46352   -1182.9954    73111.451   -17144.625    1267.7004   -18412.325    79.327424 
   27300    243.27474   -1049.0885    73111.451   -17144.381    1287.8767   -18432.258    79.615559 
   27350    244.42144   -980.13051    73111.451   -17144.722    1293.9472   -18438.669    79.591653 
   27400    239.27872   -893.87912    73111.451   -17144.165    1266.7221   -18410.888    79.636972 
   27450     242.1683   -263.05085    73111.451   -17144.681    1282.0193     -18426.7    80.144578 
   27500    245.54876   -352.30764    73111.451   -17144.137    1299.9152   -18444.052    80.559019 
   27550    234.77348   -568.15699    73111.451   -17143.456    1242.8717   -18386.328    80.673391 
   27600    239.08478   -302.75129    73111.451   -17143.504    1265.6954   -18409.199    80.688434 
   27650    240.58855    -1264.768    73111.451   -17143.676    1273.6562   -18417.332      81.0346 
   27700    240.88754   -1165.1803    73111.451   -17143.888     1275.239   -18419.127    81.251005 
   27750    241.68906   -282.04064    73111.451    -17143.43    1279.4822   -18422.912    81.381232 
   27800    236.90677   -570.06266    73111.451   -17143.326    1254.1652   -18397.491    81.413761 
   27850    239.99037   -77.957314    73111.451   -17144.465    1270.4895   -18414.955    81.587645 
   27900    237.03283   -659.92495    73111.451   -17143.028    1254.8325   -18397.861    81.994955 
   27950    237.08311   -1142.0107    73111.451    -17143.56    1255.0987   -18398.659     82.15614 
   28000    235.80052   -718.35308    73111.451    -17143.47    1248.3087   -18391.779    82.308677 
   28050    234.90253   -710.94328    73111.451   -17143.733    1243.5549   -18387.288    82.468776 
   28100    237.95547   -518.18537    73111.451   -17143.601    1259.7169   -18403.317    82.683919 
   28150    243.97449    -487.0646    73111.451   -17144.061    1291.5811   -18435.642    82.801934 
   28200     238.9582   -154.48442    73111.451   -17144.369    1265.0253   -18409.394    82.978924 
   28250     237.9149   -495.09339    73111.451   -17144.611    1259.5021   -18404.113    82.995378 
   28300     234.8003   -622.68655    73111.451   -17143.517    1243.0137    -18386.53     82.88495 
   28350    236.31472   -870.15666    73111.451    -17143.04    1251.0309   -18394.071    83.053933 
   28400     238.1918    -1335.298    73111.451   -17143.592     1260.968    -18404.56    83.138168 
   28450    239.38484   -998.33782    73111.451   -17143.224    1267.2838   -18410.508    83.305667 
   28500    235.79492   -772.34979    73111.451   -17143.077    1248.2791   -18391.357    83.543127 
   28550    242.58211   -639.32661    73111.451   -17143.849    1284.2099   -18428.059    83.653677 
   28600    236.19018    -536.7475    73111.451   -17143.267    1250.3716   -18393.638    83.750088 
   28650    241.40585   -716.03119    73111.451   -17143.893    1277.9829   -18421.876    84.174906 
   28700    240.61159   -659.48885    73111.451   -17143.321    1273.7782   -18417.099    84.147322 
   28750    243.94639   -501.00145    73111.451   -17144.148    1291.4323   -18435.581    84.182768 
   28800    234.38615     40.45823    73111.451   -17143.819    1240.8212    -18384.64    84.391175 
   28850    237.01298    274.93408    73111.451   -17142.883    1254.7274   -18397.611    84.695207 
   28900    233.35533   -206.95982    73111.451   -17143.342    1235.3641   -18378.706    84.707025 
   28950    239.43713    -2.213573    73111.451   -17144.144    1267.5607   -18411.704    85.021929 
   29000    235.91515   -636.99523    73111.451   -17143.493    1248.9156   -18392.409    85.194345 
   29050    238.02004   -495.83409    73111.451   -17143.014    1260.0587   -18403.073    85.266253 
   29100    234.80389   -599.47791    73111.451   -17142.617    1243.0327    -18385.65    85.518752 
   29150    233.10004   -356.57721    73111.451    -17142.92    1234.0127   -18376.933    85.831191 
   29200    233.32887   -710.36741    73111.451   -17143.258     1235.224   -18378.482    85.703217 
   29250    234.03997   -295.26707    73111.451    -17143.52    1238.9885   -18382.509     85.85677 
   29300    236.79908   -412.76016    73111.451   -17142.701     1253.595   -18396.297     86.34424 
   29350    244.82485   -394.41751    73111.451   -17144.221    1296.0828   -18440.304    86.408164 
   29400    243.38692   -747.34035    73111.451   -17144.003    1288.4706   -18432.474    86.413243 
   29450     252.1407   -197.65127    73111.451   -17144.967    1334.8124    -18479.78    86.519086 
   29500    242.11854   -317.43576    73111.451   -17143.271    1281.7558   -18425.027     86.55601 
   29550    238.33909   -102.40352    73111.451   -17144.131    1261.7478   -18405.879    86.557879 
   29600    235.84799   -130.02452    73111.451   -17143.327    1248.5601   -18391.887    87.096073 
   29650    237.65414   -157.02332    73111.451   -17143.705    1258.1217   -18401.827    86.839968 
   29700    241.68677   -383.93009    73111.451   -17143.634    1279.4701   -18423.104    86.897637 
   29750    242.74751   -306.14564    73111.451   -17143.697    1285.0856   -18428.782    86.696965 
   29800    234.76877   -724.82475    73111.451   -17142.778    1242.8468   -18385.625     86.66058 
   29850    235.13703    -355.6571    73111.451   -17143.156    1244.7963   -18387.952    86.816739 
   29900     237.0536    216.47879    73111.451   -17143.641    1254.9425   -18398.583    86.833062 
   29950    234.75739   -1099.2514    73111.451   -17143.272    1242.7865   -18386.059    87.023966 
   30000    245.13504   -728.35736    73111.451   -17144.284     1297.725   -18442.009     87.11687 
   30050    237.57148   -951.92444    73111.451   -17143.216    1257.6841     -18400.9    87.221747 
   30100    241.85571   -493.82898    73111.451   -17143.984    1280.3644   -18424.348    87.301541 
   30150    240.48218   -471.69216    73111.451   -17143.985    1273.0931   -18417.078    87.606484 
   30200      244.502    -890.9112    73111.451   -17144.239    1294.3737   -18438.612    87.637875 
   30250    232.65385   -584.79935    73111.451   -17142.524    1231.6506   -18374.175     87.53035 
   30300    238.93368     -331.573    73111.451   -17144.594    1264.8955   -18409.489    87.866734 
   30350    242.12333   -414.13903    73111.451   -17144.221    1281.7812   -18426.003    87.891235 
   30400    235.62712   -129.91647    73111.451   -17142.875    1247.3908   -18390.266    87.929718 
   30450    243.93694   -163.26414    73111.451   -17143.823    1291.3823   -18435.206    88.138768 
   30500    243.25775   -250.55256    73111.451    -17144.23    1287.7868   -18432.017    88.192389 
   30550    241.50552   -1.6728415    73111.451   -17143.693    1278.5106   -18422.203    88.359962 
   30600    246.35694   -63.175023    73111.451   -17144.855    1304.1936   -18449.049    88.384293 
   30650    238.79044    -353.6159    73111.451   -17142.502    1264.1372   -18406.639    88.691732 
   30700    243.39265   -661.01417    73111.451   -17143.824    1288.5009   -18432.325    88.885676 
   30750    241.25631   -582.66637    73111.451   -17143.601    1277.1913   -18420.792    89.266494 
   30800    243.56002    -1214.935    73111.451   -17143.305    1289.3869   -18432.692    89.436228 
   30850    247.68312   -473.31344    73111.451   -17144.503    1311.2143   -18455.718    89.411947 
   30900     242.2067   -549.32023    73111.451   -17143.282    1282.2225   -18425.505    89.556768 
   30950    240.04231   -453.17601    73111.451   -17142.961    1270.7644   -18413.725    89.759284 
   31000    241.69592   -632.91288    73111.451   -17143.339    1279.5185   -18422.858    89.851061 
   31050    244.92218   -558.27908    73111.451   -17144.048    1296.5981   -18440.646    89.779464 
   31100    239.12743   -502.65807    73111.451   -17143.285    1265.9212   -18409.206     89.83624 
   31150    243.23551    178.43112    73111.451   -17143.142     1287.669   -18430.811    90.420514 
   31200    249.91815   -60.424301    73111.451   -17144.392    1323.0464   -18467.439    90.479658 
   31250    238.48008    234.67365    73111.451   -17143.696    1262.4941    -18406.19    90.807302 
   31300    235.36308   -98.298692    73111.451   -17143.106     1245.993   -18389.099    90.717855 
   31350    241.33914   -403.39956    73111.451    -17142.97    1277.6298     -18420.6    91.115168 
   31400    243.64204   -1039.8229    73111.451   -17143.101    1289.8212   -18432.923    91.305489 
   31450     240.4775   -844.97587    73111.451   -17144.492    1273.0683    -18417.56    91.564904 
   31500    244.32712   -700.73306    73111.451   -17143.877    1293.4479   -18437.325    91.814785 
   31550    244.57758    -364.5403    73111.451   -17143.887    1294.7738   -18438.661    91.695009 
   31600    244.73002   -1196.8409    73111.451   -17143.643    1295.5808   -18439.224    91.687405 
   31650    241.39019   -395.70744    73111.451   -17144.008       1277.9   -18421.908    91.697046 
   31700    238.13211   -366.33885    73111.451   -17143.387     1260.652   -18404.039    91.652145 
   31750    241.31653   -811.93546    73111.451   -17143.768    1277.5101   -18421.278    92.021322 
   31800    247.35685   -425.95592    73111.451   -17144.027     1309.487   -18453.514    92.181907 
   31850    241.17433   -859.74638    73111.451   -17143.685    1276.7573   -18420.442    92.253118 
   31900    244.90594    207.48931    73111.451   -17143.293    1296.5121   -18439.805     92.39557 
   31950    235.49757   -489.11176    73111.451   -17142.426     1246.705   -18389.131     92.35882 
   32000    244.49784   -698.76305    73111.451   -17144.026    1294.3517   -18438.377     92.40374 
   32050    241.12442   -523.54213    73111.451    -17143.55    1276.4931   -18420.043    92.506098 
   32100    239.58272   -205.12415    73111.451   -17142.988    1268.3314    -18411.32    92.603557 
   32150    238.75902   -499.57611    73111.451   -17143.736    1263.9708   -18407.707    92.521832 
   32200    248.66879    -639.3235    73111.451   -17144.335    1316.4323   -18460.767    93.049728 
   32250    242.72593   -660.86401    73111.451   -17143.219    1284.9713    -18428.19    93.081241 
   32300    244.31472    -883.5512    73111.451   -17143.541    1293.3822   -18436.923    93.178827 
   32350    247.81584   -228.51741    73111.451   -17143.533    1311.9169   -18455.449    93.016412 
   32400    246.00314   -478.25651    73111.451   -17144.678    1302.3206   -18446.999    93.302943 
   32450    243.25335   -1475.9343    73111.451   -17144.245    1287.7634   -18432.009    93.335182 
   32500    242.78219   -851.38771    73111.451   -17142.966    1285.2691   -18428.235     93.35136 
   32550    242.68832   -1143.0168    73111.451   -17143.674    1284.7722   -18428.446    93.471555 
   32600    246.07089   -841.35559    73111.451   -17144.107    1302.6793   -18446.786    93.456686 
   32650    240.21416   -660.07605    73111.451   -17142.274    1271.6742   -18413.948    93.501853 
   32700    237.18625   -1070.4533    73111.451   -17142.989    1255.6447   -18398.634    93.690529 
   32750    239.30805   -627.80204    73111.451   -17143.285    1266.8773   -18410.162     93.98004 
   32800    237.74226   -812.66511    73111.451   -17143.216    1258.5882   -18401.804    94.310533 
   32850    236.54776   -559.16116    73111.451   -17143.362    1252.2646   -18395.627    94.517607 
   32900    241.01338   -1653.4893    73111.451   -17143.636    1275.9052   -18419.541    94.714901 
   32950    232.64646   -1307.8816    73111.451   -17142.733    1231.6115   -18374.345    94.780725 
   33000    239.33412   -314.54537    73111.451   -17143.533    1267.0154   -18410.548    94.719821 
   33050    241.98197   -131.41843    73111.451   -17143.661    1281.0328   -18424.694    95.105406 
   33100      243.136   -478.62655    73111.451   -17143.383    1287.1422   -18430.525     95.40323 
   33150    239.55845   -637.30909    73111.451   -17143.356    1268.2029   -18411.559    95.796361 
   33200    240.88921   -747.60209    73111.451   -17143.444    1275.2479   -18418.692    95.611117 
   33250    239.14465   -721.79116    73111.451   -17143.414    1266.0123   -18409.426    95.820687 
   33300    231.68028    140.05057    73111.451   -17143.111    1226.4966   -18369.608    95.923924 
   33350    244.25337   -532.42268    73111.451   -17143.088    1293.0575   -18436.145    96.408471 
   33400     241.9646   -167.06772    73111.451   -17143.357    1280.9409   -18424.298    96.340474 
   33450    237.53835   -67.886115    73111.451   -17143.668    1257.5087   -18401.177    96.711864 
   33500    241.97301   -598.04805    73111.451   -17143.553    1280.9854   -18424.538    96.829348 
   33550    241.13223    -576.5617    73111.451   -17143.461    1276.5344   -18419.996    97.080747 
   33600    248.30982    238.07719    73111.451   -17144.653     1314.532   -18459.185    97.545419 
   33650    241.85702   -249.36722    73111.451     -17143.7    1280.3714   -18424.071    97.660957 
   33700     241.2567    -42.74537    73111.451   -17143.262    1277.1933   -18420.456    97.748529 
   33750    238.72507    -581.5257    73111.451   -17143.038    1263.7911   -18406.829    97.783083 
   33800    242.96791   -589.90726    73111.451   -17143.423    1286.2524   -18429.676    97.980342 
   33850    238.17825   -859.52525    73111.451   -17143.381    1260.8963   -18404.277    98.432529 
   33900    242.41144   -600.09344    73111.451     -17143.3    1283.3064   -18426.607    98.477781 
   33950    238.27724   -192.22579    73111.451   -17142.096    1261.4203   -18403.516    98.597913 
   34000    239.38101   -568.85023    73111.451   -17144.264    1267.2636   -18411.528     98.84176 
   34050    238.85228   -59.721766    73111.451   -17143.977    1264.4645   -18408.441     99.08722 
   34100     230.3704   -580.91768    73111.451   -17141.938    1219.5622     -18361.5    99.162586 
   34150    241.69113   -130.11092    73111.451   -17143.119    1279.4932   -18422.612    99.080127 
   34200    238.92193   -1289.0145    73111.451   -17143.352    1264.8333   -18408.185    99.229056 
   34250    233.56179   -568.05053    73111.451   -17142.322    1236.4571   -18378.779    99.651927 
   34300    239.10193   -362.87906    73111.451   -17143.292    1265.7862   -18409.078    99.393295 
   34350    246.57283    -118.7066    73111.451   -17144.491    1305.3365   -18449.827    99.868301 
   34400    240.60755   -700.66432    73111.451   -17143.756    1273.7568   -18417.513     99.91914 
   34450    232.90167   -573.27461    73111.451   -17143.738    1232.9625     -18376.7    99.835898 
   34500    232.46352    -295.3974    73111.451   -17142.598     1230.643   -18373.241    100.42172 
   34550    246.63597   -483.30736    73111.451   -17144.108    1305.6708   -18449.779    100.44134 
   34600    243.37599   -566.37629    73111.451   -17143.274    1288.4127   -18431.687    100.89257 
   34650    245.55068   -297.33347    73111.451   -17143.748    1299.9253   -18443.674    100.84566 
   34700    244.27444    237.57738    73111.451   -17143.761     1293.169    -18436.93     100.5225 
   34750    239.37557    176.35551    73111.451   -17143.516    1267.2348   -18410.751    100.53626 
   34800    247.30661   -260.24655    73111.451   -17143.434    1309.2211   -18452.655    100.63273 
   34850    237.56558   -155.52355    73111.451   -17142.421    1257.6529   -18400.074    100.64706 
   34900    243.40299    168.32623    73111.451   -17143.613    1288.5556   -18432.169    101.13249 
   34950    244.95992   -151.27289    73111.451   -17143.193    1296.7979   -18439.991    101.22325 
   35000    242.04032   -247.28203    73111.451   -17143.034    1281.3418   -18424.376    101.38294 
   35050    248.26988   -660.45179    73111.451   -17144.027    1314.3205   -18458.348    101.30201 
   35100    245.69855   -971.14569    73111.451   -17143.619    1300.7081   -18444.327    101.50562 
   35150    245.86753   -712.54005    73111.451   -17143.595    1301.6027   -18445.197    101.60016 
   35200    245.43378   -543.63041    73111.451   -17143.409    1299.3065   -18442.715     101.6069 
   35250    241.40085   -788.80788    73111.451   -17142.876    1277.9565   -18420.832    101.72144 
   35300    245.31044   -260.67662    73111.451   -17143.116    1298.6535   -18441.769     102.0253 
   35350    243.07475   -400.20792    73111.451   -17143.727    1286.8179   -18430.545    102.37863 
   35400    241.31245   -711.91735    73111.451   -17142.965    1277.4885   -18420.454    102.30073 
   35450    241.06816   -430.02421    73111.451   -17143.008    1276.1953   -18419.203    102.51295 
   35500    238.49993   -125.50921    73111.451   -17143.191    1262.5992    -18405.79    102.38163 
   35550    244.04211   -553.97549    73111.451    -17143.92    1291.9391   -18435.859    102.45746 
   35600    241.58626   -963.11297    73111.451    -17143.06     1278.938   -18421.998    102.67626 
   35650    241.28275   -16.927951    73111.451   -17142.794    1277.3313   -18420.125    102.58239 
   35700    238.34906   -436.45641    73111.451   -17142.733    1261.8006   -18404.534    102.72337 
   35750    245.36516   -250.42033    73111.451   -17142.977    1298.9432    -18441.92    102.68125 
   35800    238.71266   -674.57284    73111.451   -17142.397    1263.7254   -18406.122    102.71841 
   35850    239.81589   -416.15026    73111.451   -17142.959    1269.5658   -18412.525    103.05355 
   35900    243.55014   -123.95778    73111.451   -17142.543    1289.3346   -18431.878    103.02919 
   35950    242.15995   -621.40915    73111.451   -17142.748     1281.975   -18424.723     103.2076 
   36000    240.09735   -397.88871    73111.451   -17142.403    1271.0559   -18413.458    103.29926 
   36050    240.17365   -31.513136    73111.451   -17142.755    1271.4598   -18414.215    103.64159 
   36100    246.27221   -306.14909    73111.451   -17143.211     1303.745   -18446.956    103.49099 
   36150    250.09326   -852.93334    73111.451   -17143.433    1323.9734   -18467.406    103.70489 
   36200    244.74933   -418.67871    73111.451   -17144.002     1295.683   -18439.685    103.97705 
   36250    240.04677   -140.12298    73111.451    -17142.42    1270.7881   -18413.208    103.93479 
   36300    243.47179   -514.10913    73111.451   -17143.213    1288.9199   -18432.133    104.08253 
   36350    250.11798   -252.93099    73111.451   -17144.018    1324.1043   -18468.122    104.27296 
   36400    240.86676    -14.99043    73111.451   -17142.611     1275.129    -18417.74    104.40064 
   36450    240.68272   -282.35383    73111.451   -17142.523    1274.1548   -18416.677    104.76522 
   36500    237.17038   -376.99916    73111.451   -17142.582    1255.5607   -18398.143    104.76451 
   36550    242.39852   -767.41039    73111.451    -17142.68     1283.238   -18425.919    104.90108 
   36600    241.68456    -964.4049    73111.451   -17142.982    1279.4584    -18422.44    105.32111 
   36650    241.34016   -235.26575    73111.451   -17142.599    1277.6352   -18420.234    105.21607 
   36700    244.49171   -660.07108    73111.451   -17142.837    1294.3192   -18437.156    105.13882 
   36750    241.04747   -993.41803    73111.451   -17142.792    1276.0857   -18418.878     105.2637 
   36800     240.5678   -411.24071    73111.451   -17143.162    1273.5464   -18416.708    105.15056 
   36850    239.27061   -850.07474    73111.451   -17141.875    1266.6791   -18408.554    105.48482 
   36900    240.25322    -216.3333    73111.451   -17142.693     1271.881   -18414.574    105.46832 
   36950     245.4284   -356.02377    73111.451   -17144.151     1299.278   -18443.429    105.86111 
[...]
  140850    242.00393   -602.42242    73291.008   -17074.346    1281.1491   -18355.495    356.49691 
  140900    237.85625   -390.30393     73218.53   -17078.182    1259.1916   -18337.373    356.33614 
  140950    250.01775   -551.59788    73166.844   -17072.719    1323.5736   -18396.293    356.64452 
  141000    245.19536   -91.648654    73143.259    -17076.86    1298.0443   -18374.904    357.26359 
  141050     244.0722   -812.33596    73174.671   -17072.558    1292.0984   -18364.656    357.28537 
  141100    245.46035   -1353.2736    73213.338   -17060.545    1299.4471   -18359.993     357.4017 
  141150    241.12601   -937.14878     73198.36   -17082.752    1276.5015   -18359.253    357.33506 
  141200    240.64981   -849.17775    73147.758   -17079.552    1273.9805   -18353.532    357.50917 
  141250    243.13674   -572.01236    73073.008   -17078.565    1287.1461   -18365.712    358.04127 
  141300    244.28509    163.63528    72978.563   -17079.971    1293.2254   -18373.196    358.13847 
  141350    236.81028   -747.23532    72953.053   -17097.806    1253.6544    -18351.46    357.86952 
  141400    240.88798   -563.72424    72996.049   -17090.736    1275.2414   -18365.977    357.59064 
  141450     244.5646    156.34681     73082.08   -17105.845    1294.7051    -18400.55      357.927 
  141500    235.63907   -973.59792    73191.475   -17102.262    1247.4541   -18349.716    358.32989 
  141550    243.71426     -1330.37    73261.008   -17104.808    1290.2035   -18395.012    358.65611 
  141600    242.49564   -1241.4961    73323.732    -17123.27    1283.7522   -18407.022    358.42711 
  141650    241.99076   -350.06024    73427.966   -17139.466    1281.0794   -18420.545    358.57884 
  141700    241.55836    -92.32531    73573.681    -17130.37    1278.7903    -18409.16    358.15052 
  141750    237.73881   -759.26388    73734.709    -17127.02    1258.5699    -18385.59    358.85542 
  141800    239.32742   -622.22983    73884.731   -17126.905    1266.9799   -18393.885    358.36178 
  141850    243.52726    -702.5465    74034.896   -17134.737    1289.2135   -18423.951    358.73911 
  141900    242.19103   -1097.6811    74146.694   -17146.246    1282.1396   -18428.386    359.23277 
  141950     244.9533   -1782.8089    74171.143   -17143.383    1296.7628   -18440.146    359.02162 
  142000    242.90442   -372.84678    74096.461   -17158.766    1285.9163   -18444.682    359.41062 
  142050    238.32326   -665.29941    73999.395   -17151.896    1261.6639    -18413.56    359.71407 
  142100    240.81326   -687.41698    73900.641   -17134.792    1274.8458   -18409.638    359.95396 
  142150    245.97792    -364.2947     73829.68   -17137.833    1302.1871    -18440.02    360.43123 
  142200    243.18557   -686.10728    73811.374   -17130.158    1287.4046   -18417.563    360.86655 
  142250    239.87747   -631.36634     73806.88   -17139.365    1269.8918   -18409.257    361.28921 
  142300    234.64308   -1083.4226    73741.092   -17138.207    1242.1814   -18380.389    361.55974 
  142350    240.17502   -436.35731    73596.701   -17144.745     1271.467   -18416.212    361.64796 
  142400    244.44599   -450.62829    73437.194   -17132.835    1294.0772   -18426.912    361.81312 
  142450    241.20684   -810.19729    73300.127   -17153.609    1276.9294   -18430.538    361.29616 
  142500    240.92688    -521.8419     73181.33   -17139.677    1275.4473   -18415.124    361.08196 
  142550    241.13948   -562.14149    73127.779   -17153.925    1276.5728   -18430.498    360.71848 
  142600    233.53989   -643.59775    73134.918    -17158.33    1236.3412   -18394.671    360.80887 
  142650    242.60642   -808.94576    73222.681   -17140.249    1284.3386   -18424.588     360.4186 
  142700     239.9088    -924.3297    73290.659   -17161.613    1270.0577   -18431.671    360.61561 
  142750    242.06272   -743.61821    73310.593   -17163.898    1281.4603   -18445.358    361.01453 
  142800    232.26807   -699.17051    73315.777   -17148.548    1229.6083   -18378.156    360.95063 
  142850    240.22288    -1177.627    73335.912   -17162.126    1271.7204   -18433.846    361.18024 
  142900    238.33986   -548.20264    73337.391   -17156.692    1261.7518   -18418.444    361.27209 
  142950    238.86658   -756.93261    73325.681   -17150.448    1264.5402   -18414.988    360.65487 
  143000    240.84338   -669.65027    73339.323   -17157.311    1275.0053   -18432.317     360.7818 
  143050    245.29579   -871.12366    73387.722   -17146.186     1298.576   -18444.762    360.97253 
  143100      245.962   -566.05493    73418.461    -17141.77    1302.1028   -18443.872    360.89582 
  143150     240.9585   -346.10257    73383.325   -17145.039    1275.6147   -18420.653    360.93259 
  143200    238.30256   -1139.5924     73394.06   -17136.187    1261.5544   -18397.741    361.15244 
  143250     242.9537   -660.71417    73442.662   -17135.738    1286.1771   -18421.915     361.1629 
  143300    241.96062   -595.59742    73543.925   -17139.088    1280.9198   -18420.008    361.42965 
  143350    242.94348   -1038.6924    73659.438   -17152.772     1286.123   -18438.895    361.39088 
  143400    242.44726   -794.18716     73794.04   -17136.008    1283.4961   -18419.504     361.9671 
  143450    244.17852     -456.976    73918.609   -17151.034    1292.6612   -18443.695    362.90597 
  143500    248.32035   -984.28127    74003.867   -17140.014    1314.5877   -18454.602    362.79161 
  143550    244.38854   -504.27248    74052.808   -17117.212    1293.7731   -18410.985    363.35269 
  143600    234.87474   -1325.2692    74062.544   -17136.466    1243.4078   -18379.874    363.53388 
  143650    246.38213   -1157.2859    74031.481    -17124.21    1304.3269   -18428.537    363.95701 
  143700    241.12006   -360.93206    73948.719   -17134.469      1276.47   -18410.939    364.55496 
  143750    242.72715   -567.53383    73876.023   -17119.344    1284.9778   -18404.322    364.29662 
  143800    243.17643   -449.77806    73838.407   -17128.517    1287.3562   -18415.873      364.467 
  143850    239.97558   -119.25862    73816.974   -17131.675    1270.4112   -18402.086    364.86975 
  143900    242.04412   -396.77834    73843.835   -17132.154    1281.3619   -18413.516    364.21274 
  143950     245.8079   -1109.9169    73870.901   -17122.883     1301.287    -18424.17    364.90501 
  144000    242.34057   -1336.5229    73895.256   -17122.199    1282.9313    -18405.13    364.65831 
  144050    244.48195   -1054.0532    73907.694   -17114.346    1294.2675   -18408.613    364.75151 
  144100     243.2278   -391.12324    73887.463   -17115.187    1287.6282   -18402.815    365.01534 
  144150    245.66647   -304.47438    73925.303   -17103.394    1300.5383   -18403.933    365.13203 
  144200    242.83139   -1071.9706    74005.708   -17106.859    1285.5296   -18392.388    365.29254 
  144250    251.04886    -240.3742    74100.898   -17094.425    1329.0323   -18423.457    364.62286 
  144300    251.10101   -589.10843    74232.501   -17093.654    1329.3083   -18422.962    364.87047 
  144350    255.04819    -1142.134    74360.516   -17109.571    1350.2044   -18459.776    365.04676 
  144400    241.24511   -1018.6865    74411.817   -17104.644     1277.132   -18381.776    365.06904 
  144450     241.3683   -941.95202    74410.127    -17118.65    1277.7841   -18396.434    365.47889 
  144500    243.86766   -919.51228    74373.333   -17113.206    1291.0155   -18404.221     365.3868 
  144550    244.02992   -1341.6992    74301.965   -17124.529    1291.8745   -18416.403    365.57825 
  144600    238.53667   -589.35848    74198.537   -17118.433    1262.7937   -18381.227    365.70813 
  144650    245.60512   -640.11936    74111.605   -17116.027    1300.2135    -18416.24     365.6671 
  144700     244.4693   -869.29893    74052.207   -17126.262    1294.2006   -18420.463    365.74314 
  144750    241.47435   -1127.7093    73971.365   -17125.101    1278.3455   -18403.447    365.78298 
  144800    244.16232   -1304.4102    73841.797   -17146.157    1292.5755   -18438.733    365.48695 
  144850    240.38792   -1058.7108    73647.033   -17142.833    1272.5941   -18415.428    366.05489 
  144900    241.14906   -207.93542    73490.935   -17157.451    1276.6235   -18434.074    366.45746 
  144950     241.7192   -7.7418371    73421.696    -17171.35    1279.6418   -18450.992    366.13001 
  145000    244.22098   -295.61446    73459.632   -17159.354     1292.886    -18452.24    366.39172 
  145050    238.56404   -436.52965    73575.442    -17149.87    1262.9386   -18412.809    366.01956 
  145100    242.80604   -374.58683    73704.759   -17144.265    1285.3954    -18429.66    366.69848 
  145150    240.67959   -801.78029    73840.663   -17151.119    1274.1382   -18425.257    366.24939 
  145200    237.34641   -759.58207    73958.661   -17158.308    1256.4926   -18414.801    367.00984 
  145250    240.07196    -834.5829    74071.896    -17152.45    1270.9214   -18423.371    367.06924 
  145300    238.60834   -905.69228    74125.711   -17162.666    1263.1731   -18425.839    367.01784 
  145350    236.47559    -765.9538    74140.281   -17157.755    1251.8825   -18409.638    367.56866 
  145400    239.88172   -922.87601    74141.558   -17158.444    1269.9143   -18428.359    367.55282 
  145450     241.1281   -1177.3325    74103.348   -17156.865    1276.5126   -18433.377    367.68331 
  145500    239.69796   -1443.9309    74016.532   -17165.628    1268.9415   -18434.569     367.8262 
  145550    253.02758   -31.741236    73895.523   -17179.863    1339.5074    -18519.37    367.73146 
  145600    232.60481    -580.1277    73845.604   -17167.615    1231.3909   -18399.006    367.04921 
  145650    237.69458   -693.74671    73828.771   -17165.088    1258.3357   -18423.424    367.44808 
  145700    242.47144   -878.02696    73814.459   -17169.071    1283.6241   -18452.695    367.59945 
  145750    240.22052   -1042.4963    73841.433   -17159.652    1271.7079    -18431.36    367.47628 
  145800    243.72423   -704.23181     73900.71   -17161.688    1290.2562   -18451.944    367.44937 
  145850    237.16831   -906.69947    73995.493   -17161.469    1255.5497   -18417.019    367.38687 
  145900    240.95265   -1161.3785    74047.748   -17160.207    1275.5837   -18435.791    367.36265 
  145950    236.15194   -494.38758    74085.327   -17160.155    1250.1692   -18410.325    367.90505 
  146000    235.88594   -529.68809    74104.129   -17156.388     1248.761   -18405.149    368.50413 
  146050    243.27491   -869.48173     74100.73   -17143.615    1287.8776   -18431.492    368.32743 
  146100    237.36658   -1265.1525    74059.436    -17139.25    1256.5994    -18395.85    368.20359 
  146150    242.86253   -1108.9986    73982.453   -17130.786    1285.6945    -18416.48    368.32512 
  146200    250.87896   -934.71862    73918.038   -17130.024    1328.1328   -18458.157    368.43239 
  146250    239.79024   -688.20911    73841.629   -17133.809      1269.43   -18403.239    368.72547 
  146300    244.96231   -368.32355    73772.817   -17136.671    1296.8105   -18433.481    368.60623 
  146350    244.57143   -815.52906    73738.069   -17143.822    1294.7412   -18438.563     369.1516 
  146400    236.00358   -397.33859    73728.144   -17146.081    1249.3837   -18395.465    369.01064 
  146450    243.22343   -542.18662    73725.295   -17130.712    1287.6051   -18418.317    369.03599 
  146500    242.41976   -851.53944    73766.497   -17134.511    1283.3505   -18417.861    368.87255 
  146550    239.79875   -1320.9831    73840.216   -17118.471    1269.4751   -18387.946    368.91569 
  146600    241.20941   -1317.9247    73850.813   -17122.887     1276.943    -18399.83    369.35874 
  146650    240.32334    -629.4639    73831.522   -17135.997    1272.2522    -18408.25     369.4367 
  146700     241.1786   -949.10133    73831.571   -17142.942    1276.7799   -18419.722    369.54068 
  146750    242.82543    100.09644    73813.129   -17132.378    1285.4981   -18417.876    369.75609 
  146800    239.19262   -836.50935    73802.216    -17139.63    1266.2663   -18405.897    370.03332 
  146850    236.82439    -581.1258    73811.871   -17136.649    1253.7291   -18390.378    369.75337 
  146900    245.65968   -596.91963    73841.272   -17120.367    1300.5024   -18420.869    369.77169 
  146950    244.45784   -166.89699    73861.701   -17128.442    1294.1399   -18422.582    369.54095 
  147000    238.72821   -1058.9178    73931.641   -17121.947    1263.8077   -18385.755    369.86955 
  147050    241.64248   -999.52306    74008.206   -17139.951    1279.2356   -18419.187    370.40021 
  147100    241.72999    -629.8329     74065.01   -17145.396    1279.6989   -18425.095     370.5713 
  147150    242.81094   -803.76353    74095.118   -17135.735    1285.4214   -18421.157     370.7194 
  147200    239.51268    -779.7021    74101.568   -17144.469    1267.9607    -18412.43    370.62185 
  147250    246.82751   -994.08773    74072.086   -17143.583    1306.6848   -18450.268    370.85106 
  147300    236.99074   -405.24469    74063.727   -17161.011    1254.6097   -18415.621    371.39088 
  147350    243.38294   -610.72444    74105.999   -17162.911    1288.4495    -18451.36    370.92818 
  147400    234.49679   -549.14361    74168.675   -17184.416    1241.4069   -18425.823    371.57514 
  147450    244.37227   -896.35329    74222.191   -17192.805    1293.6869   -18486.492    371.57782 
  147500    237.78276   -1049.3828     74267.81   -17169.164    1258.8026   -18427.967    371.52674 
  147550    241.57236   -800.84377    74225.436   -17167.842    1278.8644   -18446.707    371.74495 
  147600    236.31364   -598.07386    74097.375   -17150.663    1251.0252   -18401.688    371.50671 
  147650     238.5387   -419.86778    73942.838   -17144.147    1262.8044   -18406.952    371.32995 
  147700    236.76935    -1320.586    73802.435   -17143.769    1253.4377   -18397.207    371.16234 
  147750    239.32748   -641.26582    73648.433    -17154.65    1266.9802    -18421.63    371.49667 
  147800    235.03374    -370.6559    73506.337   -17173.377    1244.2495   -18417.627    371.66945 
  147850    231.97282   -674.05775    73479.564   -17180.224    1228.0452   -18408.269    371.41575 
  147900    239.59941   -322.12549    73520.152   -17183.891    1268.4198   -18452.311     371.9515 
  147950    243.95862   -1051.1971    73552.044   -17171.202    1291.4971   -18462.699    372.08748 
  148000    233.32132   -198.30704    73544.159   -17184.191    1235.1841   -18419.375    371.61532 
  148050    234.68667   -356.30352    73501.794   -17184.765    1242.4122   -18427.177    371.76528 
  148100    233.27579   -666.00298    73442.135   -17192.667     1234.943    -18427.61    372.29299 
  148150    246.56825   -820.13106    73375.782   -17199.043    1305.3122   -18504.356    372.33373 
  148200    233.38767   -962.70447    73316.074    -17202.93    1235.5353   -18438.465    372.14987 
  148250    240.72968   -629.04539     73264.16    -17201.22    1274.4033   -18475.623    372.13847 
  148300    238.25852    216.49206    73281.244   -17217.845    1261.3212   -18479.166    372.67378 
  148350    244.18975   -591.10235    73396.111   -17192.464    1292.7206   -18485.185    373.16388 
  148400    242.59557   -547.72382    73565.649   -17188.555    1284.2812   -18472.836     373.0413 
  148450    236.37192   -484.37033    73744.089   -17205.775    1251.3337   -18457.109    373.33518 
  148500    240.19173   -1204.7151    73863.912   -17194.921    1271.5555   -18466.477    373.30625 
  148550    241.11355   -1170.4169    73898.088   -17199.686    1276.4355   -18476.121    373.48911 
  148600    238.80464   -617.01588    73873.357   -17212.187    1264.2124   -18476.399    373.49691 
  148650    240.90852   -1363.9638    73850.356   -17208.786    1275.3501   -18484.136    373.63499 
  148700    236.96485   -126.36373    73825.005   -17204.988    1254.4726   -18459.461    373.25141 
  148750    232.47405   -375.37412    73851.741   -17211.423    1230.6987   -18442.121    373.52229 
  148800    240.15345   -548.97376    73926.159   -17201.236    1271.3528   -18472.589    373.56626 
  148850    238.73128   -970.36959    74041.154   -17195.378     1263.824   -18459.202    373.70416 
  148900    236.51358   -1093.2076    74176.284   -17190.085    1252.0837   -18442.169    374.32744 
  148950    242.21226   -1090.5077    74257.045   -17192.034     1282.252   -18474.286    373.90891 
  149000    234.61639   -972.28787    74236.914   -17188.099    1242.0401   -18430.139    373.58677 
  149050    243.93204   -887.76242    74110.058   -17192.571    1291.3564   -18483.928    373.99864 
  149100    237.80806   -571.92301    73950.483   -17204.639    1258.9365   -18463.576    373.99419 
  149150    237.45362   -512.82545    73810.233   -17206.177    1257.0602   -18463.237    373.82164 
  149200    239.75021   -994.45442     73713.91   -17212.452    1269.2181    -18481.67    374.32808 
  149250    238.55051   -566.61474    73660.671   -17227.626     1262.867   -18490.493    374.68087 
  149300    232.59592   -665.61096    73650.403   -17237.345    1231.3439   -18468.689     374.4654 
  149350     234.5367   -1114.1631      73618.9   -17234.483    1241.6182   -18476.101    374.07293 
  149400     243.4981   -528.42438    73552.856   -17237.407    1289.0591   -18526.466    374.07321 
  149450    233.83518   -591.71068     73498.51   -17237.255    1237.9044    -18475.16    374.39667 
  149500    233.93469   -586.46987    73467.754   -17234.214    1238.4312   -18472.645    375.22339 
  149550     235.3693    -938.8075    73457.763   -17221.669    1246.0259   -18467.695    375.99251 
  149600    241.20156   -1265.4982    73467.514   -17229.005    1276.9015   -18505.906    375.85939 
  149650    241.18148    -1060.949    73456.973    -17218.82    1276.7951   -18495.615    376.19131 
  149700    236.41455   -465.30717    73440.105   -17221.588    1251.5594   -18473.147    376.43344 
  149750    236.12672   -910.91191    73426.031   -17228.669    1250.0357   -18478.705    376.34467 
  149800    231.50984   -785.87454    73445.112   -17220.826    1225.5942    -18446.42    376.91075 
  149850    233.69924   -729.26307    73488.124   -17227.334    1237.1848   -18464.518    376.87276 
  149900    230.29465     -532.725    73541.684   -17218.905    1219.1612   -18438.066    377.54601 
  149950    238.76906   -511.22453    73598.058   -17205.127     1264.024   -18469.151     377.5399 
  150000    232.77767   -406.68957     73642.74   -17196.908    1232.3061   -18429.214    377.80664 
Loop time of 183.769 on 12 procs for 100000 steps with 4537 atoms

Performance: 470.156 ns/day, 0.051 hours/ns, 544.162 timesteps/s
97.4% CPU use with 12 MPI tasks x no OpenMP threads

MPI task timing breakdown:
Section |  min time  |  avg time  |  max time  |%varavg| %total
---------------------------------------------------------------
Pair    | 88.466     | 105.62     | 126.73     | 160.8 | 57.48
Neigh   | 5.9034     | 13.368     | 21.817     | 199.1 |  7.27
Comm    | 22.818     | 51.252     | 74.846     | 318.9 | 27.89
Output  | 0.55583    | 0.58273    | 0.68403    |   4.2 |  0.32
Modify  | 10.548     | 11.476     | 12.328     |  22.2 |  6.24
Other   |            | 1.468      |            |       |  0.80

Nlocal:        378.083 ave         584 max         204 min
Histogram: 6 0 0 0 0 0 0 0 2 4
Nghost:        1494.67 ave        1552 max        1460 min
Histogram: 2 3 2 0 0 3 0 0 1 1
Neighs:        0.00000 ave           0 max           0 min
Histogram: 12 0 0 0 0 0 0 0 0 0
FullNghs:      38663.2 ave       71601 max       10185 min
Histogram: 6 0 0 0 0 0 0 0 2 4

Total # of neighbors = 463958
Ave neighs/atom = 102.26097
Neighbor list builds = 11113
Dangerous builds = 0


# Create data file for import to other simulations
#
write_data data.${NAME}
write_data data.ML_graphite_m500atm_240K
System init for write_data ...


Total wall time: 0:04:30
