LAMMPS data file via write_data, version 29 Oct 2020, timestep = 100000

6736 atoms
2 atom types

0.29366811256469205 48.926331887434905 xlo xhi
0.29247265262734956 48.72716327778376 ylo yhi
0.3189652282244495 59.743034771776266 zlo zhi

Masses

1 18.015
2 12.01

Atoms # atomic

2034 1 6.676385950301133 2.071395068091256 3.2422347685608623 1 -2 1
3825 1 4.57403255908078 4.148216873035816 6.470503134492643 1 0 1
3665 1 1.1537596428838095 22.691421236142702 9.373011483195183 0 -1 0
2717 1 22.728864076389407 15.939582529473432 3.5443335941535454 1 0 1
1118 1 8.41898883087207 4.943967215126921 0.978294153119049 1 0 1
3680 1 2.927363822175183 8.004241705736781 4.638966947870927 1 1 0
2749 1 20.461479215939814 1.490959423930354 13.235542675644325 0 0 1
2621 1 23.974642910859238 16.62465791844501 11.138071136659798 0 1 0
125 1 12.614885345962652 1.426709897496879 1.7463559696285098 0 0 1
414 1 20.139453037589977 1.492659748351901 2.2067447966566673 0 0 0
3436 1 5.128721788350847 21.193442175454877 9.05447480232445 1 1 1
5879 1 1.1634326903346226 11.248739525871988 1.6330946894536253 0 1 1
372 1 21.392835492643222 23.241005548864585 17.817180940038313 0 -1 0
5382 1 7.4027707021838065 4.070011501608409 5.6664728365490475 1 1 0
4174 1 4.450623079920056 5.984841742490006 3.3097609317175616 2 1 1
891 1 8.007446242367376 8.594049992192115 2.002403242064835 -1 0 1
2736 1 10.583546105402489 8.27981219179924 3.965547137659114 -1 0 1
4470 1 14.360769323211294 5.362457755821751 4.288118494382575 1 2 1
50 1 11.966249304769752 9.182436332825482 1.6943990437672527 1 0 0
2849 1 18.264555634741477 16.367694441907318 0.7717245432954922 0 -1 1
3752 1 17.080061101438936 4.969721023251571 3.53056341869123 0 1 0
6090 1 17.97490612172324 6.306165693748495 1.3904854432643545 1 1 1
3666 1 17.708338044079298 2.302122060774077 2.9316740739326685 1 1 0
6093 1 21.2320854310779 6.895396433400819 5.1211720770640845 0 1 0
5392 1 20.725309852487694 5.8863231370123055 2.855434747520273 0 1 0
5124 1 21.301737775776115 3.677695883305378 0.9579688707505912 0 1 1
2168 1 3.7047035314154195 1.0350185848391384 9.847176699147818 0 1 0
6116 1 24.565163479153906 7.8858390515347425 14.779621638072927 -1 0 1
2667 1 4.226132738583875 10.076020637529934 2.7636515411650744 -1 0 1
881 1 1.708446268360641 13.266339296597446 3.392653907459619 2 0 1
3399 1 7.829431523921949 24.195964069095727 10.959586104394226 0 1 0
175 1 6.360299854195657 12.576991323193878 0.9576732909463048 -1 0 0
2154 1 4.774181491279686 10.11924418788913 5.860273062824875 -1 1 0
1916 1 11.083769787832294 11.807972284646251 1.8943046833792117 1 -1 0
1228 1 6.702996981525877 3.7552087504392575 14.88689834820993 0 0 1
5255 1 0.5643577510728498 5.844226007241516 3.738984371449603 1 3 0
2577 1 16.343644181065446 1.1847814976265187 13.798389901613648 0 1 1
2801 1 1.5297740345131077 20.774696986527655 13.67071368416818 1 -1 0
4604 1 16.439811963668195 7.36642344172505 19.1705477273265 1 -1 0
2798 1 23.19246143547069 9.785329998245041 2.5563335260178266 0 0 0
5435 1 24.453644308831027 8.788528098502615 4.575250027173631 0 0 0
83 1 16.756323250567352 15.046200116312807 18.708053607016534 0 0 0
2762 1 1.3351542781651378 17.319913743555027 4.654945682904499 0 1 1
6100 1 4.55698400285999 13.16147041775304 3.531956048375987 1 1 1
2455 1 4.6833182673655 15.330072291288612 4.867517347700192 0 0 0
6255 1 22.345353003142392 23.662215190521405 6.965460681174798 1 0 0
4379 1 7.198478902300106 11.088446637287829 3.7292869584572164 1 1 1
4217 1 10.22607009463581 16.23258889390308 3.156376359393124 0 -1 1
3785 1 1.637098043143467 22.01863298204342 4.50883865674456 0 0 0
94 1 12.934919771355863 15.716106912073132 2.828234538825097 -1 1 1
504 1 15.317022795951539 1.6102630103827842 1.160562023605804 0 1 0
3415 1 16.93828704899017 12.946225977983547 1.181434324065221 0 1 0
5142 1 14.839758624220478 11.641607529431905 3.0202405519677322 1 1 1
2859 1 20.34065347823368 12.917128090196009 3.8995385736515034 1 2 1
2615 1 22.619680660457945 12.730782636120242 6.385501412743332 0 0 0
72 1 9.258803853671825 1.536427611506733 2.739535432690923 -1 1 1
1146 1 3.1743376597523234 19.36136282374666 3.541152518517482 1 1 1
4607 1 12.230557573293561 21.53556863762792 0.8576418180377529 0 0 1
4194 1 5.683556047591475 17.60946407199404 3.3612372620124655 1 1 1
4224 1 7.878552042812536 19.5767930363913 3.499918310104224 1 0 1
6201 1 10.24239172118864 19.09047065871574 2.695277303869338 1 -1 1
776 1 13.272653049376508 19.741999153039593 2.7953552489998774 0 0 1
4358 1 24.181966131171404 22.191605924808293 9.92753696878661 -2 1 1
1854 1 16.916317391522607 20.482119713510965 5.012735551119364 0 0 0
4154 1 13.840160329455756 17.633692083293393 4.889221981520084 1 -1 0
6290 1 24.577244642330687 17.82528996061619 8.45015567344606 -1 1 1
2433 1 2.1311967478272766 7.052699931861429 1.234338189266428 2 1 0
5935 1 19.005152961864816 17.1417589273205 3.3494672816901008 0 1 1
5338 1 13.153501072417363 24.152233305168647 8.807778132425959 0 0 0
5258 1 2.3581541911085737 20.681724112868604 0.9722782184698072 1 0 0
5114 1 7.491309974318203 21.81597854248256 2.088053368618833 0 0 0
4417 1 5.258923016661302 23.414196047801102 2.676263864528643 -1 0 1
2560 1 0.6121059995996534 15.61812250670722 2.9645064848825435 -1 0 1
3670 1 10.233773829996814 9.874833354328025 19.20126919749339 -1 0 0
3539 1 15.67256877118347 24.42406416519583 3.06168497411766 0 -1 0
2811 1 15.011514149895651 22.470068656842905 1.1537172802265114 0 -1 0
1712 1 1.286997697798045 6.311071843986121 8.109520202156595 0 2 1
6286 1 18.314175347773745 24.215540978227068 4.2311942375513 0 -2 1
5103 1 18.30094463672086 21.87798806117566 1.9041487510823525 2 -2 0
930 1 20.555190127048583 22.040744796117153 3.4108255811419284 -1 0 1
3716 1 5.821271770821655 2.6345270641041387 8.781279969840353 -1 0 0
5424 1 2.950581678813545 4.176236889601369 3.989045453828994 2 2 0
4275 1 1.8205794956792627 2.571237717637855 8.15220350998105 1 0 1
243 1 7.176716632217239 5.795433413709783 8.454763574559934 1 0 0
1112 1 9.90601843478954 5.970931570076683 3.24322328583701 1 0 1
279 1 5.93288968020419 20.885412708833467 19.698363687775608 1 1 0
1010 1 9.482847019769919 4.3808483952615855 6.966215064385514 1 -1 0
1981 1 10.854510580967679 2.9510891582979797 9.0152454397396 0 2 0
6071 1 10.5455481873052 3.388984551708539 4.04622566105326 0 1 1
5470 1 13.150238711494586 2.8405617312700158 4.4129664651358675 1 0 0
2176 1 8.295696697254945 18.114756543474858 19.581067564597678 1 1 0
1929 1 20.180941712513086 3.421004905627175 7.558557462774358 0 0 0
459 1 19.106403901638075 0.697699917245128 6.631773899041971 -1 0 0
374 1 21.237806834486303 1.4065361093487407 4.751321521920371 0 1 0
2069 1 0.8305239529742626 2.7061316218584204 12.140126465352926 2 1 0
1942 1 7.3207258255528105 6.773263661011472 4.5226197202769525 0 2 0
748 1 17.20362423754779 24.472128143042486 17.81046666834775 0 -1 1
2791 1 4.080830007712146 6.624214758380221 6.960336599013278 0 1 1
1220 1 6.972283462091727 9.987492642063495 9.645851630885034 1 -1 0
3442 1 6.437633064385895 8.334569102692699 7.15414772260223 2 0 0
737 1 11.114683577322321 6.6651962172774 7.355838913855201 1 0 0
6156 1 15.168425476874255 8.83398111601543 3.8582858971695955 0 0 1
2611 1 12.641686305125878 7.885481730743343 5.71066791806547 0 1 1
3500 1 17.470574363129497 9.076356348344156 4.663958938061043 0 -1 0
6055 1 18.83620957412891 4.90048189692724 5.7219816897880325 0 -1 1
221 1 21.531439395682984 5.993398636833255 8.598135575820395 0 2 0
6281 1 22.405306737609944 3.6977713420101854 5.703449883565827 -1 1 1
1891 1 23.33098766938459 11.586600162107793 18.511844152306093 1 0 1
5177 1 1.7257001949504118 16.1653441376004 0.7132479768954352 -1 2 0
6134 1 14.995364131172668 21.860859811224586 17.75074270359524 -1 0 1
4257 1 1.6148716114705493 13.649961409707934 7.4513322981887224 0 1 1
81 1 8.796542936807382 9.46489283316861 5.86132381699182 0 0 0
222 1 7.1872180320974755 12.902313295555977 8.562843056827035 0 1 0
1219 1 18.88915918155346 8.99690286293877 1.8798640022176245 0 0 0
5831 1 16.968168391564408 11.50046363960474 5.775718537689946 1 0 1
1138 1 17.740466118701608 7.419302575289714 6.641151247881503 0 0 1
3591 1 19.983007928944744 7.975910751930207 8.081645605597906 1 0 0
2097 1 20.665390620680764 10.003851419782714 3.894129067330295 2 0 0
893 1 18.91389643928273 12.502478583031968 7.961921408886719 0 1 1
318 1 2.865079289582983 15.94091689894244 6.7452733696059175 0 0 0
3624 1 6.485677663859362 15.1910115539351 7.037721996860896 1 0 0
5316 1 8.738652816839124 14.887147825094678 5.0765187621567645 1 0 0
840 1 10.11540991562154 12.24029010004314 4.551045369993775 0 1 0
5942 1 11.349691759850513 13.115693205347432 7.114305191952226 0 1 1
3773 1 10.253681017661382 16.037799436853437 7.137956772686705 1 -2 0
2821 1 13.125163318013861 13.341736148007268 4.264218085777783 -1 -2 0
2062 1 16.727989675525805 16.078471147014305 4.65720528065322 -1 0 0
5499 1 17.6001518438081 13.40181895111732 4.06952985947934 -1 1 0
1765 1 14.518505262730349 12.212019281386683 6.422941639786964 0 0 0
4318 1 20.91417138565557 10.524886223996663 6.703693992846462 1 0 1
2118 1 22.06181183516036 16.592575585134917 6.445925989219163 0 0 0
5991 1 2.7352995938327562 19.604092303756353 8.016136391345952 1 0 1
2070 1 4.570474470101433 19.672612201339604 5.838608091591561 0 0 0
2751 1 8.104627772277968 20.14887656539778 6.03769502753902 0 0 1
2729 1 12.250189102710307 19.67162623082837 7.618387865251264 0 0 1
5904 1 11.105973386367125 18.021823659736985 5.600714212492466 0 -1 1
4326 1 16.172118406236443 18.379408784321015 6.593101951613213 2 0 1
4559 1 14.34989589381152 18.210847970424844 8.760643506234636 0 0 1
5198 1 19.17938846566079 17.253119707540822 6.894108748862377 -1 0 1
5960 1 16.222157723867763 20.145951561282438 2.2753093666714594 1 0 1
796 1 17.403625272673867 20.39192962764445 8.548349349640523 -1 -2 1
5385 1 22.999990951902618 19.1803108950976 5.303573190816015 1 0 0
5447 1 12.847049147253616 6.17907345797739 2.0120288820510335 -1 1 0
4151 1 10.369177614919336 14.470287530505304 19.087328843014927 1 0 1
1976 1 0.5564891939799876 13.154185591785568 16.396043157602236 1 3 0
4135 1 4.517606213680946 22.553026535079393 4.962648750527523 2 -1 1
210 1 8.928156367150176 23.4222902897135 8.493773917271461 1 0 0
4283 1 6.962411330132216 22.362657490049852 7.2238862877913705 0 0 1
3826 1 12.674136701234683 21.24696274254552 5.185713966660224 1 0 0
3630 1 11.380155310587945 2.1897801133547343 14.243159425806505 0 0 0
1901 1 1.5138888384748537 9.28944878094021 13.859056556836578 0 0 0
1819 1 15.11751864477819 22.468548653346915 5.536767165911787 0 0 0
5221 1 14.196990373392836 21.63495678265876 8.497213545520117 1 1 0
4314 1 18.750497532026234 22.64284494031742 6.420233679690576 -1 -1 1
5272 1 19.63067397732717 19.50864862975224 4.9340343541504765 1 0 0
5244 1 22.50423088560443 20.06797055284108 9.100491394475158 -1 0 1
5561 1 21.243916248378564 20.96578957803378 6.8696665509849995 1 0 0
4524 1 4.123666096449652 4.444686175687849 13.970719469636096 0 0 1
351 1 2.720988176799736 2.8544716695241106 1.6412225210339253 2 1 0
5434 1 3.5689559655286396 3.6473250501724315 11.284760966789554 0 0 0
1121 1 9.624785186350323 3.484513499048226 11.065879338925004 1 0 1
127 1 16.7334409483296 3.8852267299059444 8.088911036652139 0 1 0
864 1 23.77496382594203 15.471380739337878 16.69347461637658 0 2 1
5481 1 13.357749148380094 4.190640100307364 9.390354609061502 1 1 0
3593 1 14.451539659251571 5.757254476274944 7.157556449594171 0 0 0
3443 1 17.777634469478937 4.397620611954105 10.40722720769335 0 1 0
5426 1 22.804788474166287 3.0977906218812823 10.54439795923616 0 0 0
1133 1 0.7001370451785185 20.695637564583283 16.229535284986603 0 2 1
2022 1 19.82023627071522 2.401020484412819 10.40168406291899 0 -1 0
1714 1 13.82171741521629 17.433459092453827 0.9180091623057524 0 0 1
2647 1 0.9239253997534587 5.704893919443578 15.793929115577933 0 0 0
2473 1 2.5719365458397525 10.04599862357149 9.710073644075967 0 -1 1
1035 1 6.709586934985532 4.133672716966403 11.114564610033637 1 0 1
3397 1 4.268582111652659 8.283606564838147 10.115643640600187 0 -1 1
4437 1 7.204620102353241 7.099590761062419 11.351856726906592 1 0 1
268 1 9.985386953390194 6.565090948607018 11.545342198106896 1 1 0
167 1 12.11492383428777 6.766903167925026 10.081815198330414 1 0 0
6292 1 15.973834432690056 7.887807973744538 8.574200021176768 0 0 1
1849 1 14.453365451211097 7.965261364119668 10.849799392664723 1 1 0
1172 1 18.700924748441572 8.79576586705384 10.49093485285432 2 0 1
316 1 21.056364812297016 5.476191395440211 11.696551456463737 -1 1 0
2462 1 24.285542917895892 3.9288472610073857 8.036776815180572 1 1 0
5897 1 21.964316408929918 18.925882529108005 19.192390279082222 0 0 1
5898 1 3.71137555934585 13.868967540236937 13.29577497530818 2 1 0
4513 1 3.6350990673636714 11.69108203603133 7.8192520663227425 2 -1 0
3511 1 5.08227916109609 12.757803341227827 9.798065314515336 1 1 0
2857 1 9.854120260976417 8.919611874362923 8.52071905784697 2 -1 0
4126 1 11.712022544736874 10.872004754923173 8.897538693537243 -1 -1 1
2461 1 9.339773347359216 10.925391966661184 11.647598497746962 0 0 1
3463 1 13.993839743303624 9.762025829346342 7.249244700188624 2 0 0
6167 1 15.740026283121507 13.32322399039541 12.959559373932743 1 0 1
2087 1 15.316093733419322 12.199931182665583 10.727832694730823 -2 0 0
3582 1 17.781468071318574 11.251537207282823 10.185775195592727 0 2 0
5925 1 8.662805217404028 16.067688180068362 0.675710411274905 1 1 0
5811 1 23.559079683308394 7.729092013414908 9.9950895240425 1 1 1
5461 1 23.23413453245705 8.679554483767856 7.074171581054618 0 1 0
5229 1 21.67837599944345 8.12535163357562 1.0374813511886636 -1 -1 0
5504 1 24.590936508281928 0.7651116203175745 2.8897403631936864 0 0 0
5531 1 3.790361517706206 14.871105244708138 10.86381616217268 1 1 0
5981 1 7.82949788680839 15.203523956995472 11.781929891876466 0 -1 1
4334 1 9.081354735869544 14.81811712854072 9.464306450182823 1 -2 1
1754 1 11.384629381379012 13.322174863162166 10.82251873857415 1 -1 1
5986 1 12.78532060967997 15.65283424497326 8.814363260103036 0 0 1
4173 1 17.097904501419016 14.829455869972836 7.413239690357248 3 0 0
447 1 14.68361080309022 13.815327670499334 8.732926658960121 -1 2 0
44 1 20.12215751006745 14.527776823624503 9.88474785999586 2 -1 0
1080 1 19.748648230181463 17.015730961347643 11.367379621230569 0 1 0
4214 1 22.620543861247626 14.798769089032545 8.190143700316543 0 1 1
246 1 5.097433455756564 17.34198009960635 8.131247044073064 -1 -1 0
5328 1 5.698448825159029 16.751355041350717 11.176644369669681 1 0 0
1985 1 15.690718601934268 10.140656815386343 18.759986026042785 0 1 0
1954 1 8.267215776859544 17.89234720081885 7.564574962770204 0 -1 0
2573 1 6.668114260321933 21.36724789324544 12.662519270291144 1 -1 1
2716 1 6.252150625986541 19.547429227598222 10.856799624023846 1 0 0
4281 1 10.327502994493544 20.899819091849377 9.248977063133928 1 0 0
1232 1 8.631161653737209 19.259609850888975 9.740682832309197 -1 2 1
3489 1 15.020074725151131 18.587315243728924 11.111258780041709 0 0 0
904 1 17.391317898533856 17.81523284581808 12.47549442011338 0 -1 0
1088 1 19.583405501931523 18.87579836402642 9.251210711203747 0 0 0
6049 1 18.076836175530023 20.389842744993846 13.34538276141527 1 1 1
3597 1 24.431354217413194 20.412255919961567 1.8213085050816116 -1 0 1
4568 1 10.074388902411783 22.906861457623812 15.237207653190222 1 -1 1
3795 1 21.87178077361555 18.001334884504644 12.774407517929285 0 -1 0
3691 1 3.7843521182977637 23.264413562611907 10.157334392466526 1 0 0
3781 1 9.146628086497724 22.400830819597992 12.684658706383281 0 0 0
997 1 11.436975760179157 24.421504427763484 0.7778667025614334 1 -1 1
3516 1 13.201978698881485 23.590312222572425 11.599470359217408 2 0 0
755 1 15.617796609424769 21.553371366694915 10.829593607862847 0 -1 0
1773 1 8.904304436047319 1.3696466904279596 14.354948609836228 1 0 1
6298 1 18.01410926436946 22.861684776662525 11.007770948964875 -1 1 0
6185 1 20.633052966505957 21.193186977275204 11.370197322582225 0 1 1
3671 1 8.871126749516664 0.36645055180048713 17.324580270404905 0 0 0
507 1 17.507693019019907 23.892267385466976 14.99429878500084 0 -1 0
2007 1 20.04774600745163 9.587079879050318 19.126422681157408 0 1 0
5920 1 21.16482619514269 23.385839395869635 9.752348722108813 0 0 1
740 1 18.850825720715942 21.920491458572435 18.210612183483153 0 0 1
984 1 13.832942739846093 12.084013434663825 18.55140312839472 1 0 1
2883 1 2.3578734897783673 3.433653682441241 16.072179439758187 2 1 1
3369 1 15.548397638501168 1.291667110650425 8.684496396505667 1 1 1
302 1 11.710308515358227 6.180053970979364 15.26561174217296 2 0 1
2423 1 8.89890811508091 5.553528559586428 15.576406395046758 0 1 1
385 1 11.889046993665925 4.435610017528896 12.821072804904476 0 0 0
2150 1 15.28485255131503 3.4242740205278235 11.741138090425581 0 -1 0
2542 1 12.445250604025 0.8786920469907276 18.349883749576033 1 2 1
2476 1 9.034730771503796 24.00994823170951 3.3233578767247747 0 0 1
3418 1 18.40172431834404 2.6776609419302155 14.631463006399775 0 2 1
3782 1 22.112393854265967 2.3504451295476994 15.375016191013 0 1 0
2470 1 2.5299717291721326 6.116778866320989 10.657415373788226 0 1 1
5939 1 3.532814737717217 7.289945188267706 14.535322213737443 1 1 1
179 1 1.3727381146874416 1.1188574885003697 19.766700277818902 0 1 0
1913 1 5.733271844644167 8.409780158096385 13.176419637330142 2 1 0
5266 1 9.865798372899494 8.841013653557727 13.105697697604908 -1 -1 0
989 1 14.35778805438462 5.8247667298400705 12.747843603439057 0 1 1
3498 1 17.165999303500712 7.322537442108477 11.902794639731411 1 0 0
5903 1 14.749462936091179 7.16377699224668 15.14348976278178 1 1 0
2085 1 17.883731374966715 2.2600198749513543 17.42709470944152 1 2 0
5297 1 18.6937303420949 5.236208447942368 13.24160803098039 1 1 0
2678 1 23.15412984723175 6.956581781498565 12.63377735695322 -1 0 1
2454 1 15.222123087859545 7.49765946682599 1.4364449482568278 -1 1 1
48 1 19.466285589089793 5.831009828589722 15.843566905309983 -1 0 1
62 1 0.639271158975774 6.880557236630999 12.259272445421695 1 1 0
2731 1 2.181653795618549 11.281959583418406 12.156757138560033 1 2 0
992 1 7.447034062027916 12.67676482097199 12.949288466479436 0 0 1
4235 1 5.896322800534438 13.71654655372886 15.084633195015474 0 1 1
5352 1 4.70660360682392 11.858773285286535 16.482577994274504 0 0 0
2707 1 4.929625962038312 10.944159533334881 12.11404524914149 -1 1 1
3534 1 13.582689995082532 10.507854078024398 11.000421962365628 0 0 1
3536 1 12.805594953435707 10.681843632550915 13.624478338546368 1 1 1
5958 1 14.931583221080082 11.66955728592278 14.764101836675984 0 2 1
3801 1 16.027567276187956 8.981984550499478 13.885950117297412 1 0 0
2789 1 20.81279722561316 8.73977266630044 12.590148000270686 -1 1 1
1877 1 18.574687022620104 13.59684873410301 17.53478598196213 1 0 0
5407 1 20.36129615289425 12.632154153201737 11.722087928140006 2 0 0
2144 1 0.615768258022025 12.371476545388365 5.554490942542806 0 0 0
104 1 2.1914064249819623 17.886301927447835 13.768135853056636 1 0 1
2032 1 1.561895521686462 15.103526575628072 14.423868558854306 1 -1 0
1821 1 2.6488376549357437 15.589196556319813 17.07624009976976 0 -2 1
3672 1 5.433537260079186 16.111114520778308 16.241250290944926 2 0 0
4122 1 11.062031821466844 12.761094729736875 13.571560042096692 0 0 1
2760 1 8.781731182164133 12.688647413326052 16.073222550017096 1 -1 1
2478 1 15.08147549139036 15.684519590946552 12.880223851407358 0 0 1
1879 1 12.181477576354844 15.32557749150422 13.462700605816623 -1 0 0
6045 1 18.251745789512533 12.951320519666373 13.35567757072349 0 -1 1
4421 1 21.835439541518163 15.92673827434199 14.609972736330363 -1 0 1
2887 1 22.534059548308264 10.702453088520949 12.247085027516492 0 0 1
209 1 21.08701279010309 13.399043070477044 1.0688932803175946 -1 1 0
3613 1 4.703208510087849 17.08061481695397 13.826923348739205 1 -1 0
875 1 5.296914941546807 23.768765088655634 12.303041362790584 -1 1 1
2843 1 17.57866694815178 23.99266492503633 8.470240606546689 0 0 1
4165 1 6.832361608440173 19.65869463979183 15.09899679270833 1 0 1
1944 1 8.839980971845316 17.81558089304192 12.142868733203068 -1 1 0
2429 1 11.176477951140608 16.850800186046 11.457325067340502 0 0 0
4360 1 12.560194180380782 19.159470227890118 12.446534836214475 0 0 1
5324 1 11.445984352974978 21.665064095673397 11.618966463415166 0 1 1
1800 1 19.077416812511974 19.853494881438696 16.1983126455059 0 2 0
4487 1 22.771732894731638 21.09837924773917 13.200864390453614 2 -1 1
1995 1 3.0791824013751588 22.981170138706776 14.172233792923722 0 1 0
6137 1 14.215635749618638 1.2309398432976484 6.355754394396003 0 0 1
4397 1 24.1745288365105 5.8486023087307455 4.568026585468811 -1 0 1
5546 1 10.144697100768246 19.256999697131626 14.370638981832823 0 0 0
1 1 6.361292760849576 23.687056843462393 17.04819543001879 1 -1 0
2612 1 8.074894959656426 21.509437189275342 16.309854204421924 0 1 1
4429 1 23.057508514551 13.169976442255406 13.928160813655294 -1 0 0
943 1 8.314483192193714 0.6036894177069914 10.690520281733292 1 0 0
985 1 1.3161734512637608 20.27025156293241 20.06039827482102 3 0 1
3775 1 11.75623810714456 20.518662267243037 16.23064480668568 2 1 0
4614 1 15.999242156885316 21.516861124879615 13.873947431316525 0 0 1
4395 1 14.734242090415544 19.689269017834203 15.704924987436033 0 0 0
1055 1 14.557685900909854 24.06169199727746 14.427783151588011 0 0 1
432 1 0.7733106318115828 9.645906303929916 5.928077629463484 0 0 0
2170 1 6.089712189046991 1.5729286215366982 12.551390235980941 1 0 0
6159 1 20.750694289017574 22.28356289517105 14.969249931567845 1 0 1
5818 1 22.682181241538107 22.667437679630936 1.7107462473474206 -1 0 1
4384 1 3.740242884990154 3.648385943976627 18.642507038392026 1 1 1
4125 1 6.36529374749298 2.7397728435726147 17.711163695282014 2 0 1
928 1 21.514084690853732 12.653787708003081 16.485597015070915 0 0 1
3646 1 9.056394114575836 4.104077944328264 18.153502330627592 1 -1 0
3378 1 14.40653831715022 1.0484738817277552 16.015304804887812 2 0 1
4549 1 15.492280355460924 3.3635645750411647 17.42482290277157 1 1 0
5483 1 19.507311761468443 19.749222909284892 0.64346023120053 0 0 1
3863 1 23.32579640129638 21.448829488357763 17.809058136575366 -1 1 0
954 1 3.0043532291521777 6.179008421339142 18.67594852897655 0 0 1
306 1 20.78069056599012 3.846124104000303 17.139722796524172 0 2 0
5496 1 21.31384480526232 16.435375139983478 1.2617015427641611 1 0 0
76 1 1.9337550460121744 9.649874564034816 18.061158839645866 0 1 0
6039 1 6.727734276123111 8.620602996968906 19.754722896046317 0 1 1
1711 1 4.279398097742684 7.89710156023762 17.092970120625306 0 1 1
5321 1 7.936767022487681 7.972108468755252 14.793344806282784 0 -1 1
166 1 13.077554285185842 4.638835542699238 17.44143364794625 -1 0 0
1946 1 24.446734647283414 1.3535798106393124 5.532711209344325 -1 1 0
3376 1 16.37318388912515 5.8294797555095705 16.59515749402988 1 -1 0
3565 1 18.47943519972052 10.198601770949923 13.956164804568276 -1 1 0
503 1 22.78186912967615 5.250569896596763 18.017345293536433 -1 0 0
2515 1 20.725270661359424 8.056180575103927 15.55684482875041 1 -1 1
1853 1 19.578186095205886 2.8649458148277724 19.65439087782024 0 1 0
1069 1 2.1916079926782404 11.024115799792876 15.660082658846095 0 0 1
3431 1 21.985751939304027 19.32548113351188 2.4849800237166413 1 1 1
1726 1 4.687709961165447 12.909003267511372 18.903401591273454 0 1 0
3846 1 9.263721152581361 10.246631472120557 16.688052845509844 0 1 1
494 1 6.30890559179586 9.782190924306015 16.87522479300721 -2 0 1
2031 1 12.903618065511427 6.543550173449502 19.32802453204305 -1 0 0
476 1 11.616391374361482 8.90264316751671 15.445057359293637 1 -1 0
5108 1 13.38924085734424 8.680690835472568 17.610024608817447 0 1 1
4119 1 13.182984392480854 13.21650116281037 16.422538177757446 -1 1 1
2131 1 13.08964032948366 23.676029960311453 16.900704859913986 1 -1 0
5878 1 16.930010475744798 11.414255594222132 16.638105450404094 -1 0 1
5825 1 4.38353416960104 14.871815337308313 0.9764650029475364 0 2 1
129 1 19.924374812516835 10.411022676743173 16.42927719679247 -1 0 1
945 1 22.92396383044652 7.599688191591723 16.8396208153486 0 1 1
2633 1 6.0008974475633075 16.6905703758812 0.7149165355460398 -2 1 1
1812 1 3.116240513071235 18.60649465489415 18.51463064071417 -1 0 0
6017 1 2.048574517397917 13.25843131503856 19.12560368911047 0 1 1
5086 1 8.155752713553843 17.766649633486633 16.456074631350933 1 1 0
2112 1 8.661915994457708 21.05907529152105 18.874357592045282 1 -1 0
2425 1 5.837103561034575 15.274871264735612 19.516896079810273 0 -1 1
2894 1 13.369256497826761 17.607698846717966 17.237551045402334 0 1 1
281 1 10.529378853195647 14.537758848282795 16.507393279019734 2 0 0
492 1 2.4322211693236047 1.5004082460531498 5.664194204963298 0 -1 0
2126 1 15.117476367162281 15.135042342590726 16.388589319993162 0 1 0
313 1 17.16964567335556 16.866347708996866 15.216433835374257 0 1 0
1828 1 19.214304035677046 14.812334661575937 15.081770369452947 -1 -2 0
6126 1 20.857045670209896 17.946100140989603 16.771662630504924 -1 0 1
4138 1 19.114812043181423 7.062839143798555 18.662166715020827 1 0 1
6033 1 11.304983060028878 23.691326777947303 4.584673121103127 0 1 1
4420 1 3.528867808520597 22.845608261523665 16.87777457138997 1 0 1
2050 1 4.732865269405339 20.359320811310052 17.192825302943085 1 -1 0
5334 1 11.399674753220415 16.90425233763936 15.549667953472373 1 0 0
5946 1 11.358006651235598 19.443643397240766 18.591277677902553 1 0 1
3446 1 1.3751123119155222 15.559185390940309 10.363180195017307 0 1 1
2676 1 16.950094469636817 18.769976360583478 16.968918698619014 1 0 1
4594 1 22.89812356124908 19.708886554739514 15.615937017148148 0 0 0
444 1 10.966139090962088 2.7680355411142017 16.83704075623286 0 0 1
5109 1 14.065181656753031 0.8623743874400784 10.896948324488468 0 1 0
1209 1 5.273920385089849 5.1448204339041155 0.7938756987802063 -1 1 1
4581 1 0.781639532906696 17.679181690653635 8.49012852091636 1 1 1
226 1 1.1048716623447365 22.678022103720483 18.56943265899517 0 -1 1
801 1 24.134858463545466 3.136702288394183 1.4365967073717913 0 -1 1
3396 1 22.509750888749366 9.102366075026072 18.86249653212323 0 1 1
3492 1 17.43502473161217 17.367089456867685 19.3941166783824 0 0 0
4478 1 1.2315305059142794 18.135347350425373 16.48483229755689 0 1 0
2055 1 21.19834411558979 15.309737036016541 18.360321168910748 0 -1 0
3522 1 16.778623031852796 0.8425878511955743 5.065397187879392 -1 2 0
2501 1 9.039076586911438 13.166356480057033 0.8779445019077068 0 0 1
5203 1 23.511235933159533 0.5060136879205276 19.094246097000436 0 1 0
4543 1 7.418227858199879 1.2969640194622167 7.546177731175838 1 1 0
2837 1 8.94241373807285 1.632710445848369 19.926970939290882 0 1 0
4383 1 5.425231512471634 2.308476628274568 0.6280967118599052 1 1 1
4266 1 5.393992341232203 0.44972784403118793 5.757490350425312 1 2 1
6239 1 8.550416593105046 6.492986833521169 19.602631929479735 1 2 0
14 1 0.6458835359317148 6.293642512571859 19.26597308603092 1 1 0
5816 1 14.461287563321932 10.035092562522154 0.3904129909804076 0 0 1
2908 1 13.147970681290005 13.32451510030396 0.4715882654263013 0 -1 1
2631 1 24.551171384777643 10.15184290940226 10.533767511950428 -1 1 1
3662 1 0.5303407200854049 8.858060208762172 8.674370117395341 0 -1 0
49 1 24.60764985290798 11.081602507669851 7.983222548347918 0 1 1
6297 1 24.38880491124291 4.496050476397595 12.182889290178782 0 1 0
5361 1 0.8627663324105787 21.423245598701232 6.813500024828409 1 0 0
5515 1 22.352639278198666 0.33773738864485325 11.115423431669527 -1 -1 0
2083 1 11.438523273747158 0.40465041153600684 9.950751707845466 1 0 0
144 1 11.509444984794383 11.980789917560418 20.071642533564628 0 0 0
1016 1 13.326687708447826 16.65170443580789 19.933880189389438 0 -1 1
1184 1 4.310100736170723 7.638048132554831 20.622285739578807 -1 -1 1
3756 1 11.023096359840636 3.9540122357947793 20.61540000200236 0 0 0
253 1 18.476245558931332 24.017389882157797 22.4508842736598 0 0 0
481 1 5.453544255362763 23.13215789225645 21.24871881871079 0 1 0
265 1 6.658185721560625 2.4821942281970832 20.888616927886982 0 0 0
406 1 7.851594052403821 1.7661332688419713 23.614081323054286 0 0 0
5873 1 0.41944838746430513 21.887973565315306 22.8872965502947 0 0 1
1710 1 12.38765998213043 1.1602672084735373 23.45168938390317 1 0 0
85 1 12.860140921745192 2.0441711380008005 21.03231338551437 1 0 0
2812 1 17.287688536569114 2.570354781470247 21.53637256051542 0 2 1
2779 1 11.283368340861875 23.928895211412197 36.473006891017334 0 -1 0
829 1 20.808007834281014 24.079859851288088 23.299221339721992 1 -1 1
5372 1 22.35148384617549 3.4256636941695575 23.936961683349598 1 0 0
5855 1 8.628883409485471 1.9716295335842504 38.62591642070758 0 0 -1
2904 1 3.757555549215492 16.88846873355932 20.645199471824473 0 0 1
5543 1 3.0735421492873343 5.896529127451819 24.167829716540755 0 2 0
2723 1 1.4328522800593082 6.869699111532141 21.990903903239175 -1 1 1
6149 1 4.15253646002304 1.367338109478171 20.831626942531813 1 1 0
3478 1 5.43755140791189 7.028157608822992 23.066778414393934 0 -2 0
1079 1 16.72185701264578 22.07659693687813 36.70243615773607 1 0 0
917 1 7.083892546061957 5.100300041037728 21.44882822559572 -1 1 1
5151 1 10.761064167625308 5.4279836619367146 22.908397125924598 1 0 0
5089 1 11.86913616073746 8.20232882877782 22.963336392158524 1 2 1
3578 1 24.311511592387607 8.094585219227742 20.972292678385873 0 0 0
2921 1 11.653701596361415 21.180741254311346 20.870545195359632 1 0 0
3834 1 15.132219087618047 5.207366621350264 23.920071834255914 -1 0 0
420 1 17.726240876589785 4.288491440104597 23.782248585450944 1 0 0
27 1 20.168429093273055 5.543975612200511 20.36921614107742 0 0 0
5278 1 8.142943882125909 10.894741608295982 20.74485587142753 -2 0 0
2564 1 21.634913439230044 6.33464657468179 23.85305900889166 -1 1 0
5893 1 2.6354721554689093 9.630318450907428 21.38914572789361 1 -1 1
347 1 8.23856796233225 11.128593572983968 23.4971181065551 0 0 0