
# Create simulation box and atoms

read_data data.graphite_substrate
Reading data file ...
  orthogonal box = (0.0000000 0.0000000 -0.039866738) to (49.220000 49.019636 60.101867)
  2 by 2 by 3 MPI processor grid
  reading atoms ...
  6736 atoms
  reading velocities ...
  6736 velocities
  read_data CPU = 0.012 seconds
group water type 1
3976 atoms in group water
group graphite type 2
2760 atoms in group graphite

# Define potential

pair_style sw
pair_coeff * * mWC.sw mW C
Reading sw potential file mWC.sw with DATE: 2019-02-27


# Fix graphite atoms in place

fix 5 graphite setforce 0.0 0.0 0.0
velocity graphite set 0.0 0.0 0.0


# Equilibration of molecular water

# Add velocity/set timestep

velocity	    water create ${TEMP} ${SEED} rot yes dist gaussian
velocity	    water create 225 ${SEED} rot yes dist gaussian
velocity	    water create 225 25268 rot yes dist gaussian
timestep	    5.0

# Define output

compute			1 water msd
compute			3 water temp
thermo	    	50
thermo_style	custom step temp press vol etotal ke pe c_1[4] c_3

# Neighbor lists

neigh_modify    delay 0 every 1 check yes

# Set fixes

fix             1 water momentum 10 linear 1 1 1 rescale
fix             2 water nve
fix             3 water temp/csvr ${TEMP} ${TEMP} 500.0 ${SEED}
fix             3 water temp/csvr 225 ${TEMP} 500.0 ${SEED}
fix             3 water temp/csvr 225 225 500.0 ${SEED}
fix             3 water temp/csvr 225 225 500.0 25268
fix             4 water press/berendsen iso ${PRES} ${PRES} 1000.0 modulus 20000
fix             4 water press/berendsen iso 1 ${PRES} 1000.0 modulus 20000
fix             4 water press/berendsen iso 1 1 1000.0 modulus 20000

# Run 0.5 ns equilibration

dump		    1 all atom 2000 ${DIR}/eq.${NAME}-${TEMP}.dump
dump		    1 all atom 2000 test_2/eq.${NAME}-${TEMP}.dump
dump		    1 all atom 2000 test_2/eq.het_freeze_test-${TEMP}.dump
dump		    1 all atom 2000 test_2/eq.het_freeze_test-225.dump

reset_timestep  0

run	            100000
Neighbor list info ...
  update every 1 steps, delay 0 steps, check yes
  max neighbors/atom: 2000, page size: 100000
  master list distance cutoff = 7.76
  ghost atom cutoff = 7.76
  binsize = 3.88, bins = 13 13 16
  1 neighbor lists, perpetual/occasional/extra = 1 0 0
  (1) pair sw, perpetual
      attributes: full, newton on
      pair build: full/bin/atomonly
      stencil: full/bin/3d
      bin: standard
Per MPI rank memory allocation (min/avg/max) = 4.562 | 4.694 | 4.958 Mbytes
Step Temp Press Volume TotEng KinEng PotEng c_1[4] c_3 
       0     132.7951   -1147.9579    145106.76   -36018.829     2665.962   -38684.791            0          225 
      50     169.2246   -341.41649    143561.48   -36516.623    3397.3118   -39913.935   0.86316462    286.72395 
     100     165.7929   -464.33175    142626.75   -36881.031    3328.4177   -40209.449    1.8904809    280.90948 
     150    157.60694   -493.45165     141751.3   -37224.841    3164.0784   -40388.919    2.7509451    267.03968 
     200    156.77315   -291.98471    141138.36   -37514.787    3147.3394   -40662.126    3.5646485    265.62695 
     250    155.53177   -178.26927    140609.64   -37716.453    3122.4178   -40838.871    4.3391599    263.52364 
     300    149.32003   -266.27365    140172.36   -37900.242    2997.7124   -40897.954    5.0380669    252.99884 
     350    147.97324    -272.6871    139917.51   -38091.433    2970.6746   -41062.108    5.6181029    250.71693 
     400    144.77144   -167.32633     139534.5   -38259.939    2906.3961   -41166.335    6.2144154    245.29199 
     450    143.79013   -32.337051    139452.39   -38394.392    2886.6955   -41281.087    6.7238835    243.62931 
     500    143.21031   -132.74475     139332.6   -38523.408    2875.0551   -41398.463     7.300164    242.64689 
     550    138.36481    -156.9424    139080.03   -38602.024    2777.7782   -41379.803    7.8554246    234.43699 
     600    142.74921   -27.500397    138883.67   -38620.647    2865.7982   -41486.445    8.3484845    241.86564 
     650    137.39478   -52.695048    138891.06   -38685.155    2758.3041   -41443.459     8.882259    232.79342 
     700    139.65793    97.236886    138796.36    -38694.81    2803.7385   -41498.548    9.3764328    236.62796 
     750    137.65947   -47.260983    138873.25   -38738.181     2763.618   -41501.799    9.7803648     233.2419 
     800    137.13061   -269.69883    138567.42    -38807.44    2753.0007   -41560.441    10.306782    232.34583 
     850    136.81363   -94.917438    138381.87   -38877.099    2746.6369   -41623.736    10.717845    231.80875 
     900    133.62356    189.30303    138434.57   -38913.996    2682.5939    -41596.59    10.972653    226.40369 
     950    135.67459   -124.69224    138651.43   -38944.042      2723.77   -41667.812    11.254937    229.87884 
    1000    137.44696    90.562112    138756.45   -38898.342    2759.3515   -41657.694    11.554729    232.88182 
    1050    136.37187   -35.212068    138768.33   -38875.224    2737.7683   -41612.992    12.037949    231.06026 
    1100    137.34737   -120.87074     138837.5   -38922.373    2757.3523   -41679.725    12.412891     232.7131 
    1150    136.42746   -99.251192    138899.29   -38933.437    2738.8843   -41672.321    12.756006    231.15445 
    1200    137.94555   -62.139782    138848.87   -38976.555    2769.3612   -41745.916    13.107827    233.72662 
    1250    137.98881    -49.40771     138954.9   -39037.196    2770.2297   -41807.426    13.405942    233.79991 
    1300    138.16083    7.8154284    138997.55   -39052.406    2773.6831   -41826.089    13.698648    234.09137 
    1350    136.43859   -11.656144    139038.43   -39130.915    2739.1077   -41870.023    13.902936     231.1733 
    1400    136.69042   -2.4815761    139068.56   -39124.448    2744.1636   -41868.611    14.233773        231.6 
    1450       134.35    9.6838263    139130.48   -39128.704    2697.1777   -41825.882    14.560156    227.63452 
    1500    137.04738   -21.287375    139060.09    -39166.25    2751.3297   -41917.579    14.809853     232.2048 
    1550    133.11785   -83.878792    139023.59   -39214.954    2672.4414   -41887.395    15.071835    225.54684 
    1600    132.84983    15.104346    138973.08   -39237.399    2667.0608    -41904.46    15.274617    225.09274 
    1650     134.2535    83.412336    138977.74   -39266.024    2695.2404   -41961.264    15.547869    227.47102 
    1700    133.74273    97.623755    139002.13    -39267.74    2684.9864   -41952.726     15.88943     226.6056 
    1750    132.23285    56.508342     139040.6   -39243.988    2654.6744   -41898.663    16.115716    224.04736 
    1800    131.20444    111.13336    139052.14   -39275.689    2634.0282   -41909.717    16.329034    222.30488 
    1850    134.92582    56.521133    139114.59   -39285.248    2708.7378   -41993.986    16.436962    228.61016 
    1900    136.10559   -76.516153     139136.9   -39297.089    2732.4225   -42029.512    16.696193    230.60909 
    1950    132.96463    112.77673    139051.34   -39338.676    2669.3654   -42008.041    16.946154    225.28724 
    2000    131.97913    49.232658    139125.77   -39348.859    2649.5807    -41998.44    17.276187    223.61747 
    2050    131.77543    195.49308    139245.55   -39325.013    2645.4913   -41970.505    17.545355    223.27233 
    2100     133.9228   -60.183404    139369.61   -39303.008    2688.6014   -41991.609    17.798954    226.91071 
    2150    133.73147   -32.451293    139420.55   -39330.581    2684.7603   -42015.341    18.099689    226.58652 
    2200    133.91636    36.373187    139397.75   -39348.861    2688.4721   -42037.333    18.368863    226.89979 
    2250    135.63621   -157.26285    139356.26   -39336.273    2722.9994   -42059.273    18.637105    229.81381 
    2300    135.29716   -40.190577    139259.35   -39302.835    2716.1927   -42019.028    19.045364    229.23933 
    2350    133.66365      25.4923    139269.68   -39298.792    2683.3987   -41982.191    19.283459    226.47161 
    2400    134.49432 -0.032634133    139373.28   -39274.242    2700.0751   -41974.317    19.456077    227.87906 
    2450    136.67562    94.249412    139415.89   -39284.009    2743.8664   -42027.875    19.622477    231.57492 
    2500    134.79302    154.40418    139462.61   -39334.377    2706.0717   -42040.449    19.894271    228.38515 
    2550    132.96414    35.305682    139588.12    -39333.03    2669.3556   -42002.385    20.097508    225.28641 
    2600    131.59011   -17.255865    139473.98   -39373.249    2641.7708    -42015.02    20.526487    222.95833 
    2650    130.27493    134.26022    139519.33   -39408.509    2615.3677   -42023.877    20.824742    220.72998 
    2700     134.9453    150.71863    139614.04   -39320.963    2709.1288   -42030.092    21.059955    228.64317 
    2750    137.29532   -13.771547    139765.89   -39311.966    2756.3074   -42068.273    21.429864    232.62491 
    2800    130.49951     97.36532     139915.8   -39354.313    2619.8763    -41974.19    21.697204    221.11049 
    2850    132.78245   -100.23038    139920.39   -39311.815     2665.708   -41977.523     21.88417    224.97856 
    2900    132.42538   -55.828837    139856.82   -39290.792    2658.5396   -41949.331    22.106821    224.37357 
    2950    132.45467   -82.411664     139629.7   -39323.319    2659.1275   -41982.446    22.411904    224.42319 
    3000    134.77176    140.92133    139660.75   -39317.396    2705.6448   -42023.041    22.544869    228.34913 
    3050    132.77314   -94.579498    139664.18   -39307.777    2665.5211   -41973.298    22.934408    224.96279 
    3100    133.53342    45.432082    139637.36   -39280.174    2680.7842   -41960.958    23.324715    226.25096 
    3150    133.68873   -34.750796    139704.64   -39287.638    2683.9023    -41971.54    23.612826    226.51411 
    3200    131.34798   -5.2237716    139536.36   -39345.454    2636.9099   -41982.364    24.001891    222.54809 
    3250    134.17639   -78.026535     139627.9   -39310.785    2693.6924   -42004.478    24.214729    227.34037 
    3300    133.85574    11.502026    139639.72   -39326.952    2687.2552   -42014.208    24.430316    226.79709 
    3350     131.9493    217.01675    139736.67   -39282.606    2648.9819   -41931.588    24.708538    223.56693 
    3400    131.69251   -193.63604    139723.88   -39341.115    2643.8267   -41984.942    24.857379    223.13184 
    3450    134.42937    67.766519    139704.91   -39301.513    2698.7713   -42000.285    25.044087    227.76901 
    3500    133.15869    18.689202    139782.91   -39283.662    2673.2613   -41956.923    25.224298    225.61604 
    3550    130.63467   -89.905072    139667.18   -39355.788    2622.5896   -41978.377    25.595712    221.33949 
    3600    132.39851   -130.04248    139583.45   -39322.794    2658.0001   -41980.794    26.016593    224.32804 
    3650    134.55165   -61.057125    139533.82   -39305.173     2701.226   -42006.399    26.294884    227.97618 
    3700    132.45326    134.09776    139500.65   -39274.202    2659.0993   -41933.301    26.526157    224.42081 
    3750    136.52183   -89.338539    139364.94   -39227.838    2740.7789   -41968.617    26.850257    231.31435 
    3800    136.30757   -141.48762    139367.68   -39288.174    2736.4775   -42024.652    26.983455    230.95132 
    3850    133.86257    86.993124    139486.19   -39282.064    2687.3922   -41969.457    27.214406    226.80865 
    3900    133.23531    114.90316    139780.35   -39302.083    2674.7995   -41976.883    27.537779    225.74586 
    3950    134.43945     45.01961    139848.12   -39294.914    2698.9736   -41993.888    27.677411    227.78609 
    4000    135.06927   -133.68938     139817.7    -39291.69    2711.6177   -42003.308    27.927976    228.85322 
    4050    135.97194    82.511818    139847.21   -39250.604    2729.7395   -41980.343     28.18112    230.38265 
    4100    130.02013   -112.79132    139695.94   -39299.527    2610.2524    -41909.78    28.420537    220.29826 
    4150    132.96685   -148.07167    139633.25   -39341.971    2669.4099    -42011.38    28.741701    225.29099 
    4200    132.42201    133.24039    139627.74   -39362.141    2658.4719   -42020.613    29.064185    224.36785 
    4250    130.76717    86.284895    139556.46   -39412.213    2625.2498   -42037.463    29.535924      221.564 
    4300    129.48924    -2.647954    139535.62   -39396.606    2599.5943     -41996.2    29.819388    219.39875 
    4350    133.43877   -58.290855     139455.9   -39411.814    2678.8842   -42090.698    30.017428     226.0906 
    4400    131.39749    128.99835    139350.05   -39428.875     2637.904   -42066.778    30.401382    222.63198 
    4450    130.33364   -124.95665    139333.49   -39426.768    2616.5464   -42043.314    30.697259    220.82945 
    4500    131.01993   -73.125683    139135.19    -39443.44    2630.3241   -42073.764    30.848727    221.99226 
    4550    129.22034   -78.298779    139221.26   -39487.757    2594.1959   -42081.953    31.075496    218.94313 
    4600    130.84324    210.13015    139230.82   -39439.853    2626.7769    -42066.63    31.454431    221.69289 
    4650    133.02625    -118.2664    139200.59   -39434.679    2670.6024   -42105.282     31.60309    225.39164 
    4700    128.96775    29.791295    139138.12   -39474.016    2589.1251   -42063.142    31.851939    218.51517 
    4750    132.04692    5.1234737    139144.39   -39458.175    2650.9417   -42109.117    31.965003    223.73233 
    4800    130.16778    68.436856    139200.67   -39442.624    2613.2166    -42055.84    32.119245    220.54843 
    4850    131.18411    6.3766479    139153.19   -39392.183    2633.6201   -42025.803    32.329957    222.27043 
    4900    131.45352  -0.64062526    139176.52   -39399.556    2639.0287   -42038.584    32.538739     222.7269 
    4950    133.06053     188.4233    139472.79   -39373.113    2671.2907   -42044.404    32.762333    225.44973 
    5000    128.45591   -60.620612    139569.71   -39381.528    2578.8494   -41960.377    33.046338    217.64793 
    5050    133.92468   -65.272362    139616.68   -39375.012    2688.6392   -42063.651    33.114399    226.91389 
    5100    131.50815   -81.369478    139554.68   -39348.722    2640.1254   -41988.847    33.263421    222.81946 
    5150    130.86084   -4.9823993    139543.41   -39357.853    2627.1303   -41984.983    33.579502    221.72271 
    5200    133.95182 0.0088409424    139396.31   -39315.546     2689.184    -42004.73    33.788116    226.95987 
    5250    133.38204   -85.561225    139497.82   -39344.874    2677.7452    -42022.62    33.970655    225.99447 
    5300     132.6605   -29.649047    139483.52     -39322.5    2663.2598    -41985.76     34.10291    224.77194 
    5350    133.17496   -15.003711     139433.3   -39311.392    2673.5881    -41984.98    34.220734    225.64362 
    5400     130.8873   -134.31029    139327.43   -39357.595    2627.6615   -41985.256    34.451949    221.76754 
    5450    132.72662    133.71198    139540.16   -39311.448    2664.5873   -41976.035    34.573531    224.88398 
    5500    132.32605    40.739049    139766.54   -39325.254    2656.5455     -41981.8    34.552606    224.20527 
    5550    131.71898   -118.71149    139649.62   -39281.927    2644.3581   -41926.285    34.748315    223.17669 
    5600    132.64458    82.059375    139587.62   -39289.513    2662.9402   -41952.453    35.267873    224.74497 
    5650    133.24013   -141.24495    139476.41   -39332.114    2674.8963   -42007.011     35.59219    225.75403 
    5700    131.51983   -136.86061     139271.3   -39279.909    2640.3599   -41920.268    36.044532    222.83926 
    5750    133.98263   -141.87681    139085.28   -39274.844    2689.8026   -41964.646    36.419944    227.01208 
    5800    132.68448    104.29627    138989.13   -39294.227    2663.7413   -41957.968    36.571598    224.81258 
    5850    131.10182   -13.679454    139049.24   -39294.648     2631.968   -41926.617    36.775949      222.131 
    5900    132.11053   -1.9203121    139071.57   -39285.592    2652.2188   -41937.811    36.986175    223.84011 
    5950    133.19959    74.109852    139122.12   -39319.944    2674.0824   -41994.027    37.197893    225.68534 
    6000    131.62629    -172.7298    139129.52   -39345.308    2642.4972   -41987.805     37.50142    223.01964 
    6050    133.02111    150.06857    139120.41   -39354.468    2670.4993   -42024.968    37.773889    225.38294 
    6100    134.04735    20.953691    139306.09   -39334.093    2691.1018   -42025.195    38.236743    227.12173 
    6150    133.63727   -58.777081    139345.57   -39382.209    2682.8692   -42065.078    38.562814    226.42692 
    6200    135.46971    114.80971    139508.65   -39377.812    2719.6568   -42097.469     38.80958     229.5317 
    6250    135.21769    69.169711     139656.9   -39336.123    2714.5974    -42050.72    39.127236     229.1047 
    6300    135.43094   -73.541854    139715.54   -39330.663    2718.8785   -42049.542    39.413014    229.46601 
    6350    128.92807   -52.332839    139561.29   -39354.923    2588.3284   -41943.251    39.731801    218.44793 
    6400    131.86061    4.1404362    139561.96   -39416.426    2647.2014   -42063.627    40.042093    223.41666 
    6450    130.04437    50.131199    139445.24   -39436.733    2610.7389   -42047.472    40.544294    220.33932 
    6500    130.11367   -34.067327    139402.77   -39426.239    2612.1303   -42038.369    41.042682    220.45675 
    6550    131.95607   -119.81431     139352.8   -39424.765    2649.1179   -42073.883    41.321988     223.5784 
    6600    131.21848    210.78865    139296.97   -39360.498    2634.3101   -41994.808    41.557291    222.32867 
    6650    134.37536   -100.71492    139538.76   -39354.201     2697.687   -42051.887    41.870467     227.6775 
    6700     131.3119    103.57521    139577.89   -39340.687    2636.1855   -41976.872     42.11731    222.48695 
    6750    132.55565    3.0003227    139668.07   -39380.844    2661.1549   -42041.999    42.390125    224.59429 
    6800    132.86631    47.466473    139637.35   -39345.344    2667.3917   -42012.735    42.751539    225.12066 
    6850    134.56749   -57.632209    139561.56    -39306.21     2701.544   -42007.754    43.124625    228.00302 
    6900      136.912    129.89314    139698.53   -39222.616    2748.6119   -41971.228    43.320553    231.97543 
    6950    136.28227    60.642602    139841.51   -39252.659    2735.9695   -41988.628    43.738559    230.90844 
    7000    137.08291     2.809145    139835.65   -39215.709     2752.043   -41967.752     44.11375      232.265 
    7050    134.94187   -50.671128    139862.22   -39252.131      2709.06   -41961.191    44.547677    228.63735 
    7100    133.88041    -50.15551    139829.92   -39308.195    2687.7504   -41995.946    44.706131    226.83888 
    7150    134.90418    84.206125    140010.27   -39295.286    2708.3034    -42003.59    44.983752     228.5735 
    7200    132.94312   -50.286177     139931.3   -39310.853    2668.9336   -41979.787    45.245588     225.2508 
    7250     132.4426   -93.507142    139894.19   -39346.175    2658.8853    -42005.06    45.792628    224.40275 
    7300    131.97983    5.2141536    139819.32   -39361.988    2649.5948   -42011.583    46.200483    223.61865 
    7350     131.9404   -155.86987    139696.77   -39339.574    2648.8032   -41988.377    46.449966    223.55184 
    7400    130.68574    74.709065    139633.36   -39343.227     2623.615   -41966.842     46.68735    221.42603 
    7450    130.98695    68.030878    139765.04    -39375.08     2629.662   -42004.742     46.89113    221.93638 
    7500    134.24872    101.49793    139801.61   -39325.064    2695.1444   -42020.208    47.166987    227.46292 
    7550    136.00957    81.960393    139868.56   -39288.245    2730.4948    -42018.74    47.523977     230.4464 
    7600    131.79208   -108.07376     139898.9   -39304.311    2645.8256   -41950.136    47.990135    223.30055 
    7650    135.17513   -133.45787    139647.36   -39279.203    2713.7428   -41992.946     48.31601    229.03257 
    7700    133.81254    65.379688    139610.64   -39271.002    2686.3878    -41957.39    48.772366    226.72389 
    7750    135.49368   -78.142505     139636.1    -39211.86     2720.138   -41931.998    49.039791    229.57231 
    7800    134.51863   -6.8572543    139594.14   -39242.381    2700.5631   -41942.944    49.249379    227.92024 
    7850    135.54873     145.1171    139689.06   -39226.976    2721.2432   -41948.219    49.594447    229.66558 
    7900    132.89392   -10.947934    139689.44   -39314.645     2667.946   -41982.591      49.9936    225.16744 
    7950     131.5042   -13.529865    139574.43   -39309.611    2640.0461   -41949.657    50.383187    222.81277 
    8000    136.00267    44.760893    139624.84   -39276.198    2730.3563   -42006.555    50.545292    230.43471 
    8050    136.60553   -30.409193    139639.75   -39280.547    2742.4593   -42023.006    50.837375    231.45617 
    8100    131.96929   -5.1598012    139599.25   -39294.717    2649.3832     -41944.1    51.121798    223.60079 
    8150    133.70181     12.97636    139530.87   -39312.103    2684.1649   -41996.268     51.26134    226.53628 
    8200    132.07499    -26.69866    139458.65   -39329.096    2651.5052   -41980.602    51.290636    223.77989 
    8250    131.37954   -17.336481    139399.36   -39357.285    2637.5435   -41994.828    51.390882    222.60156 
    8300    134.69388    17.342405    139482.36   -39356.827    2704.0815   -42060.908    51.670923    228.21718 
    8350    132.67485   -29.900576     139395.5   -39346.503    2663.5478   -42010.051    51.894212    224.79625 
    8400    132.85365    56.949541    139406.15   -39367.719    2667.1374   -42034.857    52.027139     225.0992 
    8450    131.58178    6.6276469    139442.27   -39396.234    2641.6037   -42037.838     52.48135    222.94422 
    8500    134.20873    69.479497     139531.7   -39297.433    2694.3416   -41991.774    52.679141    227.39516 
    8550    136.84078   -31.202705    139560.13   -39272.255     2747.182   -42019.437    52.955819    231.85475 
    8600    136.60079    65.849891    139566.07   -39254.962     2742.364   -41997.326    53.147152    231.44812 
    8650    131.71285   -136.87429     139677.6   -39270.833    2644.2351   -41915.068    53.470886    223.16631 
    8700    131.54504    56.260638    139390.86   -39333.435     2640.866   -41974.301    53.567883    222.88197 
    8750    131.40481    8.0545091    139440.43   -39318.307    2638.0509   -41956.358     53.61342    222.64438 
    8800    134.06147   -28.894153    139467.89   -39329.219    2691.3854   -42020.605    54.008645    227.14566 
    8850     131.2139    127.31132    139321.69   -39370.867    2634.2181   -42005.085    54.282806     222.3209 
    8900    134.17969   -24.930369    139280.82   -39370.268    2693.7587   -42064.027    54.437831    227.34596 
    8950    132.80302   -4.0351493    139101.23    -39356.69    2666.1209   -42022.811    54.786425    225.01341 
    9000      131.352   -87.301664    139076.71   -39383.468    2636.9906   -42020.459      55.0724     222.5549 
    9050    133.37724    101.83683    139091.76   -39371.994    2677.6489   -42049.643    55.269031    225.98635 
    9100    130.57693     71.75828    139193.48   -39388.072    2621.4305   -42009.503    55.439634    221.24167 
    9150    131.86122    175.50034    139242.38   -39403.222    2647.2136   -42050.436    55.644161    223.41769 
    9200     129.9724   -2.2705582    139265.28   -39387.314    2609.2942   -41996.609    55.917902    220.21739 
    9250    131.64752   -114.17484    139231.47   -39387.681    2642.9234   -42030.604    56.096031    223.05561 
    9300    131.33554   -34.313901    139068.33   -39422.013    2636.6602   -42058.673    56.315993    222.52701 
    9350    131.18825   -67.588337    138938.31   -39422.026    2633.7032   -42055.729    56.686222    222.27744 
    9400    132.05444    94.190892    139019.67   -39422.967    2651.0928   -42074.059    56.945508    223.74508 
    9450    130.51331    206.13453    139061.44   -39420.003    2620.1533   -42040.156    57.126345    221.13387 
    9500    133.08546     50.32991    139163.95   -39348.314    2671.7911   -42020.105    57.485019    225.49196 
    9550     132.7445     31.08092    139157.46   -39384.882    2664.9461   -42049.828    57.769933    224.91426 
    9600    131.58986    87.329474    139098.53   -39401.805    2641.7659    -42043.57    57.947798    222.95791 
    9650    132.26625    183.25088    139280.77   -39377.355    2655.3449     -42032.7    58.359733    224.10395 
    9700    134.05042    126.59555    139497.89   -39320.973    2691.1634   -42012.136    58.794212    227.12694 
    9750    134.05008    88.109596    139584.65   -39332.415    2691.1566   -42023.572    59.170941    227.12636 
    9800    134.60619       69.946    139660.75   -39304.161    2702.3209   -42006.482    59.336745     228.0686 
    9850    133.86763   -212.68811    139586.63   -39294.087    2687.4938   -41981.581    59.681958    226.81723 
    9900    133.04087   -127.42145    139375.83   -39304.621    2670.8961   -41975.517    59.998535    225.41642 
    9950    136.13789    262.32143    139531.22   -39262.315    2733.0711   -41995.386    60.192529    230.66382 
   10000    132.39489    25.553034    139649.55   -39298.031    2657.9274   -41955.959    60.342975     224.3219 
   10050    134.26512    130.84694    139688.07   -39320.865    2695.4737   -42016.339      60.5766    227.49071 
   10100    132.03208   -45.536871    139703.93   -39394.622    2650.6437   -42045.266    60.916297    223.70718 
   10150    132.66935    63.104768    139668.91   -39407.118    2663.4375   -42070.556    61.165546    224.78694 
   10200    132.41566    -146.0349    139680.99   -39397.101    2658.3444   -42055.446    61.591777    224.35709 
   10250     130.4675   -161.78947    139416.46   -39435.485    2619.2338   -42054.719    61.956744    221.05626 
   10300    133.57905    -56.16929    139291.47   -39386.299    2681.7003   -42067.999    62.127277    226.32827 
   10350    131.10873    202.35664    139459.28   -39380.477    2632.1069   -42012.584     62.36883    222.14272 
   10400    132.63829   -47.299023    139259.82   -39391.546    2662.8139   -42054.359    62.513609    224.73431 
   10450     130.7671    30.234807     139364.7   -39363.975    2625.2483   -41989.223    62.737641    221.56388 
   10500      131.156   -100.98629    139355.03   -39363.416    2633.0558   -41996.472    62.918956     222.2228 
   10550    133.65048    168.40049    139390.21   -39374.824    2683.1344   -42057.958    63.118604    226.44931 
   10600    133.92798    161.40551    139542.38   -39392.675    2688.7054    -42081.38    63.221781    226.91949 
   10650    132.97138   -15.581177    139738.81   -39388.977    2669.5009   -42058.478    63.643229    225.29867 
   10700    131.61312   -66.802731    139678.36   -39409.481    2642.2328   -42051.713    64.126242    222.99732 
   10750    129.42001    135.12738    139735.25   -39390.392    2598.2045   -41988.597    64.520424    219.28145 
   10800    133.86515    113.27873    139810.13   -39424.016    2687.4441    -42111.46    64.705973    226.81303 
   10850    132.88432    123.35493    139932.77   -39509.746    2667.7532   -42177.499    64.949122    225.15118 
   10900    130.05886    104.29302    140051.73   -39510.025    2611.0299   -42121.054     65.17854    220.36388 
   10950    132.41413   -66.747863    139877.28   -39428.481    2658.3137   -42086.795    65.435694     224.3545 
   11000    133.85052    2.3863392    139775.04   -39361.074    2687.1503   -42048.225    65.778126    226.78824 
   11050    134.53287   -31.221729    139853.14   -39347.247     2700.849   -42048.096    66.043744    227.94437 
   11100     134.1406   -168.53686    139654.97   -39417.644    2692.9739   -42110.618    66.148083    227.27973 
   11150    135.69829   -70.448713    139597.75   -39423.981    2724.2458   -42148.227    66.261416      229.919 
   11200    131.77207    17.647601    139669.26   -39421.252    2645.4239   -42066.676     66.41993    223.26664 
   11250    131.09236    46.318577    139765.25   -39411.861    2631.7783   -42043.639    66.643358    222.11499 
   11300    134.51916   -15.553758    139739.86   -39429.776    2700.5738   -42130.349    66.764613    227.92114 
   11350    131.92394   -68.147413    139768.16   -39427.579    2648.4728   -42076.051     66.95078    223.52396 
   11400    132.93883   0.99080883    139621.44   -39397.904    2668.8476   -42066.751     67.23893    225.24353 
   11450    130.34776     124.3595    139795.78   -39421.358    2616.8298   -42038.188    67.389311    220.85338 
   11500    134.07857    -20.92762    139819.35   -39404.984    2691.7286   -42096.713    67.459341    227.17463 
   11550    131.76364   -3.3661158    139858.84    -39426.45    2645.2547   -42071.705    67.749262    223.25236 
   11600    133.26687   -69.273661    139963.34   -39395.196    2675.4332    -42070.63    68.397749    225.79934 
   11650    131.72768   -60.763295    139815.69   -39390.603    2644.5328   -42035.135    68.720463    223.19143 
   11700    132.56893    46.672737       139698   -39382.616    2661.4215   -42044.037    68.968471     224.6168 
   11750    134.74999   -2.6735247    139681.16   -39341.968    2705.2078   -42047.176    69.102419    228.31224 
   11800    135.23039   -30.459545    139710.59   -39339.108    2714.8523    -42053.96    69.442933    229.12621 
   11850    133.58734     184.9902    139796.37   -39350.161    2681.8667   -42032.027    69.674115    226.34232 
   11900    131.79048    4.1572933    139828.63   -39372.062    2645.7934   -42017.855    70.133229    223.29783 
   11950    130.52568     41.32587    139803.65   -39382.631    2620.4017   -42003.033    70.630103    221.15483 
   12000    129.72992   -84.990747    139779.64   -39424.077    2604.4263   -42028.504    71.080711    219.80655 
   12050     132.0587   -99.658716    139721.36   -39418.477    2651.1782   -42069.655    71.123985    223.75229 
   12100    132.91753   -135.14756    139666.18   -39420.675    2668.4199   -42089.095     71.20853    225.20744 
   12150    131.34526    24.598931    139740.01   -39418.265    2636.8553   -42055.121    71.234052    222.54347 
   12200    134.48514    58.621819    139841.85   -39408.412    2699.8909   -42108.303    71.265266    227.86351 
   12250    133.51286   -56.060436    139815.16   -39370.949    2680.3715   -42051.321    71.499599    226.21612 
   12300    134.07354    113.76694    139837.32   -39346.156    2691.6276   -42037.784    71.689185    227.16611 
   12350    135.08681   -37.997787    139896.44   -39349.723    2711.9699   -42061.692    71.765256    228.88294 
   12400    133.38206   -54.727291    139784.35   -39377.652    2677.7456   -42055.398    72.385357     225.9945 
   12450    132.76369    69.763922    139782.04   -39352.007    2665.3314   -42017.339    72.878795    224.94678 
   12500    132.37731    117.76661    139798.97   -39390.621    2657.5746   -42048.195    72.968686    224.29213 
   12550     135.3483   -37.575263    139814.85    -39398.98    2717.2193   -42116.199    73.296755    229.32598 
   12600    132.06749    89.937857    139848.36   -39418.353    2651.3548   -42069.708    73.467121    223.76719 
   12650    133.19789   -35.396894    139934.49   -39345.871    2674.0483   -42019.919    73.822044    225.68246 
   12700    131.59489   -102.12879    139946.93   -39400.353    2641.8669    -42042.22    74.121865    222.96644 
   12750    133.31998   -98.901114    139747.08   -39399.454    2676.4994   -42075.954    74.246343    225.88933 
   12800    132.97593    169.34688    139721.79   -39394.373    2669.5922   -42063.965    74.495832    225.30638 
   12850    131.78893    141.28378    139743.68   -39422.833    2645.7624   -42068.596    74.829115    223.29521 
   12900    131.51318   -93.991197    139553.87   -39474.427    2640.2265   -42114.653    75.196751    222.82799 
   12950    132.57897   -11.717456    139537.86   -39454.549     2661.623   -42116.172    75.628557     224.6338 
   13000    132.92098   -76.579741     139542.5   -39454.982    2668.4892   -42123.471     75.98583    225.21329 
   13050    130.95581    189.87655    139604.35   -39394.078    2629.0368   -42023.115    76.375101    221.88362 
   13100    131.44209    143.45654    139726.53   -39361.554    2638.7993   -42000.354    76.921756    222.70754 
   13150    132.55269    6.9750608    139649.07   -39407.083    2661.0955   -42068.178      77.2892    224.58928 
   13200    132.10428    41.792886    139712.44   -39428.101    2652.0933   -42080.194     77.48024    223.82952 
   13250    133.06556   -10.470572    139737.91   -39376.538    2671.3916    -42047.93    77.698405    225.45824 
   13300    130.32651   -18.133729    139754.15   -39395.574    2616.4031   -42011.977    77.985743    220.81736 
   13350    131.91688   -41.188393    139702.56   -39413.076    2648.3311   -42061.407    78.479085      223.512 
   13400    133.84727    174.59816    139840.62   -39357.917    2687.0851   -42045.002    79.064111    226.78273 
   13450     132.7023   -123.02642       139851   -39327.445    2664.0989   -41991.544     79.58443    224.84276 
   13500    131.61152    81.845196    139735.86   -39396.884    2642.2008   -42039.085    79.704629    222.99462 
   13550    131.83705    154.43495    139624.42   -39404.957    2646.7285   -42051.685    80.102976    223.37675 
   13600    132.51855     201.6965    139804.78   -39408.975      2660.41   -42069.385      80.5682    224.53143 
   13650    131.47322   -175.16352    139795.79    -39408.87    2639.4242   -42048.294    80.870041    222.76028 
   13700    131.47504   -69.983316     139580.5   -39416.693    2639.4607   -42056.154    81.059853    222.76336 
   13750    132.84505    32.988075    139599.41   -39355.587    2666.9648   -42022.552    81.509156    225.08463 
   13800    133.77537   -13.091617    139671.32   -39308.898    2685.6417    -41994.54    81.821742    226.66092 
   13850    128.63104   -190.54992    139687.72   -39346.127    2582.3653   -41928.492     82.21104    217.94467 
   13900    134.15722   -115.23573     139567.9   -39416.244    2693.3077   -42109.551    82.476367     227.3079 
   13950     129.9279    101.63172    139597.62   -39409.013    2608.4009   -42017.414    82.787376      220.142 
   14000    131.40102    47.233372    139438.24   -39393.918    2637.9748   -42031.893      83.0054    222.63796 
   14050      132.276     111.0397    139478.76   -39356.366    2655.5407   -42011.907    83.351773    224.12047 
   14100    133.32808   -15.871297    139540.68    -39357.33    2676.6619   -42033.992    83.442386    225.90304 
   14150    133.46593    28.749618    139637.28    -39355.61    2679.4294    -42035.04    83.546288    226.13662 
   14200    133.01946    16.646315    139663.55   -39358.058    2670.4663   -42028.524     83.55215    225.38015 
   14250    130.76736    143.52352    139735.94   -39380.665    2625.2536   -42005.919    83.755245    221.56432 
   14300    132.28194   -81.536419    139781.92   -39434.018      2655.66   -42089.678    83.970561    224.13054 
   14350    133.72251    72.648821    139895.94   -39398.842    2684.5804   -42083.423    84.065446    226.57134 
   14400    135.58188    44.683242    139959.12   -39406.414    2721.9087   -42128.323    84.252644    229.72175 
   14450    132.20841    33.441818    139897.79   -39446.954    2654.1838   -42101.137    84.630342    224.00595 
   14500    135.79216    28.943292    139970.54   -39370.354    2726.1302   -42096.485    84.820708    230.07803 
   14550    133.54954     80.36801    140002.95   -39361.361     2681.108   -42042.469    84.869765    226.27828 
   14600     132.7506   -90.765474    140011.22    -39418.21    2665.0687   -42083.278    85.158686    224.92461 
   14650    133.31928    21.580133    140075.19   -39482.166    2676.4853   -42158.651    85.448542    225.88814 
   14700     130.5821   -28.447498    140017.86   -39435.782    2621.5343   -42057.317    85.633616    221.25042 
   14750    129.98589   -35.434447    140014.09   -39433.871     2609.565   -42043.436    85.758253    220.24025 
   14800    132.11218    38.859609    139947.28   -39499.031    2652.2519   -42151.283    86.061882     223.8429 
   14850     132.0332   -14.768549    140014.62   -39465.128    2650.6663   -42115.795    86.324186    223.70908 
   14900    131.23256    47.910241    140042.58   -39429.145    2634.5928   -42063.738    86.553748    222.35253 
   14950    132.60539    73.346827    140025.27   -39367.485    2662.1534   -42029.639    86.867081    224.67857 
   15000    131.33479    15.523405    140202.59   -39378.928    2636.6452   -42015.573     86.98784    222.52574 
   15050    132.68535   -154.82447    140006.77   -39416.662    2663.7587   -42080.421    87.144836    224.81405 
   15100    131.90469    71.588321    139673.94   -39396.294    2648.0863    -42044.38    87.697204    223.49134 
   15150    131.20487   -31.444708    139755.05   -39404.465    2634.0369   -42038.502    87.984246    222.30561 
   15200    131.22145    203.86227    139783.51   -39431.068    2634.3697   -42065.437    88.219026    222.33369 
   15250    131.38767   -178.72177    139827.71   -39467.358    2637.7068   -42105.065    88.358839    222.61534 
   15300    134.62565   -35.237068    139767.09   -39434.454    2702.7118   -42137.166    88.617782    228.10158 
   15350    132.53785    91.878486    139790.82   -39407.717    2660.7975   -42068.515    88.809837    224.56413 
   15400    130.63631   -27.139099    139743.76   -39392.642    2622.6226   -42015.265    89.036752    221.34227 
   15450    131.98322    8.2953178    139686.31   -39435.105    2649.6628   -42084.768    89.197203    223.62439 
   15500    133.97568   -10.336736    139870.48   -39425.536    2689.6629   -42115.199    89.191969     227.0003 
   15550    130.59716   -60.860893    139818.72   -39426.672    2621.8366   -42048.508    89.495143    221.27594 
   15600    131.40616    67.937877    139720.67   -39443.573    2638.0779   -42081.651    89.656378    222.64666 
   15650    135.24779    79.460883    139898.43   -39398.879    2715.2015    -42114.08    89.788011    229.15569 
   15700     131.5182   -47.590966    139956.03   -39417.084    2640.3273   -42057.412     90.12102     222.8365 
   15750    133.63968     90.31367    139921.28   -39380.209    2682.9175   -42063.127    90.400643      226.431 
   15800    133.92599    41.181265    139956.96   -39347.539    2688.6655   -42036.204    90.636647    226.91612 
   15850    136.72532    55.119783    140252.59   -39296.626    2744.8641   -42041.491    90.768235    231.65912 
   15900     136.0816    5.8809275    140383.19    -39330.27    2731.9409   -42062.211    90.978889    230.56844 
   15950    135.99946   -185.71747    140392.01   -39297.522     2730.292   -42027.814    91.287985    230.42928 
   16000    140.18871    45.281957    140332.58   -39297.065    2814.3943   -42111.459    91.367216    237.52729 
   16050     134.6055   -80.619371     140212.7   -39354.396    2702.3071   -42056.703    91.669898    228.06743 
   16100    133.74551   -2.2658729    140147.53   -39349.239    2685.0422   -42034.281    91.788461    226.61032 
   16150     131.6855   -94.125555    140094.84    -39347.48    2643.6859   -41991.165    92.014961    223.11996 
   16200    132.43386    159.44915    140227.37   -39310.354    2658.7099   -41969.064    92.081246    224.38794 
   16250    134.83004   -68.240882    140321.23   -39347.426     2706.815   -42054.241    92.393231    228.44789 
   16300    133.13962   -104.64752    140197.26   -39361.971    2672.8784    -42034.85    92.676156    225.58373 
   16350    134.71495   -60.779616    140128.05   -39323.273    2704.5045   -42027.777    92.776781    228.25289 
   16400    132.09506   -98.165993    139956.58   -39419.516    2651.9081   -42071.424     93.01269    223.81389 
   16450    131.56437    31.006286    139938.92    -39424.14    2641.2542   -42065.395    93.267647    222.91473 
   16500    131.64936   -35.445829    139959.51   -39447.171    2642.9603   -42090.132    93.505107    223.05872 
   16550    132.02186   -49.226539    139782.52   -39414.446    2650.4386   -42064.885    93.580004    223.68987 
   16600    133.43739    -45.80867    139872.44   -39419.655    2678.8565   -42098.511    93.634865    226.08826 
   16650    131.34569   -80.794339    139794.11   -39455.292     2636.864   -42092.156    93.756038     222.5442 
   16700    131.97335   -70.868322    139661.53   -39439.385    2649.4648   -42088.849    94.095956    223.60768 
   16750    132.01739   -64.551579    139533.93   -39432.946    2650.3488   -42083.295    94.246699    223.68229 
   16800    130.44753   -89.858112    139568.33   -39438.096    2618.8328   -42056.929    94.736441    221.02242 
   16850    132.26728    39.871251     139585.4   -39372.654    2655.3656    -42028.02    95.123566    224.10569 
   16900      130.821     27.87956     139654.4    -39397.93    2626.3304    -42024.26    95.245196     221.6552 
   16950    131.24244    -98.31403    139690.68   -39434.341    2634.7912   -42069.132    95.643433    222.36927 
   17000    131.21217   -39.977508    139631.96   -39422.969    2634.1835   -42057.152    95.873157    222.31798 
   17050    133.06292   -105.27196    139520.59   -39421.777    2671.3387   -42093.116    96.336193    225.45378 
   17100    133.14685   -49.656622    139509.45   -39421.244    2673.0236   -42094.268    96.215705    225.59598 
   17150    133.98034    37.318089    139525.05   -39453.112    2689.7566   -42142.868    96.224422     227.0082 
   17200    129.71541   -51.468206    139638.24   -39496.099    2604.1349   -42100.234    96.186201    219.78196 
   17250     129.4772   -136.16523    139512.47    -39461.06    2599.3526   -42060.413    96.488462    219.37835 
   17300    132.41714    2.7042617    139371.09   -39482.648    2658.3742   -42141.022    96.815899    224.35961 
   17350     130.7796   -2.1773044    139425.79   -39455.105    2625.4994   -42080.604    96.973084    221.58506 
   17400    131.31704    154.47317    139350.21    -39388.93    2636.2887   -42025.219    97.129725    222.49566 
   17450    132.54362    4.8558639    139443.91   -39441.111    2660.9133   -42102.025    97.555003     224.5739 
   17500    132.31174   -74.227801    139298.37   -39421.068    2656.2581   -42077.326     97.77883    224.18102 
   17550    131.78342    25.168355    139181.68   -39417.564    2645.6518   -42063.215    98.302377    223.28588 
   17600    134.22005   -1.8184259    139069.49   -39385.312    2694.5689   -42079.881    98.503867    227.41435 
   17650    133.07559    40.814971    139145.34   -39395.649     2671.593   -42067.242    98.742035    225.47524 
   17700    133.40956     11.58819    139259.73   -39412.982    2678.2978   -42091.279    99.174893    226.04111 
   17750    132.02777   -38.167775    139235.07   -39439.126    2650.5573   -42089.684    99.478301    223.69989 
   17800    136.05385    116.80337       139399   -39411.722    2731.3838   -42143.105    99.633562    230.52143 
   17850    133.69716   -94.648566    139484.59   -39416.136    2684.0714   -42100.207    99.665251    226.52839 
   17900    134.28066      164.263    139533.85   -39431.133    2695.7856   -42126.919    99.959084    227.51704 
   17950    134.15334    146.36755    139753.97    -39423.16    2693.2296    -42116.39    100.06383    227.30131 
   18000    133.96425    159.88215    139758.54   -39427.169    2689.4335   -42116.603    100.18845    226.98093 
   18050    130.59707    -5.869039     139730.6   -39497.134    2621.8349   -42118.968    100.26334    221.27579 
   18100    130.70302   -31.816349    139636.78    -39501.48    2623.9619   -42125.442    100.17807    221.45531 
   18150     129.6262   -1.1855472    139691.76    -39512.44    2602.3439   -42114.784     100.4972     219.6308 
   18200     130.6712     100.9043    139721.53   -39496.032    2623.3232   -42119.355    100.62138     221.4014 
   18250    131.89012    114.70705    139856.15   -39413.335    2647.7938   -42061.129    100.79237    223.46666 
   18300    133.07798   -20.911969    139922.36   -39392.498     2671.641   -42064.139    100.94338    225.47929 
   18350    133.06549    82.268122    140070.34   -39384.613    2671.3902   -42056.003    101.10649    225.45812 
   18400    132.44409    46.812488    140091.71    -39359.22    2658.9153   -42018.136    101.28384    224.40528 
   18450    134.50773   -81.652779    139989.88   -39336.494    2700.3443   -42036.839    101.65215    227.90177 
   18500    131.37659   -72.463458    139838.71       -39332    2637.4843   -41969.484     101.6652    222.59656 
   18550     134.0414    58.050332    139787.02    -39386.54    2690.9825   -42077.522    101.66704    227.11166 
   18600    137.91137    44.576411    139896.72   -39357.046     2768.675   -42125.721    101.84755     233.6687 
   18650    134.45469    4.0213687    139926.03   -39352.636    2699.2795   -42051.915    102.26298    227.81191 
   18700    134.96879   -31.761163     139866.1   -39343.319    2709.6005    -42052.92    102.49426    228.68297 
   18750    134.24229    108.64431    139839.43   -39374.394    2695.0154   -42069.409    102.49734    227.45203 
   18800    134.68814   -74.704328    139955.86   -39358.641    2703.9661   -42062.607    102.91669    228.20745 
   18850    134.99227    96.413257    139841.71   -39378.382    2710.0719   -42088.454    103.02824    228.72276 
   18900    133.71512   -94.529141    139889.81   -39412.732    2684.4321   -42097.164    103.14897    226.55883 
   18950    133.52448   -39.044966    139978.72   -39431.725    2680.6048   -42112.329    103.38466    226.23581 
   19000    130.66557   -38.976391     139896.6   -39403.636    2623.2101   -42026.847    103.63394    221.39185 
   19050     134.6552   -49.476897    139634.84   -39452.512    2703.3049   -42155.817    103.57279    228.15164 
   19100    130.75851    -76.01861    139581.05   -39495.226    2625.0758   -42120.302    103.71917    221.54932 
   19150    133.10127  -0.63830141    139594.83     -39465.3    2672.1085   -42137.408    103.67585    225.51875 
   19200    131.21896   -57.269844    139563.21   -39495.379    2634.3199   -42129.699    104.17982    222.32949 
   19250    133.01973   -80.330384    139564.58   -39455.799    2670.4716    -42126.27    104.47438     225.3806 
   19300    132.29462   -95.560592    139438.42    -39458.33    2655.9145   -42114.244    104.62666    224.15202 
   19350     128.6723   -26.820779    139419.32   -39465.398    2583.1937   -42048.592    105.01021    218.01458 
   19400    134.08177    156.09732    139436.54   -39431.928    2691.7928   -42123.721    105.32795    227.18005 
   19450    131.83116   -50.703435     139541.4   -39446.239    2646.6102   -42092.849    105.73085    223.36676 
   19500    130.78332   -45.479707    139549.41   -39463.172    2625.5739   -42088.746     105.8219    221.59135 
   19550    131.33349    2.8265665    139538.08   -39441.061     2636.619    -42077.68    106.01232    222.52353 
   19600     128.9586    35.279313    139414.12   -39507.122    2588.9413   -42096.063       106.61    218.49966 
   19650    132.17032   -95.011684    139358.77   -39456.075    2653.4191   -42109.494    106.70616    223.94141 
   19700    132.12108   -190.62717    139256.94   -39472.564    2652.4305   -42124.995    106.84066    223.85798 
   19750     129.1832    3.4942869    139226.97   -39520.947    2593.4503   -42114.397    107.13436    218.88021 
   19800    127.22227    191.77787    139222.43   -39498.331    2554.0832   -42052.414     107.5032    215.55773 
   19850    131.01072   -65.559976    139470.26   -39471.199    2630.1392   -42101.338    107.83981    221.97665 
   19900    134.04293   -72.346559    139418.38   -39433.611    2691.0132   -42124.624    107.82814    227.11426 
   19950     133.6928   -66.521003     139414.3   -39354.027    2683.9839   -42038.011    107.88441      226.521 
   20000    130.21502    75.083046       139524   -39307.062     2614.165   -41921.227    108.23706    220.62847 
   20050    134.23646    75.203961    139556.32   -39310.171    2694.8983   -42005.069    108.26512    227.44215 
   20100    132.45441   -51.388785    139552.26   -39334.577    2659.1223   -41993.699    108.34324    224.42275 
   20150    133.14806      -37.805    139429.75   -39346.871     2673.048   -42019.919    108.59479    225.59804 
   20200    131.99182   -81.165195     139297.5   -39373.233    2649.8355   -42023.068    108.74739    223.63897 
   20250    133.74038    53.200671    139272.81   -39392.878    2684.9393   -42077.818     108.9101    226.60163 
   20300    132.63012   -92.913467    139259.52   -39409.065    2662.6499   -42071.715    109.22204    224.72047 
   20350    131.64407    29.131313    139319.61   -39414.218    2642.8542   -42057.072    109.65055    223.04977 
   20400    132.32298    19.356747    139397.74   -39390.317    2656.4838   -42046.801    109.80362    224.20006 
   20450    135.91989    53.894419    139609.71   -39380.081    2728.6944   -42108.776    110.04797    230.29445 
   20500    131.22665   -167.06954    139528.71   -39372.544    2634.4741   -42007.018    110.11262    222.34251 
   20550    131.92173    24.766539    139435.97   -39349.533    2648.4283   -41997.962    110.35822    223.52021 
   20600    136.33048   -45.146747    139523.83    -39349.81    2736.9373   -42086.747    110.77068    230.99013 
   20650     133.8333   -87.490935    139615.31   -39329.553    2686.8047   -42016.357     111.1578    226.75907 
   20700    133.76327   -9.4140508    139521.58   -39306.142    2685.3987   -41991.541    111.47028    226.64041 
   20750    132.54325   -15.191497    139636.67   -39253.981    2660.9058   -41914.887    111.81761    224.57328 
   20800    132.59992   -1.3724356    139492.11   -39282.451    2662.0435   -41944.495    111.84444    224.66929 
   20850    133.89239   -120.93748     139603.4   -39321.992    2687.9909   -42009.983    112.04299    226.85918 
   20900    133.34974    104.48925    139497.61   -39344.514    2677.0968   -42021.611    112.25419    225.93975 
   20950    132.25588   -47.702415    139568.32   -39392.753    2655.1368    -42047.89    112.63533    224.08638 
   21000    132.39028    -78.37234    139480.17   -39415.538     2657.835   -42073.373    113.23401     224.3141 
   21050    130.45023   -80.747637    139346.24   -39441.903     2618.887    -42060.79    113.53714      221.027 
   21100    131.14978    22.522408    139440.62   -39421.368     2632.931   -42054.299    113.83417    222.21227 
   21150    133.20996    153.41085    139474.83   -39392.266    2674.2906   -42066.557    114.20745    225.70291 
   21200    132.53373   -100.11024    139599.91   -39434.824    2660.7148   -42095.538     114.4759    224.55715 
   21250    133.09334    86.550208    139501.77   -39383.009    2671.9494   -42054.958    114.85865    225.50532 
   21300    132.60089   -7.7223785    139546.04   -39404.731    2662.0631   -42066.794    115.06587    224.67094 
   21350    134.58152    82.922749    139671.26   -39342.108    2701.8258   -42043.934    115.09333    228.02681 
   21400    135.66062   -99.646501    139761.15    -39323.82    2723.4895    -42047.31    115.40673    229.85517 
   21450    132.57809    72.853683    139737.07    -39359.99    2661.6054   -42021.595    115.87327    224.63232 
   21500     129.4601    94.869726    139665.97   -39412.433    2599.0094   -42011.442    116.06562    219.34938 
   21550    131.18779    69.718149    139638.13   -39327.284    2633.6941   -41960.978    116.41865    222.27668 
   21600    134.35732   -4.8352678    139689.27   -39312.855    2697.3247   -42010.179    116.58295    227.64693 
   21650    134.77292    -110.2073    139749.19   -39325.053    2705.6682   -42030.722     116.6883     228.3511 
   21700    134.58378   -139.46443    139675.26   -39338.357    2701.8711   -42040.228    116.89601    228.03063 
   21750    136.78887    112.96124    139681.84   -39286.207      2746.14   -42032.347    117.26745    231.76681 
   21800    132.65243   -104.07324    139740.74   -39239.489    2663.0978   -41902.587    117.60802    224.75827 
   21850     137.1917   -90.456737    139627.79   -39212.252    2754.2272   -41966.479    117.75086    232.44934 
   21900    138.43219   -105.49596    139575.91   -39216.787    2779.1309   -41995.918    117.85445    234.55115 
   21950    132.75866 -0.038795147     139653.2   -39240.656    2665.2305   -41905.887    117.99542    224.93826 
   22000    133.43362    31.951837    139738.64   -39268.362    2678.7807   -41947.143    118.12913    226.08186 
   22050    134.53456    5.8852536    139655.84   -39278.901    2700.8829   -41979.784    118.38056    227.94723 
   22100    134.66033    44.640491    139672.92   -39288.869    2703.4079   -41992.277    118.95289    228.16033 
   22150    130.60843     35.07741    139661.19   -39325.007    2622.0629    -41947.07    119.45994    221.29504 
   22200    135.46985    17.269265    139626.24   -39312.007    2719.6595   -42031.667    119.84244    229.53193 
   22250    137.11825    62.448874    139538.58   -39260.683    2752.7524   -42013.435     120.0594    232.32488 
   22300    133.73158   -59.126537    139533.39   -39252.418    2684.7625   -41937.181    120.64773    226.58671 
   22350    134.01163    225.81033    139628.49   -39267.752    2690.3847   -41958.137    120.81414    227.06121 
   22400    135.13898    -74.32133    139703.68   -39256.603    2713.0171    -41969.62    121.22191    228.97132 
   22450    134.85949    -77.84277    139530.17    -39270.53    2707.4061   -41977.936    121.41027    228.49777 
   22500    133.93596   -50.863682    139414.61   -39330.026    2688.8657   -42018.892    121.54747    226.93301 
   22550    132.18901   -44.558781    139441.15   -39370.881    2653.7943   -42024.675    121.83294    223.97308 
   22600    134.17664   0.49345106    139421.99   -39357.265    2693.6975   -42050.962    122.01922     227.3408 
   22650     131.2479    113.70224    139556.08   -39367.765    2634.9008   -42002.666    122.34016    222.37852 
   22700    132.40228    8.6065472    139626.84   -39367.182    2658.0759   -42025.258    122.49113    224.33444 
   22750     133.7229   -27.734956    139498.46    -39345.72    2684.5882   -42030.308    122.84458      226.572 
   22800    133.58291   -54.750056    139613.52   -39350.487    2681.7779   -42032.265    123.10982    226.33482 
   22850    134.91192   -152.59769    139600.41   -39392.419    2708.4588   -42100.877    123.45745    228.58662 
   22900    131.61344    137.76073    139587.47   -39446.175    2642.2392   -42088.414    123.67239    222.99786 
   22950    128.33757   -68.787297    139569.67   -39420.805    2576.4737   -41997.279    123.94788    217.44743 
   23000    133.45023   -24.907939     139558.3   -39440.738    2679.1142   -42119.852    124.40831    226.11001 
   23050    134.05013   -183.61592    139378.41    -39431.09    2691.1576   -42122.248    124.86202    227.12645 
   23100    132.54169   -147.31868     139359.6   -39418.537    2660.8745   -42079.411    125.16072    224.57063 
   23150    128.77003    23.908449    139331.28   -39444.086    2585.1558   -42029.242    125.96997    218.18017 
   23200    131.03586     62.33923    139430.81   -39388.059     2630.644   -42018.703    126.28518    222.01926 
   23250    129.61747    43.875543    139419.15    -39397.26    2602.1686   -41999.429    126.80295    219.61601 
   23300     131.2418     26.08335    139360.24   -39368.896    2634.7783   -42003.675    127.06849    222.36818 
   23350    130.08488   -19.468681    139314.68   -39380.244    2611.5523   -41991.796    127.78698    220.40797 
   23400    130.94932    13.364634    139314.51   -39401.325    2628.9066   -42030.231    128.02563    221.87262 
   23450    131.02481   -84.374422    139199.68   -39376.513    2630.4221   -42006.935    128.37267    222.00053 
   23500    132.60202    159.48049    139291.47   -39335.323    2662.0857   -41997.408    128.36496    224.67285 
   23550    133.92232   -222.21294    139323.04   -39338.714    2688.5919   -42027.306    129.08513     226.9099 
   23600    133.40963    2.2529602    139124.67   -39333.743    2678.2991   -42012.043    129.43055    226.04122 
   23650    133.98896   -16.455585    139034.64   -39328.606    2689.9296   -42018.536    129.90382     227.0228 
   23700    133.27128    33.178476    139145.38   -39289.177    2675.5216   -41964.699    130.33086    225.80681 
   23750    133.15381   -64.427516    139141.53   -39326.096    2673.1634    -41999.26    130.59827    225.60778 
   23800    129.79372    67.205164    139138.96   -39350.967    2605.7071   -41956.674    130.94094    219.91465 
   23850    133.79703    13.202505    139188.53   -39334.952    2686.0766   -42021.028    130.96312    226.69762 
   23900    133.65771   -68.497353    139219.26    -39297.53    2683.2795   -41980.809    131.56643    226.46155 
   23950    133.64184     187.5274    139369.64   -39285.464    2682.9609   -41968.425    132.00704    226.43467 
   24000    131.18152    59.068411    139311.02   -39283.123    2633.5681   -41916.691    132.50435    222.26604 
   24050    133.06214    2.4508656    139281.33   -39275.311     2671.323   -41946.634    132.81966    225.45245 
   24100    133.42583    49.643012     139139.4   -39272.054    2678.6244   -41950.678    133.07356    226.06868 
   24150    132.19947    20.510929    139141.32   -39296.665    2654.0043   -41950.669    133.60807    223.99081 
   24200    134.81365   -59.354875    139248.68   -39280.791     2706.486   -41987.277    134.21289    228.42012 
   24250    133.44701    82.730916    139322.62   -39287.759    2679.0496   -41966.809    134.80638    226.10456 
   24300    135.70857    1.6519717       139320   -39257.616    2724.4521   -41982.069     135.1511    229.93641 
   24350    130.93389    33.055109    139243.31   -39275.211    2628.5968   -41903.808     135.4041    221.84648 
   24400    134.03097    42.090978    139267.92   -39254.473    2690.7731   -41945.247    135.61999    227.09399 
   24450    134.15699   -152.43926    139294.96   -39223.308     2693.303   -41916.611    135.93267    227.30751 
   24500    134.36098   -84.596772    139030.55   -39243.877    2697.3981   -41941.275    136.30922    227.65313 
   24550    134.82326    11.295663    139138.58    -39241.14    2706.6789   -41947.819    136.44344    228.43639 
   24600    135.78201   -23.446906    139145.58   -39284.232    2725.9265   -42010.159    136.55978    230.06085 
   24650     133.7416    185.14655    139108.71   -39273.069    2684.9636   -41958.033    136.66991    226.60369 
   24700    132.55796   -70.044227    139232.11   -39332.329    2661.2012   -41993.531    136.67838     224.5982 
   24750    132.04959    40.329753    139279.67   -39311.968    2650.9954   -41962.963    136.72595    223.73686 
   24800    130.55713   -40.494462    139244.09   -39299.303     2621.033   -41920.336    137.15339    221.20811 
   24850    135.05962    140.43749    139217.24   -39271.497    2711.4239   -41982.921    137.47868    228.83686 
   24900    135.78774    210.75812     139319.2   -39249.462    2726.0414   -41975.503    137.81982    230.07054 
   24950    134.35417    -9.262251    139453.37   -39222.087    2697.2616   -41919.348    138.27026     227.6416 
   25000    133.45932   -118.67303    139465.48   -39250.249    2679.2968   -41929.546    138.51016    226.12542 
   25050    135.37481   -2.8465275    139394.15   -39224.833    2717.7517   -41942.585    138.77981    229.37091 
   25100    134.35916   -76.239875    139468.37   -39225.048    2697.3617   -41922.409    139.28998    227.65005 
   25150    135.58715   -77.135208    139343.68   -39219.587    2722.0144   -41941.601    139.48928    229.73068 
   25200    132.82246   -17.663155    139166.56   -39238.117    2666.5112   -41904.629    139.49061    225.04635 
   25250    134.04548   -77.697412    139237.63   -39252.664    2691.0643   -41943.728    139.67429    227.11857 
   25300    136.88291   -149.96791    139177.26   -39282.056    2748.0278   -42030.084    139.62475    231.92613 
   25350    134.40133    134.43367    139275.77   -39336.949    2698.2082   -42035.157    139.61589    227.72149 
   25400    132.60549    26.604865    139279.07   -39318.549    2662.1555   -41980.705    139.92523    224.67874 
   25450    135.84727   -8.0009713    139375.93   -39323.167    2727.2366   -42050.404    139.80416    230.17141 
   25500    134.90138    134.09525    139683.15   -39247.672    2708.2471   -41955.919     140.0105    228.56875 
   25550    134.67864   -81.155432    139702.82   -39252.678    2703.7754   -41956.454    140.20044    228.19135 
   25600    130.11158    40.938373    139719.79    -39309.85    2612.0883   -41921.938    140.14362    220.45321 
   25650    133.68988    96.953421     139751.9   -39323.637    2683.9254   -42007.562     140.4083    226.51606 
   25700    131.20018    -127.3101    139848.78   -39365.506    2633.9428   -41999.449    140.54105    222.29767 
   25750    134.17102     34.39013    139763.28   -39364.538    2693.5846   -42058.123    140.67603    227.33127 
   25800     129.8262   -106.52169    139705.15   -39358.516     2606.359   -41964.875    140.86136    219.96967 
   25850    130.86009   -14.000372    139578.69   -39388.226    2627.1153   -42015.342    140.72711    221.72144 
   25900    132.56355    72.094435    139626.14   -39370.933    2661.3134   -42032.246    140.71467    224.60767 
   25950    133.41669    27.341811     139554.4   -39345.584    2678.4408   -42024.025    140.54891    226.05318 
   26000    133.00465    43.524915    139642.57   -39382.388    2670.1688   -42052.557    140.98252    225.35504 
   26050     132.4593   -38.824755    139601.57   -39404.282    2659.2205   -42063.502    141.29354    224.43104 
   26100    133.21375   0.66639081    139696.11   -39442.239    2674.3668   -42116.606    141.48769    225.70934 
   26150    130.68806   -1.4689737    139610.63   -39466.106    2623.6615   -42089.768    141.64025    221.42995 
   26200    134.08485   -37.425913    139672.14   -39466.186    2691.8547   -42158.041    141.47406    227.18528 
   26250    131.91454    -81.88538    139722.82   -39507.479     2648.284   -42155.763    141.33278    223.50803 
   26300    128.82586    20.502609    139607.63   -39551.603    2586.2764    -42137.88    141.41504    218.27476 
   26350    127.81882   -117.56612    139643.21   -39531.961    2566.0595   -42098.021    141.35671     216.5685 
   26400    132.12219   -84.468461     139525.2   -39494.067    2652.4528    -42146.52    141.23054    223.85986 
   26450    131.31282   -61.832774    139355.52   -39527.341    2636.2041   -42163.545    141.65365    222.48851 
   26500    132.06495    107.37055    139467.91   -39505.043    2651.3037   -42156.347    141.71369    223.76288 
   26550    132.96769    46.811102    139718.57   -39417.752    2669.4269   -42087.179     142.1863    225.29243 
   26600     133.3281    140.90905    139673.63   -39412.669    2676.6624   -42089.331    142.44713    225.90309 
   26650    133.11896   -94.967279    139728.09   -39423.765    2672.4637   -42096.229    142.47513    225.54873 
   26700    133.11052   -25.193082    139706.89   -39476.635    2672.2943   -42148.929     142.6477    225.53443 
   26750    132.60178    13.227191    139471.52   -39441.054    2662.0809   -42103.135    142.97713    224.67245 
   26800    132.74668   -153.37493    139479.43   -39457.038    2664.9899   -42122.028    143.10077    224.91795 
   26850    131.51503    40.412509    139562.85   -39472.504    2640.2636   -42112.767    143.19155    222.83112 
   26900    131.68475   -3.8502814       139635   -39474.248    2643.6709   -42117.919    143.23904    223.11869 
   26950    130.05194    31.922643    139540.51   -39436.857    2610.8909   -42047.748    143.37581    220.35215 
   27000    133.33733   0.17024835    139585.58   -39451.348    2676.8476   -42128.195    143.72539    225.91872 
   27050    131.80327   0.98731932    139588.03   -39453.423    2646.0502   -42099.473    144.05449     223.3195 
   27100    130.49041    2.4719518    139453.89   -39467.147    2619.6935   -42086.841    144.24444    221.09507 
   27150    129.47806    -20.79528    139525.27   -39483.875    2599.3699   -42083.245    144.29868    219.37981 
   27200    129.00572   -27.364402    139450.65   -39448.776    2589.8872   -42038.663    144.35963     218.5795 
   27250    131.52284   -37.198022     139605.5   -39430.379    2640.4204     -42070.8    144.68005    222.84436 
   27300    130.09323    16.732682    139674.64   -39443.057    2611.7198   -42054.777    144.82535    220.42211 
   27350    130.49193   -4.5840468    139608.34   -39438.502    2619.7242   -42058.227    144.97138    221.09765 
   27400    131.57561    148.52095    139631.38   -39391.227    2641.4798   -42032.706    145.47064    222.93377 
   27450      130.117   -121.26114    139664.64   -39406.094    2612.1971   -42018.291    145.41023    220.46239 
   27500    131.41994    43.102483    139637.33   -39377.704    2638.3545   -42016.059    145.62225       222.67 
   27550    132.25292    30.333746    139480.06   -39318.798    2655.0772   -41973.876    145.83709    224.08136 
   27600    134.17956    34.878879    139662.98   -39327.064    2693.7562    -42020.82    146.04803    227.34575 
   27650    133.04708   -87.858333    139579.56   -39338.024    2671.0206   -42009.045    146.65083    225.42694 
   27700       134.59   -70.159684     139587.2   -39276.769    2701.9959   -41978.765    146.88789    228.04117 
   27750    133.94202    156.10229    139599.79   -39291.009    2688.9872   -41979.996    147.19471    226.94327 
   27800    132.14665    66.292016    139667.54    -39285.33    2652.9439   -41938.274    147.39697    223.90131 
   27850    132.37682    108.02035    139654.39   -39365.487    2657.5648   -42023.052    147.72474     224.2913 
   27900    133.12981    131.70864     139835.8   -39359.283    2672.6815   -42031.965    148.14326    225.56711 
   27950    134.96235   -16.806828    139735.14   -39431.284    2709.4711   -42140.755    148.26552    228.67205 
   28000    132.86959    117.51984    139791.77   -39428.602    2667.4575    -42096.06    148.85471    225.12622 
   28050    134.06185   -10.017461    139921.17   -39439.217     2691.393    -42130.61    149.24706    227.14631 
   28100    131.33732   -81.113918    139854.15   -39465.156     2636.696   -42101.852    149.53785    222.53003 
   28150     128.2579   -7.7715793    139708.95   -39495.422    2574.8742   -42070.296    149.72876    217.31244 
   28200    132.84194   -25.849025    139707.15    -39484.41    2666.9023   -42151.312     150.2497    225.07936 
   28250    130.08349   -53.583969    139763.08   -39465.681    2611.5243   -42077.206    150.12696    220.40561 
   28300    129.94009   -45.030964     139773.2   -39419.135    2608.6454    -42027.78    150.22029    220.16264 
   28350    130.34283    81.297543    139654.59   -39393.083    2616.7307   -42009.814    150.59407    220.84501 
   28400    134.48775     111.8851    139706.69   -39344.804    2699.9433   -42044.747    150.59701    227.86793 
   28450    132.69503   -92.609383    139721.72   -39340.847    2663.9531     -42004.8    150.61459    224.83045 
   28500     130.1338   -46.377768    139554.46   -39389.038    2612.5343   -42001.572    150.78652    220.49085 
   28550    133.89908    3.3814078     139555.9   -39313.103    2688.1252   -42001.228    150.88815    226.87051 
   28600    133.75089   -33.263067    139552.58   -39337.322    2685.1502   -42022.473    150.85836    226.61944 
   28650    132.95096    153.82982    139437.53   -39340.877     2669.091   -42009.967    150.88044    225.26408 
   28700    131.73567    116.06124    139619.86   -39328.915    2644.6932   -41973.608    150.90564    223.20497 
   28750    131.46869    38.585287    139647.19   -39307.553    2639.3334   -41946.886    151.03568    222.75262 
   28800    134.63593   -95.027482    139615.26    -39363.66     2702.918   -42066.578    151.34643    228.11899 
   28850    133.40096   -59.024279    139618.01   -39359.471     2678.125   -42037.596    151.24048    226.02653 
   28900     130.9285    73.665448    139681.89    -39335.52    2628.4886   -41964.009    151.26792    221.83735 
   28950    134.24739   -83.212267    139747.25   -39325.211    2695.1178   -42020.329    151.42043    227.46067 
   29000    133.18194   -4.9050979    139590.14   -39407.086    2673.7282   -42080.815    151.77134    225.65544 
   29050    134.32153   -76.763629    139694.63   -39346.287    2696.6063   -42042.894    152.05035    227.58629 
   29100    133.90461    109.87257    139710.24   -39341.309    2688.2362   -42029.545    152.32535    226.87989 
   29150    131.54778    45.123654    139651.87   -39371.824    2640.9212   -42012.745    152.59285    222.88662 
   29200    130.25182    54.981004    139583.84   -39413.081    2614.9038   -42027.985     153.0086    220.69082 
   29250     131.0893     35.77117    139565.07   -39369.007    2631.7167   -42000.723    153.02729    222.10979 
   29300    135.53321    125.03311    139602.29   -39313.275    2720.9316   -42034.207    153.13047    229.63928 
   29350    136.08004   -55.632523     139602.9   -39330.581    2731.9097   -42062.491    153.29137    230.56581 
   29400    134.00914    72.620612    139705.88   -39308.931    2690.3347   -41999.266     153.5952    227.05699 
   29450    134.55681   -111.32985       139743    -39299.36    2701.3297    -42000.69    153.63475    227.98494 
   29500    133.76592   -15.226068    139556.66   -39323.409    2685.4519   -42008.861    153.57323     226.6449 
   29550    133.18003   -159.79496    139566.83    -39296.12    2673.6897   -41969.809     153.5974     225.6522 
   29600    133.43635    63.459836    139575.82   -39227.702    2678.8356   -41906.537    153.73676    226.08649 
   29650    133.50712   -100.32704    139531.46   -39291.068    2680.2563   -41971.324    153.87321     226.2064 
   29700    133.67398    88.325226    139524.66   -39236.863    2683.6062   -41920.469     153.6652    226.48912 
   29750    133.18546    42.191606    139637.42   -39285.267    2673.7988   -41959.066    153.85049    225.66141 
   29800    135.49886   -147.03693    139608.59   -39269.167     2720.242   -41989.409    154.06389    229.58109 
   29850    132.06708   -61.655508    139671.65   -39341.827    2651.3465   -41993.174     154.0613    223.76649 
   29900     134.8903    104.79737    139575.86    -39306.95    2708.0247   -42014.975    154.26233    228.54998 
   29950    136.35201    101.86566    139840.96   -39275.061    2737.3696   -42012.431    154.51829    231.02661 
   30000    137.02185    86.185259    139887.06   -39283.014    2750.8172   -42033.831    154.69421    232.16155 
   30050     135.0301   -143.01412    139866.02   -39313.173    2710.8313   -42024.004    154.87332    228.78685 
   30100    135.44539    12.195513    139795.93   -39331.993    2719.1685   -42051.162    154.79201    229.49049 
   30150    136.35817    36.929331    139826.45   -39336.506    2737.4934       -42074    154.97753    231.03705 
   30200    133.65438   -31.158829    139806.85   -39354.505    2683.2127   -42037.718    154.76413    226.45591 
   30250    132.67567   -110.86734    139791.81   -39350.005    2663.5644   -42013.569    154.75701    224.79765 
   30300    134.10412     42.14751    139828.01   -39326.211    2692.2415   -42018.453    154.94235    227.21792 
   30350    133.38662    62.557242    139724.58   -39339.423    2677.8373   -42017.261    154.99496    226.00224 
   30400    134.64892   -42.879663    139775.89     -39330.1    2703.1787   -42033.278    155.44277    228.14099 
   30450    133.29646   -174.60712    139667.84   -39376.925    2676.0271   -42052.952    155.93622    225.84947 
   30500    130.62989   -11.768168    139642.15   -39396.692    2622.4938   -42019.186    155.95938     221.3314 
   30550    133.65751    47.917674    139541.77   -39354.032    2683.2756   -42037.308    156.08125    226.46122 
   30600    133.36459   -5.5141122    139527.99   -39353.313    2677.3949   -42030.708    156.84002     225.9649 
   30650    132.44564   -206.08765    139472.27   -39389.232    2658.9462   -42048.178    157.39992    224.40789 
   30700    131.69009   -112.77742    139173.46   -39333.297     2643.778   -41977.075    157.85244    223.12773 
   30750    132.07201    255.76176    139476.09   -39332.358    2651.4454   -41983.803    158.29953    223.77484 
   30800    136.18661    92.288505    139558.14   -39301.658    2734.0491   -42035.707    158.56074    230.74637 
   30850    133.70244    96.783021    139720.67   -39334.424    2684.1775   -42018.601    158.91649    226.53734 
   30900    133.92078   -48.836219    139630.09   -39381.185    2688.5608   -42069.746    159.25299    226.90728 
   30950    132.22909    79.427288    139672.32   -39433.532    2654.5988   -42088.131    159.83569    224.04098 
   31000    133.78266    23.243892     139701.3   -39456.858     2685.788   -42142.646    160.33875    226.67326 
   31050    134.09679    169.76738     139813.5   -39422.088    2692.0943   -42114.183    160.32862     227.2055 
   31100    134.32908     68.00278    139896.04   -39385.451    2696.7578   -42082.209    160.55042    227.59908 
   31150    133.10349    48.965576    139961.07   -39425.895    2672.1532   -42098.049    160.45262    225.52252 
   31200    132.44637    70.909482    139914.05   -39456.226    2658.9609   -42115.186    160.55986    224.40913 
   31250    133.08388   -74.163105    139880.48   -39447.085    2671.7594   -42118.844    160.63595    225.48929 
   31300    136.53871   -113.38639    139954.29   -39403.046    2741.1178   -42144.164    160.98444    231.34295 
   31350     133.7993    -20.57605    139939.57   -39371.672    2686.1221   -42057.794    161.28087    226.70145 
   31400    132.28133   -17.760264    139971.85   -39400.779    2655.6476   -42056.427    161.79354     224.1295 
   31450     133.5829   -13.702285    139926.98   -39423.843    2681.7778   -42105.621    162.18717    226.33481 
   31500    130.79749     56.48864    139923.34   -39452.379    2625.8584   -42078.237    162.61425    221.61536 
   31550    133.49914    17.313129    139938.96   -39400.531    2680.0962   -42080.627    162.71732    226.19289 
   31600    132.72712   -29.058143    139933.55   -39395.064    2664.5972   -42059.662    163.10624    224.88482 
   31650    135.27107    68.983612    139813.37   -39373.729     2715.669   -42089.398    163.19762    229.19514 
   31700    132.62554    14.699235    139881.29   -39377.489    2662.5579   -42040.046    163.22243     224.7127 
   31750    135.55704    -21.84375    139936.18   -39351.324    2721.4099   -42072.734    163.56301    229.67966 
   31800     132.2732    108.24895    139997.49   -39409.129    2655.4844   -42064.614    163.72375    224.11572 
   31850    132.73618    -109.6047    139901.47   -39416.153    2664.7791   -42080.932    163.96808    224.90016 
   31900    132.28202   -143.81414    139785.88   -39415.891    2655.6614   -42071.553     163.8751    224.13066 
   31950    131.93121    79.098533    139716.93   -39320.417    2648.6186   -41969.035    163.97054    223.53627 
   32000    133.39055    51.921963    139740.86   -39280.671     2677.916   -41958.587    163.96067    226.00889 
   32050    133.36722     7.611571    139819.73   -39317.288    2677.4478   -41994.736    164.36469    225.96937 
   32100    131.16286    23.258278    139886.39   -39314.474    2633.1934   -41947.667    164.45747    222.23442 
   32150    133.03625   -108.06001    139671.99   -39334.327    2670.8033   -42005.131    164.60764     225.4086 
   32200    133.22809   -82.831374    139602.05   -39356.103    2674.6546   -42030.758    164.81861    225.73363 
   32250    130.33251    36.493705    139478.34   -39362.244    2616.5237   -41978.768     164.5811    220.82754 
   32300    134.29846    79.720431     139539.2   -39325.944    2696.1431   -42022.087    164.43269     227.5472 
   32350    134.82699    2.0086718    139628.74   -39346.731    2706.7538   -42053.484    164.62984    228.44272 
   32400    130.36528   -243.60779    139643.25   -39345.001    2617.1815   -41962.182    164.91306    220.88306 
   32450    133.66482     238.7888    139587.28   -39386.411    2683.4222   -42069.833    165.16512     226.4736 
   32500    132.32342    72.014949    139655.89   -39373.619    2656.4926   -42030.112    165.61485    224.20081 
   32550    132.84605   -8.8131638    139504.65   -39347.434    2666.9849   -42014.419    165.73022    225.08633 
   32600    130.42261    41.474061    139573.18   -39331.197    2618.3325   -41949.529    166.13933     220.9802 
   32650    133.26308    64.368791    139679.84   -39337.725     2675.357   -42013.082    166.42987    225.79291 
   32700     133.5669   -139.45969    139673.97   -39358.577    2681.4565   -42040.033    166.97944    226.30769 
   32750    128.70272    34.206687     139537.8   -39378.647    2583.8044   -41962.451    167.10542    218.06612 
   32800    131.49512    39.658311    139530.55    -39407.61    2639.8639   -42047.474    167.16591    222.79739 
   32850    133.88887   -100.38293    139524.28   -39405.262    2687.9203   -42093.182    167.44292    226.85322 
   32900    130.80076    144.55415    139613.37   -39412.455     2625.924   -42038.379    167.38127     221.6209 
   32950    131.00185   -8.9315581    139808.31   -39464.748    2629.9612    -42094.71    168.06775    221.96163 
   33000    131.72124   -28.746496    139830.53   -39443.552    2644.4035   -42087.956    168.51941    223.18052 
   33050    131.32372   -102.06294    139765.56   -39413.261    2636.4229   -42049.684    168.83383    222.50698 
   33100     132.2978    10.825209    139833.11   -39411.296    2655.9784   -42067.275    169.17536    224.15741 
   33150     133.3307   -146.97035    139744.93   -39433.379    2676.7146   -42110.094    169.23792    225.90749 
   33200    131.62579    127.40351    139829.16   -39410.477    2642.4872   -42052.964    169.39453    223.01879 
   33250    132.38953    32.597368    139813.75   -39414.096    2657.8199   -42071.916     169.2895    224.31283 
   33300    131.73848    12.278906    139991.55    -39436.56    2644.7496    -42081.31     169.4846    223.20973 
   33350     131.8273   -12.181215    139879.44   -39421.919    2646.5327   -42068.452    169.54233    223.36022 
   33400    132.12067   -23.418935    139822.41   -39398.683    2652.4223   -42051.106     169.7984    223.85729 
   33450    135.39282    86.297966     139609.3   -39340.456    2718.1132    -42058.57    169.43249    229.40142 
   33500    130.02035     37.67264    139763.91   -39338.665    2610.2567   -41948.922    169.59129    220.29863 
   33550     135.8197    23.995385    139856.81    -39326.09    2726.6831   -42052.773    169.73561     230.1247 
   33600    135.44488   -73.833317    139619.99   -39293.562    2719.1582    -42012.72    170.02048    229.48962 
   33650    132.39464     38.18211    139575.72   -39335.086    2657.9224   -41993.008    169.90424    224.32148 
   33700     133.4576    -59.40903    139530.59   -39341.856    2679.2621   -42021.118    170.16517     226.1225 
   33750    132.45808   -137.55778    139462.02   -39360.837    2659.1961   -42020.033    170.35212    224.42897 
   33800    135.29845   -81.779015    139360.33   -39272.115    2716.2187   -41988.334    170.55997    229.24153 
   33850    134.23187    20.746853    139327.96   -39310.436    2694.8062   -42005.243    170.96709    227.43438 
   33900    133.16446   -53.988389    139294.43   -39306.766    2673.3771   -41980.143    171.06811    225.62581 
[...]
   92050    129.92502    87.012873    139432.77   -39482.699    2608.3431   -42091.042    431.79824    220.13712 
   92100    129.59644    28.394344    139482.69    -39502.35    2601.7465   -42104.097    432.35603    219.58039 
   92150    130.41232   -2.3092791    139467.72   -39500.107    2618.1259   -42118.233    432.70586    220.96276 
   92200    133.35963    163.84376    139500.09   -39451.344    2677.2954    -42128.64     433.2487    225.95651 
   92250    131.15367    22.434141    139617.78   -39501.853    2633.0091   -42134.862    433.88778    222.21887 
   92300    133.88627   -31.724038     139590.3   -39438.839     2687.868   -42126.707    433.92456    226.84881 
   92350    129.92394   -50.018667    139553.56   -39488.601    2608.3213   -42096.923    433.69777    220.13528 
   92400    130.81239    180.54841    139568.86   -39460.866    2626.1576   -42087.023     433.8911    221.64061 
   92450    134.00773    -69.22146    139676.99   -39470.753    2690.3065    -42161.06    434.59433    227.05461 
   92500    133.41507    25.816095    139620.08   -39474.907    2678.4083   -42153.316    434.58693    226.05044 
   92550    134.34854    23.567991    139858.45    -39467.12    2697.1485   -42164.268    435.54859    227.63206 
   92600     130.8319    87.948502    139799.24   -39503.982    2626.5492   -42130.532    435.93866    221.67367 
   92650    130.81386   -70.540814     139583.6   -39503.791    2626.1872   -42129.978    436.46161    221.64311 
   92700    134.73364   -78.146994    139415.72   -39448.705    2704.8797   -42153.584    436.90552    228.28455 
   92750    134.44487   -152.98735    139537.42   -39463.739    2699.0824   -42162.822     437.4281    227.79527 
   92800    131.23199    35.799178    139686.39   -39481.921    2634.5814   -42116.502    438.25236    222.35156 
   92850    135.50024    97.239516    139757.85   -39448.491    2720.2697   -42168.761    439.06693    229.58342 
   92900    132.19753    112.27079    139844.24   -39453.873    2653.9653   -42107.838    439.69073    223.98751 
   92950    134.98214    -12.85501    139857.45   -39409.557    2709.8684   -42119.425    440.10228    228.70558 
   93000    132.00993   -87.884345    139839.06    -39406.97    2650.1991   -42057.169    440.15725    223.66965 
   93050    130.28483    24.963211     139820.4   -39398.249    2615.5665   -42013.815    440.49156    220.74676 
   93100    132.52732   -106.64342    139836.57   -39402.113    2660.5862     -42062.7    441.08652    224.54629 
   93150    132.76794    13.125766    139770.48   -39384.933    2665.4167    -42050.35    441.20944    224.95398 
   93200    132.93806   -68.150647     139706.9   -39389.492     2668.832   -42058.324    441.21147    225.24222 
   93250    135.02651     165.6255    139889.63   -39380.292    2710.7592   -42091.051    441.64485    228.78076 
   93300    130.59798   -32.507163    140028.89   -39374.787    2621.8532    -41996.64    442.38437    221.27734 
   93350    133.59417   -8.7926878    139974.43    -39353.38     2682.004   -42035.384    442.43519     226.3539 
   93400    134.31235    11.893695    139890.09   -39338.285    2696.4218   -42034.706    442.84855    227.57073 
   93450    134.14188    -16.47214     139701.9   -39360.869    2692.9997   -42053.869    442.99383    227.28191 
   93500    131.34263    111.90911    139695.96   -39374.278    2636.8026   -42011.081    443.21893    222.53903 
   93550    132.99367     2.504831    139719.51   -39378.424    2669.9484   -42048.372    443.52995    225.33644 
   93600    134.87052    9.2247374    139843.33    -39366.99    2707.6275   -42074.617     444.3197    228.51646 
   93650    131.75767    18.875972    139781.47   -39345.113    2645.1347   -41990.248    444.39588    223.24224 
   93700    132.26022    71.023718    139816.96   -39357.535    2655.2239   -42012.759    444.55144    224.09373 
   93750    134.36433   -98.339342    139784.55   -39386.348    2697.4655   -42083.813    444.77589    227.65881 
   93800    131.20034   -75.243572     139761.8   -39440.284    2633.9459    -42074.23     444.7104    222.29793 
   93850    130.82784   -146.15493    139763.84   -39471.596    2626.4678   -42098.063     445.0143    221.66679 
   93900     133.2087    153.34976    139982.51   -39429.916    2674.2652   -42104.181    445.37455    225.70077 
   93950     132.5806    47.474154    140025.38   -39478.852    2661.6557   -42140.507    445.50466    224.63656 
   94000    134.07412    59.047715    140090.53   -39442.618    2691.6392   -42134.257    445.95556    227.16709 
   94050    130.73395    84.849829    140057.55   -39476.526    2624.5828   -42101.109    445.65042    221.50771 
   94100    132.57036    65.420338    140294.85   -39404.679    2661.4501   -42066.129    445.59385    224.61921 
   94150     134.2464    -27.36126     140328.2   -39381.775     2695.098   -42076.873    445.80636      227.459 
   94200    129.89038    24.776214    140369.28   -39370.379    2607.6476   -41978.027    446.18942    220.07842 
   94250    132.30821   -212.16736    140282.07   -39471.957    2656.1873   -42128.144    446.18923    224.17505 
   94300    132.96786   -198.19187    140074.11   -39477.735    2669.4302   -42147.165     445.9299    225.29271 
   94350    133.64355   -11.085275     139979.9   -39421.566    2682.9953   -42104.561    445.84361    226.43757 
   94400    133.59876    104.16392    140010.31   -39452.388     2682.096   -42134.484     445.5551    226.36167 
   94450    133.84808    23.065717    140048.38   -39386.015    2687.1013   -42073.116    445.60418     226.7841 
   94500    133.53209    184.56769     140211.6   -39365.987    2680.7577   -42046.745      446.646    226.24872 
   94550    135.97195     64.93494    140353.83   -39326.876    2729.7396   -42056.616    446.84161    230.38266 
   94600    135.35961   -194.77698    140142.44   -39351.291    2717.4465   -42068.738    446.61255    229.34515 
   94650     134.9832     74.82335    140051.51   -39380.076    2709.8897   -42089.966    447.01156    228.70738 
   94700    135.09268   -19.253161    140071.64   -39361.589    2712.0876   -42073.676    447.37335    228.89288 
   94750    131.97735   -101.85117    140042.35   -39388.869     2649.545   -42038.414      447.148    223.61445 
   94800    133.41065   -73.523523    139942.79   -39411.007    2678.3197   -42089.327    447.34873    226.04296 
   94850    131.86721   -29.997787    139903.72   -39414.801    2647.3339   -42062.135     447.5175    223.42784 
   94900     133.2668   -110.27537    139853.59   -39388.141    2675.4317   -42063.572    447.56711    225.79922 
   94950     131.0378   -89.344509    139782.93   -39437.382    2630.6829   -42068.065    447.80757    222.02254 
   95000    133.51453 -0.038279127    139642.17   -39397.711     2680.405   -42078.116    448.36357    226.21895 
   95050    131.38656    83.348378    139727.72   -39478.491    2637.6844   -42116.175    449.04982    222.61345 
   95100     129.7234   -135.25638    139859.45   -39435.005    2604.2952     -42039.3    449.63994    219.79549 
   95150    131.17878   -46.914625    139787.77   -39445.067    2633.5131    -42078.58     450.1596     222.2614 
   95200    131.99762    67.510675    139811.67   -39420.194    2649.9521   -42070.146    450.70736     223.6488 
   95250    133.16724   -9.2725948    139861.95   -39382.859     2673.433   -42056.292    451.29013    225.63053 
   95300    131.52256   -76.216707    139676.21   -39418.886    2640.4148     -42059.3      451.746    222.84388 
   95350    130.72651   -74.832948    139798.08   -39408.441    2624.4335   -42032.874    452.12194    221.49511 
   95400    132.12741    60.637367    139677.38   -39371.887    2652.5577   -42024.444    452.15215    223.86871 
   95450    132.75898   -166.92285    139655.28   -39394.223    2665.2369    -42059.46    452.53738     224.9388 
   95500    134.93449    168.63421    139788.09   -39358.222    2708.9118   -42067.134    453.07893    228.62485 
   95550    133.53055    89.491574    139984.27   -39321.606    2680.7267   -42002.333    453.27968     226.2461 
   95600    134.27039    7.7720359    140047.08    -39348.96    2695.5795    -42044.54    453.93266    227.49964 
   95650    133.64263    80.725083    139958.39   -39355.315    2682.9768   -42038.291    454.17151      226.436 
   95700    135.19682   -59.959344    139823.06   -39330.459    2714.1783   -42044.638     454.6161    229.06932 
   95750     136.5244    64.774395    139959.42   -39343.339    2740.8305    -42084.17    455.42299     231.3187 
   95800    134.86108    24.163858    140099.74   -39320.192    2707.4381    -42027.63    455.75125    228.50047 
   95850    132.55118   -46.304883    139885.72    -39401.24    2661.0651   -42062.305    455.97569    224.58671 
   95900    135.28829    158.36513    139965.44   -39353.272    2716.0147   -42069.287    456.74474    229.22431 
   95950    132.87304    70.647397    140276.51     -39376.8    2667.5266   -42044.327    457.12232    225.13205 
   96000    131.59238   -55.801258    140217.09   -39399.036    2641.8164   -42040.853    457.31297    222.96218 
   96050    134.27828    51.477821    140169.13   -39390.991     2695.738   -42086.729    457.28947    227.51301 
   96100    131.91288    76.471733    140177.96   -39430.074    2648.2507   -42078.324     457.6568    223.50522 
   96150    132.38739   -20.153003    140209.16   -39451.576    2657.7769   -42109.353    457.96234     224.3092 
   96200    134.10771   -49.393345    140093.72   -39446.114    2692.3136   -42138.428    457.42614      227.224 
   96250    132.70455   -9.3428538    140040.38    -39455.47    2664.1441   -42119.614    457.39543    224.84658 
   96300    131.78187    -90.09575    140198.85   -39506.869    2645.6206    -42152.49    457.96259    223.28324 
   96350    132.06347    -69.66477    140262.81   -39510.669    2651.2739   -42161.943    458.23653    223.76037 
   96400    135.76598   -30.050078    140086.29   -39459.008    2725.6047   -42184.613    457.98711    230.03368 
   96450    131.44773   -86.087591    140136.29   -39461.955    2638.9124   -42100.867    457.99083    222.71709 
   96500    131.56378   -56.872571    139911.48   -39491.372    2641.2423   -42132.615    457.72313    222.91373 
   96550    129.02704    40.953747    139786.64   -39528.659    2590.3154   -42118.974    457.78608    218.61563 
   96600    131.33086    109.23747    139728.34   -39530.665    2636.5662   -42167.231    458.10036    222.51908 
   96650    127.73464   -47.634557    139688.56   -39591.994    2564.3695   -42156.363    458.27209    216.42587 
   96700    129.00614   -29.162492    139583.78   -39571.101    2589.8957   -42160.996    458.92176    218.58021 
   96750    130.63871    71.876507    139652.73   -39526.143    2622.6708   -42148.814    459.43822    221.34634 
   96800    132.31231    139.57188    139731.17    -39470.31    2656.2697   -42126.579    459.24155    224.18199 
   96850    129.29703   -16.063124     139803.9   -39550.439    2595.7357   -42146.175    459.76253    219.07309 
   96900    128.55359   -158.57376    139829.99   -39557.411    2580.8106   -42138.221    460.51391    217.81345 
   96950    130.94949    4.0696977    139601.51    -39522.19      2628.91     -42151.1    460.39554    221.87292 
   97000     129.9617     31.59421    139709.56   -39496.564    2609.0793   -42105.644    460.47541    220.19925 
   97050    132.12731    10.733842     139660.4   -39452.579    2652.5557   -42105.135    460.71333    223.86855 
   97100    132.14919   -20.599099    139570.12    -39455.15    2652.9949   -42108.145    460.77178    223.90562 
   97150     131.6563    17.585397    139722.29   -39481.278    2643.0998   -42124.377    461.66861    223.07049 
   97200    133.86835   -53.688049    139817.16   -39441.694    2687.5083   -42129.203    462.40764    226.81845 
   97250    133.74129   -13.217166    139918.97   -39410.364    2684.9575   -42095.322    462.87245    226.60317 
   97300    133.21382    -48.31756    139905.41   -39435.761    2674.3681   -42110.129    463.09567    225.70945 
   97350    131.70954    36.638751    140002.39   -39471.838    2644.1686   -42116.007     463.7094     223.1607 
   97400    133.49634   -9.1835896    140134.88   -39502.647      2680.04   -42182.687    464.93033    226.18815 
   97450    131.21033   -71.980451    140087.13   -39475.391    2634.1466   -42109.537    466.08107    222.31487 
   97500     131.0089    130.05487    139990.38   -39497.507    2630.1027    -42127.61    466.71722    221.97357 
   97550    132.17549   -178.30632    139941.34   -39468.128    2653.5228   -42121.651    467.29711    223.95017 
   97600    134.57449   0.98154452    139809.32   -39412.972    2701.6846   -42114.657    468.28679    228.01489 
   97650    133.07712   -18.870034    139781.22   -39397.606    2671.6237   -42069.229    468.90883    225.47783 
   97700    130.34979     93.03796    139844.97   -39448.277    2616.8705   -42065.148    469.25949    220.85681 
   97750    130.59369    6.6268853     140013.9   -39429.534     2621.767   -42051.301    469.53011    221.27006 
   97800    132.37943   -134.26003    139886.09   -39468.721    2657.6171   -42126.339    469.61933    224.29571 
   97850    133.29366   -78.061223    139758.98   -39449.967     2675.971   -42125.938    469.65328    225.84473 
   97900    131.57442   -3.6788579     139650.7   -39409.954    2641.4559   -42051.409    469.90308    222.93175 
   97950    133.93609   -138.52052    139591.89   -39413.728    2688.8683   -42102.597    469.72703    226.93323 
   98000    133.45086     149.2035     139778.4   -39440.135     2679.127   -42119.262     470.3242    226.11109 
   98050    131.83909   -55.918007    139694.23   -39439.881    2646.7694    -42086.65    470.09121     223.3802 
   98100    134.04701   -51.459664    139676.07   -39414.252    2691.0949   -42105.347    470.96215    227.12115 
   98150    135.18439    13.719919    139686.98   -39394.534    2713.9287   -42108.463    471.09722    229.04826 
   98200    132.21922    105.52298    139836.46   -39362.451    2654.4008   -42016.852    471.63212    224.02426 
   98250    133.87467   -169.65159    139775.83   -39420.316    2687.6351   -42107.951    472.40807    226.82915 
   98300    132.60893    26.796965    139867.53   -39424.696    2662.2245   -42086.921    473.33753    224.68457 
   98350    132.87776   -57.190052    139911.87   -39460.664    2667.6214   -42128.285    473.42591    225.14005 
   98400    131.11717   -91.623574    139788.36   -39467.441    2632.2763   -42099.717    473.41332    222.15702 
   98450    132.44564   -195.10305    139670.68   -39443.867    2658.9463   -42102.814    473.90186     224.4079 
   98500    131.47842    32.318922    139665.45   -39460.259    2639.5286   -42099.787    473.78946    222.76909 
   98550    130.47868   -71.414101    139613.08   -39475.994    2619.4582   -42095.452    474.04053     221.0752 
   98600    131.18411    35.028116    139498.98   -39467.908    2633.6201   -42101.528    474.17717    222.27043 
   98650    132.13001    124.95968     139565.4   -39446.114    2652.6099   -42098.724    474.59042    223.87312 
   98700    134.76866    -92.60201    139656.78   -39366.214    2705.5827   -42071.797    475.28945    228.34388 
   98750    133.66686    117.15994    139725.43   -39419.582    2683.4632   -42103.045    475.49104    226.47706 
   98800    131.13467   -109.98122    139719.66   -39432.915    2632.6275   -42065.543    476.08184    222.18666 
   98850    133.45542   -227.43779    139587.42   -39437.469    2679.2184   -42116.688    476.43566    226.11881 
   98900    133.24387    -156.8102    139369.88    -39427.94    2674.9714   -42102.911    476.75738    225.76037 
   98950    134.29226   -118.20713    139411.89   -39410.944    2696.0186   -42106.962    477.26483     227.5367 
   99000    133.32567    284.79585    139383.58   -39382.543    2676.6135   -42059.157    477.60944    225.89896 
   99050    134.69671    99.325336    139571.69   -39377.326    2704.1382   -42081.464    478.44255    228.22197 
   99100    135.17694   -5.8567697    139501.95   -39358.988    2713.7791   -42072.767    478.82364    229.03564 
   99150    131.46001    43.408469    139480.96   -39371.574     2639.159   -42010.733    479.10552     222.7379 
   99200     131.1772    190.41696    139601.23   -39376.104    2633.4813   -42009.585    479.44055    222.25872 
   99250    132.15814    91.969804    139763.69    -39402.24    2653.1745   -42055.414    480.13191    223.92077 
   99300     132.0546   -127.57681    139542.49   -39444.862    2651.0958   -42095.958    480.00136    223.74534 
   99350    130.07758    286.60863    139652.11   -39461.543    2611.4058   -42072.948    480.21699    220.39561 
   99400    131.30731    28.776238    139732.96   -39472.135    2636.0934   -42108.229    480.74463    222.47917 
   99450    131.21834    78.725242    139710.52   -39421.295    2634.3074   -42055.602    480.94769    222.32844 
   99500    132.15092   -21.598865    139909.78   -39432.319    2653.0295   -42085.349    481.49542    223.90854 
   99550    132.41039   -133.28041       139775   -39417.652    2658.2386   -42075.891    481.97809    224.34816 
   99600    131.33292   -58.649376    139788.04   -39431.768    2636.6077   -42068.375    481.77497    222.52257 
   99650    132.19978    94.274633    139795.82   -39331.919    2654.0105   -41985.929    481.52838    223.99133 
   99700    132.01468   -30.266491    139771.67   -39340.725    2650.2944    -41991.02     481.4747     223.6777 
   99750     134.7467   -93.124828    139759.12   -39382.395    2705.1418   -42087.537    481.70298    228.30667 
   99800    130.88757   -71.941503    139510.89   -39450.313    2627.6669    -42077.98    482.08952      221.768 
   99850    130.91118   -48.458501    139493.09   -39444.621    2628.1409   -42072.762    481.99433    221.80801 
   99900    132.44345    184.14589    139664.56   -39424.903    2658.9024   -42083.805    481.82344    224.40419 
   99950    133.77994    157.60646    139754.54   -39411.029    2685.7334   -42096.762    482.30382    226.66865 
  100000    132.97171    118.74728    139973.87   -39397.855    2669.5077   -42067.363    483.15403    225.29925 
Loop time of 664.105 on 12 procs for 100000 steps with 6736 atoms

Performance: 65.050 ns/day, 0.369 hours/ns, 150.579 timesteps/s
99.7% CPU use with 12 MPI tasks x no OpenMP threads

MPI task timing breakdown:
Section |  min time  |  avg time  |  max time  |%varavg| %total
---------------------------------------------------------------
Pair    | 127.78     | 287.43     | 617.18     |1322.9 | 43.28
Neigh   | 6.8318     | 12.32      | 24.578     | 220.0 |  1.86
Comm    | 17.351     | 358.7      | 523.38     |1222.2 | 54.01
Output  | 0.12658    | 0.14171    | 0.26056    |   9.5 |  0.02
Modify  | 3.2675     | 3.9096     | 4.4061     |  22.2 |  0.59
Other   |            | 1.606      |            |       |  0.24

Nlocal:        561.333 ave         959 max         379 min
Histogram: 8 0 0 0 0 0 0 0 2 2
Nghost:        2114.17 ave        2427 max        1971 min
Histogram: 8 0 0 0 0 0 0 1 1 2
Neighs:        0.00000 ave           0 max           0 min
Histogram: 12 0 0 0 0 0 0 0 0 0
FullNghs:      67921.0 ave      162687 max       24735 min
Histogram: 8 0 0 0 0 0 0 0 1 3

Total # of neighbors = 815052
Ave neighs/atom = 120.99941
Neighbor list builds = 6146
Dangerous builds = 0

write_data		${DIR}/data.eq-${NAME}-${TEMP}
write_data		test_2/data.eq-${NAME}-${TEMP}
write_data		test_2/data.eq-het_freeze_test-${TEMP}
write_data		test_2/data.eq-het_freeze_test-225
System init for write_data ...
undump          1

reset_timestep  0

unfix           2
unfix           3
unfix           4


################################################
#######         Run Simulation         #########
################################################

log				${DIR}/log.run_${NAME}
log				test_2/log.run_${NAME}
log				test_2/log.run_het_freeze_test
