LAMMPS data file via write_data, version 16 Mar 2018, timestep = 100000

6768 atoms
2 atom types

2.7754092110352246e-01 4.8942459078896746e+01 xlo xhi
2.7641111150522235e-01 4.8743224818905809e+01 ylo yhi
-6.8819854161457172e-01 6.0750198541614104e+01 zlo zhi

Masses

1 18.015
2 12.01

Atoms # atomic

3896 1 2.6469843013380245e+00 4.6788623634243729e+00 3.9167460531168974e+00 1 1 0
1636 1 4.9884374532500360e+00 4.8141157627416762e+00 1.0863498733556347e+00 1 1 1
4740 1 5.6310113805922830e+00 3.0766404674059711e+00 3.1261959512222282e+00 0 0 1
2202 1 4.6719695861652566e+00 6.2492554370316631e+00 5.5505671815903890e+00 0 0 0
1815 1 9.5216884327847620e+00 3.9026831820400160e-01 2.2649564607343833e+00 1 0 0
1502 1 8.3618637743272117e+00 2.5683677962945364e+00 1.7893025805959493e+00 0 1 1
5167 1 2.4614921487630674e+00 4.9105615902238187e+00 1.0922179625998523e+00 1 0 0
3215 1 1.2019622256287402e+01 1.5745409844694304e+01 2.4433655940818406e+00 0 2 0
5480 1 4.8157424531508708e+00 1.3672880743409157e+01 1.0917238690407537e+01 2 2 0
1465 1 1.3906348752022359e+00 7.2106567567438145e+00 4.1596590157277413e+00 1 0 1
599 1 5.8723530003136242e+00 6.9520095326733360e+00 1.9789123284107810e+00 1 0 1
139 1 9.6651390901077967e+00 4.8596911204515223e+00 1.8349364862323818e+00 1 0 1
3548 1 8.2610984559322418e+00 6.8457095013271783e+00 6.7754076761877502e-01 0 0 0
3410 1 5.6630729852399293e+00 1.1611617328807689e+01 1.6283855624502590e+00 0 0 0
4780 1 1.0368492595095145e+00 6.7586184322368403e+00 -7.0404370734153954e-03 0 0 1
1940 1 9.1508864159451946e+00 9.5033767330963386e+00 1.1608270263209592e+00 0 1 0
1586 1 9.4802686137495247e+00 1.2103605496143341e+01 4.0887860396160667e+00 1 0 1
1799 1 4.8669282114852290e+00 2.3395428052031892e+01 -2.5272541466731052e-01 -1 0 0
5148 1 3.4249607370476882e+00 1.2062929900834302e+01 3.2184286596829819e+00 1 2 0
5428 1 5.9875104309304588e+00 1.6340739584783908e+01 1.3815771001524371e+00 0 1 0
6401 1 1.4662275201072832e+00 1.2026980468912557e+01 1.2914379169783161e+00 0 -1 1
4830 1 6.1992487123595632e+00 1.3921087738471604e+01 2.8294573521939426e-02 1 1 1
243 1 7.5607012890777847e+00 1.0483511385656907e+01 2.9101935770733922e+00 0 0 0
1632 1 1.0543301862763773e+01 1.7111821070714008e+01 8.0548102597370885e-02 1 0 0
1530 1 8.9656690497927762e+00 1.4370094687248532e+01 2.7122796453843823e-01 0 0 1
1401 1 1.6530703408425713e+00 1.6120177922614250e+01 9.6585399471591753e+00 0 1 1
6586 1 7.9904254758359281e+00 1.8544068089954440e+01 1.3213128857818544e+00 0 1 1
3619 1 8.7377562327621341e+00 1.7192201902522488e+01 3.7509164513231310e+00 0 2 0
2107 1 1.2895271652961691e+00 2.2291374071475889e+01 4.5037437738918022e+00 1 0 0
3123 1 7.8155702419317388e+00 2.0584216780384974e+01 2.9306189159324170e+00 1 1 1
5017 1 7.2141964836363321e+00 2.1983044546758652e+01 5.9466896845303840e-01 1 2 1
6462 1 4.5366457848011743e+00 2.8107794913077506e+00 6.4495250137454851e+00 0 1 1
5543 1 7.8920178326854340e-01 1.8156870514275091e+01 4.8311273786748350e+00 0 1 0
18 1 6.7140979137733607e+00 2.0557485992515137e+01 1.1316583694539560e+01 0 0 0
3540 1 1.8900995755281635e+00 2.0192148333347355e+01 1.7241050715183643e+00 1 -1 0
3189 1 2.4792753272265395e+00 1.7064393402318694e+00 5.1516181422367548e+00 1 1 1
4790 1 2.9878175700764649e+00 2.1001976856087484e+01 -4.1058652004439933e-01 2 0 1
1323 1 6.9255647423920461e+00 4.5534223997552541e+00 5.5832014963985506e+00 1 0 1
2121 1 1.0181673214215007e+01 4.3432672075695589e+00 4.6224265047982689e+00 0 2 0
6756 1 6.5657216976259170e-01 2.0662700892918103e+01 8.0340572662732175e+00 2 2 1
5036 1 9.5604085603308580e+00 2.2614905738319884e+00 6.4766949438053265e+00 1 0 1
1784 1 2.3498923309816324e+00 9.5476129022039018e+00 5.3628459488714322e+00 0 1 0
4901 1 9.4787628292400894e-01 6.8213403103374128e+00 7.9745814982570149e+00 1 1 0
2114 1 6.5296811363168183e+00 8.1248150973329629e+00 4.2212305576773286e+00 1 0 1
74 1 8.5623853669248273e+00 6.6270983947811342e+00 5.5203880490776438e+00 0 0 1
577 1 5.3221750734050479e+00 2.2747993438432875e+01 9.3133287397072984e+00 0 0 1
422 1 1.1252532902798340e+01 7.6172963618481102e+00 4.4341849803931224e+00 1 0 0
5595 1 1.7750785191076954e+00 9.4614964871041689e+00 7.9258699196672371e+00 2 1 0
3797 1 4.8241130626639714e+00 1.0114863602239057e+01 4.8825795031523409e+00 0 0 0
462 1 8.7738956982327672e+00 7.3822797416156742e+00 8.1176097027995180e+00 2 0 0
2284 1 3.9707620213419386e+00 1.2402792426749132e+00 1.9598861835639867e+00 -1 0 1
3201 1 1.0348857069946986e+01 1.0228346081585965e+01 8.2093184199917921e+00 -1 0 1
1324 1 1.1806032776408667e+01 2.2816307632165927e+01 4.0270945842902206e+00 0 0 1
141 1 3.4526738886128907e+00 1.4397369640461937e+01 4.8298774931416490e+00 1 1 0
5555 1 1.0203266020547145e+01 1.8943415420352107e+01 1.1107127151672611e+01 0 0 0
5374 1 6.0812470017312279e+00 1.1440700004658824e+01 6.8805120743613948e+00 0 0 0
3975 1 4.6321303164568359e+00 1.3824585466886614e+01 6.9624774577261253e+00 0 1 1
3126 1 9.3334800821959973e+00 1.4656432065234755e+01 2.8221486857924249e+00 1 0 1
3884 1 6.2112178409545926e+00 1.6235309960171310e+01 7.2308778889831560e+00 -1 0 1
3539 1 1.1039282164299685e+01 1.2823274518887908e+01 -4.8877527308730395e-01 0 -1 0
1564 1 8.9593343951969011e+00 1.2401182593971887e+01 6.8524281815769124e+00 1 0 1
3058 1 7.5574808622107570e-01 1.2878154851782261e+01 5.3171941048156190e+00 0 0 1
107 1 1.1710594353184213e+01 1.0395809142325906e+01 5.1698281900588077e+00 0 1 0
3760 1 1.5791346720293129e+00 1.8159455457480853e+01 7.8685195871468672e+00 0 0 0
4965 1 3.1672135625464524e+00 1.8981973936399775e+01 3.7139940115627006e+00 1 2 1
1748 1 4.5101414215238798e+00 1.6550666787958445e+01 3.4871838785219618e+00 1 1 0
2339 1 6.4639303276578763e+00 1.7768333203792807e+01 4.9741341171857307e+00 -1 0 1
3032 1 1.1644940305084575e+01 9.2910648969899778e+00 1.9069631212303193e+00 0 0 0
5441 1 1.0405699211760719e+01 1.8873960669672982e+01 4.2982411931673115e+00 0 0 0
3331 1 1.1700561832306406e+01 1.1951038158058868e+01 1.8511977960111072e+00 1 1 0
6713 1 4.2815454438189855e+00 2.1734263069490265e+01 4.8263469104541086e+00 1 0 0
3489 1 6.8220876767567677e+00 2.0182603656375719e+01 5.3809780937862728e+00 0 0 0
5053 1 8.8000195182246657e+00 2.3625303606418647e+01 7.1271328951188622e+00 1 0 1
2233 1 9.2198782982891707e+00 2.3325402318042205e+01 2.8491570159922373e+00 1 1 0
4945 1 2.1417385589461713e+00 2.2841035265722720e+00 1.0093325742962929e+01 1 2 1
3111 1 4.3408917867404790e+00 4.2015959275123116e+00 9.6340931412260353e+00 1 2 1
3488 1 1.1601011259833106e+01 2.1573670810770128e+01 6.5026294097147135e+00 1 -1 0
1460 1 6.8456517065159188e+00 1.1610454581016727e+00 7.2816135549768681e+00 1 1 1
1836 1 7.3247314424456373e+00 3.9270316122200493e+00 8.7612669028135244e+00 0 1 0
1374 1 1.0759175817422896e+01 2.0314273708633408e+00 8.9304084254646821e+00 1 0 1
403 1 1.2015534143301124e+01 8.9613612625356698e+00 1.1361408253131470e+01 2 1 0
2247 1 1.1422157681196872e+01 1.6675848375500774e+01 1.0124579263427229e+01 0 1 1
5174 1 3.5451236017567651e+00 2.3123189685022748e+01 1.1227284252677801e+01 0 1 1
1418 1 2.1471136828257023e+00 2.2585714365276184e+00 3.9963415341218567e-01 1 0 1
3753 1 4.2550039455976894e+00 6.9264552596047722e+00 8.3127563204350015e+00 0 1 0
3877 1 9.1048737039267902e+00 2.4160175534162132e+01 2.1498222553909052e-01 2 1 0
3949 1 6.8843770482753790e+00 8.0047744427705556e+00 1.0104033682426765e+01 0 0 1
2039 1 1.0120329663811892e+01 4.5143613202766879e+00 1.0676595926427360e+01 0 2 0
1592 1 1.0687229511601728e+01 1.1732578702515648e+00 1.1468825286308398e+01 0 1 1
3254 1 1.1041059855644329e+01 6.9411078807389730e+00 9.6392502052885121e+00 0 0 1
2244 1 3.3807427251416300e-01 1.1558397736100970e+01 8.3897507417204782e+00 0 2 1
256 1 6.7691292431255801e-01 2.3981396579391763e+01 1.0414283577164303e+01 0 0 0
3356 1 4.3963956767503571e+00 9.8513610687945707e+00 9.2008876165500588e+00 0 2 1
3755 1 8.0616633509233200e+00 1.0914677720517140e+01 1.0075718444560060e+01 0 0 0
547 1 1.1606086559462879e+01 2.0634707469985198e+01 2.3412968270519507e+00 1 1 1
373 1 2.7933341258126072e+00 1.3529473315011151e+01 8.9443187639964172e+00 1 0 0
3285 1 1.2060752353105531e+01 5.0075649805466016e+00 3.1128338102291753e-01 0 1 1
6384 1 7.1094532141535227e+00 1.3488320188361735e+01 9.5536375506890110e+00 0 1 1
5141 1 1.1093218187873770e+01 1.3199560212072981e+01 1.0020030695186826e+01 0 0 0
2193 1 8.5692989016001206e+00 1.6410284501451081e+01 9.0390837876772210e+00 1 1 0
2321 1 4.7270209306660345e+00 9.0135527708740177e+00 3.5896648207802828e-01 0 0 0
6517 1 1.0673663139049919e+01 1.4787256907062728e+01 7.5226629590561611e+00 1 0 1
6767 1 4.4071953247539852e+00 1.8040375619807090e+01 8.6127466709275158e+00 1 2 1
1779 1 5.3682582473836771e+00 2.0391054241569670e+01 7.8570276964019641e+00 0 1 0
6426 1 5.4271436455079929e+00 2.4214592733355886e+01 3.9911567110577044e+00 -1 1 1
5215 1 8.0545085566877788e+00 1.9289755328952648e+01 9.1549932932881060e+00 0 1 1
6535 1 8.9918348572947711e+00 2.0547841238187804e+01 6.8418749652821864e+00 0 0 1
3740 1 2.8313523570851089e+00 2.2683631519945823e+01 7.4578415896047190e+00 1 0 0
3182 1 1.0164782863059424e+01 2.0483667341202143e+01 -1.2727023897329126e-01 -1 0 1
5527 1 3.2482408156836351e-01 1.1067671205737482e+00 7.2644782185852961e+00 2 1 0
1619 1 4.9367380755832571e+00 1.8203572461493607e+01 1.1505669132375328e+01 0 0 1
3169 1 3.9507443395758912e-01 7.0362412306667697e+00 1.0619964329320608e+01 1 -1 1
6399 1 3.2186679816643959e-01 2.9453092086483763e+00 3.6576449560013433e+00 0 -1 1
4712 1 1.1843791878266135e+01 2.1034359140705678e+01 1.1881703246232393e+01 0 1 1
9 1 2.5736638239503815e+00 2.6794684660564356e+00 1.4059618875925921e+01 1 0 0
1646 1 1.0478058828176666e+00 1.0805147952668133e+00 2.0844820432296181e+01 0 1 1
1332 1 6.0630654569053837e+00 1.6352364130716934e+00 1.2188733449765127e+01 1 0 0
226 1 4.3986666947526887e+00 6.0233356619774647e-01 1.3971268006880791e+01 1 0 0
1458 1 8.0383646582197628e+00 1.8098639882109811e+01 2.3187162209072685e+01 0 0 1
1831 1 8.4825038055702198e+00 1.2619155536365070e+00 1.2908570328718229e+01 0 0 0
6690 1 5.0387329980263640e-01 1.0951867224211036e+01 1.5332264872811940e+01 1 0 1
2024 1 3.8411590397746642e+00 5.0408059621589540e+00 1.4174471996856944e+01 0 0 0
5514 1 2.6493946177107035e+00 2.2061963421163014e+01 1.4952149424492688e+01 1 1 0
3501 1 1.5234057429755321e+00 8.2084280988636813e+00 1.2848120180423523e+01 1 1 0
1814 1 8.1966909702174355e+00 8.2608288931592622e+00 1.3260221408246897e+01 1 2 0
1830 1 8.9404846248836662e+00 3.4258697311636550e+00 1.4614623595694429e+01 0 1 0
3918 1 1.1431808065475986e+01 4.6282023631591480e+00 1.3235718742375589e+01 1 1 1
3964 1 1.7114611474901495e+00 1.1118691916814871e+01 1.2509933052806154e+01 1 1 1
3379 1 8.9258675318611154e+00 2.4164983201926621e+01 1.6772884576745387e+01 -1 -1 0
5553 1 5.9660511620662025e+00 9.7455950453524665e+00 1.3717454126489113e+01 0 1 0
6672 1 5.8371992563115214e+00 4.2281973436494589e+00 1.2230319939346334e+01 -1 0 0
5180 1 4.4158575482370681e+00 9.3873420864541881e+00 1.6016797234601103e+01 1 0 1
5222 1 7.0090439139337315e+00 1.2093348904863729e+01 1.4833050599137421e+01 1 0 1
29 1 9.1545740936648059e+00 9.0357412339552656e+00 1.8932783847557662e+01 0 0 0
3022 1 9.8828905368817672e+00 1.0028968393794738e+01 1.2479153452896515e+01 0 1 0
533 1 1.2338935191760827e+01 1.4007545006924047e+01 2.0613454350297978e+01 0 0 1
3435 1 5.1583368510224148e-01 2.4835635258402742e+00 1.2320700799807359e+01 0 -1 0
1823 1 1.2670582342517585e+00 1.4155558084309828e+01 1.3584531601831200e+01 1 0 0
1655 1 6.2442295591679580e+00 1.4199364713064048e+01 1.3419595535705193e+01 0 1 1
4810 1 1.1068471098235074e+01 1.4596744828512183e+01 1.3996585683691581e+01 2 0 1
1746 1 8.9654909753713845e+00 1.3495749382744316e+01 1.1876620372572678e+01 -1 1 0
42 1 2.2496035519097362e+00 1.7849221731279169e+01 1.4038344233598572e+01 -1 -1 0
3955 1 4.7209389489535214e+00 1.8959504601990083e+01 1.4780362631153267e+01 0 1 1
6658 1 7.7020507976419772e+00 2.0517021925099051e+01 1.4179811200847787e+01 0 1 0
6530 1 8.9482343528794122e+00 1.8305184796819535e+01 1.3019796790637692e+01 1 1 1
2080 1 4.5796090258328377e+00 1.8061795190466007e+01 1.9705829137868839e+01 0 0 0
5618 1 3.4864430947499736e+00 2.0898061870734534e+01 1.2477579317716884e+01 0 0 0
1687 1 4.2733019740298310e+00 1.1068751845445108e+01 1.1706749459829181e+01 0 1 1
1761 1 9.0175466236798467e+00 2.1532530269841814e+01 1.6504282966878964e+01 0 0 0
1591 1 1.0287350098165115e+01 2.2346912781355460e+01 1.3629241818959146e+01 0 -2 1
2345 1 1.1408738988772251e+01 1.1745428790971312e+01 1.9222231495507678e+01 0 1 0
1903 1 9.1207994823336911e+00 1.8107712097951399e+01 2.0455643556235938e+01 0 0 0
201 1 3.0742875270539081e+00 2.1652984870921212e+00 1.9164313922059002e+01 0 1 0
1688 1 5.9796832853356507e+00 1.0846748084877909e+00 1.6064870539369416e+01 0 1 1
3355 1 5.0695656801737243e-01 2.0192247491265999e+01 1.3009025309781030e+01 1 0 1
546 1 2.8487130882578642e+00 7.4554821056546432e+00 1.4963772501954333e+01 1 1 1
5597 1 2.5314878638486231e+00 4.7963195138573456e+00 1.7497752611474041e+01 0 -1 1
3942 1 5.8920112338901625e+00 3.0282859272680036e+00 2.0294957889220818e+01 2 1 0
1336 1 6.3332045587617882e+00 3.7349931945903090e+00 1.5677541529829515e+01 1 1 1
3685 1 6.3876850026779994e+00 8.2228806153406353e+00 1.7537819255731673e+01 -1 1 0
1380 1 9.3216253015868649e+00 6.3155647948423654e+00 1.4861649759221196e+01 0 1 1
3359 1 8.4413019966890772e+00 6.2009370225877980e+00 1.7393735482372712e+01 0 1 0
2041 1 1.1429562061206118e+01 8.5872691970405253e+00 1.4769789915899970e+01 0 1 0
2243 1 2.1293328850849180e+00 1.0486553575718618e+01 1.7418874627591993e+01 -1 1 1
5293 1 7.3370550907952947e-01 8.6810271511113584e+00 1.9295833296014397e+01 0 1 1
4767 1 2.3958577045695413e+00 1.2189678459432189e+01 2.3162979458162280e+01 0 1 1
5502 1 3.3461320338251217e+00 8.6211969461571361e+00 2.0865870083173849e+01 -1 1 0
200 1 5.8425608563513389e+00 4.9771224538652881e+00 1.8261208198955455e+01 -1 1 0
1509 1 1.0394142123743652e+01 1.1706271293479055e+01 1.4890512427926357e+01 0 0 1
1959 1 1.1822356817100543e+01 1.6768195690943205e+01 1.7090238090619042e+01 0 1 0
3160 1 4.1855908432170477e+00 1.4421193686178684e+01 1.5056581019263882e+01 0 1 1
325 1 2.9921108972835526e+00 1.3847150848185180e+01 1.9000716334744425e+01 1 0 0
135 1 1.1432533570851518e+01 2.0217531248145715e+01 2.0126153361014790e+01 1 -1 0
2263 1 4.8946921352777935e+00 1.2422329969552619e+01 1.7108829028395061e+01 0 1 0
3999 1 6.8963705928088839e+00 1.1413190478489055e+01 1.8939396626590142e+01 0 0 1
6515 1 9.2627155084125441e+00 1.2330817621849080e+01 1.7536506826557044e+01 0 0 0
3521 1 2.6462360202303952e+00 1.9819141614239133e+01 1.8468980463779182e+01 2 -1 1
6737 1 2.2574624697945174e+00 2.2045706956569251e+01 2.0130939151028404e+01 -1 2 0
299 1 4.5006121722930894e+00 4.4108145211296330e+00 2.2513211426804148e+01 -1 1 0
557 1 6.0197389432780026e+00 1.6821648675275583e+01 1.5714073415793912e+01 -1 1 1
1549 1 8.6045206022566596e+00 1.5890396220181772e+01 1.4979153726772712e+01 -1 1 1
5316 1 6.8032919743262532e+00 1.7700435838654215e+01 1.8019098555690707e+01 1 1 0
1728 1 8.4199946873195781e+00 1.5590109862115300e+01 1.9445285054827838e+01 0 1 0
1535 1 9.7376511585334526e+00 1.5128904189012818e+01 1.7284732076322769e+01 2 -1 1
5284 1 1.0818204256041469e+01 1.8541357095663393e+01 1.5297556588829101e+01 1 0 0
4719 1 4.7850865535321203e+00 2.0970488046712664e+01 1.7088725561439148e+01 0 1 1
6403 1 1.1667369930917660e+01 9.9036490136190327e+00 2.3465791353876412e+01 0 -1 1
3344 1 4.3004079844318914e+00 2.4117728188593055e+01 1.6796900593258471e+01 0 0 0
2270 1 7.2489341756365064e+00 2.0484699524827064e+01 1.8413952187220264e+01 0 0 1
5023 1 7.2270822400279444e+00 2.1411990125666147e+01 2.1108770360928688e+01 -1 1 0
2056 1 1.1113506074874648e+01 2.0557440746553475e+01 1.7331221391959694e+01 0 1 0
2277 1 2.3999807083029268e+00 2.1560421577047620e+01 2.2876093114209660e+01 1 1 1
2285 1 4.2303436256998719e+00 2.3942877853337212e+01 1.9546825412540112e+01 0 0 1
1976 1 4.5399808372314576e-01 1.6184550619027871e+01 1.5481249090309731e+01 1 0 0
4967 1 6.8715533743153134e+00 1.3792819342453489e+01 2.3569980791704722e+01 0 0 1
3642 1 8.5351109439726081e+00 3.1414415611374533e+00 2.0445971034629846e+01 -1 0 0
3363 1 6.5813325721931903e+00 1.2215213808463110e+00 2.3882390272185717e+01 0 2 0
5070 1 9.3329376630893837e+00 7.8675566886360704e-01 1.9475464754491973e+01 -1 2 0
2199 1 1.0212451554418976e+01 1.9641749196549603e+00 1.6800243874772335e+01 0 1 0
244 1 3.3546397402869604e-01 2.4111420132636237e+01 1.9317546550432919e+01 1 1 0
5290 1 1.1658316975515039e+01 7.8558898429709223e-01 2.1030784124599627e+01 1 1 0
2230 1 3.1631096366756926e+00 5.7541438845272639e+00 2.0200782093090137e+01 1 0 1
3265 1 1.1427923061340342e+00 5.2437191285815610e+00 2.1696008591761434e+01 0 0 1
3857 1 7.0333028335866938e+00 6.8965321578167522e+00 2.1020500108449976e+01 -1 0 0
5033 1 7.4377779021773662e+00 1.1024487640706571e+01 2.2306057094694030e+01 -1 -1 0
6366 1 9.6942137942914801e+00 5.1009157881445732e+00 1.9322452714895789e+01 0 1 1
1873 1 2.1074839261687490e+00 1.1517607938641493e+01 2.0538913392551702e+01 0 0 0
30 1 1.9386719859067247e+00 6.7540596730846820e+00 2.3699449012256018e+01 1 1 0
6607 1 6.4938947091313448e+00 2.4192214842117490e+01 2.1098290469673120e+01 2 0 1
4928 1 5.6568427931207426e+00 9.1930315569661829e+00 2.0406188790561714e+01 0 0 0
3960 1 3.4019196127415303e+00 9.3330789819298552e+00 2.3713723570981696e+01 0 0 1
3391 1 9.6689280444096166e+00 7.1388572568467783e+00 2.1382135636061602e+01 -1 1 1
604 1 7.4481965313944021e-01 6.9420122682754650e+00 1.6984788848249192e+01 -1 0 1
468 1 1.0125290659185186e+01 2.3909910453429909e+01 2.3202488050081460e+01 1 0 0
3401 1 5.8496591841491741e+00 1.9158213171127553e+01 2.2016854616851880e+01 2 0 1
3498 1 6.7755176435150064e+00 1.3762003495533790e+01 2.0447447812210417e+01 0 -1 0
6354 1 4.3023844209756712e+00 1.5423140803771290e+01 2.0656164671219599e+01 0 1 1
4916 1 1.1923543312560753e+01 1.6770797458542706e+01 2.0834284495430481e+01 2 1 1
5571 1 9.7979526924764659e+00 2.1517359692891421e+01 2.1981937508459445e+01 1 -1 0
371 1 9.9834437222285821e+00 1.0443236568860124e+01 2.1529488651804581e+01 0 1 0
6670 1 1.9021165789369656e+00 2.1335092500851380e+00 1.6445442975777350e+01 2 -1 1
1734 1 1.1831199194061277e+01 8.3242790986102264e+00 1.7466007695648621e+01 0 1 0
2040 1 1.2503044985166711e+00 1.5757067251443136e+01 1.7969312806248038e+01 1 1 0
1729 1 1.2202249386810157e+01 4.3282402194198442e+00 2.0657153165655050e+01 0 1 0
1409 1 1.6726285617396461e+00 1.7010827231825036e+01 2.1393692794232361e+01 -1 0 1
4953 1 4.3600691353549461e+00 1.4302200522304132e+01 2.3448711729959918e+01 0 1 1
4834 1 1.1092584465910273e+01 1.2600238020670764e+00 2.3580162677312355e+01 0 0 1
3424 1 1.0764425211281772e+00 9.7065002217744711e-01 2.3653053330787664e+01 0 1 1
5048 1 5.8654420486501158e+00 8.9534768344735731e+00 2.3575369956519573e+01 0 1 1
3223 1 8.7210241384147196e+00 2.5931496124139124e+00 2.3110233971481943e+01 1 2 1
2074 1 7.9593573475714727e+00 5.6852902167387160e+00 1.1731486730783349e+01 0 1 0
6645 1 8.6048776420852313e+00 2.4402961019742079e+01 1.1773739421909994e+01 1 -1 1
1928 1 2.8089968672525130e+00 1.5851305852502589e+01 1.1890418727432989e+01 0 1 0
5283 1 7.2598100396002740e+00 1.6568518295381921e+01 1.1634590058769895e+01 2 -1 0
5359 1 3.8304338599012651e+00 1.9572422722480983e+01 2.3861907525456640e+01 1 -1 0
623 2 2.7754092110352246e-01 3.0860814713545688e+00 2.6749320291210232e+01 0 0 0
625 2 2.7754092110352246e-01 2.7641111150522235e-01 2.6749320291210232e+01 0 0 0
627 2 1.4941638750484063e+00 9.7882870146754875e-01 2.6749320291210232e+01 0 0 0
634 2 1.4941638750484063e+00 2.3836638813921871e+00 2.6749320291210232e+01 0 0 0
636 2 2.7107868289932902e+00 3.0860814713545688e+00 2.6749320291210232e+01 0 0 0
638 2 2.7107868289932902e+00 2.7641111150522235e-01 2.6749320291210232e+01 0 0 0
640 2 3.9274097829379979e+00 9.7882870146754875e-01 2.6749320291210232e+01 0 0 0
655 2 3.9274097829379979e+00 2.3836638813921871e+00 2.6749320291210232e+01 0 0 0
657 2 5.1440327368830578e+00 3.0860814713545688e+00 2.6749320291210232e+01 0 0 0
659 2 5.1440327368830578e+00 2.7641111150522235e-01 2.6749320291210232e+01 0 0 0
661 2 6.3606556908276737e+00 9.7882870146754875e-01 2.6749320291210232e+01 0 0 0
684 2 6.3606556908276737e+00 2.3836638813921871e+00 2.6749320291210232e+01 0 0 0
686 2 7.5772786447724734e+00 3.0860814713545688e+00 2.6749320291210232e+01 0 0 0
688 2 7.5772786447724734e+00 2.7641111150522235e-01 2.6749320291210232e+01 0 0 0
690 2 8.7939015987171167e+00 9.7882870146754875e-01 2.6749320291210232e+01 0 0 0
721 2 8.7939015987171167e+00 2.3836638813921871e+00 2.6749320291210232e+01 0 0 0
723 2 1.0010524552662593e+01 3.0860814713545688e+00 2.6749320291210232e+01 0 0 0
725 2 1.0010524552662593e+01 2.7641111150522235e-01 2.6749320291210232e+01 0 0 0
727 2 1.1227147506606846e+01 9.7882870146754875e-01 2.6749320291210232e+01 0 0 0
766 2 1.1227147506606846e+01 2.3836638813921871e+00 2.6749320291210232e+01 0 0 0
768 2 1.2443770460551825e+01 3.0860814713545688e+00 2.6749320291210232e+01 0 0 0
770 2 1.2443770460551825e+01 2.7641111150522235e-01 2.6749320291210232e+01 0 0 0
1105 2 1.1227147506606846e+01 2.3456191580262736e+01 3.3312679708791435e+01 0 0 0
1095 2 1.1227147506606846e+01 2.2051356400338452e+01 3.3312679708791435e+01 0 0 0
628 2 2.7754092110352246e-01 7.3005870111285169e+00 2.6749320291210232e+01 0 0 0
630 2 2.7754092110352246e-01 4.4909166512791518e+00 2.6749320291210232e+01 0 0 0
632 2 1.4941638750484063e+00 5.1933342412417245e+00 2.6749320291210232e+01 0 0 0
647 2 1.4941638750484063e+00 6.5981694211660500e+00 2.6749320291210232e+01 0 0 0
649 2 2.7107868289932902e+00 7.3005870111285169e+00 2.6749320291210232e+01 0 0 0
651 2 2.7107868289932902e+00 4.4909166512791518e+00 2.6749320291210232e+01 0 0 0
653 2 3.9274097829379979e+00 5.1933342412417245e+00 2.6749320291210232e+01 0 0 0
676 2 3.9274097829379979e+00 6.5981694211660500e+00 2.6749320291210232e+01 0 0 0
1093 2 1.0010524552662593e+01 2.4158609170224391e+01 3.3312679708791435e+01 0 0 0
678 2 5.1440327368830578e+00 7.3005870111285169e+00 2.6749320291210232e+01 0 0 0
680 2 5.1440327368830578e+00 4.4909166512791518e+00 2.6749320291210232e+01 0 0 0
682 2 6.3606556908276737e+00 5.1933342412417245e+00 2.6749320291210232e+01 0 0 0
713 2 6.3606556908276737e+00 6.5981694211660500e+00 2.6749320291210232e+01 0 0 0
715 2 7.5772786447724734e+00 7.3005870111285169e+00 2.6749320291210232e+01 0 0 0
717 2 7.5772786447724734e+00 4.4909166512791518e+00 2.6749320291210232e+01 0 0 0
6534 1 3.0879595146774448e+00 2.3957530244610336e+01 2.3902214590503828e+01 0 1 1
1056 2 5.1440327368830578e+00 2.1348938810374932e+01 3.3312679708791435e+01 0 0 0
719 2 8.7939015987171167e+00 5.1933342412417245e+00 2.6749320291210232e+01 0 0 0
758 2 8.7939015987171167e+00 6.5981694211660500e+00 2.6749320291210232e+01 0 0 0
760 2 1.0010524552662593e+01 7.3005870111285169e+00 2.6749320291210232e+01 0 0 0
762 2 1.0010524552662593e+01 4.4909166512791518e+00 2.6749320291210232e+01 0 0 0
764 2 1.1227147506606846e+01 5.1933342412417245e+00 2.6749320291210232e+01 0 0 0
805 2 1.1227147506606846e+01 6.5981694211660500e+00 2.6749320291210232e+01 0 0 0
807 2 1.2443770460551825e+01 7.3005870111285169e+00 2.6749320291210232e+01 0 0 0
809 2 1.2443770460551825e+01 4.4909166512791518e+00 2.6749320291210232e+01 0 0 0
641 2 2.7754092110352246e-01 1.1515092550902608e+01 2.6749320291210232e+01 0 0 0
643 2 2.7754092110352246e-01 8.7054221910530813e+00 2.6749320291210232e+01 0 0 0
645 2 1.4941638750484063e+00 9.4078397810154453e+00 2.6749320291210232e+01 0 0 0
668 2 1.4941638750484063e+00 1.0812674960940077e+01 2.6749320291210232e+01 0 0 0
670 2 2.7107868289932902e+00 1.1515092550902608e+01 2.6749320291210232e+01 0 0 0
672 2 2.7107868289932902e+00 8.7054221910530813e+00 2.6749320291210232e+01 0 0 0
674 2 3.9274097829379979e+00 9.4078397810154453e+00 2.6749320291210232e+01 0 0 0
705 2 3.9274097829379979e+00 1.0812674960940077e+01 2.6749320291210232e+01 0 0 0
1075 2 6.3606556908276737e+00 2.3456191580262736e+01 3.3312679708791435e+01 0 0 0
707 2 5.1440327368830578e+00 1.1515092550902608e+01 2.6749320291210232e+01 0 0 0
709 2 5.1440327368830578e+00 8.7054221910530813e+00 2.6749320291210232e+01 0 0 0
711 2 6.3606556908276737e+00 9.4078397810154453e+00 2.6749320291210232e+01 0 0 0
750 2 6.3606556908276737e+00 1.0812674960940077e+01 2.6749320291210232e+01 0 0 0
752 2 7.5772786447724734e+00 1.1515092550902608e+01 2.6749320291210232e+01 0 0 0
754 2 7.5772786447724734e+00 8.7054221910530813e+00 2.6749320291210232e+01 0 0 0
756 2 8.7939015987171167e+00 9.4078397810154453e+00 2.6749320291210232e+01 0 0 0
797 2 8.7939015987171167e+00 1.0812674960940077e+01 2.6749320291210232e+01 0 0 0
799 2 1.0010524552662593e+01 1.1515092550902608e+01 2.6749320291210232e+01 0 0 0
801 2 1.0010524552662593e+01 8.7054221910530813e+00 2.6749320291210232e+01 0 0 0
803 2 1.1227147506606846e+01 9.4078397810154453e+00 2.6749320291210232e+01 0 0 0
844 2 1.1227147506606846e+01 1.0812674960940077e+01 2.6749320291210232e+01 0 0 0
846 2 1.2443770460551825e+01 1.1515092550902608e+01 2.6749320291210232e+01 0 0 0
848 2 1.2443770460551825e+01 8.7054221910530813e+00 2.6749320291210232e+01 0 0 0
662 2 2.7754092110352246e-01 1.5729598090676101e+01 2.6749320291210232e+01 0 0 0
664 2 2.7754092110352246e-01 1.2919927730826878e+01 2.6749320291210232e+01 0 0 0
666 2 1.4941638750484063e+00 1.3622345320789103e+01 2.6749320291210232e+01 0 0 0
697 2 1.4941638750484063e+00 1.5027180500713619e+01 2.6749320291210232e+01 0 0 0
699 2 2.7107868289932902e+00 1.5729598090676101e+01 2.6749320291210232e+01 0 0 0
701 2 2.7107868289932902e+00 1.2919927730826878e+01 2.6749320291210232e+01 0 0 0
703 2 3.9274097829379979e+00 1.3622345320789103e+01 2.6749320291210232e+01 0 0 0
742 2 3.9274097829379979e+00 1.5027180500713619e+01 2.6749320291210232e+01 0 0 0
119 1 8.9371336138398068e+00 5.2704499955362403e+00 2.3961345229142246e+01 0 1 0
744 2 5.1440327368830578e+00 1.5729598090676101e+01 2.6749320291210232e+01 0 0 0
746 2 5.1440327368830578e+00 1.2919927730826878e+01 2.6749320291210232e+01 0 0 0
748 2 6.3606556908276737e+00 1.3622345320789103e+01 2.6749320291210232e+01 0 0 0
789 2 6.3606556908276737e+00 1.5027180500713619e+01 2.6749320291210232e+01 0 0 0
791 2 7.5772786447724734e+00 1.5729598090676101e+01 2.6749320291210232e+01 0 0 0
793 2 7.5772786447724734e+00 1.2919927730826878e+01 2.6749320291210232e+01 0 0 0
795 2 8.7939015987171167e+00 1.3622345320789103e+01 2.6749320291210232e+01 0 0 0
836 2 8.7939015987171167e+00 1.5027180500713619e+01 2.6749320291210232e+01 0 0 0
838 2 1.0010524552662593e+01 1.5729598090676101e+01 2.6749320291210232e+01 0 0 0
840 2 1.0010524552662593e+01 1.2919927730826878e+01 2.6749320291210232e+01 0 0 0
842 2 1.1227147506606846e+01 1.3622345320789103e+01 2.6749320291210232e+01 0 0 0
878 2 1.1227147506606846e+01 1.5027180500713619e+01 2.6749320291210232e+01 0 0 0
880 2 1.2443770460551825e+01 1.5729598090676101e+01 2.6749320291210232e+01 0 0 0
882 2 1.2443770460551825e+01 1.2919927730826878e+01 2.6749320291210232e+01 0 0 0
691 2 2.7754092110352246e-01 1.9944103630451231e+01 2.6749320291210232e+01 0 0 0
693 2 2.7754092110352246e-01 1.7134433270600940e+01 2.6749320291210232e+01 0 0 0
695 2 1.4941638750484063e+00 1.7836850860563207e+01 2.6749320291210232e+01 0 0 0
734 2 1.4941638750484063e+00 1.9241686040488062e+01 2.6749320291210232e+01 0 0 0
736 2 2.7107868289932902e+00 1.9944103630451231e+01 2.6749320291210232e+01 0 0 0
738 2 2.7107868289932902e+00 1.7134433270600940e+01 2.6749320291210232e+01 0 0 0
740 2 3.9274097829379979e+00 1.7836850860563207e+01 2.6749320291210232e+01 0 0 0
781 2 3.9274097829379979e+00 1.9241686040488062e+01 2.6749320291210232e+01 0 0 0
2200 1 1.3945907183280415e+00 1.0001854879746402e+01 3.5973835622828929e+01 0 0 -1
783 2 5.1440327368830578e+00 1.9944103630451231e+01 2.6749320291210232e+01 0 0 0
785 2 5.1440327368830578e+00 1.7134433270600940e+01 2.6749320291210232e+01 0 0 0
787 2 6.3606556908276737e+00 1.7836850860563207e+01 2.6749320291210232e+01 0 0 0
828 2 6.3606556908276737e+00 1.9241686040488062e+01 2.6749320291210232e+01 0 0 0
830 2 7.5772786447724734e+00 1.9944103630451231e+01 2.6749320291210232e+01 0 0 0
832 2 7.5772786447724734e+00 1.7134433270600940e+01 2.6749320291210232e+01 0 0 0
834 2 8.7939015987171167e+00 1.7836850860563207e+01 2.6749320291210232e+01 0 0 0
870 2 8.7939015987171167e+00 1.9241686040488062e+01 2.6749320291210232e+01 0 0 0
872 2 1.0010524552662593e+01 1.9944103630451231e+01 2.6749320291210232e+01 0 0 0
874 2 1.0010524552662593e+01 1.7134433270600940e+01 2.6749320291210232e+01 0 0 0
876 2 1.1227147506606846e+01 1.7836850860563207e+01 2.6749320291210232e+01 0 0 0
904 2 1.1227147506606846e+01 1.9241686040488062e+01 2.6749320291210232e+01 0 0 0
908 2 1.2443770460551825e+01 1.7134433270600940e+01 2.6749320291210232e+01 0 0 0
1447 1 1.0381332537195032e+01 1.6783143936180043e+01 3.5621801158066859e+01 -1 0 0
728 2 2.7754092110352246e-01 2.4158609170224391e+01 2.6749320291210232e+01 0 0 0
730 2 2.7754092110352246e-01 2.1348938810374932e+01 2.6749320291210232e+01 0 0 0
732 2 1.4941638750484063e+00 2.2051356400338452e+01 2.6749320291210232e+01 0 0 0
773 2 1.4941638750484063e+00 2.3456191580262736e+01 2.6749320291210232e+01 0 0 0
775 2 2.7107868289932902e+00 2.4158609170224391e+01 2.6749320291210232e+01 0 0 0
777 2 2.7107868289932902e+00 2.1348938810374932e+01 2.6749320291210232e+01 0 0 0
779 2 3.9274097829379979e+00 2.2051356400338452e+01 2.6749320291210232e+01 0 0 0
820 2 3.9274097829379979e+00 2.3456191580262736e+01 2.6749320291210232e+01 0 0 0
1057 2 6.3606556908276737e+00 2.2051356400338452e+01 3.3312679708791435e+01 0 0 0
822 2 5.1440327368830578e+00 2.4158609170224391e+01 2.6749320291210232e+01 0 0 0