
# Create simulation box and atoms

read_data data.graphite_substrate_1000
  orthogonal box = (0 0 -1.03859) to (49.22 49.0196 61.1006)
  4 by 2 by 5 MPI processor grid
  reading atoms ...
  6768 atoms
  reading velocities ...
  6768 velocities
group water type 1
4008 atoms in group water
group graphite type 2
2760 atoms in group graphite

# Define potential

pair_style sw
pair_coeff * * mWC.sw mW C
Reading potential file mWC.sw with DATE: 2019-02-27


# Fix graphite atoms in place

fix 5 graphite setforce 0.0 0.0 0.0
velocity graphite set 0.0 0.0 0.0


# Equilibration of molecular water

# Add velocity/set timestep

velocity	    water create ${TEMP} ${SEED} rot yes dist gaussian
velocity	    water create 225 ${SEED} rot yes dist gaussian
velocity	    water create 225 17401 rot yes dist gaussian
timestep	    5.0

# Define output

compute			1 water msd
compute			3 water temp
thermo	    	50
thermo_style	custom step temp press vol etotal ke pe c_1[4] c_3

# Neighbor lists

neigh_modify    delay 0 every 1 check yes

# Set fixes

fix             1 water momentum 10 linear 1 1 1 rescale
fix             2 water nve
fix             3 water temp/csvr ${TEMP} ${TEMP} 500.0 ${SEED}
fix             3 water temp/csvr 225 ${TEMP} 500.0 ${SEED}
fix             3 water temp/csvr 225 225 500.0 ${SEED}
fix             3 water temp/csvr 225 225 500.0 17401
fix             4 water press/berendsen iso ${PRES} ${PRES} 1000.0 modulus 20000
fix             4 water press/berendsen iso -1000 ${PRES} 1000.0 modulus 20000
fix             4 water press/berendsen iso -1000 -1000 1000.0 modulus 20000

# Run 0.5 ns equilibration

dump		    1 all atom 2000 ${DIR}/eq.${NAME}-${TEMP}.dump
dump		    1 all atom 2000 run_7/eq.${NAME}-${TEMP}.dump
dump		    1 all atom 2000 run_7/eq.het_freeze_7-${TEMP}.dump
dump		    1 all atom 2000 run_7/eq.het_freeze_7-225.dump

reset_timestep  0

run	            100000
Neighbor list info ...
  update every 1 steps, delay 0 steps, check yes
  max neighbors/atom: 2000, page size: 100000
  master list distance cutoff = 7.76
  ghost atom cutoff = 7.76
  binsize = 3.88, bins = 13 13 17
  1 neighbor lists, perpetual/occasional/extra = 1 0 0
  (1) pair sw, perpetual
      attributes: full, newton on
      pair build: full/bin/atomonly
      stencil: full/bin/3d
      bin: standard
Per MPI rank memory allocation (min/avg/max) = 4.107 | 4.219 | 4.543 Mbytes
Step Temp Press Volume TotEng KinEng PotEng c_1[4] c_3 
       0    133.23112   -1309.3276    149926.08   -35971.017    2687.4238   -38658.441            0          225 
      50    174.59831   -1428.6241     148721.4   -36421.034    3521.8473   -39942.881   0.88507302    294.86069 
     100    171.54035   -1264.0779    148063.87   -36761.422    3460.1647   -40221.587    1.9911663    289.69642 
     150    161.69347   -1409.7072    147365.34   -37132.907    3261.5419   -40394.449    2.8631687    273.06706 
     200    156.25754   -1529.0674     146468.5   -37469.153    3151.8929   -40621.046    3.6513635    263.88688 
     250    151.26694   -1031.2382    145718.82   -37754.602    3051.2269   -40805.829    4.3684499    255.45879 
     300      148.557   -1209.3247    145396.73   -37968.706    2996.5642    -40965.27    4.9613345    250.88226 
     350    148.83828   -1315.2898    144842.31   -38168.229     3002.238   -41170.467    5.5955407    251.35728 
     400    146.44919   -996.61282    144502.25   -38337.217    2954.0474   -41291.264    6.1586946    247.32261 
     450    145.14008   -1024.0652    144377.09   -38461.015    2927.6411   -41388.656    6.7018097    245.11179 
     500    143.54441   -1227.5285    144321.79   -38571.278    2895.4547   -41466.733    7.1478805    242.41703 
     550     143.1518   -931.88395    144191.46   -38635.191    2887.5352   -41522.727    7.6059031    241.75398 
     600    140.29125   -1171.0273     144219.7   -38807.792    2829.8346   -41637.627    8.0390601     236.9231 
     650    140.71129   -1028.3678    144111.87   -38893.572    2838.3073    -41731.88    8.5479601    237.63246 
     700    136.37998   -963.90648    143943.07   -38997.621    2750.9398   -41748.561    8.9764442    230.31777 
     750    137.25326   -952.02706    144069.22   -39071.465    2768.5549    -41840.02    9.1375546    231.79256 
     800    136.58338   -1273.2665    143814.79    -39134.07    2755.0426   -41889.113    9.5570931    230.66127 
     850     137.3575   -1010.7293    143619.79   -39145.497    2770.6577   -41916.154    9.8712638    231.96861 
     900    136.20926   -1037.3289    143595.03   -39210.105    2747.4962   -41957.601    10.172836    230.02946 
     950    134.40058   -996.94267    143527.97   -39276.856    2711.0132   -41987.869    10.524653    226.97498 
    1000    134.00659   -1018.3561    143424.81   -39293.713    2703.0659   -41996.778    10.884644    226.30961 
    1050    137.79245   -941.74208    143467.79   -39296.381     2779.431   -42075.812    11.174209    232.70315 
    1100    134.70801   -951.58037    143430.55   -39328.099    2717.2143   -42045.313     11.50288    227.49416 
    1150    133.15056   -1085.4533    143508.19   -39317.317    2685.7987   -42003.115    11.818831    224.86394 
    1200    137.64941   -1003.3678    143462.21   -39297.439    2776.5458   -42073.985    11.973361    232.46159 
    1250    135.43792   -1033.2983    143540.03   -39360.917    2731.9375   -42092.854    12.273816    228.72683 
    1300    135.08789    -980.7095    143673.23   -39364.583    2724.8769    -42089.46    12.522152    228.13569 
    1350    136.65037   -1036.6286    143645.35   -39355.002    2756.3939   -42111.395    12.860937     230.7744 
    1400     134.4396   -1010.4506    143646.27   -39400.708    2711.8002   -42112.508    13.248677    227.04087 
    1450    133.85726    -881.4519    143608.65   -39372.582    2700.0538   -42072.635    13.541921    226.05743 
    1500    135.72002   -1039.7629    143785.75   -39398.191    2737.6277   -42135.819     13.71426    229.20323 
    1550    135.09028   -983.40744    143623.26   -39432.194    2724.9252   -42157.119    14.008396    228.13974 
    1600    133.88404   -907.31043    143683.71   -39518.839    2700.5939   -42219.433    14.140207    226.10264 
    1650    132.98403   -942.99756    143667.64   -39568.485    2682.4396   -42250.925      14.3529    224.58271 
    1700    132.51429   -908.54298    143927.81   -39585.558    2672.9646   -42258.522    14.511368    223.78942 
    1750     136.8327   -1237.2128    143944.42   -39519.951    2760.0717   -42280.022     14.78322    231.08232 
    1800    135.22907   -1029.1196    143823.93   -39531.319    2727.7247   -42259.044    15.094776    228.37412 
    1850    136.28035   -1102.5184       143868   -39581.668    2748.9303   -42330.598    15.318007    230.14953 
    1900    132.58108   -1072.4362    143798.97    -39672.05    2674.3116   -42346.362    15.420986    223.90221 
    1950    132.86056   -942.10463    143831.24   -39722.162    2679.9491   -42402.112    15.616885    224.37419 
    2000    133.28819    -1029.849    143952.77   -39699.362     2688.575   -42387.937    15.748028    225.09638 
    2050    133.92808   -884.34963    144099.14   -39681.034    2701.4823   -42382.516    15.869044    226.17702 
    2100    131.64529   -1115.7107    144033.81   -39686.211    2655.4358   -42341.647    16.073676    222.32186 
    2150    135.63616   -934.80985    144099.64   -39676.354    2735.9361    -42412.29    16.335841    229.06161 
    2200    136.00516   -1031.8468    144143.43    -39663.84    2743.3793    -42407.22    16.579039    229.68478 
    2250    136.98432     -907.608     144220.3   -39677.461    2763.1301   -42440.591    16.807462    231.33838 
    2300    136.81245   -958.59601    144175.26   -39668.819    2759.6634   -42428.483    17.058132    231.04813 
    2350    136.09059   -922.02452    144262.89    -39659.57    2745.1026   -42404.673    17.265726    229.82906 
    2400    134.12736   -1015.3755    144361.01   -39692.393    2705.5019   -42397.895    17.598811    226.51356 
    2450    133.60471   -990.95867    144295.74   -39672.671    2694.9596   -42367.631    17.857394    225.63092 
    2500    136.01135   -964.21153    144380.42   -39682.545    2743.5041   -42426.049    18.063908    229.69523 
    2550    134.55203   -979.95807    144321.19   -39736.501     2714.068   -42450.569      18.2837    227.23074 
    2600    131.92435   -827.52028    144392.33   -39766.999    2661.0648   -42428.064    18.380515    222.79313 
    2650    132.29329   -1055.6079    144485.24   -39764.771    2668.5067   -42433.278     18.35562     223.4162 
    2700    134.70333   -1042.2886    144378.55   -39743.681    2717.1199     -42460.8    18.571207    227.48625 
    2750    134.23154   -957.74564    144434.45   -39785.726    2707.6034    -42493.33    18.765324     226.6895 
    2800    132.91311   -1048.5642    144471.36   -39814.803    2681.0091   -42495.812    19.084354    224.46294 
    2850    130.20142   -1059.7614    144448.39   -39808.512    2626.3113   -42434.823    19.292438    219.88346 
    2900     132.1581   -1003.9924    144500.64   -39791.994    2665.7798   -42457.774    19.549378    223.18789 
    2950    131.48148   -969.23214    144320.55   -39797.292    2652.1315   -42449.424    19.927187    222.04521 
    3000    131.20188   -949.29709    144339.49   -39794.497    2646.4917   -42440.988     20.05282    221.57303 
    3050     133.4659   -909.80368    144403.39   -39759.778    2692.1595   -42451.938    20.259458    225.39649 
    3100    135.80884   -909.33091    144574.09   -39755.501    2739.4194    -42494.92     20.50563    229.35324 
    3150    132.82172   -1101.3889    144690.57   -39792.877    2679.1658   -42472.042    20.799036    224.30861 
    3200    132.80813   -1205.7936    144524.13   -39830.586    2678.8916   -42509.478    21.053246    224.28565 
    3250    131.17569   -1034.3877    144343.23   -39819.939    2645.9635   -42465.902    21.344388     221.5288 
    3300    133.14125   -878.16271    144549.55     -39826.9    2685.6111   -42512.511    21.443189    224.84823 
    3350    132.54472   -949.00869    144639.52   -39848.963    2673.5783   -42522.542    21.600193    223.84081 
    3400     132.4432   -876.08049    144758.82   -39840.189    2671.5305    -42511.72    21.838945    223.66936 
    3450    133.00623   -1086.6646    144821.27   -39866.601    2682.8875   -42549.488    21.934966     224.6202 
    3500    131.71416    -1129.153     144785.1   -39855.767    2656.8249   -42512.592    21.981295    222.43816 
    3550    131.76401   -1037.5781    144593.14   -39823.649    2657.8305   -42481.479    22.236026    222.52235 
    3600    132.66621   -1120.0168     144538.8   -39831.893    2676.0289   -42507.922    22.427481    224.04598 
    3650    132.35142   -680.98248    144733.68   -39810.617    2669.6793   -42480.296    22.538754    223.51437 
    3700    130.89978    -1017.643    144799.51   -39848.866    2640.3981   -42489.264    22.723872    221.06285 
    3750    134.62642   -1050.5975    144826.82   -39812.563    2715.5686   -42528.131     22.83221    227.35638 
    3800    133.18841    -944.2777    144977.88   -39801.909    2686.5622   -42488.471      22.8842    224.92787 
    3850    135.57494   -956.82672    144984.58   -39757.897    2734.7014   -42492.598    23.079726    228.95824 
    3900    133.62806   -1036.1915    144868.25   -39751.522    2695.4305   -42446.952    23.196559    225.67034 
    3950    134.01697   -975.75954    145016.64   -39822.024    2703.2752   -42525.299    23.295074    226.32713 
    4000    133.94103   -1101.5399    145072.51   -39839.629    2701.7436   -42541.373    23.439985     226.1989 
    4050    133.92587   -1041.7446    145004.95   -39806.846    2701.4378   -42508.284    23.564736     226.1733 
    4100    133.16169   -1137.1325    145006.74    -39787.23    2686.0233   -42473.254    23.779083    224.88274 
    4150     136.0546   -917.56569     145040.5   -39785.715    2744.3767   -42530.092    23.888155    229.76828 
    4200    135.52693   -1119.8996    145140.58   -39805.176     2733.733   -42538.909    24.032667    228.87716 
    4250    131.00452   -963.71285    145050.59    -39860.78    2642.5108    -42503.29     24.33727    221.23973 
    4300     131.8195   -1075.3039    145060.76   -39882.756    2658.9498   -42541.706     24.52072    222.61606 
    4350    132.06111   -1076.5262    144861.96   -39926.688    2663.8234   -42590.511    24.699294    223.02409 
    4400    131.89678   -1024.6277    144849.57   -39915.937    2660.5086   -42576.446    24.765643    222.74657 
    4450    132.12935   -1069.8303    144724.99   -39878.342    2665.1997   -42543.542    24.992183    223.13933 
    4500    132.66684   -1001.0634    144511.94   -39925.529    2676.0417   -42601.571    25.264195    224.04705 
    4550    131.55614   -1000.0304    144611.72   -39916.441    2653.6376   -42570.079    25.380063    222.17131 
    4600    134.29577   -1050.6613    144567.46   -39919.775    2708.8989   -42628.674    25.500794    226.79796 
    4650    133.80865   -934.57374    144621.51   -39872.984    2699.0732   -42572.057    25.602276    225.97532 
    4700    133.72075    -964.5693    144665.44   -39850.757    2697.3002   -42548.057    25.789888    225.82689 
    4750    133.36502   -1037.6554    144558.44   -39859.089    2690.1247   -42549.213     26.03284    225.22613 
    4800     131.9095   -1114.1918    144571.58   -39848.831    2660.7652   -42509.596    26.213458    222.76805 
    4850    133.95378   -1044.6297     144566.3   -39838.337    2702.0008   -42540.338    26.312238    226.22043 
    4900    135.18464   -1122.4773    144475.84   -39876.667    2726.8285   -42603.496    26.565274    228.29909 
    4950    133.92424   -786.41131    144451.16   -39859.436    2701.4047   -42560.841    26.824318    226.17053 
    5000    130.60887    -1031.226    144570.68    -39885.62    2634.5299    -42520.15    26.874228    220.57155 
    5050    131.95972    -941.4321    144660.25   -39891.687    2661.7781   -42553.465     26.97148    222.85286 
    5100    135.36076   -951.13736    144630.47   -39863.327    2730.3811   -42593.708    27.113388    228.59653 
    5150    129.78893   -879.37703    144752.94   -39855.913    2617.9908   -42473.904    27.172673    219.18684 
    5200    132.45929    -1072.373    144661.56   -39843.564     2671.855    -42515.42    27.360032    223.69653 
    5250    134.89883   -939.18175    144720.59   -39864.215    2721.0635   -42585.278    27.663388    227.81642 
    5300    132.91323    -999.3044    144788.84    -39820.98    2681.0115   -42501.991    27.820716    224.46314 
    5350    134.45206   -1053.3255    144555.38   -39791.846    2712.0516   -42503.898    28.018193    227.06192 
    5400    132.11409    -858.5482    144652.68   -39772.014     2664.892   -42436.906    28.290358    223.11356 
    5450    132.60496    -1012.806    144691.25   -39760.245    2674.7934   -42435.038    28.484403    223.94254 
    5500    133.19515   -1098.1131    144506.77   -39786.676    2686.6982   -42473.375    28.680039    224.93925 
    5550    133.47031   -1070.5354    144294.74   -39831.259    2692.2484   -42523.507    28.843553    225.40393 
    5600    132.98544   -1007.6652    144376.77   -39878.986    2682.4681   -42561.454    29.010393    224.58509 
    5650     133.6639   -1046.5866    144255.85   -39888.418    2696.1535   -42584.572    29.285492    225.73087 
    5700    132.97184   -1184.3067    143978.11   -39878.788    2682.1939   -42560.982    29.438561    224.56213 
    5750    130.62513   -930.93747    143786.53   -39851.448    2634.8581   -42486.306    29.501144    220.59902 
    5800    131.42816   -887.01038    143988.56   -39818.482    2651.0561   -42469.538     29.78899    221.95517 
    5850    132.22384   -1038.9067     144094.4   -39820.374    2667.1057   -42487.479    29.970572     223.2989 
    5900    135.39854   -1121.4633    144093.15   -39819.004     2731.143   -42550.147     30.10761    228.66032 
    5950     133.0875   -898.18635    144052.25   -39850.001    2684.5268   -42534.528    30.357958    224.75745 
    6000    132.08726   -1081.1126    144092.86   -39847.308    2664.3508   -42511.659    30.614845    223.06825 
    6050    134.29073   -1085.2897    144086.13   -39821.603    2708.7973   -42530.401    30.699485    226.78946 
    6100    134.15405    -862.9324    144008.25   -39804.511    2706.0404   -42510.551     30.80675    226.55864 
    6150    133.38129   -988.36384     144108.7   -39863.468     2690.453   -42553.921    31.010775    225.25361 
    6200    133.03483   -1001.7891    144194.63   -39828.949    2683.4645   -42512.413     31.29548    224.66851 
    6250     131.4113   -1117.0373    144143.32   -39888.267     2650.716   -42538.983    31.600023     221.9267 
    6300    131.58089   -1038.2901     143965.8   -39898.881    2654.1368   -42553.018    31.847453     222.2131 
    6350    132.04031   -948.87972    144174.62   -39889.455    2663.4038   -42552.859    31.874984    222.98896 
    6400    131.41286   -1172.2956    144215.48   -39932.011    2650.7474   -42582.758    32.062402    221.92933 
    6450    132.79071   -974.22818    144166.22   -39856.506    2678.5402   -42535.047    32.293297    224.25624 
    6500    136.13109   -961.48029     144166.6   -39834.865    2745.9195   -42580.784    32.576497    229.89745 
    6550    132.72819   -961.29413    144334.32   -39840.093     2677.279   -42517.372    32.720145    224.15064 
    6600    132.13321   -930.00788    144487.22   -39778.982    2665.2777    -42444.26    32.972062    223.14585 
    6650     132.4987    -1043.432    144501.29   -39772.135      2672.65   -42444.785     33.21631    223.76309 
    6700    132.99516   -1096.3481    144437.16   -39822.675    2682.6643   -42505.339    33.599897    224.60151 
    6750    135.47151   -1058.6592    144414.51    -39815.23     2732.615   -42547.845    33.806693    228.78355 
    6800    133.95215   -1025.8604    144486.55   -39781.234    2701.9678   -42483.202    33.918605    226.21767 
    6850     135.4955   -1068.3152    144596.95   -39769.605    2733.0989   -42502.704    34.181377    228.82407 
    6900    136.41108   -976.17963    144604.73   -39791.985    2751.5672   -42543.552    34.429845     230.3703 
    6950    133.02806     -967.876    144713.15   -39780.196    2683.3278   -42463.523    34.569071    224.65707 
    7000    135.07248   -1030.0613    144656.21   -39779.757    2724.5662   -42504.323    34.600697    228.10968 
    7050    133.29165   -1024.2653    144644.25   -39766.125    2688.6448   -42454.769    34.632546    225.10222 
    7100    132.04094   -991.56769    144584.57   -39816.473    2663.4164   -42479.889    34.871125    222.99002 
    7150    134.40691   -1039.6398    144589.98   -39846.296    2711.1409   -42557.437    35.023267    226.98567 
    7200    134.78732   -989.56101    144653.15   -39817.308    2718.8142   -42536.122     35.19833     227.6281 
    7250    131.96663   -893.47739    144546.26   -39849.998    2661.9176   -42511.915    35.375669    222.86454 
    7300    133.39391   -1097.4028    144623.61   -39839.386    2690.7074   -42530.093    35.717669    225.27491 
    7350    131.76129   -921.34947     144497.6   -39868.814    2657.7756    -42526.59    35.970921    222.51775 
    7400    133.08904   -897.04985    144574.86   -39874.409    2684.5579   -42558.967    36.132442    224.76005 
    7450    132.69656   -995.98874    144691.42   -39850.158    2676.6411     -42526.8    36.368525    224.09723 
    7500    132.24536   -1122.0999    144616.26   -39822.883    2667.5398   -42490.422    36.381357    223.33524 
    7550     133.4791   -825.01879    144751.98   -39813.785    2692.4258   -42506.211    36.426707    225.41878 
    7600    134.53743   -907.17308    144912.62   -39768.469    2713.7737   -42482.243    36.510793    227.20609 
    7650    134.51184   -1048.6105    144911.51   -39771.545    2713.2574   -42484.802    36.651148    227.16287 
    7700    135.68235   -887.29491    144922.15   -39755.486     2736.868   -42492.354    36.775203    229.13963 
    7750     136.1216   -985.04671    144842.18   -39792.011    2745.7281   -42537.739    37.054613    229.88142 
    7800    132.50287   -809.53833    144947.11   -39792.621    2672.7342   -42465.355    37.180899    223.77014 
    7850    135.99409   -1066.1549    145109.03   -39787.316    2743.1561   -42530.472    37.283853    229.66609 
    7900    132.75336   -1119.2569    144991.51   -39842.983    2677.7869    -42520.77     37.52378    224.19316 
    7950    133.05281   -1232.6898    144857.42   -39889.482    2683.8271   -42573.309    37.588952    224.69887 
    8000    132.22822   -942.73297     144761.7   -39881.094    2667.1942   -42548.288     37.74838    223.30631 
    8050    132.53996   -1066.3309    144619.81   -39868.798    2673.4824   -42542.281    37.824331    223.83278 
    8100    131.71298   -896.72784    144547.79   -39842.157    2656.8011   -42498.958    37.870114    222.43616 
    8150    132.57367   -977.46535    144614.68   -39849.552    2674.1622   -42523.714    38.085149    223.88969 
    8200    131.94753   -802.82494     144671.8   -39863.967    2661.5324   -42525.499    38.348222    222.83229 
    8250    134.09117   -1114.8468    144765.82   -39869.804    2704.7721   -42574.576    38.592882    226.45245 
    8300    131.87781   -943.16891     144663.5   -39870.501     2660.126   -42530.627    38.974222    222.71454 
    8350    133.57409   -980.73864    144684.49   -39825.552     2694.342   -42519.894     39.14794    225.57921 
    8400    132.48437   -1129.3036    144709.75   -39832.586     2672.361   -42504.947    39.272397    223.73889 
    8450    133.27427   -911.24842    144732.93    -39835.97    2688.2942   -42524.264    39.473785    225.07287 
    8500     135.2205   -997.56147    144832.92   -39798.061    2727.5519   -42525.613    39.766187    228.35966 
    8550    134.90399   -942.02393    144932.44   -39867.648    2721.1676   -42588.815    40.161562    227.82514 
    8600    129.79908   -1072.8808    144814.52   -39946.713    2618.1956   -42564.908    40.381572    219.20398 
    8650    130.62543   -1029.9556    144692.41   -39945.275     2634.864   -42580.139    40.701382    220.59952 
    8700    129.94956    -868.6182    144679.62   -39894.788     2621.231   -42516.019    40.986977    219.45812 
    8750    134.66694   -986.67915    144746.38   -39877.481    2716.3859   -42593.867    41.269258     227.4248 
    8800    132.58446   -908.18421    144680.77    -39878.84      2674.38    -42553.22     41.44514    223.90792 
    8850    137.34388    -836.9637    144847.27   -39900.046    2770.3829   -42670.429    41.716006    231.94561 
    8900    132.74413    -982.6588    144949.29   -39924.741    2677.6007   -42602.342    42.036584    224.17758 
    8950    133.49155   -975.55324    144931.13   -39935.536    2692.6769   -42628.213    42.371384    225.43981 
    9000    134.80547   -1124.5783    144976.22    -39923.13    2719.1803    -42642.31    42.669837    227.65876 
    9050    133.73108   -1324.2948    144758.71   -39912.397    2697.5085   -42609.906    42.891328    225.84432 
    9100    132.90799    -962.2696    144589.07   -39929.257    2680.9059   -42610.162    43.135868     224.4543 
    9150    133.41545   -975.59033    144700.77   -39948.822    2691.1419   -42639.964    43.378314    225.31129 
    9200    133.45496   -905.85968    144676.55   -39945.063     2691.939   -42637.002    43.523232    225.37802 
    9250    134.18043   -997.11507    144637.22   -39949.279    2706.5724   -42655.851    43.584741    226.60318 
    9300    132.36003   -913.17114    144602.15   -39950.107     2669.853    -42619.96    43.626134    223.52891 
    9350    133.17574   -1086.8947    144523.42   -39913.251    2686.3068   -42599.558    43.786325    224.90648 
    9400    133.69756   -861.57352     144527.9   -39883.235    2696.8324   -42580.068    44.109198    225.78772 
    9450    133.04042   -1092.9342    144433.75   -39906.375    2683.5772   -42589.953    44.282486    224.67795 
    9500    134.65782   -1051.4956    144340.96    -39893.55    2716.2021   -42609.752    44.416416    227.40941 
    9550    132.26312   -947.84349    144377.54   -39912.009     2667.898   -42579.907    44.606422    223.36524 
    9600    133.16621   -999.89744    144381.99   -39933.174    2686.1145   -42619.288    44.759504    224.89038 
    9650    132.51393   -1022.5668    144389.89   -39897.567    2672.9572   -42570.524     44.94474    223.78881 
    9700    135.21337   -777.57767     144615.6   -39937.914     2727.408   -42665.322    45.147884    228.34761 
    9750    132.24364   -926.83787    144726.58   -39928.416    2667.5052   -42595.921    45.198323    223.33235 
    9800     134.5764   -953.18287    144743.85   -39892.742    2714.5596   -42607.302    45.542662     227.2719 
    9850    131.38065   -1060.3058    144662.14   -39958.418    2650.0978   -42608.516    45.564459    221.87494 
    9900    132.52797   -852.73645    144791.35   -39933.694    2673.2405   -42606.935     45.62053    223.81252 
    9950    136.10539   -843.47675    145067.65   -39915.406    2745.4011   -42660.807     45.70183    229.85405 
   10000    131.97703   -916.21553     145195.1    -39953.83    2662.1273   -42615.957    45.861375    222.88209 
   10050    132.71044   -1121.4658    145224.97   -39952.102     2676.921   -42629.023    45.987975    224.12067 
   10100      133.151   -1020.3615    145217.44   -39939.234    2685.8076   -42625.041    46.195039    224.86468 
   10150    135.25215   -1070.6519    145230.08   -39926.663    2728.1903   -42654.853    46.416149    228.41311 
   10200    133.99359   -1086.8513    145052.72    -39950.26    2702.8037   -42653.064    46.445735    226.28765 
   10250    132.27186   -1104.9903    144987.28     -40014.1    2668.0745   -42682.174    46.534281    223.38001 
   10300    132.10857   -1077.8999    145023.75   -39986.601    2664.7806   -42651.382    46.691127    223.10423 
   10350    131.09695   -1088.0708    145048.31   -39989.819    2644.3752   -42634.194    46.996561    221.39583 
   10400    132.59971    -970.4889    144958.34   -39986.936    2674.6876   -42661.623    47.219996    223.93368 
   10450    133.96326   -1009.4593    144942.03   -39946.539    2702.1918   -42648.731    47.456213    226.23642 
   10500    132.61506   -1103.1888    144881.42   -39933.088    2674.9971   -42608.085    47.688515    223.95959 
   10550    134.89242   -1030.4229    144809.55   -39895.513    2720.9342   -42616.447    47.932267     227.8056 
   10600    133.54298    -993.9563    144785.48   -39850.705    2693.7144   -42544.419    48.081115    225.52667 
   10650    132.50431   -1040.1932    144723.54   -39868.414    2672.7631   -42541.177    48.169093    223.77256 
   10700    134.05051   -934.70556     144663.5   -39880.232    2703.9517   -42584.184     48.33545    226.38377 
   10750    134.33449   -1051.1002    144713.56   -39894.493      2709.68   -42604.173     48.50289    226.86336 
   10800    133.40901   -931.20245    144645.38   -39906.691     2691.012   -42597.703    48.579596    225.30042 
   10850    134.77704   -1014.1092    144714.07   -39883.941    2718.6068   -42602.548    48.621129    227.61074 
   10900    134.37702   -1161.8376    144753.04   -39859.109     2710.538   -42569.646    48.816395    226.93519 
   10950    135.54485   -1086.3726    144807.13   -39915.174    2734.0944   -42649.268    48.995414    228.90742 
   11000    132.26614   -1021.1823    144799.17   -39940.661     2667.959    -42608.62    49.085167    223.37034 
   11050     133.6356   -872.54129    144924.64   -39956.529    2695.5825   -42652.111    49.259138    225.68307 
   11100    134.34748   -1027.9347    144928.54    -39948.95    2709.9421   -42658.892    49.405095     226.8853 
   11150     134.2237   -1017.1411    144834.86   -39915.276    2707.4453   -42622.721    49.470943    226.67627 
   11200    131.36559    -1255.938     144688.4   -39961.446    2649.7939    -42611.24    49.715174     221.8495 
   11250    131.65736   -1018.9543    144658.79   -40017.111    2655.6793    -42672.79    49.648002    222.34224 
   11300    133.47516   -964.65808    144692.97   -40018.591    2692.3464   -42710.937    49.904575    225.41214 
   11350    131.05151   -967.78346    144636.83   -40008.016    2643.4585   -42651.474    50.132976    221.31908 
   11400    133.13422   -1064.0506    144772.55   -39951.155    2685.4691   -42636.624    50.361437    224.83635 
   11450    130.97893   -1003.9301    144743.76   -39967.472    2641.9945   -42609.466    50.500379     221.1965 
   11500    133.49319   -885.71103    144794.08   -39935.199      2692.71   -42627.909    50.493278    225.44258 
   11550    134.35927   -1025.8881    144900.33   -39922.275      2710.18   -42632.455    50.662758    226.90522 
   11600    132.54797   -981.36635    144926.61   -39912.129    2673.6438   -42585.773    50.817804    223.84629 
   11650    132.51821   -1128.3991    144777.47   -39916.133    2673.0436   -42589.177     51.24948    223.79604 
   11700    131.84118    -1013.243    144766.35   -39938.419    2659.3871   -42597.806    51.421872    222.65267 
   11750    132.70822   -890.88428    144870.05   -39898.814    2676.8763    -42575.69    51.448693    224.11693 
   11800    134.27691   -806.55326     145032.5   -39914.913    2708.5186   -42623.432    51.378049    226.76613 
   11850    133.64139   -1078.5114    145041.54    -39923.09    2695.6994   -42618.789    51.472501    225.69286 
   11900    131.60524   -905.46512    145076.51   -39936.441    2654.6279   -42591.069    51.453227    222.25422 
   11950    132.67611   -1167.9587    144896.65   -39929.601    2676.2286    -42605.83    51.564074     224.0627 
   12000    135.97515     -977.367    144863.79   -39879.504    2742.7741   -42622.278    51.771889     229.6341 
   12050    134.77227   -1096.0905    144783.03   -39840.735    2718.5105   -42559.246    51.896055    227.60268 
   12100    132.71616   -1053.3739    144803.48   -39858.676    2677.0364   -42535.713    52.055388    224.13033 
   12150    132.60962   -1103.6396    144841.32   -39870.831    2674.8875   -42545.719      52.4754    223.95042 
   12200    133.24378     -1013.84    144792.84   -39836.215    2687.6792   -42523.895    52.726028    225.02138 
   12250    131.71021   -1000.6055    144657.01   -39823.843    2656.7452   -42480.588    52.962295    222.43149 
   12300    133.94278   -822.93554    144789.08    -39822.26    2701.7788   -42524.039    53.128212    226.20185 
   12350     130.9085   -987.35728    144722.21   -39808.074    2640.5739   -42448.648    53.537409    221.07757 
   12400    131.45141   -859.08572    144801.49   -39904.517    2651.5251   -42556.042    53.732309    221.99444 
   12450    131.00626   -977.20079    144793.69   -39892.733    2642.5459   -42535.279    54.024659    221.24267 
   12500    133.75456   -1124.6291    144804.21   -39846.344    2697.9823   -42544.326    54.236257    225.88399 
   12550    132.22531   -1009.7446    144728.32   -39875.373    2667.1355   -42542.508    54.526755    223.30139 
   12600    134.11282   -888.53363    144704.83   -39852.875    2705.2087   -42558.084    54.744204    226.48901 
   12650    134.88684   -1058.5924    144722.65   -39760.737    2720.8215   -42481.559    54.963155    227.79616 
   12700    135.05013   -978.19639    144772.69   -39743.007    2724.1153   -42467.122    55.035408    228.07193 
   12750    135.88793   -979.57911     144817.3   -39763.615    2741.0147    -42504.63     55.23309     229.4868 
   12800    132.52376   -998.15989    144716.41    -39776.39    2673.1555   -42449.546    55.234316    223.80541 
   12850    133.81307   -1007.1362    144703.47   -39753.167    2699.1624   -42452.329    55.204603    225.98279 
   12900     134.4457   -864.00154    144769.29   -39844.349    2711.9232   -42556.272    55.112342    227.05117 
   12950    136.04666   -1096.0957     144789.2   -39787.991    2744.2165   -42532.207    55.172966    229.75487 
   13000    137.45434   -925.90106    144797.91   -39798.444    2772.6109   -42571.055    55.287719    232.13215 
   13050    135.02173   -889.53848    144877.78    -39810.21    2723.5424   -42533.753    55.263802    228.02396 
   13100    134.07318   -1062.0674    144940.64   -39799.945    2704.4091   -42504.354     55.49399    226.42206 
   13150    131.22686   -965.98963    145024.42   -39863.114    2646.9956    -42510.11    55.502552    221.61521 
   13200    130.82739   -1153.3587    144905.17    -39897.19    2638.9377   -42536.128    55.653687    220.94058 
   13250    135.49177   -1192.5082    144862.28   -39795.018    2733.0237   -42528.042    55.472918    228.81777 
   13300    133.35947    -1006.516    144688.69   -39826.428    2690.0128   -42516.441    55.461965    225.21676 
   13350    133.28006   -1017.2764    144678.27   -39841.482     2688.411   -42529.893    55.441512    225.08265 
   13400    134.85656   -959.81309    144663.38   -39808.876    2720.2107   -42529.086    55.204788    227.74503 
   13450    134.58559   -982.85635    144767.01   -39833.014     2714.745   -42547.759    55.536388    227.28742 
   13500    134.34877   -1007.9847    144637.39   -39803.556    2709.9681   -42513.524    55.829162    226.88748 
   13550    134.10509   -1104.1054    144653.32   -39811.046    2705.0527   -42516.099    55.936865    226.47594 
   13600    134.11694   -1168.7829    144574.53    -39783.48    2705.2918   -42488.772    56.335542    226.49597 
   13650     131.5047   -1045.9963    144413.03    -39842.95       2652.6    -42495.55    56.703834    222.08443 
   13700    130.05582   -922.95843    144378.02   -39845.444    2623.3745   -42468.818    56.867108    219.63758 
   13750    136.35717   -926.54428    144449.87   -39761.347    2750.4798   -42511.827    57.273486    230.27925 
   13800    132.59885   -888.42134    144400.07   -39775.427    2674.6702   -42450.097    57.424987    223.93222 
   13850    136.79057   -841.77335    144410.17   -39763.784    2759.2219   -42523.006     57.58169    231.01118 
   13900    134.16871   -1036.5692    144496.45   -39792.954    2706.3361    -42499.29    57.796664     226.5834 
   13950    131.62906   -1012.0878    144504.55   -39820.743    2655.1084   -42475.852    58.138743    222.29445 
   14000    131.12717   -1074.1695    144452.81   -39817.628    2644.9847   -42462.613    58.492622    221.44686 
   14050    130.91603   -1112.6522    144315.86   -39861.211    2640.7257   -42501.937    58.774756    221.09028 
   14100    134.36118   -950.52533     144411.3   -39834.504    2710.2184   -42544.723    58.944368    226.90844 
   14150    133.73804   -975.35535    144457.09   -39855.673    2697.6489   -42553.322    59.089027    225.85608 
   14200    134.23494   -962.04264    144555.88   -39853.913    2707.6721   -42561.585    59.105477    226.69525 
   14250    131.71355    -1008.432    144451.69   -39871.922    2656.8127   -42528.734    59.190432    222.43713 
   14300    131.75395   -1005.4811    144363.32   -39880.228    2657.6276   -42537.856     59.18816    222.50536 
   14350    135.58837    -861.1818    144415.74   -39826.237    2734.9722    -42561.21    59.524721    228.98091 
   14400    135.20893   -1064.6696     144513.2   -39773.315    2727.3185   -42500.633     59.77426    228.34012 
   14450     134.9862   -1124.5679    144358.26    -39691.49    2722.8257   -42414.316     59.89906    227.96396 
   14500    135.05607   -941.93167    144314.85   -39703.915    2724.2352    -42428.15    60.213693    228.08197 
   14550    131.52524   -925.14553    144338.29   -39773.386    2653.0142     -42426.4    60.430211    222.11911 
   14600    133.16506   -1024.7065    144381.77    -39759.78    2686.0913   -42445.872    60.515251    224.88843 
   14650    133.32935    -1003.209    144355.62    -39753.18    2689.4052   -42442.586    60.703561    225.16589 
   14700    135.08166   -908.20704    144330.97   -39751.909    2724.7512    -42476.66    60.748294    228.12518 
   14750    134.68888   -920.77004       144493   -39762.733    2716.8285   -42479.561    60.988718    227.46186 
   14800    133.96583   -1132.7799    144583.32    -39737.45    2702.2437   -42439.693    61.314248    226.24077 
   14850     134.6949   -1098.7145    144462.79   -39711.429      2716.95   -42428.379    61.453665    227.47203 
   14900    136.04947   -1035.5049    144465.29   -39679.601    2744.2731   -42423.874    61.985659    229.75961 
   14950    135.45869   -992.19715    144578.14   -39722.076    2732.3564   -42454.433    62.318752    228.76191 
   15000    133.50757   -1060.5795    144425.17   -39704.591         2693   -42397.591    62.516776    225.46686 
   15050    135.78784   -1042.8906    144484.16   -39715.714    2738.9958    -42454.71    62.711797    229.31778 
   15100    135.32418   -935.12714    144597.79   -39746.542    2729.6432   -42476.185    62.618442    228.53474 
   15150    133.26938   -1050.4685    144664.61   -39771.478    2688.1956   -42459.673    62.901737    225.06462 
   15200    135.06132   -1064.9742    144734.75   -39794.962    2724.3409   -42519.303     62.99758    228.09082 
   15250    134.88354   -1024.3728    144707.48   -39818.879    2720.7549   -42539.634    63.085837    227.79059 
   15300    132.62561   -974.48342    144675.83    -39761.65      2675.21    -42436.86    63.034377    223.97742 
   15350     134.7934   -1099.9507    144473.26   -39753.061    2718.9368   -42471.998    62.885136    227.63837 
   15400    132.76763   -1155.3508    144374.03   -39839.594    2678.0747   -42517.669    63.033194    224.21726 
   15450    131.86267   -897.44375    144470.98   -39849.421    2659.8205   -42509.242    63.137377    222.68896 
   15500    134.50193   -1065.3958    144500.38   -39870.906    2713.0575   -42583.964    63.030743    227.14614 
   15550    135.21554   -1045.3621    144489.23   -39879.673    2727.4518   -42607.124    63.351014    228.35128 
   15600    135.79442   -860.48769    144541.08   -39873.173    2739.1284   -42612.301    63.469032    229.32888 
   15650    131.71372   -998.05369    144737.07   -39879.084    2656.8162   -42535.901    63.739357    222.43743 
   15700    131.71568    -931.9966    144696.54   -39950.816    2656.8556   -42607.672    63.995839    222.44073 
   15750    133.76193   -909.30567    144642.78   -39920.931    2698.1308   -42619.061    64.000119    225.89642 
   15800    131.71459   -994.09928    144646.25   -39917.138    2656.8337   -42573.972    64.074511    222.43889 
   15850    131.69613   -1003.6819    144633.25   -39882.616    2656.4612   -42539.077    64.413601    222.40771 
   15900    134.06805   -932.40739       144737   -39839.828    2704.3056   -42544.134    64.653219     226.4134 
   15950    131.75419   -1125.0844    144800.13   -39872.185    2657.6324   -42529.818    64.738229    222.50577 
   16000    135.16768   -1087.9988    144705.38   -39846.929    2726.4863   -42573.415    64.843912    228.27044 
   16050     136.5138   -951.08629    144828.89   -39839.467    2753.6392   -42593.107    65.085117    230.54377 
   16100    131.02458   -1079.0851    144603.76   -39847.486    2642.9153   -42490.402    65.385525     221.2736 
   16150    133.30105    -1041.278    144591.36   -39838.531    2688.8343   -42527.366    65.557737    225.11809 
   16200    133.17253   -1051.0662    144644.64   -39856.484     2686.242   -42542.726    65.956979    224.90106 
   16250    135.59253   -1127.7961    144315.03   -39841.887    2735.0561   -42576.944    66.184045    228.98793 
   16300    131.89936    -999.1367    144329.37   -39844.767    2660.5606   -42505.328    66.417312    222.75092 
   16350    130.66323   -1039.6425    144331.32   -39858.071    2635.6265   -42493.697    66.592187    220.66336 
   16400    132.80313    -909.4437    144292.54    -39918.94    2678.7908   -42597.731    66.738424    224.27721 
   16450    135.98642   -825.06042    144425.01    -39852.55    2743.0013   -42595.552    66.886056    229.65313 
   16500    135.12851   -997.47411    144505.95   -39861.031    2725.6964   -42586.728    67.071845    228.20431 
   16550    132.36903   -1037.1012    144533.77   -39874.935    2670.0344    -42544.97     67.08738     223.5441 
   16600     132.6994   -994.21706    144586.61   -39834.335    2676.6984   -42511.033    67.389846    224.10203 
   16650    133.17849   -1014.3226    144459.65    -39788.68    2686.3623   -42475.042    67.437548    224.91112 
   16700    133.26202   -1013.9582    144423.02    -39729.07    2688.0471   -42417.118    67.628141    225.05218 
   16750    131.87389   -926.31001    144201.01   -39772.654    2660.0469   -42432.701    67.764823    222.70791 
   16800    137.04961   -832.15608    144336.42    -39696.75    2764.4472   -42461.198    68.024608    231.44865 
   16850    137.28265   -859.67733    144689.68   -39670.001    2769.1478   -42439.149    68.018019     231.8422 
   16900    134.21436   -886.21764    144719.74   -39747.466    2707.2569   -42454.723    68.100559    226.66049 
   16950    133.60797   -919.06478    144835.33   -39712.944    2695.0254   -42407.969     68.32991    225.63643 
   17000    132.14683   -975.24447    144770.13   -39716.646    2665.5525   -42382.198    68.414674    223.16886 
   17050    133.91802   -1026.5506    144804.17   -39738.068    2701.2793   -42439.348    68.391405    226.16002 
   17100    133.67768   -936.75993    144808.06   -39751.675    2696.4315   -42448.107    68.687154    225.75415 
   17150    133.26632   -972.81801    144988.92    -39725.22    2688.1338   -42413.354    68.746996    225.05944 
   17200    133.54111   -1135.0731    144809.64   -39738.359    2693.6766   -42432.036    68.811944     225.5235 
   17250    135.83966   -1121.6156    144797.11   -39732.453    2740.0409   -42472.494    68.711144    229.40528 
   17300    133.63038     -998.621    144645.37   -39769.402    2695.4774    -42464.88    68.761988    225.67427 
   17350    133.34062   -948.59759     144589.1    -39776.83    2689.6326   -42466.463    68.722679    225.18493 
   17400    132.49987    -950.4999    144630.89    -39768.85    2672.6736   -42441.524    68.718375    223.76506 
   17450    132.71879   -985.91195    144821.81   -39748.992    2677.0896   -42426.082    68.780954    224.13478 
   17500    134.67892   -1092.0678    144746.43   -39765.636    2716.6277   -42482.263    68.853248    227.44504 
   17550    133.11492   -1105.3118     144651.9   -39741.964    2685.0799   -42427.044     68.91975    224.80376 
   17600     135.8026   -1068.4186    144612.58   -39731.543    2739.2935   -42470.836    68.924484     229.3427 
   17650    133.49543   -1047.5331    144692.08   -39750.795    2692.7552    -42443.55    68.946947    225.44636 
   17700    131.11662   -1206.7207    144493.59   -39800.054    2644.7719   -42444.826    69.297338    221.42904 
   17750      133.577    -1035.307    144416.81   -39770.195    2694.4006   -42464.595    69.671669    225.58412 
   17800    133.91837   -1006.0125    144467.48   -39780.033    2701.2864    -42481.32    69.907527    226.16062 
   17850    132.52401   -939.24174    144436.86   -39791.413    2673.1607   -42464.573    70.220187    223.80584 
   17900    135.35961   -825.13742    144436.19   -39824.634    2730.3579   -42554.992    70.332696    228.59458 
   17950    132.79339   -905.04691    144655.22   -39747.734    2678.5942   -42426.328    70.556607    224.26076 
   18000    134.95133   -1003.7274    144576.41   -39745.888    2722.1224    -42468.01    70.846232    227.90508 
   18050    132.63656   -1082.8098    144535.22   -39727.044    2675.4309   -42402.475    70.960895    223.99591 
   18100    130.90669   -1091.2253    144408.89   -39759.934    2640.5374   -42400.471    71.367197    221.07451 
   18150    133.24096   -982.19041    144450.68   -39773.414    2687.6223   -42461.036    71.594846    225.01661 
   18200    134.40225   -1063.3847    144356.11   -39790.335    2711.0467   -42501.382    71.750041    226.97779 
   18250    135.08013   -997.01706    144357.41   -39814.238    2724.7204   -42538.958    71.830751    228.12259 
   18300    133.08523   -1004.4665    144280.05   -39832.853    2684.4809   -42517.334    71.881794    224.75361 
   18350    131.94447   -1057.5798    144146.95    -39831.66    2661.4705    -42493.13    72.050119     222.8271 
   18400    131.61441   -1018.4442    144129.77   -39841.516    2654.8128   -42496.329    72.162796     222.2697 
   18450    135.07681   -1037.4938    144085.43    -39841.01    2724.6535   -42565.663    72.333413    228.11699 
   18500    131.91573   -1056.3082    143942.18   -39901.722    2660.8909   -42562.613    72.342241    222.77858 
   18550    131.63315    -1065.526    143838.93   -39886.021    2655.1908   -42541.212    72.357618    222.30135 
   18600    133.38476   -977.52335    144018.45     -39852.9    2690.5229   -42543.423    72.354769    225.25947 
   18650    132.09274   -897.34027    143964.54   -39830.879    2664.4614   -42495.341    72.348509    223.07751 
   18700    131.57709   -960.21438    144165.06   -39879.847    2654.0601   -42533.907    72.437107    222.20668 
   18750    132.23204   -968.79212    144052.67   -39825.771    2667.2712   -42493.042    72.726719    223.31275 
   18800     130.4214   -1116.5918    143942.85   -39848.281    2630.7485   -42479.029    72.809009    220.25495 
   18850      131.711   -937.63405    143852.89   -39786.601    2656.7613   -42443.362    73.045738    222.43283 
   18900    133.75751   -948.80152    143877.06   -39772.132    2698.0417   -42470.173    73.116518    225.88896 
   18950    134.66295    -1050.629    143855.53   -39781.234    2716.3054   -42497.539    73.174293    227.41807 
   19000     133.0791   -949.74658    143888.15   -39757.047    2684.3573   -42441.404    73.508482    224.74326 
   19050    131.86141   -802.81951    143923.71   -39812.143    2659.7952   -42471.938    73.912755    222.68684 
   19100    134.27706   -947.24733    144140.14   -39771.182    2708.5216   -42479.704    74.308045    226.76638 
   19150    132.38474   -928.14691    144180.88   -39789.451    2670.3513   -42459.803    74.660047    223.57063 
   19200    136.43313   -909.38473    144304.08   -39780.197    2752.0119   -42532.209    74.902801    230.40753 
   19250    131.54638   -977.64009    144367.59   -39754.217    2653.4406   -42407.657    75.254856    222.15481 
   19300     134.9777   -963.16612    144341.63   -39765.535    2722.6543    -42488.19     75.40336    227.94961 
   19350    132.80155   -951.70193    144281.85   -39757.961    2678.7588    -42436.72    75.641177    224.27453 
   19400    131.36657    -1057.494    144263.13   -39737.228    2649.8137   -42387.042    75.981714    221.85116 
   19450     134.5616   -839.60715    144376.67   -39710.107    2714.2611   -42424.368    75.941687     227.2469 
   19500    134.24324   -1137.0454    144344.22   -39689.953    2707.8394   -42397.792    76.050259    226.70926 
   19550    134.70378   -1025.6696    144340.45   -39627.423    2717.1291   -42344.552    75.984583    227.48702 
   19600    135.57232   -1052.3111    144477.87   -39661.483    2734.6485   -42396.131    76.003631    228.95381 
   19650    135.77063   -1015.7559    144555.99    -39693.38    2738.6486   -42432.028    76.066162    229.28871 
   19700    133.59989   -988.70638    144445.64   -39715.113    2694.8623   -42409.975    76.404093    225.62278 
   19750     133.5648   -1007.1929    144478.28   -39697.466    2694.1546   -42391.621    76.480574    225.56352 
   19800    136.71778   -1006.6063    144411.94   -39680.639    2757.7538   -42438.393    76.520215    230.88825 
   19850    131.50968   -1117.0339    144386.85   -39728.036    2652.7003   -42380.736    76.517291    222.09283 
   19900    133.23734   -908.68828    144339.05    -39758.22    2687.5492    -42445.77    76.688998     225.0105 
   19950     133.0277   -992.90309    144427.97   -39758.976    2683.3207   -42442.297    76.908759    224.65647 
   20000    132.87166   -1058.8281    144485.95    -39780.89    2680.1731   -42461.063    76.960076    224.39294 
   20050    134.48549    -1161.207    144232.23   -39790.531    2712.7259   -42503.257    77.162058    227.11837 
   20100     135.1664    -1021.669    144214.14     -39725.8    2726.4606    -42452.26    77.462068    228.26829 
   20150    134.76731   -1083.5671     144208.4   -39724.352    2718.4106   -42442.762    77.705236    227.59431 
   20200    132.82032   -923.31652    144183.56   -39757.281    2679.1375   -42436.419    77.872463    224.30624 
   20250    130.67069   -947.73426    144140.55     -39773.8     2635.777   -42409.577    78.127105    220.67596 
   20300    135.05934    -1066.338    144140.32   -39785.998     2724.301   -42510.299    78.230912    228.08748 
   20350    134.41045   -1023.8885     144181.1   -39775.753    2711.2121   -42486.966    78.511648    226.99164 
   20400    132.20923   -914.12575    144243.95   -39801.892     2666.811   -42468.703    78.672229    223.27423 
   20450     131.8449   -1074.2411       144313   -39785.671    2659.4622   -42445.133    78.916033    222.65896 
   20500    131.41585   -969.34139    144247.27   -39794.487    2650.8077   -42445.295    79.170521    221.93437 
   20550    133.53438   -1066.8199    144183.84   -39787.039    2693.5409    -42480.58    79.399044    225.51215 
   20600    131.10805     -998.044     144096.1   -39833.433     2644.599   -42478.032    79.611784    221.41457 
   20650    129.82997   -749.24904    144168.38   -39878.673    2618.8188   -42497.492    79.675616    219.25616 
   20700    134.05666   -1055.9086    144409.71   -39831.473    2704.0759   -42535.549    79.669701    226.39416 
   20750    132.78631   -859.34866    144538.85   -39840.012    2678.4514   -42518.463     79.70724     224.2488 
   20800    133.69786   -907.47678    144646.76   -39799.068    2696.8384   -42495.907    79.980706    225.78822 
   20850    133.43056   -1038.2651    144598.06   -39786.272    2691.4467   -42477.719    80.043908    225.33681 
   20900    131.29943   -1011.1712    144463.35    -39765.22    2648.4594   -42413.679    80.318695    221.73777 
   20950    136.98779   -917.52642    144564.79   -39706.527       2763.2   -42469.727    80.357277    231.34423 
   21000    133.96024   -951.92396    144665.79   -39713.733     2702.131   -42415.864    80.268962    226.23134 
   21050    136.10666   -927.37002    144641.97   -39693.491    2745.4268   -42438.918    80.011442     229.8562 
   21100    132.40693   -890.35191    144816.07   -39719.558     2670.799   -42390.357    80.070411    223.60811 
   21150    137.94701   -1063.6492    144726.85   -39692.591    2782.5486    -42475.14    80.331296    232.96416 
   21200    136.13386   -927.38291       144775   -39699.814    2745.9753   -42445.789    80.320176    229.90213 
   21250    135.05995   -1092.2851    144679.46   -39721.188    2724.3133   -42445.501    80.531298    228.08851 
   21300    134.01203   -1053.6096    144473.86   -39735.431    2703.1757   -42438.606    80.946005     226.3188 
   21350    135.14113   -982.00856    144297.01   -39749.366    2725.9508   -42475.316    81.027636    228.22561 
   21400    133.26348   -831.56248    144417.93   -39761.586    2688.0765   -42449.663    81.204688    225.05465 
   21450    132.81133   -915.62009       144574    -39784.95    2678.9562   -42463.906    81.533185    224.29107 
   21500    133.93863   -957.11569    144725.47   -39752.773    2701.6951   -42454.468     81.41149    226.19484 
   21550    133.94032   -1048.5472    144716.25   -39773.093    2701.7291   -42474.822    81.578485    226.19769 
   21600    133.75727   -951.60703    144597.04   -39748.543    2698.0369    -42446.58     81.84531    225.88856 
   21650    133.86289    -1067.735    144529.48   -39769.439    2700.1673   -42469.606    81.825456    226.06693 
   21700    133.12413   -924.34551    144515.79   -39755.079    2685.2657   -42440.345    82.327996    224.81932 
   21750    133.89564   -1070.6359    144475.33   -39737.292    2700.8279    -42438.12    82.540251    226.12223 
   21800    133.87332   -903.14441    144616.89   -39729.092    2700.3777   -42429.469    82.503814    226.08454 
   21850    135.34032   -1018.6359    144616.98   -39758.082    2729.9687    -42488.05    82.791349      228.562 
   21900    133.76821   -1107.5097    144723.01   -39779.688    2698.2575   -42477.945    82.890834    225.90703 
   21950    133.38489    -852.4312    144847.54   -39751.539    2690.5254   -42442.065    82.878951    225.25968 
   22000    134.31074   -918.03319    144840.13   -39791.916     2709.201   -42501.117    83.153032    226.82326 
   22050    131.23896   -1231.4528    144668.21   -39792.534    2647.2396   -42439.774    83.201867    221.63564 
   22100    137.18984   -909.75991    144666.46   -39764.717    2767.2756   -42531.993    83.283657    231.68546 
   22150    134.46292   -1028.7433    144732.15   -39757.752    2712.2705   -42470.023    83.479357    227.08025 
   22200    136.98868   -1068.3015    144705.82   -39711.473    2763.2182   -42474.691    83.637824    231.34575 
   22250    135.71108    -989.5571    144625.24   -39709.774    2737.4475   -42447.221    83.933899    229.18815 
   22300    136.25273    -1008.573    144644.12   -39750.785    2748.3731   -42499.159    84.337327    230.10287 
   22350    134.58315   -1050.8859       144697   -39790.582    2714.6957   -42505.277    84.537675    227.28329 
   22400    138.08202   -933.12224    144642.81   -39752.889    2785.2719   -42538.161      84.7215    233.19217 
   22450    133.54383   -1032.7201    144604.07    -39771.48    2693.7315   -42465.211    84.874935     225.5281 
   22500    135.18904   -1052.4088    144664.01   -39754.984    2726.9172   -42481.901    85.087869    228.30652 
   22550    135.86632   -944.52096    144716.18   -39770.353    2740.5789   -42510.932    85.341609    229.45031 
   22600    132.88914   -1010.8739       144746   -39798.308    2680.5257   -42478.833    85.545809    224.42247 
   22650    131.77221     -989.546    144707.13   -39838.311    2657.9958   -42496.307    85.783307    222.53619 
   22700    134.02115   -927.76215    144708.64    -39867.98    2703.3596   -42571.339    85.866008    226.33419 
   22750    132.82383   -913.68513     144873.1    -39811.91    2679.2082   -42491.118      85.9329    224.31216 
   22800    129.65319   -871.74707    144963.46   -39844.324    2615.2528   -42459.576    86.213757     218.9576 
   22850    133.25346   -1121.0847    144762.86   -39902.397    2687.8745   -42590.271    86.649297    225.03773 
   22900    132.64989   -1092.5118    144776.13   -39862.453    2675.6997   -42538.153    86.674039    224.01842 
   22950    132.01242   -914.74829    144688.14   -39870.397    2662.8412   -42533.238    86.919641    222.94186 
   23000    133.62976   -1057.2511     144743.2   -39817.193    2695.4648   -42512.657    87.139036    225.67322 
   23050     132.3781   -992.52785    144724.33   -39761.483    2670.2174   -42431.701    87.360527    223.55943 
   23100    133.27717   -916.63998     144698.1   -39775.587    2688.3526   -42463.939     87.26642    225.07776 
   23150    130.57545    -947.6139    144675.96   -39834.906    2633.8559   -42468.762    87.691508    220.51511 
   23200    130.64297   -1084.7011    144651.87   -39846.427    2635.2179   -42481.645    87.672086    220.62915 
   23250    133.30587   -1034.3734    144559.13   -39798.487    2688.9316   -42487.419    87.834636    225.12624 
   23300    133.38494   -861.49524    144530.37   -39814.826    2690.5266   -42505.353    88.026607    225.25977 
   23350    132.18558     -1124.15    144640.21   -39785.959     2666.334   -42452.293    88.290569    223.23429 
   23400    133.37592   -986.01588    144699.27   -39786.261    2690.3445   -42476.606    88.589448    225.24453 
   23450    131.56318   -1120.9515     144585.8   -39817.001    2653.7796    -42470.78    88.587373     222.1832 
   23500    129.11906   -1040.5675    144473.96   -39844.773    2604.4789   -42449.252     88.89801    218.05558 
   23550     129.4809   -1098.1124    144339.66   -39875.825    2611.7776   -42487.603    89.036709    218.66665 
   23600    133.99242   -886.26667    144305.27   -39846.489    2702.7801   -42549.269    89.438304    226.28568 
   23650     132.3047     -942.143     144593.1   -39790.824    2668.7368   -42459.561    89.756263    223.43546 
   23700    131.34182   -983.84554    144485.59   -39775.723    2649.3144   -42425.037    90.201903    221.80935 
   23750    132.89301    -928.0404    144495.58   -39759.814    2680.6038   -42440.418    90.488332      224.429 
   23800    131.39714   -1031.1863    144633.56   -39750.677    2650.4304   -42401.108     90.90247    221.90279 
   23850    132.69397   -1042.1147    144591.74   -39750.248    2676.5888   -42426.837    91.290169    224.09286 
   23900    132.34203    -911.5916    144644.75   -39754.392    2669.4899   -42423.882    91.686317    223.49851 
   23950    134.31336   -1010.8472    144760.05   -39800.806    2709.2537   -42510.059    91.897925    226.82767 
   24000     133.7007   -996.35695    144707.88   -39794.073    2696.8957   -42490.969    92.217696    225.79302 
   24050    133.03916   -982.79809    144777.69   -39788.732    2683.5516   -42472.284    92.251224    224.67581 
   24100    132.54459   -1077.3029    144670.43   -39760.291    2673.5757   -42433.867    92.232587    223.84059 
   24150    135.72413    -986.0749    144633.24   -39772.282    2737.7107   -42509.993    92.441535    229.21019 
   24200    135.52439   -1031.3001    144790.27   -39792.423    2733.6818   -42526.105    92.388924    228.87287 
   24250    133.14075   -1045.2207    144759.02   -39821.713     2685.601   -42507.314     92.39783    224.84738 
   24300    131.66201     -1057.59     144880.3   -39866.334    2655.7731   -42522.107    92.595563     222.3501 
   24350    134.15101   -877.17441    144838.34   -39849.966     2705.979   -42555.945    92.742699     226.5535 
   24400    136.43159   -1037.6062    144843.28   -39818.624    2751.9809   -42570.605    93.121352    230.40493 
   24450     130.5666   -943.54852    144851.13   -39829.277    2633.6775   -42462.954    93.438219    220.50018 
   24500    135.20937   -902.05576    144973.06   -39761.761    2727.3273   -42489.089    93.742424    228.34085 
   24550    132.14029   -1024.9616    144911.03   -39790.071    2665.4206   -42455.492    94.047406    223.15782 
   24600     133.5061   -907.31305    145094.51   -39789.429    2692.9704   -42482.399    94.242085    225.46438 
   24650    132.92061    -1149.245    145073.09   -39842.522    2681.1604   -42523.682    94.237193     224.4756 
   24700     131.5073   -1167.6728    144820.75   -39878.392    2652.6523   -42531.044    94.266161    222.08882 
   24750    133.98938   -1013.4239    144725.04   -39879.909    2702.7188   -42582.628    94.712557    226.28054 
   24800    135.80128   -999.77377    144736.87   -39818.454    2739.2669   -42557.721    95.041833    229.34048 
   24850    132.47066   -1083.1102    144890.42   -39811.746    2672.0845    -42483.83    95.294484    223.71574 
   24900    133.09776   -954.77919    144782.79   -39848.048    2684.7338   -42532.782    95.513361    224.77478 
   24950    132.19668   -983.82775    144782.59   -39857.891     2666.558   -42524.449    95.634767    223.25304 
   25000     136.1989   -833.10808    144824.04   -39804.189    2747.2872   -42551.476    95.676176    230.01196 
   25050    134.85234    -1028.875    144907.05   -39798.856    2720.1257   -42518.982    95.968043    227.73791 
   25100    138.26857   -1048.3362    144891.88   -39732.418    2789.0349   -42521.453    96.138428    233.50721 
   25150    134.05543     -1104.26    144720.96   -39713.853    2704.0511   -42417.904    96.453935    226.39209 
   25200    133.25666   -1148.1985    144583.62   -39746.814    2687.9389   -42434.753    96.613094    225.04313 
   25250    133.08193   -934.35657    144510.72    -39767.81    2684.4146   -42452.225    96.821465    224.74805 
   25300    134.22794   -1151.6924    144518.85   -39811.937    2707.5309   -42519.468    97.069871    226.68343 
   25350    134.25408    -992.1274    144590.61   -39783.487    2708.0581   -42491.545    97.317497    226.72757 
   25400    132.77938   -1049.1302    144558.94    -39791.12    2678.3117   -42469.432    97.350011     224.2371 
   25450    136.11356   -938.13709    144541.32   -39799.854    2745.5659    -42545.42    97.371541    229.86785 
   25500    135.06899   -1026.9071    144575.37   -39789.707    2724.4957   -42514.203       97.212    228.10378 
   25550    135.03174   -1095.5266    144502.79   -39837.374    2723.7444   -42561.119     97.27376    228.04088 
   25600    130.56063   -1047.2657    144551.83   -39836.143     2633.557     -42469.7    97.213248    220.49009 
   25650     134.0856   -984.28195    144710.02   -39843.201    2704.6597   -42547.861    97.560216    226.44305 
   25700    131.91009   -944.52372    144740.21   -39821.106     2660.777   -42481.883    97.854109    222.76904 
   25750    137.58439   -1177.3991    144785.94   -39761.748    2775.2342   -42536.982    97.980765    232.35177 
   25800    134.25226   -957.61696    144672.09   -39722.431    2708.0214   -42430.453    98.399583     226.7245 
   25850    133.26419   -1020.8773    144622.29   -39747.367    2688.0909   -42435.458    98.908422    225.05585 
   25900    134.23239    -1031.166    144519.89   -39759.785    2707.6206   -42467.406    99.060317    226.69094 
   25950    135.77531   -965.94679    144570.19   -39787.197    2738.7431    -42525.94    99.227357    229.29662 
   26000    134.02113   -943.82895    144591.79   -39769.147    2703.3591   -42472.506    99.324034    226.33416 
   26050    132.90491   -921.49623    144509.61    -39790.02    2680.8437   -42470.864    99.617638    224.44909 
   26100    134.77477   -982.27931    144601.35   -39763.143    2718.5609   -42481.704    99.830702     227.6069 
   26150    137.28094   -917.51816    144711.52   -39745.886    2769.1134   -42514.999    100.18355    231.83932 
   26200    135.29042   -1117.0863    144619.99   -39796.267    2728.9623   -42525.229    100.42053    228.47774 
   26250    134.55138   -894.23484    144562.27   -39817.826    2714.0549   -42531.881    100.42036    227.22964 
   26300    132.73277    -1003.378    144604.39   -39824.766    2677.3715   -42502.137    100.52475    224.15838 
   26350    132.74168    -1072.223    144671.49   -39828.662    2677.5513   -42506.213    100.75774    224.17344 
   26400    136.61947   -1107.9686    144577.55    -39792.44    2755.7707    -42548.21    100.87173    230.72222 
   26450    135.92224    -926.0016    144609.54   -39829.181    2741.7067   -42570.888    100.59782    229.54474 
   26500    134.13148   -958.06375    144605.49   -39807.192    2705.5851   -42512.777    100.83744    226.52052 
   26550    134.93794   -972.87204    144662.06   -39775.967    2721.8523   -42497.819    101.10924    227.88246 
   26600    136.02253   -828.84532    144638.92   -39741.454    2743.7297   -42485.184    101.18522    229.71411 
   26650    134.61128   -1048.0694    144658.19   -39746.697    2715.2632    -42461.96    101.10691    227.33081 
   26700    132.78383   -971.13065    144713.31   -39804.212    2678.4014   -42482.613    101.27741    224.24461 
   26750    131.56844   -999.39443    144876.89   -39824.502    2653.8857   -42478.388    101.59779    222.19208 
   26800    134.14785   -1124.0374    144731.82   -39850.805    2705.9152    -42556.72     101.6247    226.54816 
   26850    133.43631   -1255.4074    144604.47    -39872.42    2691.5628   -42563.983    101.59941    225.34653 
   26900    131.77463   -1005.1058    144406.18   -39897.527    2658.0446   -42555.571    101.65125    222.54028 
   26950    132.29189   -942.35649    144575.85   -39900.787    2668.4784   -42569.266    101.85665    223.41383 
   27000    133.54883    -794.3781    144563.87   -39917.786    2693.8324   -42611.618    102.20554    225.53655 
   27050    130.89414    -1137.455    144537.44   -39908.562    2640.2842   -42548.847     102.5474    221.05331 
   27100    133.60316   -1076.3013    144429.89   -39900.152    2694.9283   -42595.081    102.54717     225.6283 
   27150    132.51867   -884.37462    144447.47   -39903.333    2673.0529   -42576.386    102.44257    223.79682 
   27200    131.81248   -1008.5635    144405.42   -39876.699    2658.8082   -42535.507    102.63906    222.60421 
   27250    131.37239   -938.62131    144445.28   -39854.144    2649.9311   -42504.075    102.83497    221.86099 
   27300    131.82174   -1153.8461    144432.22   -39808.331    2658.9949   -42467.326    102.79164    222.61984 
   27350     134.4324   -991.78799    144214.89   -39837.951     2711.655   -42549.606    102.91421    227.02872 
   27400    134.38856    -981.3226    144224.72   -39796.168    2710.7707   -42506.938    102.94765    226.95468 
   27450    132.55474   -1011.3508     144261.4   -39826.221    2673.7804   -42500.001    103.11291    223.85772 
   27500    131.21014    -967.1865    144304.86   -39868.564    2646.6583   -42515.222    103.25999    221.58697 
   27550    132.22034   -954.77648    144424.59   -39909.133    2667.0352   -42576.168    103.42608    223.29299 
   27600    131.32959   -862.91153    144332.41   -39887.087    2649.0678   -42536.155    103.35595    221.78871 
   27650    134.10034   -869.84646    144411.11   -39840.799    2704.9569   -42545.756    103.28505    226.46793 
   27700    133.27486   -879.82195    144485.61    -39845.28     2688.306   -42533.587    103.44769    225.07386 
   27750    136.56769    -1041.252    144504.81   -39802.852    2754.7261   -42557.578      103.699    230.63477 
   27800    133.79076    -958.1787     144745.8   -39766.104    2698.7124   -42464.816    103.74842    225.94511 
   27850    135.35086   -873.17051    144685.39   -39724.432    2730.1814   -42454.613    104.03409    228.57981 
   27900    137.53715   -904.65478    144630.68   -39687.125    2774.2813   -42461.406       104.47      232.272 
   27950    135.18851   -982.00016    144686.93   -39684.484    2726.9065    -42411.39    104.89664    228.30562 
   28000    134.87661   -929.53102    144683.02    -39700.77    2720.6151   -42421.386    105.16265    227.77889 
   28050    133.33127   -1202.8541    144590.21   -39727.583    2689.4439   -42417.027    105.30147    225.16913 
   28100    133.49093   -1052.8112    144448.91   -39813.841    2692.6646   -42506.505    105.16551    225.43877 
   28150    133.19668   -818.14725    144634.17   -39839.445    2686.7291   -42526.174    105.10283    224.94183 
   28200    133.38924   -1013.1905    144730.56   -39809.417    2690.6133   -42500.031    105.16844    225.26703 
   28250    131.44762   -1062.1095    144718.04    -39893.04    2651.4486   -42544.489    105.28914    221.98804 
   28300    132.11644    -971.4873    144705.76   -39908.036    2664.9395   -42572.976    105.25919    223.11754 
   28350    132.21403   -992.41056    144620.56   -39922.656     2666.908   -42589.564    105.14908    223.28234 
   28400     132.1625   -971.02225    144574.17   -39878.243    2665.8684   -42544.112    105.19037    223.19531 
   28450    133.15947   -1075.5238    144649.31   -39885.867    2685.9785   -42571.845    105.33386    224.87899 
   28500       131.67   -809.22094    144540.12   -39953.976    2655.9341    -42609.91    105.49362    222.36358 
   28550    130.31706   -1001.1774    144680.08   -39945.799    2628.6439   -42574.443    105.76434    220.07875 
   28600    134.28668   -964.33987    144756.48   -39941.419    2708.7157   -42650.135     105.8136    226.78263 
   28650    132.52887   -1010.6347    144688.61   -39943.872    2673.2585   -42617.131    106.11184    223.81404 
   28700    132.72072   -997.23266    144721.48   -39917.862    2677.1284    -42594.99    106.24567    224.13803 
   28750    132.54233   -1012.3085    144782.96   -39883.641    2673.5301   -42557.171     106.6778    223.83677 
   28800    133.30621   -1001.1444    144610.69   -39868.969    2688.9384   -42557.907    106.89915     225.1268 
   28850    130.20022   -1021.7519    144489.35   -39874.217    2626.2871   -42500.504     106.9341    219.88143 
   28900    133.31693   -1008.0808     144515.3   -39879.972    2689.1546   -42569.127    107.20832    225.14491 
   28950    132.82743   -995.30421     144387.2   -39844.381    2679.2809   -42523.662    107.38466    224.31825 
   29000    133.68568   -927.02243    144448.83   -39847.716    2696.5928   -42544.309    107.90636    225.76766 
   29050    133.83174   -964.78094     144570.3   -39879.689    2699.5389   -42579.228    108.07534    226.01431 
   29100    135.39098   -1055.9676    144551.53   -39881.996    2730.9906   -42612.987    108.31772    228.64756 
   29150    131.47536   -1046.5336    144420.08   -39887.283    2652.0082   -42539.291    108.40785    222.03488 
   29200    135.13329   -936.87138    144473.66   -39826.176    2725.7928   -42551.969    108.50795    228.21237 
   29250    133.99699    -1026.683    144439.21   -39847.199    2702.8722   -42550.072     108.7111    226.29339 
   29300    132.71268   -921.13044    144539.78   -39839.382    2676.9663   -42516.348    108.80041    224.12446 
   29350    135.17461   -967.32338    144675.27   -39836.542    2726.6262   -42563.168    108.81756    228.28215 
   29400    133.17618   -1036.9877    144716.48   -39838.301    2686.3156   -42524.617    109.02348    224.90721 
   29450    134.23713   -1026.8751    144611.45   -39861.678    2707.7162   -42569.394    109.23545    226.69894 
   29500    134.21505   -864.41462    144523.92   -39850.728    2707.2708   -42557.999    109.24245    226.66165 
   29550    129.77361   -1136.1825    144623.35   -39937.312    2617.6819   -42554.994    109.43459    219.16097 
   29600     132.0486   -960.58355    144522.55   -39933.005    2663.5711   -42596.576    109.64011    223.00297 
   29650    134.02304    -913.9858    144842.47   -39899.057    2703.3977   -42602.455    109.90121    226.33738 
   29700    132.15714   -883.68609    145030.72   -39949.216    2665.7604   -42614.977    110.17883    223.18627 
   29750    132.99229   -984.72102    145073.32   -39886.891    2682.6064   -42569.498    110.45781    224.59667 
   29800    132.85926   -1002.9745    145047.68   -39873.888     2679.923   -42553.811    110.79495    224.37201 
   29850    134.10386   -943.32486    145045.43   -39832.781     2705.028   -42537.809    110.84973    226.47388 
   29900    135.50237   -1064.6818    144964.78   -39836.787    2733.2376   -42570.025    110.97396    228.83568 
   29950    136.04819   -1124.8816    144933.23   -39819.614    2744.2474   -42563.861    111.19953    229.75745 
   30000    135.69066   -781.52592    144964.62   -39840.993    2737.0356   -42578.028    111.26697    229.15366 
   30050    136.06019   -984.91316    145086.15   -39878.207    2744.4894   -42622.696     111.3905    229.77771 
   30100    136.43596   -1029.8829    144997.26   -39867.508    2752.0691   -42619.577    111.55769    230.41231 
   30150    133.16573   -1197.6412    144863.79   -39882.231    2686.1047   -42568.335    111.73438    224.88956 
   30200    132.45364   -896.36559    144901.34   -39882.949    2671.7411   -42554.691    111.81742    223.68699 
   30250    130.69242   -1098.5284    144885.45   -39885.011    2636.2154   -42521.227    111.69256    220.71266 
   30300    134.09504   -1003.9008    144789.42   -39847.923    2704.8501   -42552.774    111.66381    226.45899 
   30350     132.6632   -901.76947    144918.32   -39849.272    2675.9682    -42525.24    111.89208     224.0409 
   30400    133.96784    -719.8675    145050.18   -39817.701    2702.2843   -42519.985    112.05433    226.24417 
   30450    134.21663   -1095.9102    145129.95   -39863.182    2707.3027   -42570.485    111.99064    226.66433 
   30500    133.51475   -989.19316    145046.43   -39844.671     2693.145   -42537.816    112.32515      225.479 
   30550    137.29728   -941.99758    145148.83   -39852.416     2769.443   -42621.859    112.53331    231.86691 
   30600    132.35183   -1076.0106    145047.34   -39862.061    2669.6874   -42531.748    112.93187    223.51505 
   30650    133.22838    -1029.298    145226.81   -39884.212    2687.3685   -42571.581    113.05789    224.99537 
   30700    133.25315    -1120.767    145343.95   -39881.931    2687.8682   -42569.799    113.17267     225.0372 
   30750     131.6157   -945.17442    145182.86   -39923.703     2654.839   -42578.542    113.54707    222.27189 
   30800    133.03081   -1062.3245    145142.19   -39978.927    2683.3834    -42662.31    113.87068    224.66172 
   30850    130.90291   -1163.7812    145028.71   -40012.001    2640.4611   -42652.462    114.20444    221.06813 
   30900    129.53156   -1005.4465    144963.59   -39986.736    2612.7995   -42599.535    114.32469     218.7522 
   30950    131.37013   -848.21428    145093.06   -39971.661    2649.8856   -42621.546    114.78237    221.85717 
   31000    131.17987   -899.42082    145086.35   -40018.595    2646.0478   -42664.642    114.73761    221.53586 
   31050    132.27499   -939.69164    145120.05   -40007.412    2668.1375   -42675.549    114.93696    223.38529 
   31100    129.88365     -1082.16    145107.22   -39981.803    2619.9014   -42601.705    115.21281     219.3468 
   31150    131.85453    -891.6642    144968.12   -39934.355    2659.6564   -42594.011    115.37493    222.67522 
   31200    132.16381   -1065.9167    144964.68   -39946.863    2665.8949   -42612.758    115.70939    223.19753 
   31250    133.86664   -1028.7245     145000.9   -39917.064     2700.243   -42617.307    115.89363    226.07327 
   31300    136.13083   -1012.7473    144898.21   -39871.993    2745.9143   -42617.907    116.31873    229.89702 
   31350    133.41593   -852.35718    145116.55   -39847.699    2691.1516    -42538.85    116.49725     225.3121 
   31400    134.81377   -1023.9348    145071.96   -39894.864    2719.3477   -42614.212    116.66009    227.67278 
   31450    134.06721   -1010.0201    145020.86   -39864.881    2704.2887    -42569.17    117.11037    226.41198 
   31500    134.81037   -989.60719    145052.47   -39921.684    2719.2791   -42640.963    117.27145    227.66703 
   31550    132.95098   -1052.6616    145014.88   -39905.541    2681.7731   -42587.314    117.28976     224.5269 
   31600    134.50403   -1062.1772     144900.5   -39889.964    2713.0998   -42603.064    117.47687    227.14967 
   31650    133.19562   -956.43996    144989.04   -39881.061    2686.7077   -42567.769    117.38934    224.94005 
   31700    133.37976   -928.97588    145140.28   -39934.389    2690.4221   -42624.811    117.84684    225.25103 
   31750    133.26802   -921.22459    145202.23   -39943.612     2688.168    -42631.78    118.02483    225.06231 
   31800    133.10579   -1017.7917    145106.99   -39931.351    2684.8958   -42616.247    118.25247    224.78834 
   31850    135.62209   -934.07707    145206.62   -39906.584    2735.6525   -42642.237      118.584    229.03786 
   31900    135.57446   -943.09266     145224.9   -39944.415    2734.6915   -42679.106    118.73433    228.95741 
   31950    132.89652    -1005.149    145181.69   -39981.498    2680.6745   -42662.172    118.60101    224.43492 
   32000    133.32925   -961.40116       145235     -39969.2    2689.4033   -42658.604    118.62811    225.16573 
   32050    131.71584   -977.67726    145184.28   -40045.892     2656.859   -42702.751    118.69433    222.44101 
   32100    134.17884   -992.90913     145371.9   -40019.844    2706.5404   -42726.385    118.73334     226.6005 
   32150    132.88119   -1053.2768    145366.98   -40045.585    2680.3653    -42725.95    118.76116    224.40903 
   32200    132.84332    -872.4938    145406.54   -40000.968    2679.6013   -42680.569    118.68903    224.34508 
   32250    132.45992   -929.91363     145430.6   -40044.003    2671.8677   -42715.871    118.64888    223.69759 
   32300    133.15897   -941.67589    145378.62   -40059.505    2685.9684   -42745.474    118.64131    224.87815 
   32350     133.1048   -1097.4165    145388.07   -40041.533    2684.8758   -42726.409    118.54535    224.78667 
   32400    132.14053   -921.01732    145392.82   -40087.736    2665.4253   -42753.162    118.73949    223.15821 
   32450     131.5773   -856.34766    145559.88   -40089.419    2654.0643   -42743.483    118.72935    222.20703 
   32500    133.48989   -1017.1506    145574.02    -40049.54    2692.6435   -42742.183    118.93871      225.437 
   32550    133.55299   -888.52552    145611.13   -40012.353    2693.9163   -42706.269    119.13505    225.54358 
   32600    131.34405    -1019.791    145615.65   -40029.272    2649.3595   -42678.632    119.28762    221.81313 
   32650    132.40619   -934.77529    145620.76   -40022.976     2670.784    -42693.76    119.30251    223.60686 
   32700    134.09536   -1179.5439    145582.57   -40002.022    2704.8564   -42706.878     119.4908    226.45952 
   32750    130.84276    -1035.114    145498.04   -40026.084    2639.2478   -42665.332    119.72824    220.96655 
   32800    130.05299    -1143.925    145402.52   -40056.845    2623.3172   -42680.162    119.58135    219.63278 
   32850    133.09363    -997.0438    145396.81   -39968.327    2684.6504   -42652.977    119.50021     224.7678 
   32900    131.88943   -1146.9279    145207.68   -39999.594    2660.3604   -42659.955    119.28731    222.73416 
   32950    130.90007   -979.52985    145204.08    -40029.09    2640.4038   -42669.494     119.3402    221.06333 
   33000    130.28974   -1081.0553    145143.45   -39997.676    2628.0928   -42625.768    119.25696    220.03261 
   33050     131.3565   -889.27624     145158.6   -40006.668    2649.6105   -42656.278    119.39724    221.83415 
   33100    132.25274   -931.88285    145319.71   -39967.746    2667.6888   -42635.434    119.73802    223.34772 
   33150    133.46265   -1092.6662    145286.55   -39952.414     2692.094   -42644.508    120.10118      225.391 
   33200    134.86435   -998.42424    145145.41   -39959.313    2720.3678   -42679.681     120.1177    227.75818 
   33250    133.08869   -923.70008    145200.49   -39950.603    2684.5509   -42635.153    120.42893    224.75947 
   33300    135.46228   -915.25566    145249.27   -39982.535    2732.4288   -42714.963    120.75978    228.76797 
   33350    131.59403   -1081.3143    145258.26   -39982.244    2654.4019   -42636.645    121.14206    222.23529 
   33400    135.50254    -940.4653    145222.09   -39992.628    2733.2408   -42725.869    121.40102    228.83595 
   33450    135.46145   -911.43889    145400.34   -39956.165    2732.4121   -42688.577    121.54513    228.76657 
   33500    133.53865     -1009.71    145412.96   -39963.882    2693.6271   -42657.509    121.64565    225.51936 
   33550    134.60931   -1005.4658    145179.46   -39958.695    2715.2234   -42673.919    121.73112    227.32748 
   33600    132.59257    -1131.211    145179.74   -39976.331    2674.5435   -42650.875     122.0919    223.92162 
   33650    133.01559   -1023.9597    144987.97   -39981.725    2683.0762   -42664.801    122.23782      224.636 
   33700    132.65185   -912.13671    145012.49   -39970.344    2675.7392   -42646.083    122.52977    224.02172 
   33750    132.36537   -868.09651    145138.51   -39997.113    2669.9607   -42667.074    122.96962    223.53793 
   33800    131.08571   -1052.3539    145166.69   -40039.712    2644.1485   -42683.861    123.06729    221.37684 
   33850    134.83118   -1117.1116    145085.52   -40032.219    2719.6988   -42751.918    123.11502    227.70217 
   33900    133.96544   -928.85568    145078.65    -39998.35    2702.2359   -42700.586    123.34601    226.24012 
   33950    131.25416   -1001.3114    145069.71   -40022.483    2647.5463   -42670.029    123.50821    221.66132 
[...]
   92000    132.19808   -1017.4788    145158.99     -39943.9    2666.5861   -42610.486    283.52826     223.2554 
   92050    134.04953   -773.57834    145162.97   -39895.326     2703.932   -42599.258    283.53303    226.38212 
   92100    131.56501    -1091.864    145110.57   -39923.274    2653.8165    -42577.09    283.73153    222.18628 
   92150    134.45055   -911.12074    145123.24   -39908.326     2712.021   -42620.347    284.50987    227.05936 
   92200    133.47744   -1146.6388    145143.85   -39904.918    2692.3924    -42597.31    284.80341    225.41598 
   92250    133.18014   -805.91757    145106.29   -39889.969    2686.3954   -42576.365    284.99727     224.9139 
   92300    135.03164   -960.95329    145269.61   -39892.043    2723.7424   -42615.785     285.2385    228.04071 
   92350    131.60225   -1011.0039    145199.49    -39897.33    2654.5675   -42551.897    285.48283    222.24916 
   92400    134.46175   -954.74822    145342.53   -39874.191    2712.2469   -42586.438    285.84043    227.07827 
   92450    135.24719   -1147.0812    145262.61   -39842.775    2728.0903   -42570.865    285.97837    228.40473 
   92500    135.09103    -994.0038    145247.75   -39822.113    2724.9403   -42547.053     286.9214    228.14101 
   92550    136.40466   -1020.6252    145160.49   -39845.949    2751.4377   -42597.387    287.28538    230.35945 
   92600    131.09957   -882.30368    145091.64   -39896.939    2644.4279   -42541.367    287.34777    221.40024 
   92650    134.58427   -1040.9577    145107.22   -39859.803    2714.7185   -42574.521    287.30114     227.2852 
   92700    134.37774   -888.79991    145086.54    -39834.64    2710.5525   -42545.193    287.52892    226.93641 
   92750     134.9933   -1002.8993    145087.35   -39860.734    2722.9691   -42583.703    287.87889    227.97597 
   92800    134.91642   -974.11565    145021.22   -39855.915    2721.4183   -42577.333    288.01529    227.84613 
   92850    131.91332   -1114.5279    145003.86   -39861.325    2660.8423   -42522.167     288.1911    222.77451 
   92900    136.32081   -977.70494    145046.26    -39860.84    2749.7463   -42610.587    288.81782    230.21785 
   92950    133.46946   -1148.0579     144977.9   -39869.895    2692.2314   -42562.126    288.55905     225.4025 
   93000    135.41668    -881.3878    144994.86   -39878.394     2731.509   -42609.903    288.87183    228.69096 
   93050    133.18181   -979.73186    144987.05   -39876.208    2686.4291   -42562.637    289.35442    224.91672 
   93100    134.58963   -914.23692    145025.85   -39857.234    2714.8265    -42572.06    289.41611    227.29424 
   93150    133.20438   -1177.9992    144916.55   -39896.472    2686.8844   -42583.357    289.05393    224.95484 
   93200    133.92207   -884.40241    144980.59   -39835.541     2701.361   -42536.902    289.52992    226.16687 
   93250    132.85414   -924.01242    145147.67    -39861.73    2679.8196   -42541.549    289.93497    224.36335 
   93300    134.19231   -1000.3354    145103.98   -39912.893    2706.8121   -42619.705    289.88023    226.62325 
   93350    133.30923   -955.63781    145128.91   -39894.039    2688.9993   -42583.039    289.92982     225.1319 
   93400     136.6042   -1012.4083    145028.71   -39951.968    2755.4626    -42707.43     289.9361    230.69643 
   93450    129.10091   -1099.7933    144894.17   -40023.772    2604.1127   -42627.885    289.97605    218.02492 
   93500    130.54781   -807.95213    144902.62    -40000.96    2633.2984   -42634.259    290.34209    220.46844 
   93550    133.52451   -984.55147    145038.62   -40008.259    2693.3417   -42701.601    290.81429    225.49546 
   93600    131.75191   -1088.3732    144977.44   -40025.168    2657.5865   -42682.754    291.07831    222.50192 
   93650    131.69523   -1051.0319    144870.64    -40001.34    2656.4431   -42657.783    291.38402    222.40619 
   93700    135.36295   -1130.9028    144956.99   -39991.597    2730.4252   -42722.023    291.44143    228.60022 
   93750    136.38221   -957.51518    145057.47   -39972.601     2750.985   -42723.586    292.09632    230.32155 
   93800    133.42099   -1063.8502    144863.97   -39984.386    2691.2536   -42675.639    292.21616    225.32064 
   93850    135.84255   -910.62186    144838.41   -40002.716    2740.0994   -42742.816    291.96763    229.41017 
   93900    133.10084    -911.1158    144880.87   -40035.163    2684.7959   -42719.959    292.01807    224.77998 
   93950    132.85556   -1029.5695    144988.58    -40027.71    2679.8483   -42707.559    292.02107    224.36575 
   94000    134.57881   -1062.3216    145016.37   -40040.834    2714.6083   -42755.443    292.07042    227.27597 
   94050    132.33482   -1018.3519    145041.78   -40066.179    2669.3443   -42735.523    292.38486    223.48632 
   94100    132.65548   -976.62614    145126.48   -40053.841    2675.8125   -42729.653     292.4235    224.02787 
   94150    129.27653   -892.81074    145203.44   -40058.101    2607.6552   -42665.756    292.77195    218.32151 
   94200    130.10275   -1018.7532    145143.14   -40025.328     2624.321   -42649.649    292.73628    219.71683 
   94250    132.26524   -1094.1137    145109.69   -39988.445     2667.941   -42656.386    292.92889    223.36883 
   94300    130.57376   -878.91981    145000.96   -40032.872    2633.8217   -42666.694    292.63357    220.51226 
   94350    131.74313   -977.21713    145165.07   -40065.153    2657.4094   -42722.563    293.07529     222.4871 
   94400    132.48318   -994.81895    145234.68   -40086.881     2672.337   -42759.218    293.27362    223.73688 
   94450    133.33026   -1034.6028    145259.09   -40103.888    2689.4236   -42793.311    293.27269    225.16743 
   94500    133.77804   -861.28816    145300.19   -40072.952    2698.4559   -42771.408    293.11951    225.92364 
   94550    130.69301   -1010.7773     145379.1   -40112.541    2636.2273   -42748.769    293.12981    220.71366 
   94600    130.57839   -1170.7827    145389.58   -40114.784    2633.9153   -42748.699     293.4735    220.52009 
   94650    132.89369   -1027.5469     145323.1   -40106.596    2680.6174   -42787.213    293.56567    224.43014 
   94700    132.47252   -1091.2669     145351.6   -40074.152     2672.122   -42746.274     293.7511    223.71888 
   94750    131.63279   -987.10335    145396.77   -40107.786    2655.1837    -42762.97    293.95581    222.30075 
   94800    132.78749   -961.92245    145448.21   -40024.951    2678.4753   -42703.426    293.75505     224.2508 
   94850    132.13944   -957.62428    145361.36   -40030.529    2665.4034   -42695.933     293.6632    223.15638 
   94900    133.66381   -1076.8942    145175.13   -39999.416    2696.1515   -42695.568     293.1316    225.73071 
   94950    132.24286   -894.48139    145052.91   -39973.739    2667.4895   -42641.229    293.40059    223.33103 
   95000    129.83018    -939.6084    145040.45   -39974.393     2618.823   -42593.216    293.11115    219.25651 
   95050    135.47397   -880.12234    145102.75   -39898.346    2732.6646   -42631.011    293.13898    228.78771 
   95100    135.23363   -1063.1507    145130.72   -39932.167    2727.8166   -42659.983    292.92954    228.38182 
   95150     133.8063   -1229.9286    145072.98   -39977.283    2699.0258   -42676.309    293.38792    225.97136 
   95200    133.81801   -982.81594    144994.32   -39946.985    2699.2621   -42646.247    293.47861    225.99114 
   95250    135.10542   -925.30496    145149.98   -39909.389    2725.2305   -42634.619     293.4082     228.1653 
   95300    134.25061   -1153.0593    145065.15    -39890.49    2707.9881   -42598.478    293.29487    226.72171 
   95350     134.1208   -948.25241    145181.37   -39847.443    2705.3697   -42552.813    293.44351    226.50249 
   95400     133.9375   -978.70746    145214.26   -39803.874    2701.6722   -42505.546     293.6933    226.19292 
   95450     135.5491    -1023.669    145296.17   -39804.447    2734.1801   -42538.628    293.69023    228.91459 
   95500     134.1685   -933.97357    145253.45   -39824.147    2706.3318   -42530.479    293.53952    226.58304 
   95550    137.01179   -1103.0204    145293.59   -39800.818    2763.6841   -42564.502    294.30603    231.38477 
   95600    134.71583    -913.4388    145295.42   -39788.502    2717.3721   -42505.874    294.55546    227.50737 
   95650    132.95472   -1020.3062    145200.87   -39806.073    2681.8485   -42487.921    294.24944    224.53321 
   95700    133.59071   -1062.8462    145017.43   -39817.975    2694.6771   -42512.652    294.06955    225.60727 
   95750    134.86171   -1124.5961    145029.74   -39878.975    2720.3147    -42599.29    294.31067    227.75373 
   95800    134.76808   -929.70663     144971.7   -39888.123     2718.426   -42606.549    294.67609     227.5956 
   95850    134.76129    -822.2934    145010.73    -39878.87    2718.2891   -42597.159    294.51623    227.58414 
   95900    132.27148   -1232.0115    144924.71    -39893.15    2668.0668   -42561.217    294.68026    223.37937 
   95950    133.20231   -820.82554    144718.01    -39898.95    2686.8427   -42585.792    294.79263    224.95135 
   96000    133.92743   -953.58389    144898.71   -39899.222    2701.4691   -42600.691    295.28724    226.17592 
   96050    133.83689   -1142.6342    144985.13   -39899.292    2699.6429   -42598.935    295.40829    226.02302 
   96100      133.968    -871.5974    144980.02    -39859.09    2702.2874   -42561.377    295.74331    226.24443 
   96150    133.91389   -976.06178    144973.91   -39889.301     2701.196   -42590.497     296.1179    226.15305 
   96200    131.45499   -992.93561     145023.5   -39865.959    2651.5973   -42517.556    296.45768    222.00049 
   96250    133.54448   -840.06229     145204.5   -39890.534    2693.7447   -42584.278    296.94205     225.5292 
   96300    135.37896   -865.25047    145334.27   -39865.189    2730.7481   -42595.937    297.40832    228.62725 
   96350    133.38254   -1127.0687     145281.1    -39886.17    2690.4781   -42576.648    297.25096    225.25571 
   96400    134.24865   -1005.6253    145147.14   -39914.702    2707.9485   -42622.651    296.67172    226.71839 
   96450    132.25288   -962.59737    145035.74   -39937.085    2667.6916   -42604.777    296.95484    223.34796 
   96500    132.85823   -859.36914    145048.99   -39893.837    2679.9021   -42573.739    297.09872    224.37026 
   96550    132.49644   -942.25611    145208.52   -39873.261    2672.6045   -42545.866    297.01613    223.75928 
   96600    133.88452   -1128.4305    145058.88   -39869.571    2700.6037   -42570.174     296.9784    226.10346 
   96650    136.01549   -1196.0485    144884.65   -39877.828    2743.5877   -42621.416    296.84064    229.70223 
   96700    134.90225   -909.05491    144885.78   -39898.291    2721.1324   -42619.424     296.8924     227.8222 
   96750    135.13067   -1094.2226    144829.98   -39891.925      2725.74   -42617.665    297.04738    228.20795 
   96800    134.67042   -973.87935    144737.24   -39831.469    2716.4562   -42547.926    296.42112    227.43068 
   96850    134.57725   -1084.3239    144731.39   -39862.683    2714.5767    -42577.26    296.52837    227.27333 
   96900    132.07024   -968.14171    144727.63   -39864.603    2664.0075    -42528.61    296.72532    223.03951 
   96950    136.25729   -899.63012    144855.95    -39863.64    2748.4652   -42612.106    297.18287    230.11058 
   97000    132.84168   -925.83947    145070.14   -39892.665    2679.5684   -42572.234    297.44869    224.34231 
   97050    135.99084   -963.95955     145087.6   -39874.179    2743.0905   -42617.269     297.8124     229.6606 
   97100    135.51642   -951.85771    145161.35   -39835.866    2733.5209   -42569.387      297.937     228.8594 
   97150    134.51619   -872.86414    145198.87   -39812.437    2713.3452   -42525.782     297.9591    227.17022 
   97200    137.06531   -1063.8195     145101.5   -39824.333    2764.7637   -42589.097    298.13521    231.47515 
   97250    132.86949    -1008.663    145055.52   -39855.265    2680.1294   -42535.394    298.43175    224.38928 
   97300    136.22849   -1175.0321    144960.23   -39887.025    2747.8842   -42634.909    298.55413    230.06195 
   97350    131.25378   -1087.3202    144963.95   -39917.614    2647.5386   -42565.153    298.43573    221.66068 
   97400    131.00037   -1018.1082    144998.73   -39901.198    2642.4271   -42543.625    298.43815    221.23273 
   97450     132.7418   -1174.7733    144875.25   -39884.654    2677.5537   -42562.207    298.79137    224.17364 
   97500    133.11594   -1007.0922    144705.16   -39918.698    2685.1005   -42603.799    298.73878    224.80548 
   97550    133.76097   -948.90496    144689.84   -39958.684    2698.1114   -42656.796    298.82354     225.8948 
   97600    131.43562   -1057.5336    144657.78   -39994.001    2651.2065   -42645.207    298.50474    221.96777 
   97650    132.93747   -1008.8903    144639.57    -40009.34    2681.5006    -42690.84      298.577    224.50409 
   97700    131.38193   -878.68357    144696.85   -39987.733    2650.1235   -42637.857    298.56605     221.8771 
   97750    135.09337   -989.45571    144889.08   -39968.263    2724.9875    -42693.25    298.75684    228.14495 
   97800     132.1621   -905.76302    144780.21   -39947.034    2665.8603   -42612.894    298.82617    223.19463 
   97850    134.78574   -974.41662    144944.39   -39960.374    2718.7823   -42679.156    299.07402    227.62543 
   97900    131.58856   -959.81719    144944.97   -39982.485    2654.2915   -42636.776    299.31417    222.22605 
   97950    133.06028    -951.4246    144957.37   -40005.327    2683.9777   -42689.305    299.47394    224.71148 
   98000    134.03048   -1042.9828    144943.98   -39965.154    2703.5477   -42668.701    299.13407    226.34995 
   98050    130.66419   -1044.4834     144847.2    -40058.15    2635.6459   -42693.796    298.72565    220.66498 
   98100    131.97808    -957.3532     144959.4   -40016.976    2662.1486   -42679.125    298.85966    222.88388 
   98150    132.59716   -917.64145    144950.97   -39984.411     2674.636   -42659.047    298.63248    223.92936 
   98200    133.35795   -1037.0671    144957.13   -39956.291    2689.9822   -42646.273      299.005    225.21419 
   98250    133.94722   -1027.1239    145013.16   -39954.658    2701.8682   -42656.527    298.88815    226.20934 
   98300    131.33482   -1202.6215    144879.35   -39948.456    2649.1732   -42597.629    298.65702    221.79753 
   98350     134.3184   -915.70305    144892.74   -39917.925    2709.3554    -42627.28    299.02324    226.83618 
   98400    133.06282   -1014.1942    144949.56   -39918.197    2684.0289   -42602.226    299.04221    224.71577 
   98450    133.17657   -1048.4406    144941.44   -39936.594    2686.3235   -42622.918    299.05359    224.90788 
   98500     131.8972   -1088.3772    145013.74    -39932.85    2660.5171   -42593.367    299.47385    222.74728 
   98550      135.974   -1138.2141    144808.64   -39871.155    2742.7507   -42613.905    299.23257    229.63215 
   98600    134.93488   -1046.3123    144775.19   -39865.494    2721.7906   -42587.284    298.97637     227.8773 
   98650    136.97638   -1049.9599    144770.49   -39890.279      2762.97   -42653.249    298.45219    231.32498 
   98700    135.19059   -1059.8818     144701.8   -39852.485    2726.9485   -42579.433     297.9145    228.30914 
   98750    134.17055   -1000.0714    144631.86    -39846.05    2706.3731   -42552.424    297.72448     226.5865 
   98800    134.37257   -856.46316    144717.69     -39880.1    2710.4481   -42590.548    297.87927    226.92767 
   98850    134.52086   -832.96684    144888.32   -39895.429    2713.4394   -42608.868    297.82109    227.17811 
   98900    133.22238   -1084.6648    144861.67   -39900.681    2687.2474   -42587.928    298.12073    224.98523 
   98950      132.588    -957.1608    144803.93   -39969.308    2674.4514    -42643.76    298.36884     223.9139 
   99000    129.70926   -901.51172    144814.34   -39997.113    2616.3839   -42613.497    298.75915    219.05231 
   99050    132.27833   -1013.3855    144920.88   -39960.974    2668.2049   -42629.179    298.69515    223.39093 
   99100    134.05134   -991.44878    145058.37   -39957.357    2703.9687   -42661.326    298.93867    226.38519 
   99150    132.46508   -900.99872    145091.84     -39936.6    2671.9718   -42608.572    299.35206    223.70631 
   99200    133.58994   -1129.2141    145014.74   -39932.359    2694.6616    -42627.02     299.2292    225.60597 
   99250    132.42689   -803.98659    145120.14   -39918.497    2671.2015   -42589.698    299.47447    223.64182 
   99300    132.51481   -1024.9438    145053.02   -39960.547    2672.9749   -42633.522    299.80571    223.79029 
   99350    131.80958   -948.38216    144949.68   -39998.642    2658.7497   -42657.392    300.08081    222.59931 
   99400    131.33071   -1099.7779    144883.25   -39984.281    2649.0903   -42633.371    300.29764    221.79059 
   99450    130.06907   -1002.3321     144779.8   -39987.252    2623.6415   -42610.893    299.70652    219.65994 
   99500    132.06799   -749.37039    144854.35     -39976.8    2663.9622   -42640.762    299.17706    223.03571 
   99550    133.04426   -1164.4809    145026.73   -39979.681    2683.6545   -42663.335    299.49095    224.68442 
   99600    132.58147   -986.44679    144902.74   -40015.604    2674.3196   -42689.923    300.06266    223.90287 
   99650    132.81161   -1023.0384    144934.06   -39985.367    2678.9618   -42664.329     300.1995    224.29153 
   99700     133.9973    -1050.571    144970.82   -40001.555    2702.8785   -42704.434    300.05187    226.29392 
   99750       132.85   -1091.7046    144891.39   -39949.883    2679.7361    -42629.62    300.13714    224.35636 
   99800    134.08558   -915.88656    144965.07   -39895.308    2704.6593   -42599.968     300.3109    226.44301 
   99850    134.18537    -860.6936    145032.47   -39897.633    2706.6721   -42604.305    300.51327    226.61153 
   99900    132.29603   -880.87021     145160.2   -39939.172     2668.562   -42607.734    300.50014    223.42083 
   99950     132.9006   -1251.0891    145119.34   -39944.995    2680.7568   -42625.751    300.97494    224.44181 
  100000    135.39103   -1110.3885    144910.66   -39922.554    2730.9917   -42653.546    300.92142    228.64765 
Loop time of 340.245 on 40 procs for 100000 steps with 6768 atoms

Performance: 126.968 ns/day, 0.189 hours/ns, 293.906 timesteps/s
99.5% CPU use with 40 MPI tasks x no OpenMP threads

MPI task timing breakdown:
Section |  min time  |  avg time  |  max time  |%varavg| %total
---------------------------------------------------------------
Pair    | 50.919     | 137.23     | 285.71     | 678.3 | 40.33
Neigh   | 1.9486     | 4.1371     | 12.37      | 170.5 |  1.22
Comm    | 31.427     | 129.47     | 174.64     | 383.9 | 38.05
Output  | 0.17391    | 0.18129    | 0.31946    |   5.2 |  0.05
Modify  | 7.7054     | 67.803     | 153.53     | 826.4 | 19.93
Other   |            | 1.426      |            |       |  0.42

Nlocal:    169.2 ave 418 max 108 min
Histogram: 32 0 0 0 0 0 1 1 4 2
Nghost:    1278.08 ave 1664 max 855 min
Histogram: 16 0 0 0 0 0 0 0 17 7
Neighs:    0 ave 0 max 0 min
Histogram: 40 0 0 0 0 0 0 0 0 0
FullNghs:  20124.8 ave 75899 max 6585 min
Histogram: 32 0 0 0 0 0 0 2 2 4

Total # of neighbors = 804992
Ave neighs/atom = 118.941
Neighbor list builds = 6145
Dangerous builds = 0

write_data		${DIR}/data.eq-${NAME}-${TEMP}
write_data		run_7/data.eq-${NAME}-${TEMP}
write_data		run_7/data.eq-het_freeze_7-${TEMP}
write_data		run_7/data.eq-het_freeze_7-225
undump          1

reset_timestep  0

unfix           2
unfix           3
unfix           4


################################################
#######         Run Simulation         #########
################################################

log				${DIR}/log.run_${NAME}
log				run_7/log.run_${NAME}
log				run_7/log.run_het_freeze_7
