
# Create simulation box and atoms

read_data data.graphite_substrate_1000
  orthogonal box = (0 0 -1.03859) to (49.22 49.0196 61.1006)
  4 by 2 by 5 MPI processor grid
  reading atoms ...
  6768 atoms
  reading velocities ...
  6768 velocities
group water type 1
4008 atoms in group water
group graphite type 2
2760 atoms in group graphite

# Define potential

pair_style sw
pair_coeff * * mWC.sw mW C
Reading potential file mWC.sw with DATE: 2019-02-27


# Fix graphite atoms in place

fix 5 graphite setforce 0.0 0.0 0.0
velocity graphite set 0.0 0.0 0.0


# Equilibration of molecular water

# Add velocity/set timestep

velocity	    water create ${TEMP} ${SEED} rot yes dist gaussian
velocity	    water create 225 ${SEED} rot yes dist gaussian
velocity	    water create 225 29829 rot yes dist gaussian
timestep	    5.0

# Define output

compute			1 water msd
compute			3 water temp
thermo	    	50
thermo_style	custom step temp press vol etotal ke pe c_1[4] c_3

# Neighbor lists

neigh_modify    delay 0 every 1 check yes

# Set fixes

fix             1 water momentum 10 linear 1 1 1 rescale
fix             2 water nve
fix             3 water temp/csvr ${TEMP} ${TEMP} 500.0 ${SEED}
fix             3 water temp/csvr 225 ${TEMP} 500.0 ${SEED}
fix             3 water temp/csvr 225 225 500.0 ${SEED}
fix             3 water temp/csvr 225 225 500.0 29829
fix             4 water press/berendsen z ${PRES} ${PRES} 1000.0 modulus 20000
fix             4 water press/berendsen z -1000 ${PRES} 1000.0 modulus 20000
fix             4 water press/berendsen z -1000 -1000 1000.0 modulus 20000

# Run 0.5 ns equilibration

dump		    1 all atom 2000 ${DIR}/eq.${NAME}-${TEMP}.dump
dump		    1 all atom 2000 run_7/eq.${NAME}-${TEMP}.dump
dump		    1 all atom 2000 run_7/eq.het_freeze_7-${TEMP}.dump
dump		    1 all atom 2000 run_7/eq.het_freeze_7-225.dump

reset_timestep  0

run	            100000
Neighbor list info ...
  update every 1 steps, delay 0 steps, check yes
  max neighbors/atom: 2000, page size: 100000
  master list distance cutoff = 7.76
  ghost atom cutoff = 7.76
  binsize = 3.88, bins = 13 13 17
  1 neighbor lists, perpetual/occasional/extra = 1 0 0
  (1) pair sw, perpetual
      attributes: full, newton on
      pair build: full/bin/atomonly
      stencil: full/bin/3d
      bin: standard
Per MPI rank memory allocation (min/avg/max) = 4.107 | 4.219 | 4.543 Mbytes
Step Temp Press Volume TotEng KinEng PotEng c_1[4] c_3 
       0    133.23112   -1309.3276    149926.08   -35971.017    2687.4238   -38658.441            0          225 
      50    176.03888   -1941.8335    149556.76   -36302.702    3550.9052   -39853.607   0.85044157    297.29351 
     100    167.99245   -1595.8886    149244.05   -36625.323    3388.5994   -40013.922    1.8779111    283.70474 
     150    164.76779    -1841.478    148856.06   -37057.602    3323.5545   -40381.157     2.733668    278.25896 
     200    160.49009   -1808.5739    148474.53   -37312.525    3237.2683   -40549.793    3.5265858     271.0348 
     250    157.55659   -1899.5815    148103.24   -37530.017    3178.0962   -40708.113    4.2450076    266.08071 
     300    154.02025   -1693.0176    147692.49   -37774.544    3106.7643   -40881.308    4.9079144    260.10857 
     350     153.0726   -1451.8869    147413.26   -37924.023    3087.6491   -41011.672    5.5080885    258.50818 
     400    151.59496   -1790.4187    147153.47   -38158.949    3057.8434   -41216.792    6.0313632    256.01275 
     450    144.97619   -1690.2173    146776.86   -38345.612    2924.3352   -41269.947    6.5948078      244.835 
     500     143.5115   -1668.9703    146572.11   -38458.156    2894.7909   -41352.946    7.1344852    242.36145 
     550    141.84612   -1230.4934    146375.63   -38497.871    2861.1983    -41359.07    7.5711451    239.54897 
     600    143.83615    -1033.849    146325.01   -38589.341    2901.3394    -41490.68    7.9447587    242.90972 
     650    142.15659   -1279.6235    146266.96   -38664.005    2867.4608   -41531.465    8.2920077    240.07329 
     700    142.22363   -1535.2805    146120.73   -38753.039     2868.813   -41621.851    8.7060017     240.1865 
     750    139.38285   -1203.5847    146054.67   -38795.086    2811.5111   -41606.597    9.1596092      235.389 
     800    139.36056   -1563.1015    146018.46   -38887.379    2811.0615   -41698.441    9.5455915    235.35136 
     850    137.02565   -1177.2013    145988.97   -38962.576    2763.9638    -41726.54    9.8865812    231.40818 
     900    136.05902    -1130.923    145929.36   -39050.582    2744.4658   -41795.048    10.171536    229.77575 
     950    139.83055   -1308.0661    145859.95   -39090.309    2820.5417   -41910.851    10.559504    236.14507 
    1000    137.15988   -1324.8523    145760.91   -39186.801    2766.6714   -41953.472    10.936381    231.63487 
    1050    135.94984   -1466.9902    145677.55   -39202.964    2742.2635   -41945.228    11.218383    229.59136 
    1100    136.59965   -1388.0965    145567.46   -39224.647    2755.3709   -41980.018    11.589619    230.68876 
    1150    137.60449   -1272.3761    145520.52   -39302.677    2775.6396   -42078.317     11.96966    232.38571 
    1200    134.90428   -1193.9644    145454.63   -39327.719    2721.1734   -42048.892    12.341325    227.82563 
    1250    135.89765   -1233.2461    145372.55    -39352.47    2741.2108   -42093.681    12.618748    229.50322 
    1300    136.26972   -1325.8729    145351.95   -39405.102    2748.7159   -42153.818    12.910215    230.13158 
    1350    134.48729   -1215.1381    145350.89   -39428.337    2712.7621     -42141.1    13.112349    227.12141 
    1400    135.35456   -1215.5659    145360.76   -39431.324     2730.256    -42161.58    13.349541    228.58605 
    1450    135.51038   -1222.9912    145356.75   -39447.726    2733.3991   -42181.125    13.669441     228.8492 
    1500    135.13219   -1133.8732     145439.8   -39463.434    2725.7705   -42189.205    14.010763    228.21051 
    1550    135.16255   -1078.2026    145409.26   -39466.413     2726.383   -42192.796    14.369005    228.26179 
    1600    135.02348   -1212.3463    145492.52   -39427.408    2723.5777   -42150.986    14.577765    228.02692 
    1650    136.36873   -1202.8241    145520.26   -39481.224    2750.7129   -42231.936    14.857805    230.29877 
    1700    135.26334   -1156.3807    145525.61   -39571.649    2728.4159   -42300.065    15.045706    228.43199 
    1750    131.59305    -1167.807    145579.49   -39622.894    2654.3821   -42277.276    15.261596    222.23364 
    1800    133.73643   -1143.7079       145694    -39661.01    2697.6164   -42358.626    15.439791    225.85336 
    1850    130.29386   -1282.6719    145684.04   -39711.737    2628.1758   -42339.913    15.642525    220.03956 
    1900    130.10875   -1033.5442    145695.94   -39691.763    2624.4421   -42316.205    15.805092    219.72696 
    1950    131.00547   -1227.0089    145718.26   -39665.729    2642.5298   -42308.259    16.155928    221.24132 
    2000    137.09015   -1152.5986    145729.29   -39635.601    2765.2648   -42400.866     16.45668    231.51711 
    2050    132.44126   -1101.7282    145778.27    -39673.33    2671.4915   -42344.822    16.542878    223.66609 
    2100    133.20681   -1195.1103    145780.13   -39607.535    2686.9334   -42294.468    16.598499    224.95894 
    2150     133.6508   -1229.1914    145696.34   -39649.633    2695.8892   -42345.523    16.815267    225.70875 
    2200    135.03797   -1278.1137    145647.27   -39638.078      2723.87   -42361.948      17.0293     228.0514 
    2250     132.3167   -1092.7345    145716.17   -39668.734    2668.9789   -42337.713    17.170034    223.45573 
    2300    133.38909   -1081.3183    145749.99   -39687.487    2690.6103   -42378.098    17.358949    225.26678 
    2350    134.75344   -1043.7667    145782.01    -39650.55    2718.1307   -42368.681    17.614666    227.57088 
    2400     136.0551   -1065.4103    145827.08   -39651.264    2744.3868   -42395.651    17.835424    229.76913 
    2450    132.15399   -1172.4314    145877.48   -39700.766    2665.6969   -42366.463    18.110068    223.18095 
    2500    132.00188   -1322.3981    145905.26   -39738.675    2662.6286   -42401.303    18.378795    222.92406 
    2550    132.33107   -1410.4448     145864.4   -39707.183    2669.2687   -42376.452     18.63686    223.47999 
    2600    131.77187   -1265.6579     145884.3   -39652.703    2657.9891   -42310.692    18.818081    222.53562 
    2650    135.49625   -1228.2596    146003.03   -39672.508     2733.114   -42405.622    18.950819    228.82533 
    2700     131.6713   -1205.5245    146004.04   -39716.652    2655.9605   -42372.613    19.064572    222.36579 
    2750    133.64166    -1217.067     145923.1   -39751.685    2695.7048    -42447.39    19.278882    225.69331 
    2800    135.14469   -1151.6604    145891.29   -39729.332    2726.0227   -42455.354    19.471545    228.23163 
    2850    134.50356    -1234.817    145838.99   -39713.773    2713.0903   -42426.863    19.618404    227.14889 
    2900    132.94254   -1353.9552    145802.26   -39727.547    2681.6027   -42409.149    19.744483    224.51264 
    2950    130.49387   -1231.1057    145735.56   -39718.866    2632.2102   -42351.076    19.989426    220.37734 
    3000    133.34003   -1268.4718    145830.94   -39723.315    2689.6206   -42412.935    20.265651    225.18392 
    3050     134.0284   -1269.8812    145817.83   -39699.173    2703.5059   -42402.678     20.44203    226.34644 
    3100     134.8007   -1323.3608    145835.04   -39733.072     2719.084   -42452.156     20.55764    227.65069 
    3150    133.39945   -1301.1767    145864.17   -39742.402    2690.8193   -42433.221    20.808147    225.28428 
    3200     131.8418   -1283.1139    145815.57   -39782.388    2659.3997   -42441.788     21.04973    222.65373 
    3250    131.16061   -1216.1913    145869.33   -39809.014    2645.6591   -42454.673    21.172001    221.50332 
    3300    133.50699   -1052.9512    145960.99    -39673.41    2692.9883   -42366.398    21.273094    225.46588 
    3350     134.4526   -1374.9843     146041.6   -39690.097    2712.0625   -42402.159    21.454206    227.06283 
    3400     135.7214   -1279.5985    146024.19   -39680.817    2737.6555   -42418.472    21.569812    229.20556 
    3450    131.04914   -1398.6395    145979.83   -39656.665    2643.4107   -42300.076    21.702871    221.31508 
    3500    135.50925   -1164.5336    145945.67   -39641.522    2733.3763   -42374.898    21.815631    228.84729 
    3550    134.43803   -1216.4034     145939.3   -39697.322    2711.7686   -42409.091    21.832509    227.03822 
    3600    132.22813   -1329.3343    145938.94   -39732.816    2667.1924   -42400.009    22.061491    223.30616 
    3650    135.90126   -1152.8705    145934.68   -39720.489    2741.2837   -42461.772    22.108063    229.50932 
    3700     135.9139   -1259.9019    145926.73   -39760.202    2741.5384   -42501.741    22.271954    229.53065 
    3750    134.12501   -1265.2482    145871.02   -39734.672    2705.4545   -42440.127     22.46708    226.50959 
    3800    134.58733   -1225.1343    145849.46   -39769.534    2714.7802   -42484.315    22.692785    227.29037 
    3850    137.17833    -1241.524     145779.8   -39756.049    2767.0436   -42523.092    22.966486    231.66603 
    3900    136.98443   -1028.7722    145834.47   -39734.828    2763.1324   -42497.961    22.914265    231.33857 
    3950     136.3539   -1212.8247    145809.56   -39758.418    2750.4138   -42508.831    22.908852    230.27373 
    4000    134.03795   -1120.7025    145749.54   -39780.501    2703.6986   -42484.199    23.103033    226.36258 
    4050    135.80475   -1237.2851    145787.44   -39778.121    2739.3369   -42517.458    23.202354    229.34634 
    4100    136.12584   -978.35188    145820.62    -39748.01    2745.8136   -42493.824    23.270436    229.88859 
    4150    134.08426   -1226.7243    145881.81   -39770.962    2704.6326   -42475.594    23.348593    226.44077 
    4200    132.74178   -1225.7502    145837.45   -39805.777    2677.5533    -42483.33     23.37525    224.17361 
    4250    132.30438   -1004.3213    145869.77   -39792.141    2668.7304   -42460.872    23.380738    223.43492 
    4300    135.26199   -1083.7911    145971.04   -39750.382    2728.3887   -42478.771    23.561454    228.42971 
    4350    132.77861   -1352.1634    145985.78   -39733.651    2678.2962   -42411.947    23.736947     224.2358 
    4400    134.54612   -1271.4299    145982.35   -39757.705    2713.9489   -42471.654    24.061668    227.22077 
    4450     135.7989   -1231.3847    145959.65   -39709.398    2739.2188   -42448.617     24.15483    229.33644 
    4500      134.199   -1332.4461     145886.3   -39747.796     2706.947   -42454.743    24.291052    226.63455 
    4550    134.45343     -1119.47       145868   -39727.528    2712.0792   -42439.607     24.51914    227.06423 
    4600    136.89661    -1248.549    145848.86   -39696.636    2761.3609   -42457.997    24.710555    231.19025 
    4650    136.05972   -1237.4789    145781.73   -39692.904    2744.4798   -42437.384    24.917572    229.77691 
    4700    134.37189   -1151.4496    145805.04   -39708.136    2710.4345    -42418.57    25.237753    226.92653 
    4750    135.52419   -1383.3569    145807.82   -39768.662    2733.6776    -42502.34    25.381221    228.87252 
    4800    131.75907   -1373.8355    145789.84   -39797.294    2657.7309   -42455.025    25.442171    222.51401 
    4850    131.59495   -1400.5506    145692.17   -39822.432    2654.4203   -42476.853     25.60631    222.23683 
    4900     132.9143     -1127.42    145658.18   -39794.838    2681.0332   -42475.871    25.639564    224.46496 
    4950    134.52756   -1243.5421    145667.43    -39824.24    2713.5744   -42537.815    25.814199    227.18941 
    5000    136.29457   -1261.6214    145681.58    -39800.37    2749.2171   -42549.588    26.043619    230.17354 
    5050    135.03103   -1126.2088    145687.57   -39793.429    2723.7301   -42517.159     26.24127    228.03968 
    5100    134.60712   -1063.6867    145743.23   -39809.167    2715.1794   -42524.346    26.469658    227.32378 
    5150     132.6898   -1036.4293    145817.71   -39802.737    2676.5047   -42479.242    26.571745    224.08582 
    5200     132.9228   -1239.3275    145876.98   -39805.994    2681.2045   -42487.199     26.57585     224.4793 
    5250    135.00084   -1289.3719    145814.28   -39692.222    2723.1211   -42415.343     26.83333     227.9887 
    5300    132.97281   -1235.8556    145850.04    -39723.53    2682.2134   -42405.744    27.111515    224.56377 
    5350    133.94692   -1370.0668    145866.48    -39698.28    2701.8623   -42400.142    27.412529    226.20884 
    5400    133.85652   -1288.2502       145841   -39694.612    2700.0387   -42394.651    27.555551    226.05616 
    5450    135.50162   -1192.7844    145891.79   -39664.641    2733.2224   -42397.863    27.633683    228.83441 
    5500    135.40093   -1288.6738    145910.52   -39696.627    2731.1913   -42427.818    27.725092    228.66436 
    5550     134.8099   -1427.3242    145845.49   -39689.727    2719.2696   -42408.997    27.910891    227.66623 
    5600    134.14917   -1200.5692    145880.19   -39697.873    2705.9418   -42403.815    27.939007    226.55039 
    5650    135.15205   -1249.4056    145849.06   -39689.234    2726.1711   -42415.405    27.981004    228.24405 
    5700    133.44711   -1265.9743    145791.53   -39711.498    2691.7806   -42403.279    28.234027    225.36476 
    5750    133.76073    -1306.698    145733.14    -39726.84    2698.1067   -42424.947    28.533003     225.8944 
    5800    133.82131   -1302.5431    145675.44   -39781.413    2699.3287   -42480.741    28.643321    225.99671 
    5850    131.78277   -1263.7748    145641.91   -39735.904    2658.2088   -42394.113    28.775643    222.55402 
    5900    134.84232   -1271.9035    145620.45   -39734.425    2719.9236   -42454.348    28.814126    227.72099 
    5950    132.66082   -1081.5089    145628.87    -39726.96    2675.9202    -42402.88    28.928797    224.03688 
    6000    133.30012   -1318.0822    145607.12    -39726.77    2688.8155   -42415.586    29.174215    225.11652 
    6050    132.44224   -1132.6334    145618.47   -39766.872    2671.5113   -42438.383    29.461903    223.66775 
    6100    135.12243    -1106.859     145649.6   -39777.333    2725.5737   -42502.907    29.671865    228.19403 
    6150    132.15383   -1022.9203    145688.25   -39811.813    2665.6936   -42477.507    30.033846    223.18067 
    6200    135.35169   -1264.1475    145721.93    -39840.31     2730.198   -42570.508    30.264507     228.5812 
    6250    134.75648   -1092.7235    145791.12   -39773.437    2718.1921   -42491.629    30.396447    227.57602 
    6300    135.66512   -1208.7783    145800.39   -39783.157    2736.5202   -42519.677    30.550119    229.11052 
    6350    133.07442   -1129.2078     145808.5   -39810.135     2684.263   -42494.398    30.903127    224.73537 
    6400    131.97577   -1143.3057    145780.99   -39852.197     2662.102   -42514.299    31.213128    222.87997 
    6450    131.25126   -1147.0208       145708   -39893.181    2647.4878   -42540.668     31.62312    221.65642 
    6500    132.88152   -987.62503    145739.03   -39867.063     2680.372   -42547.435    31.736264     224.4096 
    6550    132.16408   -1081.4365    145779.22   -39851.205    2665.9004   -42517.105    31.960682    223.19799 
    6600    134.58197   -1075.4433    145752.86   -39814.032    2714.6719   -42528.704    32.146067     227.2813 
    6650    130.65973   -1159.1445    145813.42   -39822.546     2635.556   -42458.102    32.223514    220.65745 
    6700    134.74169   -1292.4915    145791.71   -39853.914    2717.8937   -42571.808    32.442697    227.55104 
    6750    136.58956   -1052.5987    145852.29   -39787.214    2755.1673   -42542.382    32.556602    230.67171 
    6800    132.47105   -1066.9007    145941.75   -39820.415    2672.0924   -42492.508    32.532257     223.7164 
    6850    133.96682   -1203.6826    145997.41   -39787.853    2702.2637   -42490.117    32.725717    226.24245 
    6900    134.93409   -1211.8327     146030.9   -39804.123    2721.7747   -42525.898    32.821022    227.87597 
    6950    132.53373    -1188.806    146045.36   -39726.676    2673.3566   -42400.032    32.902263    223.82224 
    7000    134.85312    -1257.891    146056.32   -39745.818    2720.1414   -42465.959    33.112873    227.73922 
    7050      137.951   -1162.8493    145980.29   -39753.949    2782.6292   -42536.578    33.417603    232.97091 
    7100    133.88678   -1121.8338    145942.18   -39779.036    2700.6493   -42479.685    33.749913    226.10728 
    7150    134.45827    -1244.789    145957.47   -39819.939    2712.1767   -42532.116    33.762707    227.07239 
    7200    131.58746   -1256.0622    145904.55    -39844.77    2654.2692   -42499.039    34.009078    222.22419 
    7250    132.62323    -1240.299    145891.23   -39814.365    2675.1619   -42489.527    34.138575    223.97339 
    7300    132.78808   -1120.4256    145854.08   -39788.581    2678.4872   -42467.068    34.227537    224.25179 
    7350    131.65201   -1315.5318    145900.83   -39805.279    2655.5713    -42460.85    34.338082     222.3332 
    7400    134.33908   -1271.4179     145913.4   -39813.574    2709.7726   -42523.346    34.432933    226.87111 
    7450    133.97515   -1233.4499    145935.74   -39807.492    2702.4318   -42509.923    34.631581    226.25651 
    7500    133.13548   -1129.5942    145923.57   -39783.329    2685.4946   -42468.824      34.8418    224.83848 
    7550    134.66522   -1346.0628    145860.41   -39803.686    2716.3513   -42520.037    34.975782     227.4219 
    7600    131.13688   -1223.5876    145824.16   -39835.681    2645.1806   -42480.862    35.080947    221.46326 
    7650    133.82017   -1364.5739    145773.41   -39807.203    2699.3056   -42506.509    35.292005    225.99478 
    7700    131.62196   -1139.5062    145787.92   -39870.282    2654.9653   -42525.248    35.477421    222.28246 
    7750    133.19738   -1174.8367    145920.88   -39833.358    2686.7433   -42520.102    35.748453    224.94302 
    7800     132.4831   -1285.6424    145961.32   -39829.517    2672.3353   -42501.852    35.890129    223.73674 
    7850    134.36579   -1391.2306    145958.99   -39792.018    2710.3113   -42502.329    35.977291    226.91622 
    7900    130.31169   -1213.6469     145831.7   -39823.791    2628.5355   -42452.326    36.282858    220.06968 
    7950    129.75466   -1242.3926    145756.29   -39842.885    2617.2996   -42460.185    36.521774    219.12897 
    8000    133.77506   -1146.5199    145699.72   -39836.332    2698.3956   -42534.728    36.712936    225.91859 
    8050    134.52225   -1251.5508    145663.73   -39879.388    2713.4674   -42592.855    37.115452    227.18045 
    8100    131.12983   -999.68845    145705.92   -39872.118    2645.0384   -42517.156    37.447543    221.45135 
    8150    133.26203   -1256.4325    145769.19   -39869.787    2688.0474   -42557.834    37.635079     225.0522 
    8200    131.85269   -1244.9554    145789.89   -39883.064    2659.6193   -42542.683    37.809332    222.67211 
    8250    131.59932   -1073.4275    145813.42   -39858.662    2654.5086   -42513.171    37.789816    222.24423 
    8300    133.61605   -1082.8976    145774.41   -39830.647    2695.1883   -42525.835    37.901373    225.65006 
    8350    133.37687   -1135.7127    145759.99   -39830.726    2690.3636   -42521.089    38.046904    225.24613 
    8400     134.8219   -870.92398    145860.45   -39786.398    2719.5116    -42505.91    38.154086    227.68649 
    8450    133.94873   -1105.3569    145944.65   -39862.157    2701.8988   -42564.056    38.262703     226.2119 
    8500    133.85173   -1250.3838    145899.01   -39835.524    2699.9422   -42535.466    38.516029    226.04808 
    8550          134   -1216.1045    145810.45   -39796.788    2702.9329   -42499.721    38.864312    226.29847 
    8600    135.99225   -1188.7815    145815.74   -39770.939    2743.1189   -42514.058    39.008629    229.66298 
    8650    134.29344   -1144.9815    145844.75   -39785.726    2708.8521   -42494.578    39.247643    226.79405 
    8700    134.11114    -1301.057    145811.98   -39787.409    2705.1748   -42492.584    39.379454    226.48617 
    8750    132.96224    -1047.429    145784.78   -39815.037    2682.0001   -42497.037    39.568204    224.54591 
    8800    131.49311   -1159.3328    145784.11   -39812.422    2652.3662   -42464.788    39.952478    222.06486 
    8850    135.67611   -1361.4667     145750.5   -39827.575     2736.742   -42564.317    40.218748    229.12908 
    8900    132.14728   -1428.0508     145669.7   -39802.267    2665.5615   -42467.829    40.483148    223.16961 
    8950    132.85189   -1270.6392     145600.1   -39784.879    2679.7744   -42464.654    40.801892    224.35956 
    9000    131.81932   -1250.6803    145578.71   -39809.455    2658.9462   -42468.402    41.031717    222.61576 
    9050    137.06046   -1146.7086    145586.89   -39819.614     2764.666    -42584.28    41.215497    231.46697 
    9100    134.24326   -1188.0901    145627.94   -39825.903    2707.8398   -42533.743    41.436888    226.70929 
    9150     132.3475   -1149.6917    145575.64   -39848.523    2669.6001   -42518.123    41.700061    223.50774 
    9200    133.38886   -1214.3949    145554.62   -39874.538    2690.6055   -42565.144    42.023625    225.26638 
    9250    132.15462   -1298.2014    145459.11   -39937.175    2665.7095   -42602.885     42.21266      223.182 
    9300    133.56709   -1078.1086    145401.81   -39892.709    2694.2007    -42586.91    42.356804    225.56739 
    9350    134.45156   -1164.9868    145396.49   -39886.289    2712.0415   -42598.331    42.547087    227.06108 
    9400     132.8372   -1120.6072    145494.93   -39881.593    2679.4781   -42561.071    43.002996    224.33475 
    9450     133.2547   -994.36932    145631.99   -39864.016    2687.8995   -42551.915    43.232275    225.03983 
    9500    131.73213   -1192.5244    145586.18   -39927.469    2657.1875   -42584.656    43.392307    222.46851 
    9550    131.41225    -1071.336    145555.78   -39927.647     2650.735   -42578.382    43.555767    221.92829 
    9600    129.82169    -1094.852    145518.71   -39978.017    2618.6516   -42596.669    43.771534    219.24216 
    9650    133.21516   -1035.5083     145557.6   -39932.627    2687.1019   -42619.729    43.863297    224.97304 
    9700    132.92034   -1123.1903    145567.59    -39922.39     2681.155   -42603.545    43.880909    224.47515 
    9750     130.7492   -1154.2058    145618.55   -39941.584    2637.3605   -42578.944    43.938673    220.80854 
    9800    132.13026   -1234.4014    145661.66   -39937.869    2665.2182   -42603.087    43.892072    223.14087 
    9850    131.78764   -1239.4189    145645.61   -39962.062    2658.3072   -42620.369    43.917519    222.56226 
    9900    132.46443   -1110.6809    145673.33   -39933.199    2671.9588   -42605.158    43.907168    223.70521 
    9950    132.38586   -981.21675    145747.38   -39933.378     2670.374   -42603.752    43.843229    223.57253 
   10000    132.87368   -1053.4335    145802.42   -39885.787    2680.2137       -42566    43.958459    224.39635 
   10050    135.07298   -997.96728    145906.72    -39893.48    2724.5763   -42618.057    44.236968    228.11053 
   10100     131.2145   -1128.1716    145899.98   -39899.709    2646.7463   -42546.455    44.424695    221.59434 
   10150    136.05909   -1287.1759    145899.26   -39876.127    2744.4672   -42620.594    44.609824    229.77586 
   10200    132.72359   -1180.1529    145877.21   -39819.885    2677.1864   -42497.072    44.997443    224.14289 
   10250    136.28463   -1024.0857    145897.17   -39793.484    2749.0166   -42542.501    45.152189    230.15675 
   10300    133.37214   -1337.5997    145928.01   -39760.989    2690.2684   -42451.257    45.330882    225.23816 
   10350    132.39308   -1113.5842    145928.84   -39757.334    2670.5197   -42427.854    45.670428    223.58473 
   10400    133.64271   -949.35998    145974.93   -39760.944     2695.726    -42456.67    45.951379    225.69508 
   10450    134.57982    -1186.067    146031.39       -39733    2714.6287   -42447.628    46.088214    227.27768 
   10500    139.77393   -1211.9344    145988.05   -39720.304    2819.3998   -42539.703    46.229036    236.04947 
   10550    137.36828   -1243.2404    145864.09   -39715.036     2770.875   -42485.911    46.264015    231.98681 
   10600    136.45658    -1139.134    145751.76   -39766.325    2752.4849    -42518.81       46.379    230.44713 
   10650    131.62762   -1084.8958    145760.83   -39790.317    2655.0794   -42445.396    46.332967    222.29202 
   10700     133.1038   -1270.2196    145802.23   -39816.218    2684.8556   -42501.074    46.359143    224.78498 
   10750    135.38755   -1361.8989    145763.97   -39794.952    2730.9215   -42525.873    46.483137    228.64177 
   10800    131.96683   -1118.5953     145698.5   -39786.801    2661.9216   -42448.723    46.534154    222.86487 
   10850    132.41551    -1120.237    145664.82    -39792.57     2670.972   -42463.542    46.689759     223.6226 
   10900    133.80139   -968.27758    145681.04   -39798.058    2698.9268   -42496.985    46.781931    225.96307 
   10950    132.99651   -1354.5492    145626.95   -39809.878    2682.6914    -42492.57    46.924508    224.60378 
   11000    133.07819   -1123.8047    145537.19   -39826.065     2684.339   -42510.404     47.04481    224.74173 
   11050    133.22135   -1136.3119     145521.6   -39841.006    2687.2268   -42528.233    47.233182     224.9835 
   11100    131.87786   -1276.4092    145478.93     -39837.7     2660.127   -42497.827    47.482868    222.71462 
   11150    131.78272   -1292.5781    145406.62   -39800.537     2658.208   -42458.745    47.546042    222.55395 
   11200    133.76611   -1175.0615    145341.63     -39862.3    2698.2151   -42560.515    47.806318    225.90348 
   11250    133.11815    -1020.018     145330.3   -39839.336     2685.145   -42524.481    48.158912    224.80921 
   11300    133.58919   -1338.4434    145305.78   -39863.361    2694.6465   -42558.007    48.549858     225.6047 
   11350    134.38951   -1077.8382    145305.83   -39839.552    2710.7899   -42550.342    48.755034    226.95629 
   11400    133.16713   -1228.1622    145255.95   -39819.479    2686.1331   -42505.612      48.8399    224.89193 
   11450    133.97109   -1004.8338    145176.25    -39831.42    2702.3498    -42533.77     49.08304    226.24965 
   11500      134.216   -1214.5109    145174.45   -39823.535    2707.2899   -42530.825    49.349496    226.66325 
   11550     131.7454   -1249.4406    145172.99   -39827.968    2657.4551   -42485.423    49.486848    222.49092 
   11600    132.24345   -1042.8727    145138.67   -39874.848    2667.5014   -42542.349    49.546761    223.33203 
   11650    128.31487   -1240.3949    145157.02    -39895.58    2588.2573   -42483.837    49.725481    216.69745 
   11700    132.36716   -970.57734    145140.14   -39852.809    2669.9968   -42522.806    49.808351    223.54095 
   11750    133.15549   -1009.5315    145124.54   -39827.629    2685.8983   -42513.527    49.983455    224.87228 
   11800    133.27356   -1041.7426    145198.88   -39820.368    2688.2799   -42508.648    50.082469    225.07167 
   11850    133.49566   -1050.9539    145166.09   -39881.252    2692.7598   -42574.012     50.23853    225.44674 
   11900    130.36401   -1063.5547    145154.79   -39903.156     2629.591   -42532.747    50.497729    220.15804 
   11950    131.80966   -1120.0449    145236.94   -39880.752    2658.7514   -42539.503    50.715879    222.59945 
   12000    133.06875   -859.43476    145228.63   -39857.662    2684.1485    -42541.81    50.829884    224.72578 
   12050    134.56792   -922.51624    145333.52   -39795.378    2714.3887   -42509.767    51.023847    227.25758 
   12100    137.47084   -1155.0655    145352.97   -39772.049    2772.9438   -42544.993    51.243483    232.16001 
   12150    132.96005   -1110.9651    145387.07   -39768.807     2681.956   -42450.763    51.248642    224.54222 
   12200    135.08333   -963.56265    145425.93   -39789.431    2724.7849   -42514.216    51.403065    228.12799 
   12250    133.16407   -1265.9307    145470.73   -39838.065    2686.0714   -42524.137    51.580773    224.88677 
   12300     131.1257    -1022.718    145473.21   -39835.558    2644.9551   -42480.513    51.617301    221.44438 
   12350    133.64172   -1253.7312    145516.77   -39848.101     2695.706   -42543.807    51.861019    225.69341 
   12400    132.50711    -1072.844    145589.36   -39839.992    2672.8196   -42512.811    52.157417    223.77729 
   12450    134.51827   -1122.1083    145556.19   -39843.449     2713.387   -42556.836    52.347876    227.17373 
   12500    132.81244   -1266.1442    145585.89   -39834.206    2678.9785   -42513.185    52.624512    224.29293 
   12550    134.59291   -1182.6203    145616.47   -39778.389    2714.8927   -42493.282    52.615195    227.29979 
   12600    136.72416    -1082.029    145591.66   -39716.378    2757.8824    -42474.26    52.809116    230.89903 
   12650    134.70022    -1136.115    145621.54   -39731.508    2717.0572   -42448.566    52.802079      227.481 
   12700    135.64507   -1201.9105    145595.83   -39724.899     2736.116   -42461.015    52.753735    229.07667 
   12750    133.46813   -1288.4972    145622.22   -39793.329    2692.2046   -42485.533    52.872717    225.40027 
   12800    136.43946   -977.81603    145619.98    -39769.38    2752.1397    -42521.52    52.942364    230.41823 
   12850     134.3687   -1069.0021    145621.38   -39792.568      2710.37   -42502.938    53.140372    226.92113 
   12900    133.62564   -1372.3414    145560.56   -39838.702    2695.3818   -42534.083    53.330389    225.66627 
   12950    134.25612   -1148.5764    145581.44   -39825.097    2708.0993   -42533.196    53.363359    226.73102 
   13000    132.47999   -1272.5633    145560.88   -39850.507    2672.2727    -42522.78    53.531087     223.7315 
   13050    132.36132   -1115.8897    145591.41   -39877.588    2669.8789   -42547.467    53.687659    223.53108 
   13100     130.9607   -1335.5655     145563.5   -39875.418    2641.6268   -42517.045    53.918272    221.16572 
   13150    134.35613    -1203.949    145509.92    -39834.65    2710.1166   -42544.767    54.084096    226.89991 
   13200    134.60343   -1309.4155    145553.45   -39855.029    2715.1049   -42570.134    54.141625    227.31755 
   13250    131.01986   -1158.5892    145603.82   -39889.052    2642.8202   -42531.872    54.279045    221.26564 
   13300    133.78899   -1117.1628    145556.44    -39888.72    2698.6766   -42587.396    54.338271    225.94212 
   13350    132.66287   -1252.3005    145610.82   -39904.545    2675.9615   -42580.507    54.420592    224.04034 
   13400    132.32939   -1083.3346    145560.71   -39925.884    2669.2348   -42595.119    54.554386    223.47716 
   13450    130.41124   -1006.4566     145624.8   -39882.641    2630.5436   -42513.185     54.74403     220.2378 
   13500    130.67173   -1242.4492    145661.68   -39931.296    2635.7979   -42567.093    54.737898    220.67771 
   13550    133.74614   -1129.3749    145647.82   -39938.575    2697.8123   -42636.388    55.044136    225.86976 
   13600    133.01625   -1193.1665    145599.63   -39941.223    2683.0897   -42624.313    55.350821    224.63713 
   13650    135.32126   -1229.2336    145477.77   -39882.089    2729.5843   -42611.673    55.666607    228.52981 
   13700    133.88108   -1005.2807    145493.81   -39956.459    2700.5343   -42656.993    55.823448    226.09765 
   13750    133.46848   -1065.1986     145493.5   -39938.792    2692.2116   -42631.004    55.865228    225.40085 
   13800     133.1189   -1058.0658    145556.04   -39961.964    2685.1602   -42647.124    55.959481    224.81048 
   13850      133.699   -1067.6465    145590.97   -39953.606    2696.8614   -42650.468    55.922305    225.79015 
   13900    136.05679   -1063.2475    145629.29   -39884.412    2744.4208   -42628.832    56.067412    229.77197 
   13950    134.42249   -1141.1619    145667.68   -39953.637    2711.4551   -42665.092    56.083287    227.01198 
   14000    131.99866   -1033.8776    145669.56   -39958.272    2662.5636   -42620.835    56.151407    222.91862 
   14050    133.12092   -1235.5859    145659.69   -39954.307    2685.2009   -42639.508    56.422051    224.81389 
   14100    130.56115   -1238.4898    145697.04   -39964.945    2633.5675   -42598.513    56.511997    220.49097 
   14150    128.28186   -1142.2514    145681.41   -39988.409    2587.5915       -42576     56.78966    216.64171 
   14200    129.61495   -1263.3174    145640.92    -40000.26    2614.4814   -42614.742     56.98369    218.89302 
   14250     132.6008   -1420.2291    145557.38   -39967.517    2674.7096   -42642.227    57.293492    223.93552 
   14300    132.12575   -1205.1213    145559.25   -39941.463    2665.1273    -42606.59    57.646437    223.13326 
   14350    133.31183    -1216.477    145482.58    -39910.05    2689.0517   -42599.102    57.821126    225.13629 
   14400    131.38608   -1045.4867    145470.01   -39942.317    2650.2073   -42592.525    57.822336    221.88411 
   14450     133.5406   -1251.9873    145425.45   -39899.374    2693.6664    -42593.04    58.075723    225.52265 
   14500    132.52062   -1225.8274    145394.15   -39908.451    2673.0922   -42581.543    58.225351    223.80011 
   14550     132.0678   -906.83189    145463.61   -39912.501    2663.9584   -42576.459    58.588357     223.0354 
   14600    134.97875   -1100.4244    145524.62   -39916.379    2722.6755   -42639.054    58.835859    227.95139 
   14650    131.18887   -1054.2793    145496.95   -39970.308    2646.2294   -42616.537     58.97903    221.55106 
   14700    129.31185   -911.73263    145469.67   -39983.984    2608.3676   -42592.352    59.181277    218.38116 
   14750    132.55576   -1060.2796    145522.32   -39954.191    2673.8009   -42627.992    59.087571    223.85945 
   14800    132.68648   -1255.0713    145465.67   -39932.825    2676.4378   -42609.263    59.061529    224.08021 
   14850    133.77602   -1140.5731    145440.07   -39968.758    2698.4151   -42667.174    59.511265    225.92022 
   14900    134.67078    -941.9066     145476.1   -39948.489    2716.4634   -42664.952    59.798189    227.43129 
   14950    135.19827   -1065.5328    145586.06   -39916.009    2727.1035   -42643.113    60.027352    228.32211 
   15000    132.00161   -1103.2137    145593.68   -39917.636    2662.6232    -42580.26    60.257576    222.92361 
   15050    132.30996   -1096.5152    145631.79   -39905.636    2668.8428   -42574.478    60.338401    223.44434 
   15100    133.36219   -1226.3404    145653.24   -39897.842    2690.0675   -42587.909    60.536364    225.22134 
   15150    133.49334   -1190.5248    145572.62   -39853.011    2692.7131   -42545.724    60.813953    225.44284 
   15200    136.10434   -1153.3331    145549.82   -39861.534    2745.3798   -42606.914     61.02072    229.85227 
   15250    136.70699   -863.68956    145586.31   -39851.379     2757.536   -42608.915    61.089492    230.87003 
   15300    132.32962    -1147.342     145665.3   -39871.892    2669.2394   -42541.132    61.284227    223.47754 
   15350    132.76216   -922.35114    145652.64   -39880.373    2677.9642   -42558.337    61.509909    224.20801 
   15400    132.94207     -1130.63    145709.94    -39939.22    2681.5933   -42620.813    61.423787    224.51185 
   15450    132.41719   -1071.3986    145690.03   -39931.403    2671.0058   -42602.409    61.700863    223.62543 
   15500    131.55896   -1106.6131    145646.27   -39898.643    2653.6944   -42552.338     61.60751    222.17606 
   15550     132.7788   -1151.8331    145657.02   -39911.889    2678.3001   -42590.189    61.708801    224.23613 
   15600    131.55488   -995.35097    145722.91   -39937.668    2653.6122    -42591.28    61.837755    222.16918 
   15650    132.57677   -1058.5062    145728.65   -39904.474    2674.2248   -42578.699    61.910793    223.89494 
   15700    133.95916   -1007.0419    145778.85   -39875.217    2702.1092   -42577.326    61.998505    226.22951 
   15750    133.99514   -1184.9912    145810.16   -39897.861     2702.835   -42600.696    62.112281    226.29027 
   15800    132.54604   -1238.7681    145807.54   -39920.731     2673.605   -42594.336    62.190478    223.84304 
   15850    133.35906   -1035.3467    145875.54   -39899.174    2690.0044   -42589.179    62.188865    225.21606 
   15900    133.99042    -1082.939    145935.25   -39888.284    2702.7397   -42591.023    62.285976     226.2823 
   15950    133.40734   -1264.0409    145902.22   -39902.209    2690.9783   -42593.188    62.255572    225.29759 
   16000    131.09668   -1015.4493     145896.2   -39918.716    2644.3697   -42563.086    62.696864    221.39537 
   16050    135.36152   -1091.3316    145929.51   -39905.845    2730.3964   -42636.242    62.914627    228.59781 
   16100    131.25651   -1007.2522    145970.97   -39880.779    2647.5936   -42528.373    62.898261    221.66529 
   16150    133.22765   -1048.8063    145924.54   -39891.928    2687.3538   -42579.282    62.896019    224.99413 
   16200    131.97473   -1316.4766    145987.12   -39929.458    2662.0809   -42591.539    62.875867    222.87821 
   16250    133.66615   -976.03371     146035.1   -39893.647    2696.1989   -42589.846    63.024806    225.73468 
   16300    135.77492    -1062.137    146054.26   -39868.857    2738.7352   -42607.592    63.057521    229.29595 
   16350    133.69164   -1196.3054    146017.87   -39912.279     2696.713   -42608.992    63.125479    225.77772 
   16400     136.3755   -885.91587    146036.85   -39881.924    2750.8495   -42632.774    63.076499    230.31021 
   16450    132.90018   -1245.0858    146053.57   -39889.711    2680.7483    -42570.46    63.233433    224.44111 
   16500     130.5375   -1169.0286    146028.17    -39938.61    2633.0903     -42571.7    63.398163    220.45102 
   16550    133.17534   -1163.5978    146074.35   -39957.702    2686.2986       -42644    63.689705     224.9058 
   16600    130.51809    -1129.459    146084.67   -39971.481    2632.6989    -42604.18    63.764865    220.41825 
   16650    130.62946   -1204.7209    146095.78   -39978.736    2634.9453   -42613.682    63.870026    220.60632 
   16700    132.33886   -1196.4424    146122.42   -39958.051    2669.4258   -42627.477    64.077243    223.49315 
   16750    131.74016   -1025.2729    146143.57   -39941.032    2657.3494   -42598.381    64.160871    222.48207 
   16800    130.73278   -1125.1838    146138.26    -39907.29    2637.0293   -42544.319    64.099787    220.78081 
   16850    131.72677   -1327.1011    146195.43   -39947.906    2657.0794   -42604.985    64.370702    222.45946 
   16900     134.4057   -1209.9753    146178.67   -39871.208    2711.1164   -42582.325    64.390564    226.98362 
   16950    134.07158   -1258.9753     146192.1   -39899.648    2704.3769   -42604.025    64.468767    226.41937 
   17000    134.97047   -1228.6508    146157.27   -39872.843    2722.5084   -42595.352    64.591208    227.93739 
   17050    131.69368   -1296.2215    146028.62   -39897.865    2656.4118   -42554.277    64.677612    222.40358 
   17100    135.87608   -1150.7882    146060.83   -39829.573    2740.7756   -42570.349      64.6518    229.46678 
   17150    130.47581   -1045.7088    146079.45   -39833.421    2631.8461   -42465.267    64.738086    220.34685 
   17200    134.15297   -1276.4627    146087.13   -39829.423    2706.0186   -42535.442    64.884842    226.55682 
   17250    134.44248   -1438.0243    146033.88   -39824.969    2711.8584   -42536.828    64.958533    227.04574 
   17300     132.0441    -1280.403    145989.62   -39910.242    2663.4802   -42573.723    65.210989    222.99536 
   17350    132.33685   -1185.3523    145972.26   -39950.811    2669.3854   -42620.196    65.493517    223.48977 
   17400    132.80622   -1290.8901    145993.98   -39897.115    2678.8531   -42575.968    65.550612    224.28243 
   17450     134.4925   -1355.9622    145927.78   -39919.033    2712.8672   -42631.901    65.868127    227.13021 
   17500    130.78001   -1324.0223    145880.73   -39945.813     2637.982   -42583.795    66.031497    220.86057 
   17550    133.01713   -1155.6226    145867.51   -39886.737    2683.1073   -42569.845    66.078181    224.63861 
   17600      133.814   -960.23324    145948.76   -39939.509    2699.1811    -42638.69    66.104785    225.98436 
   17650    129.90107   -1189.1271    145992.84   -39995.311    2620.2529   -42615.564    66.148267    219.37623 
   17700     130.4679   -1427.8987    145925.54   -39988.534    2631.6865    -42620.22     66.40269    220.33349 
   17750    131.99347   -1180.4238    145810.83   -39942.153    2662.4589   -42604.612     66.63413    222.90985 
   17800    132.96974   -865.63727    145866.36   -39924.471    2682.1514   -42606.623    66.746848    224.55858 
   17850    132.07732   -1367.1986    145862.06   -39974.476    2664.1503   -42638.626    67.039648    223.05146 
   17900    132.01135   -1077.0468     145856.3   -39990.945    2662.8197   -42653.765     67.14485    222.94006 
   17950    129.20713   -1105.2977    145864.77   -40011.893    2606.2554   -42618.148    67.317532    218.20431 
   18000    131.25305   -1087.4949    145857.71   -40003.751    2647.5238   -42651.275    67.557126    221.65944 
   18050    131.45036    -1212.739    145802.79   -40005.393    2651.5038   -42656.897    67.926312    221.99266 
   18100    132.25793   -1201.3738    145757.87   -40040.648    2667.7934   -42708.441    68.097711    223.35648 
   18150    132.48076    -1232.726    145739.72    -39955.15    2672.2882   -42627.438    68.350367    223.73279 
   18200    135.09862   -1229.1437    145796.52   -39992.327    2725.0934   -42717.421     68.34256    228.15382 
   18250    129.74588   -1195.5779    145822.76   -40019.916    2617.1225   -42637.039    68.343309    219.11414 
   18300    132.82562   -1105.4672    145866.86    -40009.48    2679.2443   -42688.725    68.370538    224.31519 
   18350    129.75754   -1036.9497    145850.28   -39998.341    2617.3578   -42615.699     68.57448    219.13384 
   18400    132.26006   -1033.8685    145839.14   -39973.839    2667.8363   -42641.675    68.598667    223.36007 
   18450    131.91614   -1222.5429    145869.11   -39992.357    2660.8991   -42653.256    68.743408    222.77926 
   18500    135.65156   -1117.0885    145854.05   -39951.784    2736.2468    -42688.03    68.780492    229.08762 
   18550    133.77855   -1276.1218     145793.7   -39962.787    2698.4661   -42661.253    68.755677     225.9245 
   18600    132.57189   -1078.1101    145792.35   -39951.329    2674.1263   -42625.455     69.02842    223.88669 
   18650    132.73537    -1176.839    145775.93   -39965.598     2677.424   -42643.022    68.978653    224.16278 
   18700    135.30145   -1228.6074    145755.97   -39960.821    2729.1848   -42690.006    68.937242    228.49637 
   18750    130.56735    -1084.634    145711.83   -39923.566    2633.6926   -42557.258    69.098984    220.50144 
   18800    133.92453   -1165.6247    145748.57   -39898.146    2701.4107   -42599.557    69.126165    226.17103 
   18850     134.4905   -1157.9939    145748.74   -39944.688     2712.827   -42657.515    69.258268    227.12683 
   18900    128.97935    -1156.263    145703.69   -39977.248    2601.6608   -42578.909    69.360381    217.81963 
   18950    131.89904   -1168.5145    145672.23   -39965.398    2660.5542   -42625.952    69.466699    222.75039 
   19000    130.63228   -1141.4118     145611.6   -39992.248    2635.0023    -42627.25    69.567753    220.61109 
   19050    127.38077   -1094.6787    145569.21   -39984.509    2569.4156   -42553.924    69.692715    215.11996 
   19100    130.24593   -1058.3101    145481.64   -39960.855    2627.2091   -42588.064    69.859016    219.95863 
   19150    130.65374   -1131.3096    145477.47   -39976.171    2635.4351   -42611.606    70.086047    220.64733 
   19200    129.80233   -958.20772    145543.06   -39974.079    2618.2611    -42592.34    70.240522    219.20947 
   19250    133.51366   -1042.7287    145644.16   -39966.839    2693.1229   -42659.962    70.501219    225.47714 
   19300    131.89338    -1169.742    145700.11   -39884.235    2660.4401   -42544.676    70.615193    222.74083 
   19350    132.15273   -1220.0685    145678.17   -39867.839    2665.6713   -42533.511    70.615736    223.17881 
   19400    132.86862   -1013.7877    145699.66   -39833.704    2680.1117   -42513.815      70.9018    224.38781 
   19450    132.71376      -927.92    145786.02   -39837.464     2676.988   -42514.452    70.831468    224.12628 
   19500    130.20086   -1004.1674    145798.01    -39839.53       2626.3    -42465.83    71.083001    219.88251 
   19550    135.62877   -1107.7833    145880.96   -39895.389    2735.7871   -42631.176    71.268826    229.04913 
   19600    133.71048   -1021.1731    145931.32   -39902.053    2697.0931   -42599.146    71.613354    225.80954 
   19650    132.13076   -1289.8898    145922.53    -39894.76    2665.2283   -42559.988    71.659571    223.14172 
   19700    133.66818    -1088.705    145942.92   -39837.661    2696.2398   -42533.901    71.968462     225.7381 
   19750     133.1273    -1233.074    145926.28   -39806.891    2685.3296    -42492.22    72.326838    224.82466 
   19800    133.19773   -1095.1201    145909.86    -39819.73    2686.7503   -42506.481    72.597918    224.94361 
   19850    130.16715   -1128.4472    145901.49   -39844.295      2625.62   -42469.915    72.783147    219.82558 
   19900    134.04798    -1208.679    145948.54   -39783.407    2703.9007   -42487.308    73.001038     226.3795 
   19950     136.1473   -1207.7624    145926.03   -39773.123    2746.2465   -42519.369     73.51782    229.92483 
   20000    133.86924   -1265.7298    145960.86   -39793.282    2700.2954   -42493.578    73.841662    226.07765 
   20050    131.12087   -1164.4455    145949.13   -39801.152    2644.8576   -42446.009    73.912795    221.43622 
   20100    135.52093   -1271.3821    145915.42   -39791.676    2733.6119   -42525.287    74.033381    228.86702 
   20150     131.9112   -1245.3874    145853.12    -39793.72    2660.7995   -42454.519    74.282412    222.77092 
   20200    136.19842   -1129.5438    145805.04   -39793.299    2747.2776   -42540.577    74.557379    230.01115 
   20250     135.1945    -1111.923    145838.62   -39818.328    2727.0274   -42545.355    74.775041    228.31574 
   20300    132.55226   -1204.8652    145844.21   -39880.294    2673.7304   -42554.024    74.811846    223.85354 
   20350    134.15756   -1057.7173    145911.04   -39878.269    2706.1111    -42584.38    74.985502    226.56456 
   20400    132.63114   -1209.4455    146013.18   -39893.797    2675.3215   -42569.119    75.186842    223.98675 
   20450    133.97563   -1153.5955    146038.62   -39895.184    2702.4414   -42597.625     75.32718    226.25732 
   20500    131.33146   -1203.0576    146015.25    -39949.09    2649.1055   -42598.196     75.55987    221.79187 
   20550    129.99986   -1121.6633    145991.79   -39971.623    2622.2455   -42593.868    75.722756    219.54306 
   20600    128.86399   -1134.6559    145967.27   -39980.354    2599.3337   -42579.688    75.867024    217.62481 
   20650    129.10055   -853.27639    146013.95   -39973.305    2604.1054    -42577.41    75.920273    218.02431 
   20700    134.57076   -1234.6422       146051   -39970.472    2714.4458   -42684.917    76.226448    227.26237 
   20750    131.44411   -1145.1433    145953.72   -39953.656    2651.3778   -42605.033    76.316029     221.9821 
   20800     134.1268   -1149.0073    145987.14   -39940.466    2705.4906   -42645.957    76.347129    226.51261 
   20850    130.48147   -1248.3499    145988.06   -39918.153    2631.9602   -42550.113    76.473512     220.3564 
   20900    132.49696   -1340.6455    145919.92   -39899.625     2672.615    -42572.24     76.60276    223.76016 
   20950    132.46819   -1013.5245    145948.11   -39883.476    2672.0346   -42555.511     76.91236    223.71156 
   21000    134.84995   -1149.6639    146001.09   -39844.305    2720.0774   -42564.382    76.835356    227.73387 
   21050    132.18634   -1242.4899    146016.38   -39886.586    2666.3494   -42552.935    76.893912    223.23558 
   21100    135.12407   -1111.0125     145986.7   -39837.685    2725.6068   -42563.291    77.039812    228.19681 
   21150    130.27688   -1012.5909    146006.62   -39870.212    2627.8334   -42498.045    77.276401    220.01089 
   21200    132.22321   -1054.0728     146013.8   -39877.995    2667.0931   -42545.088     77.23594    223.29785 
   21250    133.66645   -1309.6124    146020.59    -39865.04    2696.2049   -42561.245    77.305024    225.73518 
   21300    131.18106   -1235.0388    145994.97   -39891.012    2646.0718   -42537.084    77.550327    221.53788 
   21350    132.82013   -1119.6329    146054.98   -39857.284    2679.1336   -42536.417    77.458986    224.30591 
   21400    131.27236   -1101.7098    146054.98   -39862.355    2647.9133   -42510.268    77.642653    221.69205 
   21450     132.3404   -1312.4772    146019.44    -39875.98    2669.4569   -42545.437    77.983081    223.49575 
   21500    132.28061   -1260.8278    145965.22   -39947.676    2668.2508   -42615.927     77.96099    223.39477 
   21550    130.69714   -1161.5773     145927.5   -39953.536    2636.3106   -42589.846    78.210606    220.72063 
   21600    130.61949   -1095.9016    145947.68   -40003.961    2634.7442   -42638.705    78.488272    220.58949 
   21650    129.10993    -1212.795     145914.1   -40012.089    2604.2947   -42616.384    78.846319    218.04016 
   21700    132.71637    -1173.568    145900.11   -39974.692    2677.0406   -42651.732    79.066807    224.13069 
   21750    134.29127   -1255.3576     145877.3    -39937.15    2708.8082   -42645.958    79.426763    226.79037 
   21800    133.59199    -1162.391    145880.42   -39955.049    2694.7029   -42649.752    79.579299    225.60943 
   21850     133.3503   -1244.3659    146009.05   -39955.091    2689.8278   -42644.918    79.728621    225.20127 
   21900    130.06396   -1204.0989    146000.22   -39985.586    2623.5385   -42609.124    79.825189    219.65131 
   21950      132.879   -1239.1125    146003.22   -39982.847    2680.3212   -42663.168    79.914886    224.40534 
   22000    130.51923   -1128.3114    145948.74   -39945.631    2632.7219   -42578.353    80.033615    220.42017 
   22050    132.78029   -1109.0735    145983.01   -39966.787      2678.33   -42645.117    80.009925    224.23864 
   22100    134.40686   -1141.7783    145953.94   -39955.979    2711.1398   -42667.119     80.20562    226.98558 
   22150    131.28806   -1044.7978    146052.24    -40013.01    2648.2301    -42661.24    80.251554    221.71857 
   22200    133.33751    -1345.341    146030.01    -39958.84    2689.5697   -42648.409    80.464984    225.17966 
   22250    133.24169   -1318.6467    145964.93   -39966.268     2687.637   -42653.905    80.713657    225.01785 
   22300    130.89849   -1332.5198    145878.84   -39974.309     2640.372   -42614.681    80.983613    221.06067 
   22350    134.18229   -1253.2422    145822.08   -39943.153      2706.61   -42649.764    81.106791    226.60633 
   22400    132.97881   -1164.8837    145810.81   -39932.961    2682.3344   -42615.295    81.236154     224.5739 
   22450    133.92954   -1117.9019    145837.89   -39968.027    2701.5117   -42669.538    81.534707    226.17948 
   22500    133.98284   -1222.9521    145819.22   -39939.508    2702.5868   -42642.095    81.752899     226.2695 
   22550    130.95133   -1442.5057     145833.4   -39963.571    2641.4377   -42605.008    81.670194    221.14989 
   22600    132.93637   -1136.7732     145776.4   -39948.934    2681.4783   -42630.412    81.851351    224.50222 
   22650    133.57515   -1496.1455    145663.63   -39945.013    2694.3633   -42639.377     82.05417      225.581 
   22700    134.37902   -1168.2454    145616.48   -39961.502    2710.5782    -42672.08    81.905612    226.93856 
   22750    134.05077   -1068.0757    145600.54   -39988.364    2703.9571   -42692.321    82.103371    226.38422 
   22800    129.66525   -1047.6524    145677.11   -40041.494    2615.4961    -42656.99    82.062287    218.97798 
   22850    130.97301   -1134.5495    145721.06   -40060.834    2641.8751   -42702.709    82.144496    221.18651 
   22900    130.03593   -1248.4249    145683.06    -40077.92    2622.9732   -42700.893    82.289246    219.60398 
   22950    130.72314   -1292.3336    145660.09    -40026.87     2636.835   -42663.705    82.447433    220.76454 
   23000    131.97811   -1261.1888    145545.39   -40030.381    2662.1491    -42692.53    82.587428    222.88392 
   23050    130.60198   -1123.4553     145477.5   -40021.437     2634.391   -42655.828    82.605527    220.55992 
   23100    131.81855   -930.80439    145504.45   -40011.975    2658.9307   -42670.906    82.651255    222.61446 
   23150    132.90737   -1147.8275    145548.97   -40024.795    2680.8934   -42705.688    82.646999    224.45325 
   23200     134.3621   -1015.8506    145559.84   -39974.412     2710.237   -42684.649    82.987939    226.90999 
   23250     132.1614   -1202.0206    145592.76   -40012.749    2665.8463   -42678.596    83.200896    223.19346 
   23300    133.35189    -1113.202    145614.23   -40028.856    2689.8599   -42718.716    83.077634    225.20395 
   23350    132.12452   -999.14816    145605.03   -40022.785    2665.1023   -42687.887    83.254474    223.13117 
   23400    132.15892    -1155.015    145613.31   -40034.302    2665.7963   -42700.099    83.214918    223.18927 
   23450    130.12491   -1062.2627    145596.13   -40032.407    2624.7681   -42657.175    83.197681    219.75425 
   23500    133.14409   -992.10395    145562.48   -39997.084    2685.6683   -42682.752    83.140878    224.85302 
   23550    132.00435   -1116.6751    145526.32   -39988.402    2662.6785    -42651.08    83.121426    222.92824 
   23600    129.82231   -938.55365    145569.29   -39980.421    2618.6641   -42599.085    83.160427    219.24321 
   23650    137.77182    -1116.717    145570.66   -39922.814    2779.0149   -42701.829     83.18535    232.66831 
   23700    132.91196   -907.60925     145604.4   -39941.031     2680.986   -42622.017    83.446437    224.46101 
   23750    130.80346   -1044.3643    145637.27   -39995.768    2638.4551   -42634.223    83.563965    220.90018 
   23800    131.20263   -1098.6338    145713.33   -39974.409    2646.5069   -42620.916    83.606196     221.5743 
   23850    132.44681   -967.93027    145699.44   -39967.922    2671.6034   -42639.525    83.792009    223.67546 
   23900    133.52751   -1161.4864    145697.75   -39946.346    2693.4022   -42639.748    83.837759    225.50053 
   23950    135.99266   -1228.1171    145705.91   -39892.965    2743.1272   -42636.092    84.028395    229.66367 
   24000    133.73053   -1244.4283    145709.13   -39912.148    2697.4974   -42609.645    84.092444     225.8434 
   24050    132.99562   -1033.8899    145629.15   -39869.341    2682.6736   -42552.014    84.105185    224.60229 
   24100     133.8725   -1065.3034    145699.51   -39891.964    2700.3612   -42592.325    84.073287    226.08316 
   24150    133.77158   -1242.5459    145683.98    -39877.67    2698.3254   -42575.995    84.177883    225.91272 
   24200    132.16865   -1332.0731    145653.02   -39880.354    2665.9926   -42546.347    84.296173    223.20571 
   24250    132.46905   -1170.0732    145608.99   -39890.211    2672.0519   -42562.263     84.56864    223.71301 
   24300    134.41324   -995.02018    145634.64   -39862.585    2711.2684   -42573.854    84.613996    226.99635 
   24350    135.33567   -1212.7501    145652.86   -39879.883     2729.875   -42609.758    84.612005    228.55415 
   24400    136.88244   -1402.3968    145636.15   -39856.246    2761.0751   -42617.321    84.848524    231.16633 
   24450     134.2503    -1199.467     145587.9   -39865.778    2707.9817    -42573.76    84.791495    226.72118 
   24500    135.91682    -1343.446    145578.29   -39878.141    2741.5974   -42619.738    84.920487    229.53559 
   24550    133.47887   -1391.9848    145470.96   -39895.656    2692.4213   -42588.077    85.066335     225.4184 
   24600    131.46171   -1283.6044    145439.07   -39947.862    2651.7328   -42599.595    85.035599    222.01183 
   24650    133.93879   -1064.3954    145454.53    -39975.31    2701.6982   -42677.008    85.211418     226.1951 
   24700    130.81891   -1057.5822    145473.27   -39956.654    2638.7668   -42595.421    85.283658    220.92627 
   24750    131.48369   -1152.7022    145479.62    -39948.44    2652.1762   -42600.616    85.317361    222.04895 
   24800    133.10518   -1032.4449    145420.78   -39932.171    2684.8834   -42617.055    85.726957    224.78731 
   24850    131.34102   -1162.9856    145459.21   -39943.003    2649.2983   -42592.301    85.860093    221.80801 
   24900    132.37453   -1197.0727    145416.34   -39904.283    2670.1453   -42574.428    86.294459    223.55339 
   24950    131.70082   -1130.7591    145439.32   -39888.273    2656.5558   -42544.829    86.333538    222.41563 
   25000     131.8326   -891.56049    145529.62   -39929.723     2659.214   -42588.937    86.474142    222.63818 
   25050    132.74822   -1293.6773    145626.73   -39884.928    2677.6831   -42562.612    86.456523    224.18447 
   25100    133.81995   -1169.9125    145715.33   -39847.628    2699.3011   -42546.929    86.700313     225.9944 
   25150    133.62151   -1131.2552    145705.36   -39876.563    2695.2985   -42571.861    87.073634    225.65929 
   25200    130.28254   -1282.6939    145666.51    -39829.24    2627.9475   -42457.188    87.345314    220.02045 
   25250    133.73066     -1204.27     145664.6   -39815.812    2697.5002   -42513.312    87.424179    225.84362 
   25300    134.63233   -1268.2262    145665.22   -39829.647    2715.6879   -42545.335    87.458289    227.36636 
   25350    134.09708   -1101.5999    145650.62   -39805.301    2704.8912   -42510.192    87.671303    226.46243 
   25400    134.06278   -1148.8583    145648.63   -39795.531    2704.1993    -42499.73    87.537995     226.4045 
   25450    133.83209   -1123.8477    145641.54   -39797.557     2699.546   -42497.103    87.701425    226.01491 
   25500    136.11812   -1278.3848    145641.46   -39768.295     2745.658   -42513.953    88.047794    229.87556 
   25550    135.01869    -1212.078    145499.87   -39787.385    2723.4812   -42510.866    88.433831    228.01884 
   25600    134.72232   -1246.6671    145452.44   -39763.176     2717.503   -42480.679    88.645335    227.51833 
   25650    133.10402   -1347.9143    145350.91   -39812.582    2684.8601   -42497.442    88.753688    224.78536 
   25700    136.40044   -1027.7338    145323.04   -39790.508    2751.3525   -42541.861    88.940854    230.35232 
   25750    133.99873   -1213.0125    145354.93   -39799.933    2702.9074    -42502.84    89.231663    226.29634 
   25800    135.27086   -1072.8705    145409.69   -39845.505    2728.5676   -42574.072    89.310605    228.44469 
   25850    132.36356   -1214.2816    145519.21   -39875.834    2669.9242   -42545.758    89.461167    223.53487 
   25900    134.10762   -1091.8479    145557.77   -39873.043    2705.1038   -42578.147    89.539644    226.48022 
   25950    131.55223   -1185.8857    145540.54   -39884.007    2653.5588   -42537.566    89.797761    222.16471 
   26000    136.71812   -1162.7092    145524.87   -39862.533    2757.7606   -42620.293    90.138169    230.88883 
   26050    134.35393   -992.97755    145598.83   -39837.494    2710.0722   -42547.566    90.268245     226.8962 
   26100    134.68296   -942.11589    145646.62   -39833.606    2716.7091   -42550.315    90.682424    227.45186 
   26150    133.59614   -1121.4682    145684.33    -39879.93    2694.7867   -42574.717    90.687761    225.61644 
   26200    134.66191   -1043.8563    145793.09    -39826.48    2716.2845   -42542.764    90.755011    227.41631 
   26250     132.7427   -1263.7933    145828.68   -39861.356    2677.5719   -42538.928     91.02601    224.17516 
   26300    132.83997   -1261.7504     145835.7   -39883.483    2679.5339   -42563.017    91.338662    224.33943 
   26350    130.59982   -1395.7249    145722.93   -39936.903    2634.3475    -42571.25    91.214332    220.55628 
   26400    130.00724   -1175.5572    145650.15   -39927.738    2622.3945   -42550.132    91.119328    219.55553 
   26450    132.71125   -1283.3359    145672.58   -39858.644    2676.9374   -42535.582    91.009816    224.12205 
   26500     133.0365   -1329.7914    145668.99   -39850.924     2683.498   -42534.422    91.227471    224.67132 
   26550    133.17784   -1254.9062     145604.8    -39830.96    2686.3491   -42517.309    91.268732    224.91002 
   26600    132.33486   -1187.7428    145560.36   -39879.456    2669.3453   -42548.802    91.374291     223.4864 
   26650    133.13284   -1244.6306     145573.1   -39840.923    2685.4413   -42526.364    91.494384    224.83401 
   26700    132.83587   -1077.0999    145576.08   -39853.161    2679.4512   -42532.612    91.648485     224.3325 
   26750    135.66493   -1195.5092     145632.4   -39813.812    2736.5166   -42550.329    91.807285    229.11021 
   26800     135.0159   -1113.3806    145655.26   -39826.676    2723.4248   -42550.101    91.825159    228.01412 
   26850    133.33745   -1238.9008    145687.86   -39835.544    2689.5686   -42525.112    92.141744    225.17957 
   26900    135.63488   -1348.9375    145675.92   -39792.595    2735.9103   -42528.505    92.506665    229.05945 
   26950    135.81461   -1294.1144    145667.98   -39844.266    2739.5357   -42583.801    92.567022    229.36298 
   27000    133.80005   -1036.3346    145735.49   -39854.033    2698.8997   -42552.933    92.531279     225.9608 
   27050    132.59116   -1140.4263    145782.27   -39870.905    2674.5151    -42545.42    92.758926    223.91924 
   27100    131.99986   -1139.6239     145796.1   -39894.671    2662.5879   -42557.259       92.901    222.92066 
   27150    132.70035   -1045.0072    145837.44   -39898.227    2676.7175   -42574.944     93.13845    224.10363 
   27200    132.78339    -1199.733    145832.55   -39875.938    2678.3925    -42554.33    93.372345    224.24387 
   27250     132.7287   -1155.1688    145857.85   -39875.306    2677.2893   -42552.595    93.673353    224.15151 
   27300    132.86784    -1116.723    145873.41   -39926.686     2680.096   -42606.781    93.865982    224.38649 
   27350     133.9727   -1107.8952    145865.46   -39868.755    2702.3822   -42571.138    93.905652    226.25237 
   27400    135.38459   -1331.2869    145856.63    -39886.02    2730.8618   -42616.882    93.871491    228.63677 
   27450    131.47249    -1115.197    145842.27   -39928.442    2651.9503   -42580.392    93.967181    222.03004 
   27500    133.56847   -1038.7081    145856.87   -39884.597    2694.2285   -42578.825    94.227067    225.56971 
   27550    131.97533   -1172.3214    145806.35   -39892.058    2662.0931   -42554.151    94.273463    222.87923 
   27600    135.27528   -1331.3636    145737.98   -39888.775    2728.6567   -42617.431    94.396616    228.45216 
   27650    133.04033   -1240.9475    145695.16    -39885.54    2683.5754   -42569.115    94.448181     224.6778 
   27700    131.42861   -1111.7827    145724.29   -39903.736    2651.0651   -42554.801    94.544317    221.95593 
   27750    137.86521   -1427.5011    145629.03   -39840.047    2780.8986   -42620.945    94.729117    232.82602 
   27800    137.41265   -1276.0422    145529.11    -39783.97    2771.7699    -42555.74    94.883993    232.06174 
   27850    134.79934    -1263.154     145371.5   -39823.462    2719.0565   -42542.518    94.902599     227.6484 
   27900    135.16957   -1183.7003    145371.15   -39822.431    2726.5245   -42548.956    94.980471    228.27364 
   27950     135.1276   -1047.7947    145352.92   -39800.506     2725.678   -42526.184    94.982935    228.20277 
   28000    135.31413   -1028.0344    145415.65   -39831.922    2729.4405   -42561.362    95.124877    228.51777 
   28050    133.27829   -1107.9348    145451.06   -39840.423    2688.3753   -42528.798    95.287733    225.07966 
   28100    134.95155   -1022.9041    145466.42   -39813.823    2722.1269    -42535.95    95.576004    227.90545 
   28150    134.81159   -1116.7708    145502.64   -39829.033    2719.3036   -42548.336     95.75079    227.66908 
   28200     132.8961   -1073.7731    145530.46   -39810.071    2680.6661   -42490.737    95.656935    224.43422 
   28250     136.0373   -1109.4547    145591.36   -39839.653    2744.0277   -42583.681    95.726648    229.73906 
   28300    132.12604   -1098.2717    145661.07   -39883.347    2665.1331    -42548.48    95.734917    223.13374 
   28350    134.79632   -1176.1235    145778.03   -39921.483    2718.9957   -42640.479    95.831138     227.6433 
   28400    132.22947   -1318.7157    145857.32   -39907.334    2667.2194   -42574.553    95.705613    223.30842 
   28450    135.07522   -1107.4358    145913.19   -39886.543    2724.6213   -42611.165    95.684815     228.1143 
   28500    135.29642   -1234.6015    145876.89   -39914.893    2729.0832   -42643.976    95.460722    228.48786 
   28550    131.83774    -1225.693    145935.91   -39925.273    2659.3177   -42584.591    95.575084    222.64686 
   28600    132.63821   -1199.4073    145914.06   -39952.296    2675.4641    -42627.76    95.646761    223.99869 
   28650    132.50852   -1318.6794    145875.66   -39931.366    2672.8481   -42604.215    95.723757    223.77967 
   28700    135.25158   -1032.9054    145852.47   -39896.528    2728.1787   -42624.707    95.670251    228.41213 
   28750    133.85094   -1186.8591     145902.8   -39900.838    2699.9264   -42600.764    95.815732    226.04675 
   28800    134.59154   -1179.1341     145962.7   -39939.076    2714.8651   -42653.941    95.896953    227.29747 
   28850    133.21645   -993.31818    146024.74   -39854.941    2687.1278   -42542.068    96.034439    224.97522 
   28900    134.47372     -1253.75    146043.78   -39839.932    2712.4884   -42552.421     96.27243    227.09849 
   28950    133.85219     -1022.52    146037.25    -39884.68    2699.9516   -42584.631    96.452946    226.04886 
   29000    133.14615   -1184.3229    146036.15   -39894.523    2685.7098   -42580.233    96.414509     224.8565 
   29050    133.91004   -1117.7251    146086.29   -39854.825    2701.1183   -42555.944    96.437141    226.14655 
   29100    132.84948   -1104.8212    146141.54   -39849.083    2679.7258   -42528.809    96.362857    224.35549 
   29150    133.16449   -1134.9301    146207.17   -39845.962    2686.0799   -42532.042    96.447607    224.88748 
   29200    132.32705   -1305.2511    146250.31   -39884.739    2669.1876   -42553.926    96.529355     223.4732 
   29250    133.55313   -1173.4165    146238.57   -39854.919     2693.919   -42548.838    96.932416     225.5438 
   29300    134.96973   -1452.9846     146218.4   -39870.072    2722.4936   -42592.565    97.019602    227.93616 
   29350    133.01768   -1115.1106    146250.27   -39902.609    2683.1185   -42585.728    97.132209    224.63955 
   29400    132.77002   -1267.4902    146324.95   -39887.151     2678.123   -42565.274     97.35515     224.2213 
   29450    130.98665   -1159.4213    146266.04   -39872.953    2642.1502   -42515.103    97.579696    221.20954 
   29500    134.91885   -1070.0956    146194.39   -39856.625    2721.4673   -42578.092    97.898024    227.85023 
   29550    135.84328   -1051.0528    146273.28   -39849.168     2740.114   -42589.282    97.971275     229.4114 
   29600    136.42503   -1234.0958    146311.32   -39879.483    2751.8486   -42631.331    97.966582    230.39386 
   29650    132.66267   -1275.3923    146318.03    -39912.88    2675.9575   -42588.837    97.857217       224.04 
   29700    134.19434   -1134.2497    146315.78   -39905.145     2706.853   -42611.998    97.953514    226.62667 
   29750    133.12779   -1138.2925    146257.83   -39890.087    2685.3396   -42575.427    98.437789     224.8255 
   29800    132.95965   -1236.2103    146218.42    -39888.86     2681.948   -42570.808    98.478441    224.54155 
   29850    134.06658   -1201.7283    146213.15   -39900.231     2704.276   -42604.507    98.616125    226.41092 
   29900    135.08666   -1339.7741    146120.73   -39862.666    2724.8522   -42587.518    98.805559    228.13363 
   29950    133.96632   -1152.8125    146077.46   -39878.272    2702.2536   -42580.525     98.90138     226.2416 
   30000    133.51133   -1221.7466    146083.96   -39843.884     2693.076    -42536.96    98.999777    225.47322 
   30050    135.22917   -1238.6956    146069.74   -39778.078    2727.7267   -42505.805    99.456799    228.37429 
   30100    133.74069   -913.10526    146071.99   -39774.579    2697.7024   -42472.281    99.718368    225.86055 
   30150    132.83169   -1003.5577    146131.41   -39796.786    2679.3668   -42476.153    99.995668    224.32544 
   30200    133.62079   -1154.8503       146196   -39830.264    2695.2839   -42525.548    100.43348    225.65807 
   30250    132.62712   -1227.0318    146112.14   -39861.125    2675.2404   -42536.365    100.61285    223.97996 
   30300    131.04924   -1150.1542     146076.7   -39889.041    2643.4128   -42532.453     100.7222    221.31525 
   30350    133.12157    -1129.319    146050.91   -39909.031    2685.2141   -42594.245    100.98426    224.81499 
   30400    130.48309    -1203.709    145979.65   -39942.377    2631.9929    -42574.37    101.13116    220.35914 
   30450     132.4745   -1168.9644    145915.57   -39914.913    2672.1619   -42587.075    101.35952    223.72222 
   30500    132.83021   -960.24479    145952.52   -39923.824    2679.3369   -42603.161    101.41641    224.32294 
   30550    134.30746   -1042.5453    146070.62   -39860.455    2709.1347   -42569.589    101.79434    226.81771 
   30600    136.17838   -1170.5332    146116.01   -39863.557    2746.8734   -42610.431    102.08366    229.97731 
   30650    134.40207    -1080.229    146189.15   -39844.446    2711.0432   -42555.489    102.29641    226.97749 
   30700    135.71434   -1260.5572    146178.14   -39861.849    2737.5131   -42599.362     102.6177    229.19364 
   30750     135.2078   -1107.7466    146205.87   -39868.594    2727.2957    -42595.89    102.74727    228.33821 
   30800    133.23487   -1174.7905    146228.91   -39863.242    2687.4994   -42550.741    103.16814    225.00632 
   30850    136.72104   -1269.7878    146265.97    -39798.13    2757.8195   -42555.949    103.43812    230.89376 
   30900    137.44122   -1081.5029    146272.83   -39803.153    2772.3463   -42575.499     103.7313    232.10999 
   30950    135.48394   -1191.2953    146271.44   -39811.788    2732.8657   -42544.653    104.15111    228.80454 
   31000     134.5224   -1016.9847     146276.2   -39838.227    2713.4704   -42551.697    104.32762    227.18071 
   31050     134.3049   -1166.2542    146241.67   -39846.454    2709.0832   -42555.537    104.34328     226.8134 
   31100    132.47039    -1306.475    146219.25   -39833.463     2672.079   -42505.542    104.42391    223.71528 
   31150    132.58748   -1046.5677    146170.24   -39847.946    2674.4408   -42522.387    104.51753    223.91302 
   31200    133.96847   -1092.1873    146157.61   -39821.691    2702.2969   -42523.988    104.65371    226.24522 
   31250     136.0314   -988.81917    146274.34    -39770.24    2743.9086   -42514.149    104.77753    229.72909 
   31300    132.91677   -1208.1985     146247.8   -39781.136     2681.083   -42462.219     104.7589    224.46912 
   31350    135.95712   -1172.7888    146212.75   -39787.654    2742.4103   -42530.064    104.85945    229.60365 
   31400    134.47219   -1092.1248    146274.74   -39780.802    2712.4576    -42493.26    104.91138    227.09591 
   31450    133.01236   -992.60923     146328.7   -39769.145    2683.0111   -42452.156    104.78074    224.63055 
   31500    133.91861   -1187.5101    146279.08   -39784.275    2701.2912   -42485.566    104.67272    226.16102 
   31550    131.43033   -1273.3576    146175.48   -39814.106    2651.0998   -42465.206    104.77232    221.95884 
   31600    135.16843   -1089.6837    146168.91     -39775.1    2726.5015   -42501.602    104.73442    228.27171 
   31650    135.32731    -1243.766    146155.39    -39720.15    2729.7063   -42449.856    104.83773    228.54003 
   31700    139.43741   -1020.0941    146156.25   -39759.111    2812.6118   -42571.722    105.02016    235.48115 
   31750    135.38578   -1307.4397    146226.24   -39832.344    2730.8857    -42563.23    105.16993    228.63877 
   31800    133.72454   -1119.0211    146226.51   -39886.865    2697.3765   -42584.242    105.37414    225.83328 
   31850    134.41422   -947.28454    146337.49   -39897.191    2711.2882   -42608.479    105.81019    226.99801 
   31900    132.99993   -1088.9068    146415.28   -39895.897    2682.7604   -42578.657    106.14725    224.60957 
   31950     133.5325   -1153.0395    146371.68   -39867.169     2693.503   -42560.673    106.34399    225.50897 
   32000    135.18472   -1174.3633    146379.11   -39883.604    2726.8302   -42610.434    106.35768    228.29923 
   32050     134.7281   -1072.7871    146388.81   -39863.402    2717.6196   -42581.022    106.64955    227.52809 
   32100    132.61715   -1196.0554    146396.85     -39871.9    2675.0393    -42546.94    106.78924    223.96312 
   32150    134.87835   -1309.8686    146378.52   -39856.838    2720.6503   -42577.488    106.76259    227.78183 
   32200    134.39231   -1053.1017    146356.03   -39897.937    2710.8463   -42608.784    106.86337    226.96101 
   32250    135.61036   -1089.1541    146462.11   -39893.053    2735.4158   -42628.469    107.11738    229.01805 
   32300     134.3195   -1253.0412    146462.94   -39868.079    2709.3777   -42577.457    107.14446    226.83805 
   32350    134.06949    -1251.268    146428.52   -39887.966    2704.3347   -42592.301    106.98462    226.41583 
   32400    133.17964   -1314.3433    146420.76   -39968.803    2686.3854   -42655.189    106.95354    224.91306 
   32450    133.17267   -1199.3988    146405.59   -39955.058    2686.2449   -42641.302    107.31174    224.90129 
   32500    130.24065   -1279.4725    146375.67   -39925.259    2627.1027   -42552.362    107.52222    219.94971 
   32550    133.81184   -1393.1163    146348.29   -39919.797    2699.1375   -42618.935    107.58465    225.98071 
   32600    134.16984   -1296.3712     146310.3    -39925.99    2706.3587   -42632.349    107.59843    226.58529 
   32650    131.25082   -968.47255    146316.69   -39957.638    2647.4789   -42605.117    107.62564    221.65568 
   32700    132.45099   -1106.9185    146324.55   -39980.844    2671.6877   -42652.532    107.55173    223.68252 
   32750    133.80016   -1094.5821    146381.01   -39960.216     2698.902   -42659.118    107.58481    225.96099 
   32800    131.44542   -1107.7128    146506.06   -39965.924    2651.4042   -42617.328    107.63367    221.98432 
   32850    130.04567   -1178.2599    146478.11   -39967.069    2623.1695   -42590.239    107.87165    219.62042 
   32900    131.95841   -1287.0231    146422.43   -39988.192    2661.7517   -42649.944    108.07279    222.85065 
   32950    131.94253   -1220.5311    146388.83   -39993.259    2661.4314   -42654.691    108.22708    222.82383 
   33000    133.18478   -1186.1417    146338.63   -39985.449    2686.4891   -42671.939    108.15771    224.92174 
   33050    132.22248   -1068.1036    146280.09   -39978.864    2667.0783   -42645.943     108.2788     223.2966 
   33100    133.20395   -1226.3969    146225.31     -39953.8    2686.8758   -42640.676    108.06519    224.95412 
   33150    134.05728   -1170.2584    146249.34   -39930.773    2704.0884   -42634.862    108.13617    226.39521 
   33200    132.29655   -1290.3029    146324.67   -39964.704    2668.5724   -42633.277    107.94273     223.4217 
   33250    131.33827   -1356.3308    146270.27   -40022.211    2649.2429   -42671.453    108.21078    221.80337 
   33300    131.15698   -1306.0435    146194.91   -39988.557     2645.586   -42634.143    108.36218     221.4972 
   33350    133.09401    -1288.262    146147.55   -39967.692    2684.6581    -42652.35    108.68526    224.76844 
   33400    131.73394   -1042.6988    146151.11   -40012.731     2657.224   -42669.955    108.76683    222.47157 
   33450    133.82048   -1138.8497     146187.2   -39972.583    2699.3118   -42671.895    108.91762     225.9953 
   33500    133.46694    -1005.876     146185.2   -39995.774    2692.1805   -42687.955    108.89422    225.39825 
   33550    129.88505    -1327.041    146178.82   -40026.281    2619.9297   -42646.211    109.38287    219.34917 
   33600    132.36976   -1276.3248    146074.66   -40057.994    2670.0491   -42728.043    109.58122    223.54533 
   33650     130.2366   -1253.0351    146068.29   -40005.211    2627.0209   -42632.232    109.73653    219.94286 
   33700    134.65383   -1240.6683    146010.58   -39959.692    2716.1216   -42675.814    110.00525    227.40267 
   33750    131.89796   -1253.6614    146015.19   -39940.897    2660.5325   -42601.429    110.40896    222.74857 
   33800    132.26721   -1309.9062    146027.65   -39953.524    2667.9806   -42621.504    110.59691    223.37215 
   33850    134.02485    -1081.314    146007.94   -39873.366    2703.4343     -42576.8    110.40061    226.34045 
   33900    135.46148   -1252.2752    146036.97    -39824.93    2732.4126   -42557.343    110.71535    228.76661 
   33950    137.01428    -1237.912    146060.79   -39799.287    2763.7344   -42563.022    110.77705    231.38898 
[...]
   92000    134.43103   -1032.1648    145809.86   -39872.454    2711.6272   -42584.081    277.33277    227.02639 
   92050    133.78079   -1096.2367    145821.29   -39885.901    2698.5112   -42584.412    277.35482    225.92827 
   92100    135.73421   -1191.9584     145812.9   -39866.705     2737.914   -42604.619    277.41481     229.2272 
   92150    133.32653   -1294.0092     145708.8   -39931.292    2689.3483    -42620.64     277.5826    225.16112 
   92200    132.60611   -1054.5974    145692.53   -39969.152    2674.8166   -42643.968    278.07551    223.94449 
   92250     131.5064   -1088.9372    145679.41   -39915.143    2652.6342   -42567.777    277.64088    222.08729 
   92300    132.12587   -1216.7429    145602.96   -39908.726    2665.1297   -42573.856    277.43317    223.13346 
   92350    134.46773   -1166.4934    145640.87   -39868.536    2712.3677   -42580.904    277.81162    227.08838 
   92400    134.33223   -1216.2461    145622.86   -39851.862    2709.6344   -42561.496    278.09102    226.85955 
   92450    137.73204   -1299.1481    145543.11   -39826.043    2778.2125   -42604.255    278.46837    232.60113 
   92500    135.51025   -1078.6758    145595.37   -39790.423    2733.3964    -42523.82    278.35042    228.84898 
   92550    135.22756   -1071.8033    145588.52   -39782.715    2727.6943   -42510.409    278.29594    228.37158 
   92600    134.70129   -1112.6621    145595.41   -39828.123    2717.0788   -42545.201    278.52364    227.48281 
   92650    132.60909   -1020.1651     145614.9     -39859.7    2674.8768   -42534.577    278.61555    223.94952 
   92700     133.0849   -1124.7017    145644.79   -39791.792    2684.4744   -42476.266     278.9214    224.75306 
   92750    133.35305   -1053.5666    145764.47   -39794.208    2689.8832   -42484.091    279.34835    225.20591 
   92800    132.52639    -1085.983    145803.75   -39770.783    2673.2085   -42443.991    279.81228    223.80985 
   92850     132.2198   -1136.0059    145780.04   -39758.076    2667.0243   -42425.101    279.99823    223.29209 
   92900    133.10285   -1148.6716    145756.11   -39824.278    2684.8364   -42509.115    280.25767    224.78337 
   92950    135.93361   -1245.8489     145713.8   -39731.419    2741.9362   -42473.356     280.2248    229.56396 
   93000    133.56365    -1110.543    145647.93   -39753.929    2694.1313    -42448.06    279.93503    225.56157 
   93050    132.61042   -958.26191     145701.6   -39746.632    2674.9036   -42421.535    280.06809    223.95176 
   93100    130.40115   -993.59776    145747.19   -39759.254    2630.3401   -42389.594    280.36758    220.22076 
   93150    134.75103   -1176.3183    145751.14   -39780.151    2718.0821   -42498.233    280.29073    227.56681 
   93200    132.97786   -1282.0813    145602.22   -39780.894    2682.3152   -42463.209    280.49864    224.57229 
   93250    131.18779   -1167.9258    145508.65   -39801.922    2646.2075    -42448.13    280.18842    221.54924 
   93300    133.04633   -1080.6671    145517.24   -39778.537    2683.6964   -42462.233    280.14613    224.68792 
   93350    132.45764   -1001.7529    145579.44   -39817.388    2671.8218    -42489.21    280.44392    223.69375 
   93400     133.0443    -1254.751    145590.83   -39822.198    2683.6555   -42505.853    280.97648     224.6845 
   93450    132.19042   -1192.5301    145608.36    -39815.75    2666.4318   -42482.182    281.04655    223.24248 
   93500    132.35877   -1087.7899    145597.29    -39824.02    2669.8275   -42493.848     281.4341    223.52677 
   93550    133.26352   -1238.4354    145500.96   -39802.444    2688.0773   -42490.521    281.52699    225.05471 
   93600    133.62161    -1074.471    145463.72   -39844.336    2695.3003   -42539.636    281.48531    225.65945 
   93650    135.36208   -957.69623    145495.46   -39818.256    2730.4077   -42548.664    281.40406    228.59875 
   93700    134.59799   -1084.8812    145518.77   -39839.688    2714.9952   -42554.683    281.50415    227.30836 
   93750    131.53261   -1080.1435    145542.66   -39861.354    2653.1629   -42514.517    281.47459    222.13156 
   93800    134.53869   -1070.5381    145603.85   -39784.926    2713.7991   -42498.725    282.00028    227.20822 
   93850    134.81826   -994.47237    145571.64   -39784.993    2719.4382   -42504.431    282.13834    227.68035 
   93900    131.48027   -1188.8485     145596.1   -39852.735     2652.107   -42504.842    282.58492    222.04316 
   93950    130.67678   -1113.1149    145621.91   -39882.215    2635.8998   -42518.115    282.90406    220.68624 
   94000    133.43668   -1218.1948    145624.49    -39878.25    2691.5701   -42569.821    282.53144    225.34714 
   94050    131.96059   -1011.2419    145669.43   -39855.379    2661.7958   -42517.175    282.29219    222.85433 
   94100    131.63347    -978.3043     145741.3   -39840.482    2655.1974    -42495.68    282.54943     222.3019 
   94150    130.80908   -1045.4264    145707.31   -39871.234    2638.5684   -42509.802     282.6515    220.90966 
   94200    130.39596    -1052.482    145649.44   -39905.361    2630.2355   -42535.596    282.64246      220.212 
   94250    133.72615   -1204.4619    145617.68   -39870.187    2697.4091   -42567.596    282.75359      225.836 
   94300      131.628   -1043.5942    145675.13   -39884.509    2655.0871   -42539.596    282.83837    222.29266 
   94350    133.07359   -1149.8711    145707.52   -39927.898    2684.2462   -42612.144    282.82811    224.73396 
   94400    130.59073   -1182.2466       145714   -39990.754    2634.1642   -42624.918    282.59507    220.54093 
   94450    130.58575   -1099.4813    145734.62    -39975.57    2634.0636   -42609.634     282.4952     220.5325 
   94500    129.93254   -1179.1959    145677.54   -39968.821    2620.8877   -42589.709    282.55673    219.42937 
   94550    132.70131   -1087.8754    145714.34   -39861.245    2676.7369   -42537.982    282.72575    224.10526 
   94600    132.61902   -1240.9443    145724.85   -39825.716     2675.077   -42500.793    282.97838    223.96629 
   94650    133.05738    -1034.422    145779.39   -39835.298    2683.9193   -42519.218    283.20002    224.70659 
   94700    133.15483   -1350.9302    145731.42   -39781.879    2685.8849   -42467.764    283.53308    224.87116 
   94750    133.52855   -1289.7989     145651.1   -39798.964    2693.4233   -42492.388    283.38189     225.5023 
   94800    133.74847   -1170.9921     145629.8    -39813.37    2697.8593   -42511.229    283.58977    225.87369 
   94850    134.90681   -1025.5729     145601.3   -39844.892    2721.2244   -42566.116    283.72954     227.8299 
   94900    134.40283   -1055.2224    145568.69   -39795.403    2711.0586   -42506.461    283.86256    226.97878 
   94950    131.31726   -1148.1073     145529.6   -39807.934    2648.8191   -42456.753    283.84877    221.76788 
   95000    133.23084   -1204.4881    145497.63   -39793.826    2687.4182   -42481.244    284.06413    224.99953 
   95050    131.87399   -1017.9411    145558.11   -39796.988     2660.049   -42457.037    284.51376    222.70809 
   95100    132.54931   -1071.2913    145569.74   -39818.727    2673.6709   -42492.398    284.54338    223.84856 
   95150    133.13049   -808.12717    145669.83   -39770.129    2685.3939   -42455.523    284.53303    224.83005 
   95200    133.65179   -1202.3025    145667.64   -39814.716    2695.9091   -42510.626    285.13729    225.71042 
   95250    134.82387   -1095.2842    145670.09   -39835.213    2719.5513   -42554.764    285.49961    227.68982 
   95300    131.84599   -1157.0257    145747.65   -39871.368    2659.4841   -42530.852    286.10381    222.66079 
   95350    134.48904   -1106.3713    145704.99   -39879.664    2712.7975   -42592.461    286.27205    227.12437 
   95400    134.70466   -1023.3679    145663.42   -39846.914    2717.1467    -42564.06    286.30292     227.4885 
   95450    133.98192   -1116.2206    145692.72   -39852.949    2702.5682   -42555.517    286.65614    226.26794 
   95500    134.24889   -995.64838    145738.96   -39858.997    2707.9534   -42566.951    286.54337    226.71881 
   95550    136.10687   -1014.5688    145685.17   -39916.525     2745.431   -42661.956    286.54793    229.85655 
   95600    130.61443   -974.71701    145689.44   -39919.068    2634.6421    -42553.71     286.2851    220.58094 
   95650    132.15994   -1022.3527    145739.42   -39901.394    2665.8169   -42567.211     286.6212      223.191 
   95700    129.99085   -1227.3471    145772.85   -39924.498    2622.0639   -42546.562    286.69169    219.52785 
   95750    129.20351   -1117.5261    145703.51   -39922.876    2606.1824   -42529.058    286.45986     218.1982 
   95800    132.08734   -1136.8612    145631.82   -39886.593    2664.3524   -42550.946    286.33801    223.06839 
   95850    133.36814   -1151.4516    145571.22   -39852.227    2690.1876   -42542.415    286.35004    225.23139 
   95900    133.82273   -1051.1533    145615.04   -39861.304    2699.3572   -42560.661    286.29788    225.99911 
   95950    133.21203   -1088.5435    145624.76   -39880.365    2687.0388   -42567.404    286.24592    224.96777 
   96000     133.9887   -1094.9379    145661.36   -39900.251    2702.7049   -42602.956    286.34236    226.27939 
   96050    131.32991   -1122.9396    145567.94   -39852.769    2649.0743   -42501.843     286.6901    221.78925 
   96100    133.38171   -1064.0012    145498.64   -39866.163    2690.4613   -42556.625    286.89953    225.25431 
   96150    132.17204   -1120.2559    145431.83   -39867.747     2666.061   -42533.808    287.16881    223.21143 
   96200    133.27848    -1115.715    145496.74   -39812.587    2688.3791   -42500.966    287.31542    225.07998 
   96250    137.55327   -1067.2544    145570.06   -39743.734    2774.6064    -42518.34    286.99376    232.29922 
   96300    134.91136   -1051.7848    145647.64   -39703.396    2721.3161   -42424.712    287.23198    227.83757 
   96350    136.70998   -1272.2825    145670.75   -39753.565    2757.5964   -42511.161    287.42828    230.87508 
   96400    134.52164   -1074.0676    145611.64   -39803.343    2713.4551   -42516.798    287.25546    227.17942 
   96450    133.50723   -1086.2282    145682.41   -39771.509    2692.9932   -42464.502    287.26316    225.46629 
   96500    134.95293   -1234.9622    145720.13   -39752.278    2722.1546   -42474.433    287.51711    227.90778 
   96550    137.36092   -996.00817     145710.9   -39789.734    2770.7265    -42560.46    287.51749    231.97437 
   96600     132.6675   -1108.3446    145744.28   -39812.972    2676.0548   -42489.027    287.22977    224.04815 
   96650     133.8427    -1062.838     145732.1   -39802.091    2699.7601   -42501.851    287.21023    226.03283 
   96700    132.00011   -1271.2677    145758.46   -39808.777    2662.5928   -42471.369    287.80491    222.92107 
   96750    133.00901   -987.76438    145769.85     -39813.6    2682.9436   -42496.544    287.68966     224.6249 
   96800    133.60315   -940.08161    145866.62   -39815.982    2694.9281    -42510.91    288.04708    225.62828 
   96850    135.15176   -1265.7287    145905.11    -39832.56    2726.1653   -42558.725    288.04491    228.24357 
   96900      131.993   -1030.5552    145911.01   -39807.456    2662.4496   -42469.905    288.26879    222.90907 
   96950    134.88789   -1056.3333    145955.56   -39745.685    2720.8428   -42466.527    287.96085    227.79795 
   97000    132.78236   -1150.6958    146020.56   -39785.384    2678.3719   -42463.755      288.297    224.24214 
   97050    131.69246   -1220.7349    146052.95   -39833.272    2656.3872    -42489.66    288.06474    222.40151 
   97100     135.3381   -1130.1062    146106.51   -39775.569    2729.9239   -42505.493    288.29725    228.55825 
   97150     137.3646   -1272.6279    146097.86   -39768.506    2770.8007   -42539.307    288.38595    231.98059 
   97200    133.49627   -1177.6019    146055.08    -39782.91    2692.7721   -42475.682     288.7053    225.44778 
   97250    133.83746     -1294.89     146055.9   -39861.003    2699.6544   -42560.657    289.28028    226.02399 
   97300     132.6845   -1224.4979    145962.66   -39849.627    2676.3979   -42526.024    289.24905    224.07687 
   97350    134.80407    -1364.359    145868.98   -39830.988     2719.152    -42550.14    289.07752    227.65639 
   97400    135.62671   -1286.1698    145853.13   -39824.141    2735.7455   -42559.887     288.7691    229.04565 
   97450    132.38229   -1327.4612     145786.1   -39787.935    2670.3019   -42458.237    289.26323     223.5665 
   97500    131.83702   -1268.1541    145739.88   -39806.092    2659.3033   -42465.395    289.83194    222.64565 
   97550    133.17097   -1197.4341    145717.76    -39831.82    2686.2105    -42518.03    290.09952    224.89841 
   97600    136.24306   -1108.8351    145751.24   -39787.155    2748.1781   -42535.333    290.64894    230.08655 
   97650    134.76658   -1035.2414    145871.83   -39834.145    2718.3957    -42552.54    290.47155    227.59307 
   97700    135.30666    -1112.925    145962.44   -39826.667    2729.2899   -42555.957    290.69276    228.50516 
   97750    134.81972   -983.70726    146026.78   -39793.867    2719.4677   -42513.335    291.08011    227.68282 
   97800    132.50261   -1273.8042     146091.6   -39816.038    2672.7289   -42488.767    290.90894     223.7697 
   97850    136.15683   -984.00186    146138.82   -39790.374    2746.4386   -42536.813     291.1389    229.94091 
   97900    138.49963   -1100.3976    146117.03   -39767.578    2793.6957   -42561.273    291.37981    233.89743 
   97950    133.94403   -1223.8749    146105.78   -39793.092    2701.8039   -42494.896     291.3877    226.20395 
   98000    134.43914   -1187.3643    146108.23   -39815.575     2711.791   -42527.366    291.31975     227.0401 
   98050    132.78396   -1315.9312    146103.51   -39823.029    2678.4041   -42501.434    291.11785    224.24484 
   98100    135.01529   -1046.0747    146188.72   -39836.238    2723.4125   -42559.651    291.41182    228.01309 
   98150    131.17512   -1263.1267    146200.79   -39874.477    2645.9519   -42520.429    291.77397    221.52783 
   98200    133.90494   -1232.1515    146132.82   -39845.034    2701.0156   -42546.049    291.80317    226.13794 
   98250    133.05037   -994.65699    146104.64   -39860.939    2683.7778   -42544.716    292.02092    224.69474 
   98300     134.8147   -1235.5709    146000.21   -39848.705    2719.3664   -42568.071    292.06107    227.67434 
   98350    131.97264    -1137.817    145896.01   -39887.045    2662.0389   -42549.084    292.33859    222.87469 
   98400    130.37481   -1143.5757    145910.45   -39898.391    2629.8088     -42528.2    292.22063    220.17628 
   98450    133.81682    -1220.934    145828.75   -39804.349    2699.2381   -42503.587    292.60896    225.98913 
   98500    134.93196   -1351.3197    145745.79   -39823.409    2721.7316   -42545.141      292.497    227.87236 
   98550    133.90535   -1108.8312    145656.08   -39870.859    2701.0239   -42571.883    292.29734    226.13864 
   98600    133.07569   -1188.4482     145563.7   -39884.143    2684.2885   -42568.432    292.22605     224.7375 
   98650    132.43672   -1219.3045    145509.25   -39892.731    2671.3998   -42564.131    292.26971    223.65842 
   98700    133.70608   -1125.8383    145493.73   -39865.842    2697.0042   -42562.846    292.84367    225.80211 
   98750     132.9143   -1212.0633    145438.59   -39846.198    2681.0332   -42527.231    292.60976    224.46495 
   98800    133.04853   -1142.5646    145357.12   -39813.447    2683.7408   -42497.188    292.62425    224.69164 
   98850    132.01405     -1326.19     145347.3   -39925.506    2662.8741    -42588.38    292.70461    222.94462 
   98900    132.22658   -1154.8376     145263.8   -39868.919    2667.1611   -42536.081    293.08777    223.30354 
   98950     132.1281   -1143.9585     145244.5   -39895.869    2665.1747   -42561.043    293.04044    223.13723 
   99000    132.73909   -1096.8348    145299.57   -39908.724    2677.4989   -42586.223    293.51766    224.16905 
   99050    131.50828   -948.27792    145348.45   -39955.139    2652.6722   -42607.811    293.63176    222.09048 
   99100     130.4059    -1134.225    145337.81   -39921.511     2630.436   -42551.947    293.99162    220.22879 
   99150    130.99663   -1048.7175    145386.94   -39925.436    2642.3516   -42567.787    294.39753    221.22641 
   99200    129.01272   -920.81826    145399.08    -39969.61    2602.3339   -42571.944    294.33744    217.87599 
   99250    133.22331   -942.15581    145478.78   -39887.316    2687.2662   -42574.582    294.33919     224.9868 
   99300    134.84958   -861.11732    145594.14   -39844.304    2720.0701   -42564.374    294.57217    227.73325 
   99350    131.51472    -1023.923    145626.61   -39859.191     2652.802   -42511.993    294.76802    222.10135 
   99400    133.12528   -990.30571    145598.04   -39898.084     2685.289   -42583.373    295.04231    224.82126 
   99450    130.75726   -1139.1933    145548.14   -39855.467    2637.5232    -42492.99    295.15926    220.82216 
   99500    132.29316   -1197.8983    145580.21   -39877.447     2668.504   -42545.951     295.3161    223.41597 
   99550    131.62221   -1089.9681    145640.19   -39834.703    2654.9703   -42489.673    295.38258    222.28289 
   99600    136.71897   -990.71442    145686.77   -39794.127    2757.7778   -42551.905     295.3477    230.89027 
   99650    134.63204   -979.17465    145702.96   -39794.175    2715.6819   -42509.857    295.90881    227.36586 
   99700    132.13675   -1240.5102    145771.98    -39840.84     2665.349   -42506.189    296.01301    223.15182 
   99750    130.75635   -1011.6012    145779.41    -39780.45    2637.5049   -42417.955    296.71845    220.82062 
   99800    134.57702   -1174.1812    145816.49   -39786.011    2714.5722   -42500.583    296.76728    227.27295 
   99850    133.55941   -1077.2025    145823.15   -39814.043    2694.0457   -42508.088    297.03569    225.55441 
   99900    134.36004   -1028.8583    145846.14    -39727.85    2710.1954   -42438.045    296.99727    226.90651 
   99950     134.4195   -1032.3781    145916.91   -39723.272    2711.3948   -42434.667     297.1856    227.00693 
  100000     138.3336   -1062.6158     145999.2    -39641.27    2790.3465   -42431.616    297.81804    233.61703 
Loop time of 318.293 on 40 procs for 100000 steps with 6768 atoms

Performance: 135.724 ns/day, 0.177 hours/ns, 314.176 timesteps/s
99.6% CPU use with 40 MPI tasks x no OpenMP threads

MPI task timing breakdown:
Section |  min time  |  avg time  |  max time  |%varavg| %total
---------------------------------------------------------------
Pair    | 50.353     | 134.35     | 257.08     | 640.0 | 42.21
Neigh   | 1.9464     | 4.1573     | 11.236     | 161.6 |  1.31
Comm    | 36.35      | 120.48     | 150.64     | 341.2 | 37.85
Output  | 0.1723     | 0.1787     | 0.2758     |   3.7 |  0.06
Modify  | 8.0584     | 57.717     | 128.81     | 741.1 | 18.13
Other   |            | 1.412      |            |       |  0.44

Nlocal:    169.2 ave 380 max 112 min
Histogram: 32 0 0 0 0 0 0 0 3 5
Nghost:    1270.97 ave 1621 max 862 min
Histogram: 16 0 0 0 0 0 0 0 16 8
Neighs:    0 ave 0 max 0 min
Histogram: 40 0 0 0 0 0 0 0 0 0
FullNghs:  19927.6 ave 68658 max 6947 min
Histogram: 32 0 0 0 0 0 0 0 0 8

Total # of neighbors = 797104
Ave neighs/atom = 117.775
Neighbor list builds = 6137
Dangerous builds = 0

write_data		${DIR}/data.eq-${NAME}-${TEMP}
write_data		run_7/data.eq-${NAME}-${TEMP}
write_data		run_7/data.eq-het_freeze_7-${TEMP}
write_data		run_7/data.eq-het_freeze_7-225
undump          1

reset_timestep  0

unfix           2
unfix           3
unfix           4


################################################
#######         Run Simulation         #########
################################################

log				${DIR}/log.run_${NAME}
log				run_7/log.run_${NAME}
log				run_7/log.run_het_freeze_7
