
# Create simulation box and atoms

read_data data.ML_graphite_m500atm_240K
  orthogonal box = (0 0 1.53529) to (49.22 49.0196 38.4647)
  5 by 4 by 4 MPI processor grid
  reading atoms ...
  5021 atoms
  reading velocities ...
  5021 velocities
group water type 1
2261 atoms in group water
group graphite type 2
2760 atoms in group graphite

# Define potential

pair_style sw
pair_coeff * * MLC_e.sw mW C


# Fix graphite atoms in place

fix 5 graphite setforce 0.0 0.0 0.0
velocity graphite set 0.0 0.0 0.0


# Equilibration of molecular water

# Add velocity/set timestep

velocity	    water create ${TEMP} ${SEED} rot yes dist gaussian
velocity	    water create 240 ${SEED} rot yes dist gaussian
velocity	    water create 240 15095 rot yes dist gaussian
timestep	    5.0

# Define output

compute			1 water msd
compute			3 water temp
thermo	    	50
thermo_style	custom step temp press vol etotal ke pe c_1[4] c_3

# Neighbor lists

neigh_modify    delay 0 every 1 check yes

# Set fixes

fix             1 water momentum 10 linear 1 1 1 rescale
fix             2 water nve
fix             3 water temp/csvr ${TEMP} ${TEMP} 500.0 ${SEED}
fix             3 water temp/csvr 240 ${TEMP} 500.0 ${SEED}
fix             3 water temp/csvr 240 240 500.0 ${SEED}
fix             3 water temp/csvr 240 240 500.0 15095
fix             4 water press/berendsen z ${PRES} ${PRES} 1000.0 modulus 20000
fix             4 water press/berendsen z -500 ${PRES} 1000.0 modulus 20000
fix             4 water press/berendsen z -500 -500 1000.0 modulus 20000

# Run 0.5 ns equilibration

dump		    1 all atom 2000 ${DIR}/eq.${NAME}-${TEMP}.dump
dump		    1 all atom 2000 run_9/eq.${NAME}-${TEMP}.dump
dump		    1 all atom 2000 run_9/eq.het_freeze_9-${TEMP}.dump
dump		    1 all atom 2000 run_9/eq.het_freeze_9-240.dump

reset_timestep  0

run	            100000
Neighbor list info ...
  update every 1 steps, delay 0 steps, check yes
  max neighbors/atom: 2000, page size: 100000
  master list distance cutoff = 6.67472
  ghost atom cutoff = 6.67472
  binsize = 3.33736, bins = 15 15 12
  1 neighbor lists, perpetual/occasional/extra = 1 0 0
  (1) pair sw, perpetual
      attributes: full, newton on
      pair build: full/bin/atomonly
      stencil: full/bin/3d
      bin: standard
Per MPI rank memory allocation (min/avg/max) = 4.069 | 4.188 | 4.476 Mbytes
Step Temp Press Volume TotEng KinEng PotEng c_1[4] c_3 
       0    108.04781   -816.58172    89101.337   -21796.007    1616.7914   -23412.799            0          240 
      50    109.03066   -939.67566    89097.705   -21766.079    1631.4984   -23397.578   0.52008606    242.18315 
     100    108.87289   -960.03886     89115.22   -21780.494    1629.1376   -23409.632   0.83251488     241.8327 
     150    108.29235   -779.09046    89059.841   -21790.698    1620.4505   -23411.149    1.0701446    240.54317 
     200    106.04368   -752.98762    89064.107   -21804.969    1586.8022   -23391.772     1.364402    235.54834 
     250    106.35381   -878.10194    89020.487   -21822.308     1591.443   -23413.751    1.5394718    236.23723 
     300    109.12487   -515.40284    89003.604   -21787.339    1632.9082   -23420.247    1.7136455    242.39241 
     350     110.0671   -500.27568    89045.518    -21802.23    1647.0074   -23449.237    1.8643126    244.48533 
     400    108.69948   -718.67034    88992.352   -21776.248    1626.5428   -23402.791    2.0070411    241.44753 
     450    111.90992    -471.5719    88999.151   -21797.936    1674.5826   -23472.519    2.1582753    248.57866 
     500    109.69953   -489.29663    89003.868   -21790.191    1641.5072   -23431.698    2.4204059    243.66888 
     550    107.34614   -728.47749     89009.87   -21806.617    1606.2918   -23412.908    2.6382784    238.44142 
     600    107.36364   -509.00612    89080.245   -21823.469    1606.5536   -23430.022    2.7878323    238.48029 
     650    109.60958   -798.55927    89056.374   -21812.143    1640.1612   -23452.304    3.0072292    243.46907 
     700    110.32294   -627.50393    88982.544   -21778.754    1650.8356    -23429.59    3.2220935     245.0536 
     750    107.97945   -561.10198     88888.11    -21787.68    1615.7685   -23403.449    3.4658236    239.84816 
     800    107.29312   -915.17755    88903.615    -21827.52    1605.4985   -23433.018    3.6016578    238.32366 
     850     106.5161   -994.57277    88865.952   -21833.085    1593.8715   -23426.956    3.8441709    236.59772 
     900    108.76138   -546.85124    88814.051   -21858.733     1627.469   -23486.202    4.1310736    241.58501 
     950    106.09776   -699.16599    88939.877   -21907.445    1587.6115   -23495.056    4.4381194    235.66848 
    1000    108.59774   -741.56885    89002.825   -21850.719    1625.0203   -23475.739    4.6643868    241.22152 
    1050    107.87918    -914.3827    88934.103   -21874.961    1614.2681   -23489.229    4.8520946    239.62544 
    1100    105.55758   -721.58693    88965.063   -21878.056    1579.5285   -23457.584    4.9861662    234.46862 
    1150    105.85434   -720.66882    88994.041   -21879.165    1583.9691   -23463.134    5.1602625    235.12779 
    1200    105.88805    -582.5116    89078.342   -21891.852    1584.4734   -23476.325    5.3597508    235.20266 
    1250    104.23276   -909.25898     89065.77    -21906.48    1559.7042   -23466.184    5.4890937    231.52586 
    1300    107.24539   -593.02091    89099.375    -21889.87    1604.7843   -23494.654    5.5479397    238.21764 
    1350     107.0937   -744.97464    89119.281   -21871.746    1602.5144    -23474.26    5.5912118    237.88069 
    1400     107.2002   -787.15784    89182.724   -21864.678    1604.1081   -23468.786    5.7847796    238.11727 
    1450    108.58157   -566.61452    89228.917   -21856.326    1624.7783   -23481.104    6.0127855     241.1856 
    1500    108.37633   -761.84909    89307.633   -21851.761    1621.7073   -23473.468    6.1294868    240.72973 
    1550    111.55731   -525.81996    89282.922   -21813.813    1669.3064   -23483.119    6.1997094    247.79545 
    1600    107.01929   -800.68055    89277.522   -21831.844     1601.401   -23433.244    6.3664591    237.71542 
    1650    108.35787   -643.59576    89222.143   -21805.397     1621.431   -23426.828    6.5384241    240.68872 
    1700    109.00686    -617.6765    89267.458   -21800.456    1631.1422   -23431.598    6.8063976    242.13027 
    1750    108.16824   -814.01991    89285.721   -21810.416    1618.5934   -23429.009    6.9999341     240.2675 
    1800    110.80984   -757.16188    89325.314    -21800.35    1658.1215   -23458.472    7.0822123    246.13513 
    1850    109.33057   -897.30751    89351.642   -21800.748    1635.9862   -23436.734    7.2451848    242.84932 
    1900    109.79272   -858.22336    89333.744   -21790.688    1642.9016   -23433.589    7.4250775    243.87586 
    1950    111.00539   -872.65375    89294.064   -21757.578    1661.0476   -23418.625     7.742766    246.56949 
    2000    109.94607   -409.20452    89341.819   -21785.621    1645.1964   -23430.817    7.8954434     244.2165 
    2050    107.31829    -919.5262    89415.554   -21820.773    1605.8751   -23426.648    8.1109427    238.37957 
    2100    108.35196    -620.0334    89406.819   -21822.846    1621.3427   -23444.189    8.3039584     240.6756 
    2150    108.48377   -575.49686    89422.829   -21854.795    1623.3149    -23478.11    8.5459309    240.96837 
    2200      107.714   -1004.0023    89487.353   -21843.213    1611.7964   -23455.009    8.6917318    239.25854 
    2250     106.4575   -1027.7966    89442.413   -21843.543    1592.9945   -23436.537    8.8598921    236.46754 
    2300    109.45473   -536.04704      89467.9   -21839.753    1637.8441   -23477.597    9.0472935    243.12512 
    2350    108.43718   -663.37965    89500.011   -21841.308    1622.6178   -23463.926    9.1903879    240.86489 
    2400    108.51858   -832.88691    89499.464   -21804.577    1623.8359   -23428.412    9.3492727     241.0457 
    2450    109.71963   -515.52678    89594.908   -21794.903     1641.808   -23436.711    9.4899465    243.71352 
    2500    109.90652   -862.93187    89627.284    -21805.17    1644.6045   -23449.775    9.5649458    244.12865 
    2550    104.01259   -964.82237    89686.383   -21855.267    1556.4096   -23411.676    9.7364738    231.03681 
    2600     106.6335   -1028.9849    89623.284    -21862.06    1595.6282   -23457.688    9.8915016    236.85849 
    2650    109.23077   -1237.4893    89582.866   -21830.508    1634.4928   -23465.001    9.9827981    242.62764 
    2700    106.24684   -614.11145    89524.723   -21860.505    1589.8423   -23450.347    10.209647    235.99962 
    2750    106.44088   -1057.2965      89524.3   -21892.493    1592.7459   -23485.239    10.403857    236.43063 
    2800    106.15419   -838.45589    89448.084   -21873.906    1588.4559   -23462.362    10.407282    235.79383 
    2850    107.03016   -646.25289    89481.921   -21876.687    1601.5636   -23478.251     10.46606    237.73956 
    2900    105.96894   -1036.3687    89517.022    -21893.94    1585.6839   -23479.624    10.677345    235.38234 
    2950    106.67109    -856.4743    89498.562   -21880.177    1596.1907   -23476.368    10.792385    236.94199 
    3000    104.67891   -705.10503    89554.427   -21877.903    1566.3803   -23444.283    10.891803    232.51688 
    3050    106.06009   -976.64569    89537.638   -21875.304    1587.0478   -23462.352    11.090795     235.5848 
    3100    108.05928   -947.15557    89621.228   -21840.247     1616.963    -23457.21    11.194178    240.02547 
    3150    106.66521   -1027.8748    89582.696   -21881.266    1596.1027   -23477.369    11.270291    236.92893 
    3200     105.8801   -1211.5423    89518.917   -21925.707    1584.3546   -23510.061    11.541928    235.18501 
    3250    106.32063   -733.41588    89504.596   -21918.935    1590.9464   -23509.881    11.627101    236.16352 
    3300    106.53027   -683.76873    89574.361   -21883.789    1594.0835   -23477.873    11.718715    236.62919 
    3350    108.56623    -948.3747    89553.888   -21883.856    1624.5489   -23508.405    11.822109    241.15155 
    3400      108.452    -581.0433    89552.493   -21859.287    1622.8395   -23482.127    12.017867     240.8978 
    3450    109.89359   -610.75203    89552.034   -21843.766     1644.411   -23488.177    12.051989    244.09992 
    3500    108.08431   -1260.0532    89510.405    -21844.82    1617.3376   -23462.158    12.311958    240.08108 
    3550     106.9814   -794.60968    89520.343   -21861.665     1600.834   -23462.499    12.523291    237.63126 
    3600    111.43587   -574.54151    89548.539    -21842.38    1667.4892   -23509.869    12.570167     247.5257 
    3650    110.72748   -638.45595    89694.737   -21810.523    1656.8891   -23467.412    12.646708    245.95219 
    3700    108.66152   -1068.2322     89696.52   -21825.706    1625.9747   -23451.681    12.794261    241.36319 
    3750    111.66128    -765.2255    89654.404   -21830.397    1670.8622   -23501.259    12.848691    248.02639 
    3800    109.35061   -714.28266    89679.223   -21822.801    1636.2861   -23459.088    13.041532    242.89384 
    3850    111.68383   -764.12718    89704.772   -21801.205    1671.1996   -23472.405    13.349816    248.07647 
    3900    110.60044   -617.92669    89703.732    -21789.08    1654.9881   -23444.069     13.39353    245.67001 
    3950    111.20317   -692.94758    89783.813   -21790.778    1664.0072   -23454.785    13.529392    247.00882 
    4000    112.41397   -807.91146    89811.269   -21837.244    1682.1252   -23519.369    13.554536    249.69829 
    4050    108.65268   -1151.8917    89791.921   -21813.386    1625.8425   -23439.228    13.815857    241.34356 
    4100    108.31967   -693.09207    89799.225   -21781.539    1620.8594   -23402.398    13.897163    240.60387 
    4150    107.86343   -1090.2957    89758.627   -21801.694    1614.0324   -23415.726    14.050753    239.59046 
    4200    109.32997   -881.69648    89744.609   -21789.508    1635.9772   -23425.485     14.14079    242.84798 
    4250    107.18367   -927.60224    89718.791   -21785.806    1603.8607   -23389.667    14.403051    238.08054 
    4300     108.7739   -716.81904    89712.902   -21777.956    1627.6563   -23405.612    14.456243    241.61281 
    4350    110.32046   -1105.3609    89704.348   -21772.878    1650.7986   -23423.676    14.539699     245.0481 
    4400    110.83239   -975.29281    89715.986   -21750.255    1658.4589   -23408.714    14.821986    246.18521 
    4450    108.91868   -998.82318    89707.117   -21754.265    1629.8228   -23384.088    15.134614    241.93442 
    4500    108.99233   -993.64306    89679.394   -21753.544    1630.9249   -23384.469     15.32678    242.09801 
    4550    109.80602   -1248.1354    89700.236   -21752.297    1643.1007   -23395.398    15.537927    243.90541 
    4600    109.07945   -991.04478    89695.946   -21766.899    1632.2286   -23399.128    15.595431    242.29153 
    4650    107.15826   -1153.6093    89669.605   -21766.297    1603.4804   -23369.777    15.724223    238.02409 
    4700    105.63712   -1092.6247    89647.062   -21803.178    1580.7186   -23383.897     15.95931    234.64528 
    4750    110.87472    -1047.485    89595.407    -21802.97    1659.0923   -23462.062    16.195544    246.27924 
    4800    104.08071   -988.90128    89597.398   -21801.369     1557.429   -23358.798    16.243405    231.18813 
    4850    107.74432   -582.81969    89605.327   -21784.407      1612.25   -23396.657    16.427761    239.32588 
    4900    106.80113   -869.41233    89627.111   -21794.502    1598.1364   -23392.639    16.564763    237.23082 
    4950    108.06263   -1207.4641    89633.025   -21781.502    1617.0132   -23398.515    16.661226    240.03293 
    5000    109.37935   -828.49509    89555.699   -21802.236    1636.7161   -23438.953    16.707195    242.95767 
    5050    106.23914   -707.16603    89511.406    -21790.76    1589.7271   -23380.487     16.97947    235.98252 
    5100    106.96059    -963.7595    89473.331   -21818.295    1600.5225   -23418.818    17.186734    237.58502 
    5150    109.51269    -862.8874    89523.247   -21850.997    1638.7114   -23489.708    17.292477    243.25385 
    5200    106.28801   -922.51586    89510.851    -21863.98    1590.4583   -23454.438    17.475575    236.09106 
    5250    104.59612   -815.09516    89473.887   -21838.726    1565.1415   -23403.867    17.524289    232.33298 
    5300    107.75834   -1021.6056    89404.608   -21886.307    1612.4599   -23498.767    17.501469    239.35703 
    5350    105.68811   -615.09297    89463.811   -21882.249    1581.4816   -23463.731    17.830138    234.75854 
    5400    107.80885   -888.31733    89515.695   -21854.842    1613.2157   -23468.058    17.869411    239.46922 
    5450    108.47235   -977.64087    89443.948   -21824.662    1623.1441   -23447.806    18.040176    240.94301 
    5500    107.28241   -821.77257    89453.746   -21824.803    1605.3382   -23430.141    18.247916    238.29986 
    5550    107.91966   -691.05338    89481.857   -21824.019    1614.8737   -23438.893    18.343138    239.71534 
    5600    110.22174   -631.89455    89567.893   -21776.609    1649.3214   -23425.931    18.487026    244.82883 
    5650    107.01818    -648.7741    89629.349   -21803.751    1601.3844   -23405.135     18.62785    237.71295 
    5700    109.82529   -783.92425    89629.324   -21785.926     1643.389   -23429.315    18.809132    243.94821 
    5750    108.12657   -1021.6153    89569.829   -21785.588    1617.9699   -23403.558    18.808403    240.17495 
    5800    108.01385   -647.90978    89522.865   -21810.706    1616.2833   -23426.989    19.084137    239.92458 
    5850    107.36478    -1082.778    89587.444   -21817.651    1606.5707   -23424.221    19.166935    238.48282 
    5900    109.38012   -723.88096    89553.844   -21823.676    1636.7277   -23460.404    19.317868    242.95938 
    5950    111.80618   -740.68324    89583.978    -21758.54    1673.0303    -23431.57    19.457132    248.34823 
    6000    112.09295   -921.37135    89595.159   -21764.554    1677.3215   -23441.875    19.721863    248.98522 
    6050    108.37568   -787.03671    89586.292   -21762.868    1621.6975   -23384.565    19.757693    240.72828 
    6100    112.07454    -995.2658    89577.264   -21755.634     1677.046    -23432.68    19.935629    248.94433 
    6150    108.01163   -856.94471     89577.67   -21758.486    1616.2501   -23374.737    20.054268    239.91965 
    6200    110.09212   -955.62248     89427.96   -21736.626    1647.3818   -23384.008    20.270434    244.54091 
    6250    110.14739   -824.89378    89380.097   -21772.961    1648.2088    -23421.17    20.299161    244.66367 
    6300    108.23565   -765.82199    89317.371   -21810.619    1619.6021   -23430.221     20.26073    240.41723 
    6350    107.43114   -619.48848    89332.411   -21832.654    1607.5637   -23440.218    20.347359    238.63023 
    6400    107.41333   -863.62539     89295.28   -21839.421    1607.2972   -23446.718    20.451513    238.59066 
    6450    106.82238   -970.69182    89244.029   -21853.875    1598.4544    -23452.33    20.728898    237.27802 
    6500    108.25545   -615.14689    89255.712   -21828.276    1619.8984   -23448.175    20.769065    240.46121 
    6550    104.97772   -558.34692    89334.204   -21852.361    1570.8516   -23423.213    20.863952     233.1806 
    6600     103.8422   -763.75012    89337.602   -21855.314    1553.8601   -23409.174    21.176772    230.65835 
    6650    106.02541   -789.44918    89330.952   -21873.295    1586.5288   -23459.824    21.303922    235.50776 
    6700    102.40277    -845.6416    89354.769   -21908.089    1532.3208   -23440.409    21.401945    227.46101 
    6750    104.47434   -519.94033    89407.777   -21902.652    1563.3192   -23465.971    21.650539    232.06248 
    6800    106.69976   -991.63658    89369.289     -21913.9    1596.6196    -23510.52     21.91533    237.00565 
    6850    105.26206   -802.53943    89346.279   -21930.419    1575.1064   -23505.525    22.068095     233.8122 
    6900     107.1149   -898.58192    89307.055   -21937.402    1602.8317   -23540.233    22.313386     237.9278 
    6950    105.98514   -985.46052    89303.047   -21927.339    1585.9263   -23513.265    22.440363    235.41832 
    7000    105.33033   -745.45259    89298.828   -21927.869     1576.128   -23503.997    22.514258    233.96384 
    7050    105.47104   -1016.6401    89378.047   -21903.358    1578.2335   -23481.592    22.573624    234.27638 
    7100    105.40861   -745.33737    89417.043   -21904.499    1577.2993   -23481.798    22.909072    234.13771 
    7150     103.3824   -790.13493    89507.285   -21919.217    1546.9797   -23466.197    23.061528    229.63701 
    7200    102.72376   -806.89506    89562.114   -21895.952    1537.1241   -23433.076    23.326514    228.17402 
    7250    103.09799   -680.44301    89544.679   -21935.184    1542.7239   -23477.908    23.533242    229.00527 
    7300    104.02959   -791.81014    89526.099   -21906.836    1556.6641     -23463.5    23.704061    231.07457 
    7350    106.41632   -930.16498    89491.431   -21862.008    1592.3783   -23454.386    23.840935    236.37607 
    7400    108.43457   -888.04553    89463.646   -21850.861    1622.5787   -23473.439    24.058709    240.85908 
    7450    106.45409   -972.88203    89460.842   -21838.582    1592.9434   -23431.526     24.07796    236.45996 
    7500    110.47284   -938.56143    89388.798   -21838.262    1653.0788   -23491.341    24.204239    245.38658 
    7550    107.21143   -688.80493    89286.851   -21849.781    1604.2761   -23454.057    24.312071    238.14221 
    7600    108.68043   -1048.1176    89273.638   -21820.396    1626.2577   -23446.653    24.593494     241.4052 
    7650     110.1372   -746.63067    89194.531   -21779.287    1648.0563   -23427.343    24.781812    244.64103 
    7700    108.75252   -747.30638    89254.974   -21783.865    1627.3364   -23411.201    25.074291    241.56532 
    7750      107.254   -1023.5929    89272.879   -21770.586    1604.9131     -23375.5    25.283582    238.23677 
    7800    109.15429   -773.76054    89324.476   -21788.947    1633.3483   -23422.295    25.468575    242.45775 
    7850    108.02836   -831.06087    89314.269   -21763.748    1616.5004   -23380.248    25.533792     239.9568 
    7900    106.94612   -711.84379    89321.871    -21802.05    1600.3061   -23402.356    25.725032     237.5529 
    7950    107.81057   -693.87845    89332.757   -21816.602    1613.2415   -23429.843    25.995699    239.47305 
    8000    108.99561   -1023.6238    89370.125   -21833.834    1630.9739   -23464.807     26.05068    242.10529 
    8050    106.85043   -855.61738    89376.325   -21847.567    1598.8741   -23446.441    26.235605    237.34033 
    8100    105.83011    -494.6226    89415.657   -21849.117    1583.6064   -23432.723    26.289889    235.07395 
    8150    107.35309   -777.77556    89442.037   -21856.841    1606.3959   -23463.237    26.478598    238.45687 
    8200    107.97049   -768.73933    89480.677   -21812.833    1615.6345   -23428.468     26.51934    239.82826 
    8250    105.80827   -542.78586    89528.473   -21798.877    1583.2797   -23382.156    26.527616    235.02545 
    8300    110.82532   -854.71159    89511.344   -21772.247    1658.3532     -23430.6    26.654748    246.16952 
    8350    109.30562   -1037.3307    89527.994    -21788.58    1635.6129   -23424.193    26.690701    242.79391 
    8400    106.51604   -659.83687     89519.07   -21807.483    1593.8705   -23401.353    27.007338    236.59758 
    8450    106.77128   -772.49438    89497.413   -21815.173    1597.6898   -23412.863    27.183582    237.16451 
    8500     107.6048   -1155.2126    89526.711   -21828.231    1610.1623   -23438.393    27.290965    239.01597 
    8550    106.42063   -937.70392        89542   -21836.021    1592.4428   -23428.464    27.483779    236.38565 
    8600    109.78819   -952.06074    89495.178   -21831.292    1642.8339   -23474.126    27.727723     243.8658 
    8650    108.97237   -1017.6966    89465.625   -21814.853    1630.6262    -23445.48    27.827311    242.05367 
    8700    107.38079   -725.82236    89430.749   -21804.813    1606.8103   -23411.623    27.996307    238.51839 
    8750    108.40697   -1045.8068     89394.41    -21825.24    1622.1657   -23447.405    28.022953    240.79778 
    8800    107.43159    -966.9093    89338.763    -21852.06    1607.5704   -23459.631    27.971872    238.63123 
    8850    105.70067   -787.34592    89286.111   -21856.451    1581.6696    -23438.12    27.976325    234.78644 
    8900     107.2658   -1001.2771    89224.347   -21870.625    1605.0897   -23475.715    28.059042    238.26298 
    8950    104.53716    -824.0682    89241.263   -21863.547    1564.2592   -23427.806    28.259083      232.202 
    9000    105.71555   -1085.4526    89226.532   -21812.386    1581.8923   -23394.278    28.258187     234.8195 
    9050    111.09882   -590.60129    89229.594   -21804.336    1662.4458   -23466.781     28.36802    246.77703 
    9100    107.82692    -797.3222    89279.046   -21841.842    1613.4861   -23455.328    28.788683    239.50935 
    9150    107.42837   -886.93591    89232.127   -21847.354    1607.5223   -23454.877    28.988532    238.62408 
    9200     105.4411   -576.69568     89253.25   -21865.063    1577.7854   -23442.848     29.12934    234.20987 
    9250    108.01517   -760.76723     89215.37   -21876.765     1616.303   -23493.068    29.380347     239.9275 
    9300    105.82734   -842.25304    89302.696   -21867.511    1583.5651   -23451.076    29.532674    235.06782 
    9350    107.46932   -954.30781    89305.981   -21858.241    1608.1351   -23466.376    29.718205    238.71504 
    9400    108.38291   -979.55649    89314.238   -21806.649    1621.8057   -23428.455     29.74239    240.74434 
    9450    107.52041   -901.38145     89365.67   -21822.905    1608.8995   -23431.804    29.853052    238.82852 
    9500    110.63351   -1020.9195    89385.694   -21841.204    1655.4829   -23496.687    29.734012    245.74346 
    9550    109.92332   -979.86396    89348.684   -21834.827    1644.8559   -23479.683    29.942644    244.16596 
    9600    107.43517    -1259.639    89277.702   -21838.926    1607.6241    -23446.55    30.026646    238.63919 
    9650    107.48946   -1280.9648    89174.941   -21799.426    1608.4364   -23407.863    29.902494    238.75977 
    9700    111.20884   -707.37981    89123.091   -21839.729     1664.092   -23503.821    30.104006     247.0214 
    9750    107.45941   -812.05452    89155.242   -21831.492    1607.9868   -23439.479    30.228517    238.69302 
    9800    106.83191   -585.26046      89221.5   -21874.527    1598.5971   -23473.124    30.480993    237.29921 
    9850    107.82555   -1018.5816    89193.352   -21828.437    1613.4656   -23441.902     30.53997    239.50632 
    9900    107.43774   -915.16723    89181.534   -21800.656    1607.6625   -23408.319    30.631082    238.64489 
    9950    110.40572   -1172.2801    89165.618   -21835.263    1652.0744   -23487.337    30.829347    245.23749 
   10000    108.54193   -1090.8678    89104.314   -21846.009    1624.1853   -23470.194    31.055066    241.09756 
   10050     104.3394   -668.78726    89070.246   -21870.958    1561.2999   -23432.258    31.317535    231.76273 
   10100    110.30401   -867.50354    89114.397   -21888.699    1650.5524   -23539.251    31.513868    245.01156 
   10150    103.67893   -881.20879    89160.461   -21975.786    1551.4169   -23527.203    31.605378    230.29567 
   10200    106.31485   -796.54781    89172.548   -21908.493    1590.8599   -23499.353    31.568938    236.15068 
   10250    105.86514   -744.71778    89233.728    -21866.18    1584.1306    -23450.31    31.592644    235.15177 
   10300    106.33292   -1025.7097    89264.839   -21843.997    1591.1304   -23435.128    31.860252    236.19082 
   10350    105.96706   -730.71025    89347.248   -21844.535    1585.6558   -23430.191    31.805058    235.37817 
   10400    106.46202   -813.32548    89363.137   -21820.187    1593.0621   -23413.249    31.831899    236.47758 
   10450    109.56233   -654.91832    89322.145   -21803.731    1639.4541   -23443.185    31.924747    243.36411 
   10500    107.83915   -1152.6787    89276.744   -21839.058     1613.669   -23452.727    32.094518    239.53651 
   10550    108.93415   -599.62634    89253.354   -21793.606    1630.0542   -23423.661    32.242158    241.96877 
   10600    109.09625   -952.52416    89217.149   -21787.539      1632.48   -23420.019    32.280392    242.32885 
   10650    110.26893   -486.60052    89245.593   -21780.291    1650.0275   -23430.319    32.589156    244.93364 
   10700    106.05516    -1009.982    89267.308   -21787.267     1586.974   -23374.241    32.838845    235.57385 
   10750    107.86608   -1061.2088    89234.503   -21783.327     1614.072   -23397.399     32.92589    239.59633 
   10800    108.02452   -822.87067    89196.658   -21803.562    1616.4428   -23420.005    32.909569    239.94826 
   10850    107.78826   -867.32309     89149.55   -21786.798    1612.9076   -23399.706    33.022329    239.42349 
   10900    104.89906   -854.86529    89126.839    -21766.35    1569.6746   -23336.024    33.062443    233.00588 
   10950    105.61399   -748.28247     89117.02   -21754.614    1580.3726   -23334.986    33.268992    234.59392 
   11000    108.66787   -985.43297    89103.562   -21765.092    1626.0697   -23391.162    33.681701     241.3773 
   11050    107.63297   -935.01946    89084.722    -21808.07    1610.5839   -23418.654    33.787414    239.07854 
   11100     109.5534   -886.20129    89061.332   -21779.935    1639.3205   -23419.256    33.771449    243.34427 
   11150     108.4659   -878.81181     88957.87   -21766.757    1623.0476   -23389.805    33.767622    240.92869 
   11200     108.3719   -842.48766    88987.341   -21770.702     1621.641   -23392.343    33.781182    240.71988 
   11250    107.29314   -405.76401     89026.84   -21766.757    1605.4987   -23372.256    34.015162    238.32369 
   11300    108.60241    -953.9152    89042.977   -21815.219    1625.0903   -23440.309    34.201022    241.23191 
   11350    108.00116   -776.23899    89065.508   -21783.298    1616.0933   -23399.391    34.086279    239.89637 
   11400    106.48847    -708.5997    89084.725   -21822.125     1593.458   -23415.583    34.148745    236.53634 
   11450    108.39171    -1151.535    89138.078    -21832.12    1621.9374   -23454.058     34.26216    240.76389 
   11500    106.28259   -698.30548    89186.795   -21858.645    1590.3772   -23449.022    34.515319    236.07903 
   11550    107.50705   -955.90798    89250.073   -21797.673    1608.6996   -23406.373    34.686804    238.79884 
   11600    107.53346   -885.98191    89247.302   -21798.008    1609.0948   -23407.103    34.701345     238.8575 
   11650    107.68084   -926.16591    89293.025   -21768.561    1611.3001   -23379.861    34.806977    239.18487 
   11700    106.63546   -908.08248    89263.954   -21800.721    1595.6575   -23396.379    34.886688    236.86284 
   11750    108.42744   -845.64011    89224.734   -21765.845     1622.472   -23388.317    34.919527    240.84325 
   11800    106.47351    -763.9763     89258.04   -21770.016    1593.2341    -23363.25    35.088087    236.50312 
   11850    111.42938    -473.7457    89302.756   -21753.924    1667.3921   -23421.316     35.26231    247.51129 
   11900    107.99787   -976.57748     89330.36   -21764.224    1616.0441   -23380.268    35.306409    239.88908 
   11950    109.18268   -982.53301    89332.717   -21787.294    1633.7732   -23421.068    35.586174    242.52082 
   12000    108.57778   -1038.5188     89292.32   -21787.515    1624.7217   -23412.237     35.75554     241.1772 
   12050    104.98467   -939.85685    89280.022   -21810.816    1570.9556   -23381.772    35.886739    233.19604 
   12100    107.75763   -747.02827    89291.693   -21797.679    1612.4492   -23410.129    35.975928    239.35544 
   12150    108.96355   -693.47589    89195.646   -21777.195    1630.4942   -23407.689    36.279263    242.03408 
   12200    108.96013   -1017.7285    89182.264   -21797.861     1630.443   -23428.304    36.345463    242.02648 
   12250    107.90486   -1020.9655    89242.504   -21784.828    1614.6523    -23399.48    36.493196    239.68247 
   12300    108.92959   -788.65791    89178.662   -21799.713     1629.986   -23429.699    36.786914    241.95864 
   12350    107.59915   -660.77588    89218.599   -21807.823    1610.0778   -23417.901    37.093103    239.00343 
   12400     108.6872   -647.33521    89237.257   -21783.121     1626.359    -23409.48    37.306645    241.42023 
   12450    106.25779   -772.17533    89238.537   -21828.451    1590.0062   -23418.458    37.324435    236.02395 
   12500    107.75008   -1181.6793    89210.497   -21827.353    1612.3362   -23439.689    37.514295    239.33866 
   12550    106.85274   -830.95929    89189.318   -21837.614    1598.9088   -23436.523    37.679596    237.34547 
   12600    107.29495   -831.67903    89225.928    -21826.91    1605.5259   -23432.435    37.869706    238.32772 
   12650    110.05116   -1028.0618    89282.872   -21788.438    1646.7688   -23435.207    37.873562    244.44992 
   12700    107.10589   -934.26701    89319.134   -21793.929    1602.6968   -23396.626    38.064896    237.90778 
   12750    106.41936   -743.53821    89344.214   -21815.569    1592.4238   -23407.993    38.318193    236.38283 
   12800    104.98334   -897.63482    89302.554   -21825.219    1570.9357   -23396.155    38.634216    233.19309 
   12850    107.14671   -815.28183    89201.785    -21747.93    1603.3077   -23351.238    38.892325    237.99845 
   12900    107.29013   -919.42894    89166.402   -21769.568    1605.4538   -23375.021      38.9841    238.31702 
   12950    108.80555   -963.46107    89119.086   -21742.769    1628.1299   -23370.899    39.125797    241.68312 
   13000     110.5214    -692.0091    89110.185   -21762.836    1653.8054   -23416.641    39.241881    245.49444 
   13050    109.92956   -880.28367    89153.171    -21743.68    1644.9493   -23388.629    39.216893    244.17982 
   13100    105.00297   -1033.3569    89229.971    -21774.33    1571.2294    -23345.56    39.628886    233.23668 
   13150      107.868   -1021.9729    89223.448   -21760.944    1614.1008   -23375.045    39.954734    239.60061 
   13200    107.51401   -948.95929    89186.552   -21734.737    1608.8038   -23343.541     40.01729    238.81431 
   13250    111.48301   -854.00782    89111.708   -21719.212    1668.1946   -23387.407    40.191262    247.63041 
   13300    108.57577   -1086.0876    89124.264   -21729.842    1624.6916   -23354.533    40.340785    241.17273 
   13350    109.13288     -1057.16    89076.642   -21732.409     1633.028   -23365.437    40.378486     242.4102 
   13400     109.3662   -675.42533    89145.462   -21767.367    1636.5193   -23403.886    40.374274    242.92846 
   13450    107.30617   -783.58809    89183.126    -21778.58    1605.6937   -23384.274     40.55943    238.35264 
   13500    110.52998   -586.91983    89207.125   -21733.443    1653.9338   -23387.377    40.587475     245.5135 
   13550    110.00299   -574.47308     89312.73   -21750.145    1646.0481   -23396.194    40.655757    244.34292 
   13600    109.62788    -380.3691    89345.853   -21756.247     1640.435   -23396.682    40.681647    243.50971 
   13650    109.67344   -784.79423    89345.304   -21757.547    1641.1168   -23398.664    41.009458    243.61092 
   13700    107.35383   -603.84344    89355.434   -21791.435     1606.407   -23397.842    41.241861    238.45851 
   13750    108.14516    -929.1634    89359.748   -21772.577    1618.2481   -23390.825    41.502477    240.21623 
   13800    108.27216   -625.15126    89398.923   -21772.458    1620.1485   -23392.607    41.681807    240.49835 
   13850    104.72012   -559.85567    89483.071   -21778.138     1566.997   -23345.135    41.778395    232.60842 
   13900    110.15286   -875.27519    89505.684   -21734.159    1648.2907   -23382.449    41.825468    244.67583 
   13950    110.43519   -840.93891    89501.752   -21742.665    1652.5153    -23395.18    42.008256    245.30294 
   14000    109.11746   -880.77185     89507.79    -21741.56    1632.7973   -23374.357    42.045161    242.37595 
   14050    108.39929   -810.73182    89492.957   -21716.699    1622.0508   -23338.749    42.094481    240.78072 
   14100    108.12966   -1039.9279    89483.709   -21717.081    1618.0162   -23335.097    42.107268    240.18181 
   14150     107.0847   -894.54649    89442.232   -21744.898    1602.3798   -23347.278    42.152293    237.86071 
   14200     108.5041   -671.61176    89430.705    -21784.03    1623.6191   -23407.649    42.478114    241.01353 
   14250    105.26364   -1207.7447    89397.279   -21744.478    1575.1301   -23319.608    42.844578     233.8157 
   14300    109.72748   -932.60672    89318.062   -21772.857    1641.9254   -23414.782    43.104401    243.73095 
   14350    107.07157   -1080.4698    89250.728   -21719.833    1602.1833   -23322.016    43.351608    237.83154 
   14400    108.28328   -960.02208    89231.514   -21708.904    1620.3149   -23329.219    43.365391    240.52305 
   14450    113.21019   -1038.6454    89252.481   -21666.152    1694.0395   -23360.192    43.378568    251.46688 
   14500    109.14008   -853.28451     89240.75   -21701.953    1633.1358   -23335.089    43.571736     242.4262 
   14550    111.38354   -840.73215    89203.294   -21715.369    1666.7061   -23382.076    43.732143    247.40945 
   14600    109.02653    -760.0823    89228.242   -21760.295    1631.4366   -23391.732    43.863526    242.17397 
   14650    105.58396   -957.52116     89240.11   -21771.294    1579.9232   -23351.218    44.163244    234.52721 
   14700    108.25041   -793.97577    89217.006   -21776.035    1619.8231   -23395.858    44.321538    240.45003 
   14750     107.2648   -783.59129    89208.092   -21754.659    1605.0747   -23359.734    44.459904    238.26076 
   14800    109.21296   -759.16659    89241.282   -21753.812    1634.2263   -23388.038    44.579004    242.58808 
   14850    108.66097   -658.28254    89337.957   -21746.643    1625.9665   -23372.609     44.84913    241.36197 
   14900    110.16685   -935.41973    89385.826   -21739.742       1648.5   -23388.242    45.121894     244.7069 
   14950    107.28621    -1047.982    89339.151   -21764.934    1605.3951   -23370.329    45.102933    238.30831 
   15000    109.26195    -1119.472    89351.481   -21767.345    1634.9594   -23402.305    45.062037     242.6969 
   15050    110.57804   -1124.2228    89296.025   -21745.818     1654.653   -23400.471    45.237472    245.62026 
   15100    109.48732   -748.83861    89246.077   -21756.225    1638.3318   -23394.557    45.585565    243.19751 
   15150    109.94579   -622.41831    89277.163   -21779.711    1645.1922   -23424.903    45.612771    244.21588 
   15200    106.01977   -994.41744     89291.68   -21787.088    1586.4445   -23373.532    45.677077    235.49525 
   15250    110.82447   -710.16334    89327.295   -21745.544    1658.3404   -23403.884    45.740487    246.16763 
   15300    110.26354   -773.79389      89423.6   -21748.816    1649.9469   -23398.763    45.824928    244.92168 
   15350    108.39283    -654.2474    89446.811    -21746.57    1621.9542   -23368.524     45.88156    240.76639 
   15400    107.16487    -878.4686    89503.124    -21768.99    1603.5793   -23372.569    45.874157    238.03877 
   15450    108.34641   -881.26228    89547.968   -21766.388    1621.2595   -23387.648    45.949187    240.66326 
   15500    112.29923   -926.75637    89628.375   -21741.533    1680.4083   -23421.942    46.181161    249.44343 
   15550    110.35905    -825.7698     89580.15   -21754.207    1651.3761   -23405.583    46.363012    245.13383 
   15600    110.00818   -1116.3975    89574.867   -21740.944    1646.1258    -23387.07    46.567446    244.35446 
   15650    109.20555   -1197.9665    89551.302   -21790.711    1634.1155   -23424.826    46.788767    242.57163 
   15700    110.01584    -617.4125    89521.732   -21812.691    1646.2404   -23458.931    46.900768    244.37148 
   15750    105.43289   -967.53762    89494.595   -21799.663    1577.6626   -23377.326    47.104064    234.19164 
   15800    109.81262   -744.45432    89513.684   -21754.553    1643.1995   -23397.752    47.265237    243.92008 
   15850    108.19943   -1028.0477     89500.17   -21796.538    1619.0602   -23415.598    47.715238    240.33679 
   15900    108.78051   -877.16359     89528.64   -21766.581    1627.7553   -23394.336    47.848466    241.62751 
   15950    107.68608   -713.09653    89551.433   -21774.527    1611.3785   -23385.905    48.104048    239.19651 
   16000    107.99768   -973.80153    89618.827   -21819.278    1616.0412   -23435.319    48.143059    239.88865 
   16050    109.89675   -572.65938    89607.703   -21783.746    1644.4583   -23428.204    48.220428    244.10694 
   16100    110.88757   -935.53173    89609.782   -21754.873    1659.2846   -23414.158    48.505568    246.30779 
   16150    106.27722   -1162.1714    89516.793   -21785.062    1590.2969   -23375.358    48.896216     236.0671 
   16200    108.44035   -1014.8231    89467.682   -21779.884    1622.6652   -23402.549    49.017222    240.87193 
   16250    107.27254   -906.27101     89455.38   -21795.683    1605.1905   -23400.873    49.260199    238.27794 
   16300    104.83022   -530.75132    89544.689   -21846.741    1568.6444   -23415.385    49.322744    232.85296 
   16350    106.69615   -490.09923    89592.562   -21819.953    1596.5657   -23416.519    49.514747    236.99765 
   16400    105.48612   -1024.8721    89629.601   -21835.258    1578.4591   -23413.717    49.769452    234.30988 
   16450     107.6857   -944.55225    89616.574   -21816.163    1611.3729   -23427.536    49.938816    239.19567 
   16500    107.78422    -573.3147    89627.031   -21830.159    1612.8471   -23443.006    49.874349    239.41451 
   16550    106.20785   -644.94809    89593.284   -21840.233    1589.2589   -23429.492    49.997822    235.91301 
   16600     107.5976   -844.16896    89547.562   -21816.715    1610.0546    -23426.77    50.091015    238.99997 
   16650    107.01024   -731.21583    89610.505    -21848.67    1601.2655   -23449.935    50.435592     237.6953 
   16700    109.26154   -924.62057    89632.006   -21842.577    1634.9532    -23477.53    50.631581    242.69598 
   16750    108.79206   -536.14882    89598.545   -21879.219    1627.9281   -23507.147    50.630764    241.65316 
   16800    107.65722   -750.28332    89615.875   -21865.492    1610.9467   -23476.438    50.845007     239.1324 
   16850    107.11306   -563.56917    89677.751   -21853.501    1602.8042   -23456.305    50.835318    237.92371 
   16900    105.94816   -774.07287    89656.754   -21868.329    1585.3729   -23453.702    51.065655    235.33618 
   16950    104.92355   -690.19619     89694.04   -21893.671     1570.041   -23463.712    51.131995    233.06027 
   17000    110.31895    -605.1018    89748.822   -21846.504     1650.776    -23497.28    51.130607    245.04476 
   17050    107.17356   -792.97177    89721.341    -21865.89    1603.7094   -23469.599    51.277809    238.05809 
   17100    105.33556   -922.22319    89696.769   -21875.109    1576.2062   -23451.315    51.519697    233.97545 
   17150    107.70946   -791.09201    89683.531   -21864.677    1611.7285   -23476.406    51.882406    239.24845 
   17200     108.0277    -912.9763    89652.988   -21830.406    1616.4905   -23446.897    52.037313    239.95533 
   17250    107.54991    -376.0234    89691.417   -21813.677    1609.3409   -23423.018    52.018494    238.89404 
   17300     106.7417   -936.21926    89697.661   -21825.347    1597.2473   -23422.595    52.170113    237.09883 
   17350    107.58765   -857.42881    89683.615   -21841.352    1609.9057   -23451.258    52.151156    238.97787 
   17400    105.83766   -665.03744    89772.459   -21831.303    1583.7195   -23415.022    52.419862    235.09073 
   17450    108.98786   -1145.6723    89828.606   -21870.651    1630.8579   -23501.509    52.812425    242.08807 
   17500    105.97233   -950.89665    89828.653   -21888.035    1585.7346    -23473.77    52.726275    235.38987 
   17550    106.78913   -839.54377    89810.062   -21869.028    1597.9569   -23466.985     52.75594    237.20417 
   17600    108.84888    -784.6309    89830.369   -21858.153    1628.7783   -23486.931    52.787577    241.77937 
   17650    107.08068   -1063.7591    89868.747   -21876.981    1602.3195     -23479.3    53.004734    237.85177 
   17700    107.88479   -976.89077    89919.061   -21885.181     1614.352   -23499.533    52.987054    239.63789 
   17750    105.57988   -776.39863    89868.039   -21892.121    1579.8622   -23471.984    53.220361    234.51815 
   17800    107.33215   -836.62065    89827.732   -21902.043    1606.0826   -23508.126    53.321031    238.41036 
   17850    106.50426   -1292.4459    89772.937   -21900.329    1593.6943   -23494.023    53.342903    236.57142 
   17900    105.50317   -778.08697    89690.904    -21943.58    1578.7142   -23522.294    53.533557    234.34775 
   17950    108.54501   -701.83447    89693.026   -21883.005    1624.2313   -23507.237    53.584263    241.10439 
   18000    108.53307   -1135.1962    89730.385   -21863.919    1624.0526   -23487.971    53.625531    241.07788 
   18050     108.7333   -804.64139    89780.646   -21816.525    1627.0489   -23443.574    53.875123    241.52264 
   18100    109.91599    -877.9466    89865.227   -21816.985    1644.7463   -23461.731    53.771698    244.14968 
   18150     107.7392    -1024.632    89833.995   -21801.551    1612.1735   -23413.724    53.988555    239.31451 
   18200    105.92279    -997.8265    89801.294    -21840.93    1584.9933   -23425.923    54.093989    235.27982 
   18250    108.74706   -825.35786    89753.107   -21843.274    1627.2547   -23470.529    54.393645    241.55319 
   18300    106.90561   -984.43457     89738.37   -21830.898    1599.6998   -23430.598     54.19094    237.46289 
   18350      107.213    -728.8121    89720.448   -21802.328    1604.2996   -23406.628    54.332773     238.1457 
   18400    107.58444   -548.23873    89750.097   -21773.362    1609.8576    -23383.22    54.143671    238.97074 
   18450     112.8227   -921.77979    89833.864   -21720.872    1688.2413   -23409.113    54.418111    250.60618 
   18500    109.94477    -911.7321    89821.144   -21776.203    1645.1768    -23421.38    54.769142     244.2136 
   18550    108.45485   -949.70198    89856.354   -21786.311    1622.8822   -23409.193    54.924513    240.90414 
   18600    108.05517   -881.81236    89882.848   -21784.799    1616.9015     -23401.7    55.065351    240.01635 
   18650    109.80422   -974.34708     89870.26   -21803.904    1643.0737   -23446.978    55.047697    243.90141 
   18700    108.40689   -729.08322    89852.508   -21825.147    1622.1646   -23447.312    55.145051    240.79761 
   18750    107.00594   -679.03487    89883.327   -21818.608    1601.2012   -23419.809    55.524493    237.68576 
   18800    107.81716   -1053.5612    89857.119   -21827.095      1613.34   -23440.435    55.463126    239.48767 
   18850     109.5805   -1121.6311    89858.377    -21790.86     1639.726   -23430.586    55.766315    243.40447 
   18900    108.84991   -930.10637      89807.8   -21812.041    1628.7938   -23440.835    55.938668    241.78167 
   18950     109.6529   -844.72389    89806.564   -21804.912    1640.8094   -23445.721     55.95262    243.56528 
   19000    108.08236   -757.91123    89820.164    -21803.49    1617.3084   -23420.798    56.242162    240.07674 
   19050    109.26388   -946.05648    89771.057   -21829.627    1634.9883   -23464.616    56.190574    242.70119 
   19100    107.57914   -599.04109    89789.531   -21799.289    1609.7784   -23409.068     56.21625    238.95898 
   19150    107.45989   -917.59108    89822.851   -21805.829     1607.994   -23413.823    56.182118     238.6941 
   19200     105.2004    -629.4499    89875.985   -21823.192    1574.1836   -23397.375    56.347211    233.67522 
   19250    107.57678   -819.07527    89905.516   -21848.619     1609.743   -23458.362    56.542964    238.95372 
   19300    107.06927   -778.50784    89929.714   -21827.201    1602.1488    -23429.35    56.723605    237.82643 
   19350    105.85312    -1199.537    89960.521   -21845.374    1583.9508   -23429.325    56.858702    235.12507 
   19400    109.27823   -1139.1379    89952.935   -21804.122     1635.203   -23439.325    57.295346    242.73305 
   19450    106.27436   -1052.3102    89924.734   -21807.005    1590.2541    -23397.26    57.410883    236.06076 
   19500    108.85288   -495.81866    89921.254   -21744.243    1628.8382   -23373.082    57.422402    241.78825 
   19550    109.75802   -1080.3368    89960.262    -21773.51    1642.3823   -23415.892    57.549775    243.79878 
   19600    108.59917   -1142.3769    89951.066   -21818.652    1625.0417   -23443.693    57.611444     241.2247 
   19650    106.84654   -888.99387    89942.882   -21835.223     1598.816   -23434.039    57.981062     237.3317 
   19700    110.99519   -740.01482    89971.877   -21775.578    1660.8949   -23436.472    58.071224    246.54683 
   19750    107.97516   -814.60222    89977.115   -21805.295    1615.7043   -23420.999    58.493815    239.83863 
   19800    109.68528   -683.49487     89985.02   -21751.401    1641.2939   -23392.695    58.739062    243.63721 
   19850    111.59412   -942.08036    89933.196   -21741.232    1669.8572   -23411.089    58.902931    247.87721 
   19900    109.04515   -1018.2457    89940.502   -21754.624    1631.7152   -23386.339    59.019335    242.21533 
   19950    107.42092   -789.39624    90018.508   -21806.887    1607.4109   -23414.298    59.045037    238.60754 
   20000    111.21327   -903.53538    90041.094   -21752.723    1664.1583   -23416.881    59.481911    247.03124 
   20050    108.52912   -1132.9914    89959.685   -21746.761    1623.9936   -23370.755     59.70867    241.06911 
   20100    107.21018   -881.66867    89993.384   -21773.387    1604.2574   -23377.645    59.773129    238.13942 
   20150    108.25088   -770.35043    90079.026   -21727.848    1619.8301   -23347.678    59.932128    240.45107 
   20200    107.78748   -842.04872    90132.106   -21793.984    1612.8959   -23406.879     60.08313    239.42174 
   20250    109.40645   -1168.6696    90090.358   -21797.247    1637.1217   -23434.369    60.141601    243.01788 
   20300    108.57578   -780.23164     90107.05   -21796.007    1624.6917   -23420.698    60.331023    241.17274 
   20350    106.73635   -862.84146    90127.255   -21833.733    1597.1672     -23430.9    60.493174    237.08694 
   20400    105.54539   -850.81701    90082.949   -21845.419     1579.346   -23424.765    60.488444    234.44153 
   20450    109.12073     -837.628    90048.702   -21825.116    1632.8462   -23457.962    60.424366    242.38322 
   20500    107.91254   -1087.2548    90010.158    -21819.74    1614.7672   -23434.507    60.843575    239.69953 
   20550    109.36795   -1108.1524    89929.797   -21825.707    1636.5455   -23462.252    60.969734    242.93235 
   20600     110.1817   -880.28224    89903.677   -21801.724    1648.7222   -23450.446    60.950694    244.73988 
   20650    110.70726   -679.66623    89904.642   -21750.322    1656.5865   -23406.909    61.049346    245.90728 
   20700     107.1536    -1066.879    89878.982   -21764.672    1603.4107   -23368.083    61.017121    238.01375 
   20750    109.53323   -959.52926    89873.304   -21760.062    1639.0187   -23399.081    61.349722    243.29948 
   20800    108.18843   -919.50429    89868.839   -21787.678    1618.8956   -23406.574    61.437769    240.31236 
   20850    106.50199   -773.96687    89900.334   -21771.227    1593.6603   -23364.888    61.510206    236.56637 
   20900    106.32766    -980.1971    89898.482   -21785.163    1591.0516   -23376.214    61.667197    236.17914 
   20950    107.07302   -794.03389    89930.585   -21759.112     1602.205   -23361.317    61.725253    237.83477 
   21000    110.60311    -812.1868    89964.165   -21748.062    1655.0281    -23403.09    61.767627    245.67594 
   21050    104.77878   -1067.8671    89992.419   -21757.544    1567.8747   -23325.419    62.062353     232.7387 
   21100    108.01032   -909.92256    89961.075   -21771.245    1616.2304   -23387.475    62.500749    239.91672 
   21150    106.90401   -854.81183    89909.282   -21744.479    1599.6759   -23344.154    62.448247    237.45935 
   21200    107.28883   -811.30611    89850.146   -21794.327    1605.4343   -23399.761     62.50249    238.31413 
   21250    107.49429   -861.77191    89828.551   -21783.724    1608.5087   -23392.233    62.769552    238.77051 
   21300    107.93471    -881.8231    89754.988   -21757.511    1615.0991    -23372.61    62.767194    239.74879 
   21350    107.25069   -702.61345    89683.939   -21787.388    1604.8635   -23392.251    62.826095    238.22941 
   21400    108.35723    -861.5584    89731.567   -21787.172    1621.4214   -23408.594    62.920983     240.6873 
   21450    109.39216   -699.30812    89679.418   -21781.853    1636.9078   -23418.761     63.06873    242.98612 
   21500    108.81958    -605.3112     89733.27   -21758.691    1628.3399   -23387.031    63.536483    241.71429 
   21550    106.86855   -1163.0887    89764.568   -21738.037    1599.1454   -23337.182    63.606813    237.38059 
   21600    109.03552   -847.21168    89681.138   -21770.746    1631.5712   -23402.317    63.648316    242.19394 
   21650    108.87095   -1054.6892    89649.504   -21779.505    1629.1085   -23408.614    63.744508    241.82839 
   21700    105.67337   -831.27509    89594.429   -21806.113     1581.261   -23387.374    63.909367     234.7258 
   21750    108.18067   -835.09353    89553.824   -21797.817    1618.7795   -23416.597      63.7502    240.29512 
   21800    106.57002   -983.58242    89579.903   -21835.358    1594.6782   -23430.037    63.787776    236.71748 
   21850    107.06506   -808.14545    89605.886   -21864.048    1602.0858   -23466.134    63.903698    237.81707 
   21900     104.9123   -940.40898    89525.095   -21898.519    1569.8727   -23468.391    64.426523    233.03529 
   21950    105.44962   -880.68189    89447.166   -21847.629    1577.9129   -23425.542    64.540975    234.22879 
   22000    110.14561   -769.36072    89439.308   -21811.185    1648.1822   -23459.367    64.445623    244.65973 
   22050    107.44059   -933.04976    89390.911   -21794.098    1607.7051   -23401.804     64.87449    238.65121 
   22100    105.70057   -837.74992    89390.242   -21759.532    1581.6681     -23341.2    65.073719    234.78623 
   22150     109.2049   -932.21477    89339.201    -21778.13    1634.1057   -23412.236    65.384914    242.57018 
   22200    108.33685   -1138.8474    89324.668   -21772.131    1621.1165   -23393.247    65.704289    240.64203 
   22250    108.24407   -789.58175    89313.467   -21807.501    1619.7281   -23427.229    66.095979    240.43594 
   22300    106.37129   -987.97644    89363.205   -21799.314    1591.7045   -23391.018    66.189485    236.27605 
   22350    109.28982   -1115.6157    89278.823   -21834.141    1635.3764   -23469.517     66.09769     242.7588 
   22400    104.43651    -716.2549    89275.451   -21862.696     1562.753   -23425.449    66.495732    231.97843 
   22450    106.35489   -834.63876    89250.799   -21818.357    1591.4591   -23409.817    66.879372    236.23963 
   22500    105.12181   -1163.1797    89207.989   -21853.531    1573.0077   -23426.538    67.131651    233.50065 
   22550    107.23831   -911.03394    89124.816   -21776.867    1604.6784   -23381.546    67.084957    238.20192 
   22600    110.63584   -413.68483    89219.167   -21749.685    1655.5179   -23405.203    67.330711    245.74865 
   22650     112.2649   -847.23385    89265.617   -21690.119    1679.8945   -23370.013    67.321446    249.36716 
   22700    108.43908   -996.18343    89228.548   -21742.396    1622.6463   -23365.043    67.434768    240.86912 
   22750    108.09687   -759.54073    89202.537   -21726.343    1617.5255   -23343.869    67.422334    240.10897 
   22800    110.90498   -602.32913     89224.42   -21719.772    1659.5451   -23379.317    67.945488    246.34646 
   22850    109.83408   -874.78654    89271.657   -21747.534    1643.5205   -23391.055    68.034135    243.96773 
   22900    109.10975   -971.47853    89258.052   -21731.061    1632.6819   -23363.742    68.083546    242.35882 
   22950    111.25196   -971.70055    89345.611   -21734.659    1664.7372   -23399.396    68.375292    247.11718 
   23000    106.97215   -1191.0323    89247.568   -21754.959    1600.6956   -23355.654    68.487899    237.61071 
   23050    107.10169   -1149.0703    89151.422   -21738.716     1602.634    -23341.35    68.509043    237.89845 
   23100    111.88974   -955.35692     89142.53   -21715.688    1674.2807   -23389.969    68.666902    248.53384 
   23150    109.75791   -1021.3053    89102.429   -21675.746    1642.3807   -23318.127    69.044258    243.79853 
   23200    112.01318   -811.46991    89071.552   -21689.005    1676.1278   -23365.133    69.218199    248.80803 
   23250     111.1812   -905.83847      89078.5   -21725.203    1663.6783   -23388.882    69.382793       246.96 
   23300    108.61366   -1061.0994     88975.79   -21744.431    1625.2586    -23369.69    69.195332    241.25689 
   23350    107.74996   -671.88806    88922.185   -21777.916    1612.3345   -23390.251    69.327991    239.33841 
   23400    107.03394   -1001.2902    88926.506   -21793.004    1601.6202   -23394.624    69.246067    237.74795 
   23450    108.70031   -842.83192    88937.854   -21794.758    1626.5552   -23421.313    69.294594    241.44936 
   23500     108.3525    -747.3415     88951.85   -21791.765    1621.3507   -23413.116    69.418435    240.67679 
   23550    105.96942    -549.9414    88907.561   -21760.555     1585.691   -23346.246    69.458248     235.3834 
   23600     110.2481   -687.49756    88988.826   -21776.344    1649.7158    -23426.06    69.255935    244.88737 
   23650    107.84401   -935.49104    89093.652   -21769.402    1613.7418   -23383.144    69.523155    239.54731 
   23700    107.86004   -1054.7963    89085.915   -21742.913    1613.9816   -23356.894    69.406344    239.58292 
   23750    108.75429    -808.8233    89000.771   -21697.049     1627.363   -23324.412    69.170525    241.56927 
   23800    110.78144   -685.10385    88991.028   -21713.928    1657.6966   -23371.624    69.242708    246.07205 
   23850     110.3887   -843.52554    89111.553   -21733.698    1651.8197   -23385.517    69.772504    245.19968 
   23900    108.73945   -1099.7835    89189.198   -21714.536    1627.1409   -23341.677    69.933252     241.5363 
   23950    108.20204   -844.76948    89210.391   -21742.226    1619.0993   -23361.325    70.162515    240.34259 
   24000    108.29121   -669.65762    89241.236   -21786.216    1620.4335    -23406.65    70.286485    240.54065 
   24050    110.80628   -1075.4676    89307.884   -21766.892    1658.0681    -23424.96    70.496631    246.12721 
   24100    110.35952   -777.86105    89315.834   -21800.925    1651.3831   -23452.308    70.736785    245.13487 
   24150    107.23384    -935.0489    89329.402   -21815.051    1604.6114   -23419.663    70.901216    238.19198 
   24200    107.72275   -757.33774    89295.469   -21833.095    1611.9273   -23445.022    70.758138    239.27797 
   24250    106.78616   -889.51203    89229.608   -21803.899    1597.9125   -23401.812    70.849633    237.19758 
   24300    108.16068   -945.99461    89171.408   -21762.282    1618.4803   -23380.762    70.962415     240.2507 
   24350    108.12978   -565.26862    89201.152   -21791.874    1618.0179   -23409.892    71.273606    240.18207 
   24400    105.60355   -787.76618    89229.547   -21817.587    1580.2163   -23397.804    71.425647    234.57072 
   24450    109.42658   -952.39813    89212.033   -21762.909    1637.4228   -23400.332    71.699813    243.06257 
   24500    108.26498   -848.90177    89133.246    -21772.96    1620.0411   -23393.001    71.897607    240.48239 
   24550    110.20874   -710.76848     89129.47   -21753.994    1649.1268   -23403.121    72.043376    244.79994 
   24600    106.90399   -901.53514    89094.116   -21750.481    1599.6757   -23350.157    71.934936    237.45932 
   24650    107.20548   -1046.5009    89051.825   -21737.708     1604.187   -23341.895    72.075371    238.12898 
   24700    106.99181   -962.09873    89071.903   -21760.991    1600.9897   -23361.981     72.17559    237.65436 
   24750    106.92633   -681.43669    89110.351   -21764.447    1600.0099   -23364.457    72.636779    237.50892 
   24800    109.72099   -690.72848    89181.098   -21756.458    1641.8283   -23398.286    72.772191    243.71654 
   24850    109.89426   -1214.7047    89225.032    -21735.87    1644.4211   -23380.292     73.23874    244.10141 
   24900    105.69753   -1102.6745    89110.651   -21778.662    1581.6225   -23360.285     73.43362    234.77946 
   24950    106.94962   -929.73072    89062.116   -21765.179    1600.3584   -23365.537    73.774676    237.56065 
   25000    111.23376   -461.82851    89101.481   -21730.359    1664.4648   -23394.824    73.742643    247.07675 
   25050    111.23151   -946.75885    89101.854   -21703.355    1664.4312   -23367.786    74.198752    247.07176 
   25100    111.12893   -581.89057    89239.074   -21692.829    1662.8962   -23355.725    74.203073     246.8439 
   25150    110.34947   -1027.5606    89343.953   -21712.082    1651.2327   -23363.314    74.218474    245.11254 
   25200     112.5437   -807.82213    89407.538   -21706.478    1684.0664   -23390.544    74.448331    249.98644 
   25250    108.73503   -1075.0696    89447.111   -21752.412    1627.0748   -23379.487    74.188736    241.52649 
   25300    109.49685   -905.32668    89449.996   -21763.191    1638.4743   -23401.665    74.217364    243.21866 
   25350      108.413   -1115.6492     89394.93   -21772.142    1622.2559   -23394.398    74.389895    240.81117 
   25400    108.83492   -1281.2249    89295.057   -21743.441    1628.5694    -23372.01     74.59456    241.74836 
   25450    109.45337   -862.29482    89261.648   -21746.919    1637.8238   -23384.743    74.666566    243.12209 
   25500    109.98654   -1064.2924    89261.795   -21789.542    1645.8019   -23435.344    74.763987    244.30639 
   25550    107.86025   -981.90106    89226.833   -21795.187    1613.9847   -23409.172    74.581424    239.58338 
   25600    107.66881   -873.70219     89240.37   -21764.824    1611.1202   -23375.945    74.659619    239.15816 
   25650    106.60321   -885.40228    89193.236   -21771.855    1595.1749    -23367.03    74.802913    236.79121 
   25700    111.31779   -668.03606    89242.008   -21760.764    1665.7222   -23426.486    74.897635     247.2634 
   25750    112.01573   -860.74758    89305.254   -21755.982     1676.166   -23432.148    75.052042     248.8137 
   25800    107.47853   -1088.0413    89317.533   -21770.484    1608.2728   -23378.757     75.44845    238.73549 
   25850    107.70454   -779.75171    89344.575   -21789.737    1611.6548   -23401.392    75.654401    239.23752 
   25900    109.57179    -1042.753    89312.548   -21791.028    1639.5957   -23430.624    75.706607    243.38512 
   25950     108.0333   -1072.1751    89245.911   -21813.549    1616.5742   -23430.123    75.850506    239.96777 
   26000    109.26536   -564.57776    89181.365   -21817.794    1635.0104   -23452.804    76.131607    242.70447 
   26050    109.51649    -555.4321    89213.762   -21841.623    1638.7683   -23480.391    76.625346     243.2623 
   26100    107.91809   -846.74032    89293.278   -21825.409    1614.8503   -23440.259    76.770221    239.71186 
   26150    107.35988   -471.05236    89304.926   -21803.421    1606.4974   -23409.918    76.683128    238.47194 
   26200    111.21372   -698.94033    89321.819     -21786.2     1664.165   -23450.365    76.812822    247.03225 
   26250     109.2206   -518.14094    89389.032   -21838.805    1634.3406   -23473.146    77.119714    242.60504 
   26300    105.75573   -760.64126    89470.854   -21829.964    1582.4935   -23412.457    77.220562    234.90876 
   26350    110.52418   -804.53639    89414.941   -21833.204    1653.8469   -23487.051    77.202703    245.50061 
   26400    107.87463    -1030.661    89398.497   -21831.094    1614.1999   -23445.294    77.107766    239.61532 
   26450    105.15186   -906.69072    89418.221   -21837.689    1573.4574   -23411.146    77.045795    233.56741 
   26500    109.33279   -867.37536    89435.809   -21858.111    1636.0194    -23494.13    77.203016    242.85424 
   26550    106.86952   -1097.4808    89432.971   -21880.378    1599.1598   -23479.538    77.148569    237.38273 
   26600    108.02833   -779.58409    89427.218   -21881.667    1616.4999   -23498.167    77.410778    239.95674 
   26650    106.12799   -879.82434    89395.108   -21890.833    1588.0639   -23478.897    77.470102    235.73563 
   26700    108.75423   -778.54633    89444.353   -21842.689     1627.362   -23470.051    77.614758    241.56913 
   26750    107.71761   -739.09518    89494.862   -21880.389    1611.8503   -23492.239     77.46585    239.26654 
   26800    106.97663    -916.7726    89534.593   -21858.161    1600.7626   -23458.923    77.498666    237.62065 
   26850    107.98322   -1050.4424    89551.922   -21832.633    1615.8249   -23448.458    77.612966    239.85653 
   26900    108.65751     -802.868    89550.072    -21813.65    1625.9148   -23439.565    78.007463     241.3543 
   26950    108.02447   -682.09959    89581.012   -21817.009    1616.4422   -23433.451    78.252011    239.94817 
   27000     107.7032   -1045.7663    89526.286   -21837.473    1611.6348   -23449.107    78.095526    239.23454 
   27050    107.67075   -557.16187    89553.293   -21840.322    1611.1492   -23451.471    78.020357    239.16247 
   27100    106.84306   -1223.9764    89562.131   -21804.069    1598.7639   -23402.833    78.288714    237.32396 
   27150    107.83419   -564.55264    89588.069   -21838.909    1613.5949   -23452.504    78.423866     239.5255 
   27200    105.83941   -790.24939    89536.475   -21828.361    1583.7457   -23412.107    78.470055    235.09463 
   27250      108.836   -918.06659    89553.156   -21838.146    1628.5855   -23466.731    78.527454    241.75075 
   27300    106.37251    -832.0426     89512.91   -21852.684    1591.7227   -23444.407    78.697666    236.27875 
   27350    109.45128   -744.24427    89447.216   -21841.111    1637.7925   -23478.904    78.919567    243.11746 
   27400    110.60359   -1168.0253    89381.451   -21839.829    1655.0353   -23494.864    79.311475    245.67701 
   27450    108.07225   -769.28372    89351.661   -21864.726    1617.1572   -23481.883    79.549068     240.0543 
   27500    107.78412   -713.25007    89423.311   -21857.811    1612.8456   -23470.657    79.732862    239.41428 
   27550    107.33687   -930.06607    89442.991   -21858.119    1606.1532   -23464.272    79.928426    238.42084 
   27600    107.65777   -755.10463    89402.534   -21858.931    1610.9549   -23469.886     79.81853    239.13363 
   27650    107.51859   -990.82759    89411.739   -21846.409    1608.8723   -23455.282    79.851078    238.82448 
   27700    106.83581   -1310.2248    89451.252   -21840.999    1598.6554   -23439.654    80.011223    237.30786 
   27750     108.6001   -581.60469    89439.476   -21795.367    1625.0556   -23420.423    80.156028    241.22676 
   27800    107.74293   -799.51115    89492.659   -21783.057    1612.2292   -23395.286    80.729964    239.32278 
   27850    110.79625   -689.53105    89646.538   -21793.895    1657.9182   -23451.813    80.714197    246.10495 
   27900    107.29964   -858.86182    89724.272   -21815.732     1605.596   -23421.328    80.635777    238.33814 
   27950    111.14823   -747.52314    89767.565   -21809.706     1663.185   -23472.891    80.990383    246.88677 
   28000    106.07518   -832.86311    89771.461   -21806.275    1587.2737   -23393.548     81.08909    235.61833 
   28050    108.14896   -1057.3811    89687.588    -21809.28     1618.305   -23427.585    81.014633    240.22468 
   28100    111.15379   -888.57348    89668.039   -21840.847    1663.2682   -23504.115    80.932885    246.89913 
   28150    108.09684   -1178.3984    89641.615   -21803.225     1617.525    -23420.75    80.988566     240.1089 
   28200     109.8694    -823.9593     89566.32   -21795.004    1644.0491   -23439.053    81.081719    244.04619 
   28250    108.37086    -1095.237    89512.335   -21795.484    1621.6254    -23417.11    81.548692    240.71757 
   28300    108.38363   -1030.1979     89487.53   -21793.047    1621.8165   -23414.864     81.85283    240.74593 
   28350    108.32838   -833.54658    89440.675       -21806    1620.9897   -23426.989    81.953938    240.62321 
   28400     108.9333   -747.22811     89436.73   -21803.118    1630.0416   -23433.159    81.951136    241.96689 
   28450    108.49093   -1027.6152    89376.486   -21806.308    1623.4221    -23429.73    82.287241    240.98428 
   28500    108.33099   -593.84649    89391.055   -21827.807    1621.0287   -23448.836     82.42105      240.629 
   28550    106.82361   -1059.3049    89393.167   -21853.723    1598.4729   -23452.196    82.347539    237.28076 
   28600    106.03094   -1007.9775    89311.459   -21802.706    1586.6117   -23389.318    82.392531    235.52006 
   28650    107.10935   -1090.4263    89290.911   -21802.198    1602.7485   -23404.947     82.75272    237.91545 
   28700    110.64838   -1057.5392    89274.353   -21795.729    1655.7055   -23451.435    82.917577    245.77649 
   28750    106.82192   -1068.5869    89286.256   -21832.774    1598.4476   -23431.222    83.220693    237.27701 
   28800     105.6885   -994.43442     89321.26    -21834.77    1581.4875   -23416.258    83.303158    234.75942 
   28850    104.99448   -803.60113    89332.988   -21852.602    1571.1024   -23423.705    83.259657    233.21783 
   28900    106.28125   -1027.5578    89330.749   -21860.071    1590.3571   -23450.428    83.278602    236.07604 
   28950    105.48329   -915.81605    89231.118   -21838.009    1578.4168   -23416.426    83.355192    234.30359 
   29000    109.11166   -968.73655    89224.115    -21818.25    1632.7105   -23450.961    83.228639    242.36307 
   29050    108.25281   -1052.9058    89171.949   -21771.871    1619.8589    -23391.73    83.614479    240.45535 
   29100    111.36586   -856.54319    89124.217   -21759.807    1666.4415   -23426.249    83.771897    247.37018 
   29150    112.18419   -781.46763    89121.152    -21775.69    1678.6868   -23454.376    83.690484    249.18789 
   29200    108.14838   -1127.0097    89171.147   -21778.704    1618.2963       -23397    83.790767    240.22339 
   29250    109.12252   -901.39513    89079.495    -21793.76    1632.8729   -23426.633    83.969961    242.38718 
   29300    108.54606   -723.13805    89020.221    -21778.09     1624.247   -23402.337    84.107082    241.10674 
   29350    113.92762   -739.11268    89053.624   -21755.196     1704.775   -23459.971    84.295684    253.06048 
   29400    111.51702    -899.2569    89036.511   -21737.344    1668.7035   -23406.048    84.467458    247.70595 
   29450    109.04464   -617.33909    89083.824   -21728.075    1631.7076   -23359.783    84.620246    242.21419 
   29500    113.84487   -724.53668    89065.213   -21724.156    1703.5366   -23427.693    84.795086    252.87665 
   29550    109.13958   -579.52789    89036.627    -21693.99    1633.1282   -23327.118    84.962198    242.42508 
   29600    106.71267   -680.97015    89070.521   -21750.924    1596.8129   -23347.737    85.142976    237.03435 
   29650    110.72746   -734.01884    89115.125   -21737.692    1656.8887    -23394.58    85.440234    245.95214 
   29700    109.15755    -613.3261    89151.113   -21767.687    1633.3972   -23401.084    85.588318      242.465 
   29750    109.24192   -583.89488    89157.013   -21797.138    1634.6597   -23431.798    85.865154    242.65241 
   29800    106.42677    -937.4996    89120.703   -21852.739    1592.5347   -23445.274    85.877794    236.39929 
   29850     106.4933   -725.71557     89070.62   -21843.521    1593.5302   -23437.051    86.118485    236.54706 
   29900    107.60071     -673.612    89068.101   -21814.428    1610.1012   -23424.529    86.554424     239.0069 
   29950    107.44258   -879.36037    89068.613   -21806.666     1607.735   -23414.401    86.601485    238.65565 
   30000    107.54068   -1088.9861    88966.869    -21812.33    1609.2028   -23421.533    86.685017    238.87354 
   30050    106.59129   -928.28897    88929.937   -21835.621    1594.9966   -23430.618    86.868574    236.76473 
   30100    106.02224    -755.5489    88918.868   -21815.953    1586.4815   -23402.434    86.941994    235.50074 
   30150    103.80888   -524.86997    88973.038   -21832.386    1553.3614   -23385.747    87.273032    230.58432 
   30200    105.22628   -751.54771    89016.205   -21830.352    1574.5709   -23404.923    87.614329    233.73271 
   30250    106.89776   -789.22193    89069.981   -21812.933    1599.5824   -23412.515    87.649791    237.44546 
   30300    107.81738   -863.77841    89038.421   -21814.551    1613.3432   -23427.894    87.879723    239.48815 
   30350    109.82886   -664.27555    89038.642   -21793.273    1643.4424   -23436.715    88.133679    243.95614 
   30400    108.12128   -931.89108    89012.736   -21809.636    1617.8908   -23427.527    88.414275     240.1632 
   30450    106.35863    -849.6303    89009.847   -21783.056    1591.5151   -23374.572    88.749889    236.24794 
   30500    107.17447   -824.88424    88983.765   -21799.854    1603.7231   -23403.577    88.700711    238.06012 
   30550    107.93746   -1107.2465    88947.203   -21810.232    1615.1401   -23425.372    88.713108    239.75488 
   30600    105.87083    -527.9816    88952.424   -21814.135    1584.2158    -23398.35    88.998622     235.1644 
   30650      107.713   -601.94946    89023.792   -21819.638    1611.7814   -23431.419    89.331021    239.25631 
   30700    106.53613    -1105.862    89059.395   -21796.407    1594.1711   -23390.578    89.347342     236.6422 
   30750    108.75352   -842.08118    89022.178   -21836.476    1627.3513   -23463.827    89.425533    241.56754 
   30800     104.4343   -882.92297    89074.655   -21811.849    1562.7201   -23374.569     89.76255    231.97354 
   30850    105.48597   -414.59622    89118.972   -21805.282    1578.4569   -23383.739    89.891764    234.30955 
   30900    108.32787   -782.37172    89165.518   -21803.078    1620.9821    -23424.06    89.951584    240.62208 
   30950    106.91599   -854.05075    89153.351   -21799.319    1599.8552   -23399.174    90.286115    237.48596 
   31000     104.7054   -845.65923    89227.802   -21834.324    1566.7766   -23401.101     90.63593     232.5757 
   31050    105.37904   -914.55995    89266.668   -21779.973    1576.8567    -23356.83    91.204294    234.07202 
   31100     107.5788   -780.88456    89329.671   -21783.676    1609.7733   -23393.449    90.955448    238.95822 
   31150    108.56869   -679.43747    89421.187   -21729.616    1624.5857   -23354.202     91.14277      241.157 
   31200    109.07521   -806.69575    89434.442   -21737.253    1632.1651   -23369.418    91.333895    242.28211 
   31250    107.67866   -941.36605    89438.071   -21773.379    1611.2675   -23384.647    91.391405    239.18003 
   31300    109.99788   -873.34589    89360.135   -21734.622    1645.9716   -23380.594    91.628763    244.33157 
   31350    108.35132   -944.72422    89243.032   -21783.209     1621.333   -23404.542    91.796148    240.67416 
   31400    109.47271   -941.07095    89203.273    -21743.33    1638.1131   -23381.443    91.761086    243.16504 
   31450    107.93218   -909.97802    89179.589   -21732.616    1615.0612   -23347.677    91.681482    239.74316 
   31500    109.07893   -548.97454    89212.458   -21710.711    1632.2207   -23342.932    91.823804    242.29036 
   31550    110.71827   -732.13272     89292.82   -21744.052    1656.7512   -23400.803    91.655814    245.93172 
   31600    106.31529   -1181.2804    89199.401   -21766.491    1590.8665   -23357.357    91.836549    236.15165 
   31650      107.295    -754.2208    89119.482   -21743.287    1605.5266   -23348.813    92.128775    238.32784 
   31700    109.02449   -1053.5163    89078.409   -21746.105    1631.4061   -23377.511    92.257108    242.16944 
   31750    107.89577   -956.24532     88986.43   -21771.238    1614.5163   -23385.754    92.395791    239.66229 
   31800    107.50843    -784.5732    88989.361   -21778.766    1608.7203   -23387.486    92.811512    238.80192 
   31850    108.74981   -549.17036    89084.474   -21753.952    1627.2959   -23381.248    93.299609    241.55932 
   31900    108.72544   -816.08261    89118.891   -21727.685    1626.9312   -23354.616    93.452371    241.50518 
   31950    107.36799    -630.2328    89218.785   -21742.752    1606.6188    -23349.37    93.476082    238.48995 
   32000     107.6606   -856.93055    89259.409     -21730.5    1610.9973   -23341.498    93.555062    239.13992 
   32050    109.57264   -456.49798    89292.951   -21724.387    1639.6084   -23363.995    93.729014    243.38701 
   32100    107.54177   -1028.7017    89326.175   -21727.278    1609.2191   -23336.497     93.79346    238.87596 
   32150    110.06439   -590.94766    89357.365   -21718.673    1646.9668    -23365.64    93.931968     244.4793 
   32200    110.01179   -633.53032    89456.207   -21700.566    1646.1798   -23346.746    94.025215    244.36248 
   32250    109.99064   -747.10343    89469.228   -21726.609    1645.8633   -23372.472    94.054468    244.31549 
   32300    107.27364   -955.87778    89463.028   -21741.803    1605.2069    -23347.01    93.978013    238.28038 
   32350    107.87085   -1050.6976    89484.169    -21749.01    1614.1435   -23363.154    94.219686    239.60694 
   32400    109.76211   -857.86226    89515.862   -21743.572    1642.4436   -23386.015    94.538611    243.80788 
   32450    108.86461   -840.13364    89501.555   -21692.803    1629.0137   -23321.817    94.356226    241.81431 
   32500    109.39487   -721.94976     89535.86   -21705.722    1636.9483    -23342.67      94.4012    242.99214 
   32550    109.91861   -1112.9823    89565.728   -21746.867    1644.7854   -23391.652    94.534521     244.1555 
   32600    108.84783   -893.08093    89526.611     -21771.7    1628.7627   -23400.463    94.653209    241.77705 
   32650    106.30253   -736.55027    89537.417   -21812.073    1590.6757   -23402.749    94.637562    236.12333 
   32700      108.567   -834.59653    89566.936   -21801.691    1624.5603   -23426.251    94.761903    241.15324 
   32750    108.27324   -896.97984    89526.745   -21830.469    1620.1646   -23450.633       94.688    240.50073 
   32800    112.12663   -930.67812    89511.418   -21791.346    1677.8255   -23469.172    95.054999    249.06003 
   32850    110.69967   -875.23223     89497.92   -21826.118    1656.4729   -23482.591    94.893116    245.89041 
   32900    110.47394   -902.13644    89490.147   -21835.618    1653.0951   -23488.713    95.146771    245.38901 
   32950    110.25843    -882.4452    89487.461   -21826.037    1649.8703   -23475.908    95.415207    244.91031 
   33000    109.27646   -980.75035    89428.192   -21813.417    1635.1765   -23448.594     95.83211    242.72912 
   33050       108.79    -909.4538    89352.054   -21810.333    1627.8973   -23438.231    95.765226    241.64859 
   33100     111.1686   -784.57114    89337.898   -21783.106    1663.4899   -23446.596    95.699914    246.93202 
   33150    107.57048   -929.42827    89303.461   -21738.435    1609.6488   -23348.083     96.01751    238.93975 
   33200    106.36783   -779.74243    89233.261   -21724.361    1591.6528   -23316.014    95.888049    236.26838 
   33250    109.05807   -978.53091    89232.751   -21708.813    1631.9086   -23340.721    95.825368    242.24403 
   33300    109.81469   -583.97135    89212.063    -21713.44    1643.2305   -23356.671    96.344807    243.92467 
   33350     107.3597   -809.99168    89259.568   -21724.715    1606.4947    -23331.21    96.655306    238.47154 
   33400    108.36871   -1019.8229     89241.34   -21747.498    1621.5932   -23369.091    96.984075     240.7128 
   33450    110.41152   -910.79713    89172.773    -21714.15    1652.1612   -23366.312    96.968315    245.25038 
   33500    110.84062    -692.1208    89181.785   -21698.664    1658.5821   -23357.246    97.318971    246.20351 
   33550    108.44952   -822.97015    89165.208   -21742.958    1622.8024   -23365.761    97.562082    240.89229 
   33600    107.98657   -531.30282    89175.999   -21732.664     1615.875   -23348.539    97.581526    239.86397 
   33650    106.26938   -1014.9352    89149.274   -21731.187    1590.1796   -23321.367    97.582753    236.04969 
   33700     104.6648   -878.82886    89146.852    -21754.76    1566.1692   -23320.929     97.74938    232.48553 
   33750    107.54779   -632.12407    89153.774   -21759.093    1609.3092   -23368.403    97.967222    238.88933 
   33800    108.14733   -1001.4482    89153.895   -21740.643    1618.2805   -23358.924    98.454304    240.22105 
   33850    108.11856   -951.67174    89070.926   -21710.988      1617.85   -23328.838    98.480818    240.15715 
   33900    110.66285   -783.20278    89048.349   -21729.606     1655.922   -23385.528      98.5252    245.80863 
   33950    108.53331    -938.6962     89062.65    -21736.83    1624.0563   -23360.886    98.572049    241.07842 
[...]
   92000    110.53888   -922.48291    89565.429   -21800.792     1654.067   -23454.859    259.29557    245.53327 
   92050    108.61824   -795.04208    89547.741   -21804.104    1625.3271   -23429.432    258.78612    241.26706 
   92100     109.3619   -819.82516     89512.39   -21801.879     1636.455   -23438.334    258.73564    242.91891 
   92150    104.50691   -1016.1265    89563.476   -21850.933    1563.8065   -23414.739      258.964    232.13481 
   92200    109.61863   -776.27844    89603.172    -21827.77    1640.2967   -23468.066    259.47656    243.48918 
   92250    111.70364   -482.45854    89603.143   -21799.226     1671.496   -23470.722    259.84191    248.12047 
   92300     108.1649   -887.65528    89589.696    -21834.28    1618.5436   -23452.824    259.73989     240.2601 
   92350    111.08835   -853.24593    89585.748   -21786.592     1662.289   -23448.881    260.48013    246.75376 
   92400    109.81859    -875.7561    89587.149   -21799.275    1643.2888   -23442.563    260.23965    243.93333 
   92450    109.14643   -791.49893    89605.914   -21823.363    1633.2307   -23456.594    260.23922    242.44029 
   92500    106.34391    -727.2658    89650.554   -21818.985    1591.2948    -23410.28    260.33697    236.21523 
   92550    108.69747   -907.80234    89659.206   -21820.477    1626.5127    -23446.99    260.36833    241.44305 
   92600    110.06806   -884.49424    89601.059   -21791.014    1647.0218   -23438.036    259.95247    244.48747 
   92650    107.82559   -877.54492    89668.882   -21802.348    1613.4661   -23415.814    260.16023    239.50639 
   92700    112.49013   -672.25924    89681.747   -21801.403    1683.2648   -23484.668    260.32571    249.86746 
   92750    109.12699   -606.85264    89664.827   -21838.632    1632.9399   -23471.572    260.05711    242.39713 
   92800    105.24121    -856.2874    89711.807    -21879.15    1574.7944   -23453.944    260.63051    233.76587 
   92850    110.51873   -1030.5556    89691.687   -21849.351    1653.7655   -23503.116      261.176    245.48851 
   92900     109.2868   -761.96093    89697.225   -21846.489    1635.3313    -23481.82    261.40947     242.7521 
   92950      106.125   -930.50199    89659.341   -21864.545    1588.0192   -23452.564     261.1249    235.72899 
   93000    107.06143   -814.32108    89599.221    -21853.02    1602.0316   -23455.051    261.16137    237.80903 
   93050    106.14618   -917.97299    89583.383   -21841.392     1588.336   -23429.728    261.67974    235.77602 
   93100    107.65959   -1012.4572    89590.724   -21827.833    1610.9822   -23438.815    261.42027    239.13767 
   93150    109.71324   -763.17461      89573.8    -21853.36    1641.7124   -23495.072    261.68851    243.69933 
   93200    107.12982   -723.10433    89644.956   -21871.758    1603.0549   -23474.813    261.91473    237.96093 
   93250    107.97737   -990.31454    89652.443   -21877.812    1615.7374    -23493.55    262.17049    239.84355 
   93300    108.27106   -801.62231    89622.467   -21891.173     1620.132   -23511.305    262.66731    240.49589 
   93350    106.41285   -706.74104    89601.579   -21887.842    1592.3264   -23480.168    262.54177    236.36837 
   93400    106.43352   -878.57368     89586.97   -21906.733    1592.6357   -23499.369    263.20869    236.41428 
   93450    107.18717   -744.38612    89613.248    -21906.53     1603.913   -23510.443    263.39383    238.08831 
   93500    106.51345   -1101.9403    89576.959   -21926.187    1593.8317   -23520.019    263.37866    236.59182 
   93550    104.48379   -744.66579    89494.639   -21936.455    1563.4605   -23499.916    263.15207    232.08346 
   93600    105.54346   -895.73348    89450.031   -21949.143    1579.3171    -23528.46    264.08315    234.43724 
   93650    107.28557   -755.54303    89496.969   -21944.249    1605.3854   -23549.635    263.70092    238.30688 
   93700    106.86806   -869.82263    89521.034   -21926.879     1599.138   -23526.017    263.36829    237.37949 
   93750    105.41193   -490.48427    89521.412   -21927.756    1577.3489   -23505.105    263.71763    234.14508 
   93800    106.37603   -810.44281    89512.492   -21950.373    1591.7755   -23542.148    263.91826    236.28658 
   93850    105.67784   -714.35464    89458.469   -21934.074    1581.3279   -23515.402    264.30865    234.73573 
   93900     109.7527   -798.11989    89466.584   -21902.137    1642.3028    -23544.44      264.878    243.78697 
   93950    106.95506   -802.26484    89436.746   -21925.627    1600.4398   -23526.067    265.10308    237.57274 
   94000    107.09105   -1042.8404    89456.641   -21908.656    1602.4748   -23511.131    265.77312    237.87482 
   94050    107.03621   -835.85337     89445.35   -21873.538    1601.6541   -23475.192     266.1682      237.753 
   94100    108.37554   -825.73688    89360.885   -21878.148    1621.6954   -23499.843    266.26721    240.72796 
   94150    105.18525     -807.139    89391.897   -21883.304     1573.957   -23457.261    266.09655    233.64157 
   94200    107.15314    -777.4353    89365.459   -21880.784    1603.4038   -23484.188    265.70332    238.01272 
   94250    106.50447   -844.15366    89404.026   -21894.102    1593.6974     -23487.8    265.89642    236.57188 
   94300    106.17624    -830.2815    89443.215   -21921.695    1588.7859    -23510.48    266.36372     235.8428 
   94350    107.77461   -707.74924    89405.362   -21941.496    1612.7034   -23554.199     266.0264    239.39317 
   94400     106.0375   -680.65779    89420.724   -21978.526    1586.7098   -23565.236    266.55669    235.53462 
   94450    108.09988   -611.64327    89430.734   -21959.275    1617.5705   -23576.845    266.57316    240.11566 
   94500    106.15362   -587.32976    89492.594   -21938.746    1588.4473   -23527.193    266.48176    235.79255 
   94550    108.24221   -976.20019    89464.194   -21910.994    1619.7004   -23530.695    266.33159    240.43182 
   94600    106.68553   -785.69868    89398.177    -21912.29    1596.4067   -23508.697    266.69036    236.97406 
   94650    111.04727   -910.34523    89374.583   -21888.812    1661.6743   -23550.486     266.7133    246.66252 
   94700    105.73491   -758.97807    89435.349   -21894.882     1582.182   -23477.064     266.3455    234.86251 
   94750    109.87717   -781.16589    89479.478   -21903.993    1644.1653   -23548.158    266.76983    244.06345 
   94800     105.8921    -891.4662    89500.572   -21931.634    1584.5341   -23516.168     266.8126    235.21166 
   94850    106.62852   -935.09217    89597.386   -21910.481    1595.5536   -23506.034    267.22569    236.84742 
   94900    107.56324   -625.61783    89574.987   -21893.729    1609.5404    -23503.27     267.2149    238.92365 
   94950    106.82185   -898.91186     89526.46   -21941.381    1598.4466   -23539.827      267.353    237.27686 
   95000    105.29592   -759.55904    89592.044   -21953.504     1575.613   -23529.117    267.28102     233.8874 
   95050    107.00883   -889.91515    89600.316   -21941.095    1601.2444    -23542.34    267.44553    237.69218 
   95100    106.11563   -843.46445    89700.166   -21906.509    1587.8789   -23494.388    267.41173    235.70817 
   95150    104.61003   -826.93465    89750.392   -21892.168    1565.3496   -23457.517    267.54402    232.36387 
   95200    107.39305   -747.35735      89703.5   -21868.914    1606.9938   -23475.907    267.74713    238.54563 
   95250    106.63664   -1196.6254    89595.723   -21910.001    1595.6751   -23505.676    267.59944    236.86546 
   95300    106.37773   -922.94002    89542.785    -21911.15    1591.8008   -23502.951    267.44266    236.29035 
   95350    107.24618   -556.01459    89620.191   -21865.828     1604.796   -23470.624    267.17905    238.21938 
   95400    107.41832    -1011.369    89650.523   -21837.384    1607.3719   -23444.756    267.49871    238.60175 
   95450    108.44008   -900.15473    89665.777   -21833.075    1622.6612   -23455.736    267.67573    240.87132 
   95500    107.56429   -706.71069    89669.659   -21853.749    1609.5561   -23463.305    267.74841    238.92599 
   95550    107.14014   -705.54278    89722.372   -21856.492    1603.2093   -23459.701    268.31865    237.98385 
   95600     109.0011   -891.29049    89752.318   -21840.055    1631.0561   -23471.111    268.21148    242.11748 
   95650    107.89474   -1010.7785     89716.08   -21826.774    1614.5008   -23441.275    268.27449    239.65999 
   95700     107.2382   -790.46937    89724.809   -21811.097    1604.6766   -23415.773    268.35357    238.20166 
   95750    109.68248   -981.15451     89598.62    -21809.04     1641.252   -23450.292    268.41896    243.63099 
   95800    106.34969   -673.78125    89562.421    -21799.46    1591.3813   -23390.841    268.50257    236.22807 
   95850    108.84307   -846.02526    89588.713   -21821.968    1628.6914   -23450.659     268.6656    241.76647 
   95900    110.96322   -551.03284    89655.679   -21792.278    1660.4165   -23452.694    268.88565    246.47581 
   95950    111.70429   -854.27898    89688.069   -21773.543    1671.5058   -23445.049    269.16147    248.12192 
   96000    111.20842   -999.58915    89653.676   -21757.933    1664.0858   -23422.019    269.31417    247.02048 
   96050    111.07577   -954.12826    89606.357   -21767.163    1662.1008   -23429.264    269.27677    246.72582 
   96100    106.82185   -1042.7969    89569.225   -21795.796    1598.4465   -23394.242    269.19174    237.27684 
   96150     108.0662   -687.77772    89560.674   -21800.527    1617.0666   -23417.593    269.37074    240.04086 
   96200    110.84585   -1072.9643    89598.837   -21766.846    1658.6604   -23425.506    269.22222    246.21513 
   96250    109.24155   -871.18547    89637.435   -21786.726    1634.6541    -23421.38    269.25525    242.65158 
   96300    109.94421   -953.81088    89649.217   -21757.807    1645.1685   -23402.975    269.66005    244.21236 
   96350    105.76217   -666.01697     89642.37   -21755.928    1582.5898   -23338.518    269.41007    234.92305 
   96400    107.27008   -767.17795    89700.739   -21803.704    1605.1538   -23408.858    269.53867    238.27249 
   96450      104.207   -729.16016    89700.011   -21873.611    1559.3188   -23432.929    269.85269    231.46864 
   96500     102.3263   -1198.2051    89703.214   -21904.319    1531.1767   -23435.496    270.20485    227.29117 
   96550    105.54752   -948.06731    89633.805   -21842.028    1579.3779   -23421.406    270.41568    234.44627 
   96600     106.7228   -786.20442    89626.593    -21826.25    1596.9643   -23423.215    270.53498    237.05683 
   96650    106.34715   -883.76795    89586.388   -21797.246    1591.3433   -23388.589    270.86055    236.22243 
   96700    107.40399   -1007.3499    89618.979   -21785.069    1607.1575   -23392.227    271.02261    238.56993 
   96750    109.17817    -1011.213    89535.688   -21765.978    1633.7058   -23399.684    271.05377    242.51081 
   96800    107.47757   -1228.4123    89485.291   -21812.262    1608.2586   -23420.521    271.08611    238.73337 
   96850    106.91319   -979.27921    89416.091   -21826.188    1599.8133   -23426.002    271.44504    237.47974 
   96900    106.52847   -1058.5004    89332.529   -21819.921    1594.0565   -23413.978    271.50545    236.62519 
   96950    105.37743   -1031.9504    89261.899   -21871.494    1576.8328   -23448.327    271.81631    234.06846 
   97000    109.42163   -959.96662    89248.944   -21837.582    1637.3488   -23474.931    272.19609    243.05159 
   97050    108.16631   -732.23777    89265.872   -21845.471    1618.5645   -23464.035    272.23403    240.26321 
   97100    110.00361    -835.8801    89274.367    -21827.27    1646.0574   -23473.327    272.49608    244.34431 
   97150    108.91377   -876.82718    89210.083   -21809.643    1629.7493   -23439.393    272.16452     241.9235 
   97200    108.34376   -789.13253     89193.74   -21822.646    1621.2198   -23443.866    272.05871    240.65737 
   97250    110.27313   -766.87828     89161.29   -21817.403    1650.0903   -23467.494    271.99873    244.94296 
   97300     109.9046   -618.65926    89177.918   -21795.568    1644.5758   -23440.144    272.48537    244.12438 
   97350    109.17883   -613.26276    89196.431   -21826.998    1633.7155   -23460.714     272.6794    242.51226 
   97400    106.24585   -750.45024    89279.065   -21846.675    1589.8275   -23436.503    272.65288    235.99743 
   97450    105.46415   -736.39712    89331.631   -21821.506    1578.1304   -23399.636    272.95282    234.26108 
   97500    107.97732   -398.27735    89348.341   -21845.202    1615.7367   -23460.939    272.98666    239.84344 
   97550    110.14598   -546.15904    89433.716   -21812.043    1648.1877   -23460.231    273.62953    244.66053 
   97600    110.58305   -831.44526     89432.14   -21809.616    1654.7279   -23464.344    273.90634    245.63138 
   97650    109.52879   -595.78584    89452.265   -21790.062    1638.9522   -23429.014    274.04261     243.2896 
   97700      112.386   -577.69779    89483.892   -21806.806    1681.7066   -23488.512    274.43291    249.63616 
   97750    109.71961   -736.26633    89477.234   -21863.764    1641.8076   -23505.572    274.75327    243.71346 
   97800    111.09399   -784.98799    89509.791   -21831.533    1662.3733   -23493.906    274.84471    246.76629 
   97850    103.99599   -798.00446    89552.134   -21855.396    1556.1614   -23411.557    274.70491    230.99995 
   97900    107.25253   -778.03249    89543.382   -21868.847    1604.8911   -23473.738    274.92853    238.23349 
   97950    109.90775    -1073.471    89580.055   -21855.526     1644.623   -23500.149    274.55731    244.13138 
   98000    105.94554   -992.58894    89576.491   -21879.549    1585.3337   -23464.882    274.63891    235.33035 
   98050    107.05783   -1110.7054     89567.38    -21893.29    1601.9776   -23495.267    274.54403    237.80101 
   98100    107.07014   -1045.1586     89509.09   -21894.543    1602.1619   -23496.705    274.98413    237.82836 
   98150    106.13874    -946.4208    89496.498   -21881.213    1588.2247   -23469.437    275.40263     235.7595 
   98200    105.62755   -1010.4097    89536.741   -21874.934    1580.5754   -23455.509    275.04087    234.62402 
   98250    106.95182   -871.51725    89571.192   -21867.959    1600.3914    -23468.35    275.22263    237.56556 
   98300    107.09747   -940.31638    89566.724    -21839.03    1602.5708   -23441.601    275.43531    237.88907 
   98350    106.04909   -823.33388    89570.487    -21870.24    1586.8832   -23457.123    275.70804    235.56037 
   98400    105.31052   -915.87399    89577.729   -21870.753    1575.8315   -23446.585    275.66527    233.91983 
   98450    105.87181   -711.79979    89547.861   -21846.413    1584.2304   -23430.643    275.87402    235.16658 
   98500    107.22799   -649.10083    89571.192   -21860.905    1604.5239   -23465.429     276.0752      238.179 
   98550    105.55066     -686.192    89594.749   -21845.596    1579.4249   -23425.021    275.80136    234.45323 
   98600    109.34584   -1047.7237    89551.174    -21813.16    1636.2146   -23449.374    275.64437    242.88323 
   98650    111.37032   -738.06563     89541.53   -21786.199    1666.5083   -23452.707    275.94099    247.38009 
   98700    111.10144   -846.46682    89588.199   -21758.109    1662.4849   -23420.594    276.83301    246.78285 
   98750    108.39466   -613.78436    89632.663   -21793.196    1621.9815   -23415.177    276.97491    240.77044 
   98800    109.96724   -645.16582    89734.545   -21766.179    1645.5131   -23411.692    277.24264    244.26351 
   98850     108.3101   -525.10147    89776.101   -21763.437    1620.7162   -23384.153    277.52578    240.58261 
   98900     110.5994   -809.81552    89716.309    -21743.45    1654.9725   -23398.423    277.19052     245.6677 
   98950    110.21297   -781.11767    89664.368   -21768.288    1649.1901   -23417.479    277.50859    244.80933 
   99000    109.35869   -832.93406    89695.997   -21781.656     1636.407   -23418.063    277.57628    242.91178 
   99050    109.37009   -955.16075    89607.115   -21787.103    1636.5775   -23423.681    277.70492     242.9371 
   99100    107.36902   -729.48535    89565.878   -21839.162    1606.6342   -23445.796    278.12632    238.49225 
   99150    107.00168   -750.70988    89634.685   -21806.448    1601.1374   -23407.586     278.3091    237.67629 
   99200    106.24028   -762.36339    89692.451   -21826.842    1589.7441   -23416.586    278.44992    235.98505 
   99250    106.34162   -778.31908    89703.289   -21857.522    1591.2605   -23448.782    278.84451    236.21015 
   99300    105.93707   -741.12135     89736.27   -21913.617     1585.207   -23498.824    278.80414    235.31155 
   99350    104.89214   -1122.5668     89718.67   -21898.998    1569.5709   -23468.569      278.781     232.9905 
   99400    105.51694    -1063.821    89641.557   -21924.899    1578.9202   -23503.819    278.56772    234.37833 
   99450     106.9746   -865.36751    89606.658   -21908.581    1600.7322   -23509.314    279.11131    237.61614 
   99500    103.52822   -877.60035    89639.331    -21870.13    1549.1618   -23419.292    278.56789    229.96092 
   99550    105.98838   -893.78714    89619.459   -21818.171    1585.9747   -23404.146    278.65881    235.42551 
   99600    105.95426   -723.71293    89590.855   -21823.659    1585.4642   -23409.124    278.75065    235.34972 
   99650    108.70257   -888.83521    89527.784   -21793.951    1626.5889    -23420.54    279.06118    241.45437 
   99700    107.97896   -768.20652    89507.754   -21762.813    1615.7612   -23378.574    279.27974    239.84708 
   99750    109.90104   -498.25798    89588.423   -21765.272    1644.5224   -23409.794    279.18652    244.11646 
   99800    111.31019   -876.95665    89683.854   -21809.898    1665.6085   -23475.506    279.23188    247.24652 
   99850    111.79589   -619.15722    89684.985   -21736.912    1672.8764   -23409.789    279.69479    248.32538 
   99900    110.53418   -710.69701    89662.415   -21734.158    1653.9966   -23388.154    279.87487    245.52283 
   99950    110.25933   -796.19353    89644.341   -21761.111    1649.8839   -23410.995    280.15377    244.91233 
  100000    110.59976    -593.6652     89603.75   -21767.198    1654.9779   -23422.176    280.34101    245.66849 
Loop time of 43.5621 on 80 procs for 100000 steps with 5021 atoms

Performance: 991.688 ns/day, 0.024 hours/ns, 2295.574 timesteps/s
100.0% CPU use with 80 MPI tasks x no OpenMP threads

MPI task timing breakdown:
Section |  min time  |  avg time  |  max time  |%varavg| %total
---------------------------------------------------------------
Pair    | 6.19       | 18.138     | 25.437     | 174.6 | 41.64
Neigh   | 0.46718    | 1.2103     | 3.3413     |  93.6 |  2.78
Comm    | 10.298     | 17.301     | 28.986     | 170.3 | 39.72
Output  | 0.1206     | 0.12454    | 0.28982    |   5.3 |  0.29
Modify  | 4.1761     | 5.891      | 7.3132     |  38.0 | 13.52
Other   |            | 0.8974     |            |       |  2.06

Nlocal:    62.7625 ave 144 max 31 min
Histogram: 59 1 0 0 0 0 0 0 5 15
Nghost:    672.362 ave 833 max 387 min
Histogram: 20 0 0 0 0 0 0 38 2 20
Neighs:    0 ave 0 max 0 min
Histogram: 80 0 0 0 0 0 0 0 0 0
FullNghs:  5935.35 ave 18738 max 1164 min
Histogram: 60 0 0 0 0 0 0 0 0 20

Total # of neighbors = 474828
Ave neighs/atom = 94.5684
Neighbor list builds = 5763
Dangerous builds = 0

write_data		${DIR}/data.eq-${NAME}-${TEMP}
write_data		run_9/data.eq-${NAME}-${TEMP}
write_data		run_9/data.eq-het_freeze_9-${TEMP}
write_data		run_9/data.eq-het_freeze_9-240
undump          1

reset_timestep  0

unfix           2
unfix           3
unfix           4


################################################
#######         Run Simulation         #########
################################################

log				${DIR}/log.run_${NAME}
log				run_9/log.run_${NAME}
log				run_9/log.run_het_freeze_9
