LAMMPS data file via write_data, version 16 Mar 2018, timestep = 6000000

6750 atoms
2 atom types

2.0009617416237546e-01 4.9019903825831520e+01 xlo xhi
1.9928162552373152e-01 4.8820354304877242e+01 ylo yhi
-2.6983649661236342e-01 6.0331836496624206e+01 zlo zhi

Masses

1 18.015
2 12.01

Atoms # atomic

3801 1 3.4671175702065842e+00 3.4875977493903485e+00 2.7758405289427830e+00 1 2 0
1478 1 3.5939685229777436e+00 8.4163254659333797e-01 3.6045236346105876e+00 0 -3 0
3328 1 3.7153740788209229e+00 3.7585478716577341e+00 4.6886234529018245e-02 1 0 0
3896 1 7.7493962650293842e+00 3.5476531943121783e+00 2.6338721541036807e+00 0 2 0
3455 1 7.8175358381219322e+00 6.7573731479530041e-01 3.2743921638341291e+00 -1 1 1
5093 1 8.3205998087484154e+00 3.8262883941818653e+00 2.8534402347264953e-01 3 0 1
5055 1 1.2330174636379322e+01 3.4623316945457252e+00 2.4627724349898354e+00 0 4 0
3467 1 1.2279376390120667e+00 7.5557642473944204e+00 3.1010323660210743e+00 1 -1 0
1735 1 1.3780378547713630e+00 7.7596526159581778e+00 4.6583111771191288e-01 1 2 1
5210 1 1.2606108672948557e+00 4.9149880842280895e+00 3.4825436291044478e+00 0 3 0
2204 1 6.0061071663652923e+00 7.3192458564604275e+00 3.0091302464791316e+00 0 1 1
2055 1 5.3806819183393433e+00 4.7729373259130972e+00 3.5012281816117969e+00 1 0 0
5630 1 6.2504747423087208e+00 7.5544698965822441e+00 4.1707474446990922e-01 1 1 0
5096 1 1.0414637691379495e+01 7.3281905400235479e+00 2.9299036667175442e+00 0 1 1
5545 1 1.0504328220996184e+01 7.8297628495773974e+00 4.3280625474167955e-01 -3 1 1
5424 1 9.9981974348973086e+00 4.8129362791549068e+00 3.4079360147533198e+00 2 2 0
4721 1 3.8105387015693233e+00 1.1248173515187377e+01 8.4093399232468724e-01 -1 -2 1
2048 1 3.6998259878714204e+00 1.1526434866089915e+01 3.5714400359561274e+00 -3 0 0
6651 1 1.4729887726222619e+00 1.0426385145632546e+01 -1.8698961025685890e-01 2 -1 1
472 1 8.1339143525789872e+00 1.1621841768653393e+01 8.2905554572215756e-01 0 -1 0
1912 1 8.3147866124685432e+00 1.1061114581532953e+01 3.6129003720724135e+00 0 4 0
1691 1 3.4425848274426136e+00 1.3792959854895818e+01 9.3051691680468007e-03 1 2 1
1968 1 5.6644608944283914e-01 1.4888441488954605e+01 3.6008900935540065e+00 0 3 0
3698 1 1.4528018454904432e+00 1.5350879113864609e+01 9.6453660735962332e-01 0 0 0
4753 1 5.6394734499215611e+00 1.5022791947851282e+01 1.1193487739253476e+00 0 -1 1
4903 1 5.7813748100390248e+00 1.4843698623173498e+01 3.7513935268433976e+00 1 -1 1
3246 1 8.2458044505418009e+00 1.4196676944825509e+01 1.8783608735253027e-01 -1 1 1
4740 1 1.0427154435944299e+01 1.5326022809916854e+01 1.1536953456531351e+00 1 1 1
4960 1 1.1176105547666978e+01 1.4853550200578249e+01 3.6098191519874567e+00 -2 1 1
214 1 1.0369841407708120e+00 1.7800926306353798e+01 2.8788810141732823e-01 2 1 0
1394 1 3.2547439007975827e+00 1.8962140281246523e+01 1.0834604762736944e+00 1 -2 1
3637 1 5.6514013288105778e+00 1.7798234400780537e+01 3.5061698571761424e-01 2 1 1
5650 1 7.9599644974053865e+00 1.9111284780950118e+01 1.5427877808712798e+00 0 1 1
3357 1 1.0365663182493195e+01 1.8046185146633270e+01 4.5183156266214397e-01 0 0 1
1503 1 1.3143771884166877e+00 2.2703878614425239e+01 1.9550844959188725e+00 1 -1 1
5224 1 3.5483143171254117e+00 2.1540728566539709e+01 5.5186735621190597e-01 -2 1 0
28 1 5.7142750988521502e+00 2.2464480084566130e+01 1.5951656065217288e+00 0 -2 1
5513 1 8.0446671663585647e+00 2.1642311867753300e+01 7.7068756269945093e-01 1 3 1
3865 1 1.0360677381000666e+01 2.2700570423873117e+01 1.5875800660201218e+00 -1 -3 0
2254 1 3.0598438077451444e+00 3.1949910202970826e+00 6.6578086532879297e+00 -1 -1 1
3117 1 3.2470999110357996e+00 4.7372399415226996e-01 6.2205315793053071e+00 0 -2 1
1380 1 7.8602885980588146e+00 5.2655443466722174e-01 6.0652564779980134e+00 -1 1 1
1488 1 7.7431867978259783e+00 3.2435386273951532e+00 6.7814618725662967e+00 -1 -1 1
1948 1 1.2166290990922279e+01 3.0483369671976104e+00 7.2957438511573871e+00 2 -3 0
3526 1 1.2347441501025772e+01 5.7112872190542197e-01 6.1748328978062199e+00 -1 -2 0
4913 1 9.7431332991756170e-01 4.7489652215046023e+00 6.4678885758691820e+00 1 1 1
1379 1 1.1244423489113333e+00 7.0702328450660055e+00 7.5395964736418017e+00 0 -1 1
518 1 5.5238824725632272e+00 4.7613707958452922e+00 6.2197501730009082e+00 -2 0 0
1579 1 5.6664850641282465e+00 7.2692748822997828e+00 7.3218399750847265e+00 -1 0 0
3099 1 8.1145779294444029e+00 8.2932590468938372e+00 6.8123704261784850e+00 0 1 1
5404 1 1.0022711399511309e+01 4.3059557807182403e+00 5.9050634305955247e+00 5 0 0
5147 1 1.0232387717833072e+01 6.9193371327654747e+00 7.1836522309225348e+00 -2 3 1
6518 1 3.5021643706423156e+00 8.4158254713566674e+00 6.7067093394628179e+00 -2 0 1
6677 1 3.7544661635785670e+00 8.8341377044528233e+00 3.9871202766536387e+00 0 1 0
516 1 1.3585553730856179e+00 1.2277986998932597e+01 7.7025168472966152e+00 4 1 0
3483 1 5.9846205886713015e+00 1.2185226465001854e+01 4.5104721019178484e+00 3 -1 0
5057 1 1.2225782439412924e+01 8.5478027593025185e+00 4.4757095706373002e+00 0 1 1
3752 1 8.3608348160866921e+00 8.3619646208843275e+00 4.1064603077515294e+00 1 1 0
136 1 8.3539112028695879e+00 1.0992919342701548e+01 7.5359174939067053e+00 3 1 0
3298 1 1.4033106775309487e+00 1.2534213305074140e+01 5.0434773335354812e+00 -3 -1 0
2109 1 5.7791876474260304e+00 1.2444863016645199e+01 7.2533518535619459e+00 1 1 0
5658 1 1.0653184609409818e+01 1.2487066897027612e+01 7.0822597030579866e+00 -1 1 1
1857 1 1.0433154242254087e+01 1.2467773624312766e+01 4.3495984251199964e+00 1 0 0
1448 1 3.7010092514258908e+00 1.8545518485029412e+01 3.9273079086014562e+00 3 1 1
3489 1 1.7024750591219846e+00 1.7429976877405156e+01 7.5412576616943463e+00 -3 -2 1
6357 1 1.4472809881104776e+00 1.7135085289328050e+01 4.8794385660426833e+00 3 0 1
585 1 7.9125184551712842e+00 1.8880339960975508e+01 4.1860221491883181e+00 -3 -4 1
3963 1 5.8230494802071577e+00 1.7388172415690022e+01 4.9041737371109457e+00 -2 0 1
6719 1 6.0507800905921698e+00 1.6996535590441589e+01 7.5276730394859106e+00 4 1 1
3495 1 1.0363720526171532e+01 1.7402085990424307e+01 4.6888980282732717e+00 3 -1 0
3356 1 1.0439990062862739e+01 1.7107892149642918e+01 7.5138055984985579e+00 1 -1 0
3655 1 3.8286966127319952e+00 2.1005857302105152e+01 5.0947763048089048e+00 2 0 0
6448 1 1.6286022836489968e+00 2.2565361938527154e+01 4.6310558874397474e+00 1 0 1
3730 1 7.9662456322713870e+00 2.1014306504771181e+01 7.6399443920186592e+00 2 -1 0
3316 1 5.9565193301601047e+00 2.2471859931977619e+01 4.3327442604675657e+00 0 1 1
5161 1 8.2685674413820820e+00 2.1420747914498623e+01 5.1483157628037448e+00 0 2 0
6748 1 1.0365559045786691e+01 2.2808777916702475e+01 4.1285051337990355e+00 1 -3 0
1403 1 3.2957886314904683e+00 2.5603515254699829e+00 9.3530605512252958e+00 2 -1 1
6450 1 1.1904283989901212e+00 3.9142749530877761e+00 1.0958018396392694e+01 2 1 1
81 1 3.1270061396403461e+00 2.4036072969742997e-01 1.0758438972683658e+01 1 3 0
2042 1 7.4888892482220148e+00 2.5622398313182106e+00 9.4584185403090171e+00 0 3 0
6694 1 5.6459598865372582e+00 4.1028537871090442e+00 1.0623669781363660e+01 0 -1 1
5551 1 9.8995538984931972e+00 3.8232386740826874e+00 1.0633707939119923e+01 0 -1 1
539 1 1.1903595271154273e+01 2.6912763181156159e+00 9.8284138195222539e+00 0 0 0
1450 1 1.1732262676698455e+00 6.5820777699095290e+00 1.0238345175362031e+01 0 -2 1
1686 1 3.4516439670747903e+00 7.9274647387388955e+00 1.0880235148365472e+01 0 -2 1
5311 1 5.6989061106471608e+00 6.6658199925721746e+00 1.0026377421173551e+01 -1 0 0
3242 1 7.8277760742945297e+00 7.9724277698990837e+00 1.0922050951895265e+01 -2 -2 1
6331 1 1.2318221120833375e+01 7.7656478099977271e+00 1.0618360468117894e+01 2 3 1
1324 1 1.0273787875621528e+01 6.6418598049426425e+00 9.9127687259849449e+00 2 -2 1
107 1 1.4136113972304449e+00 1.1850955869971125e+01 1.1314864167979369e+01 2 1 0
4965 1 3.3168167471758987e+00 1.0799181867457703e+01 7.8822018141177939e+00 1 1 1
3053 1 3.4839543004540290e+00 1.0564271079231878e+01 1.0478598093306820e+01 2 4 1
6413 1 7.9577754834000389e+00 1.0746030320336553e+01 1.0083992992285527e+01 0 -1 1
102 1 5.8015567061657389e+00 1.1473357469246213e+01 1.1427388653416347e+01 -1 -3 0
5310 1 1.0071240629156165e+01 1.1721153057295217e+01 1.1167338909754632e+01 1 0 0
5243 1 2.0990338883458204e+00 1.4923177354361169e+01 8.4222217907032597e+00 1 1 0
346 1 1.1935205987921305e+00 1.4433920006167117e+01 1.0763631329773032e+01 -2 1 0
3308 1 4.6345928667508947e+00 1.4834761298742455e+01 8.3769693805850736e+00 -2 0 0
3627 1 5.3938507809404586e+00 1.4303339018853899e+01 1.0796364302874293e+01 3 -1 1
1931 1 7.6580864742971713e+00 1.5553911153359357e+01 1.1676770653047912e+01 1 -1 0
3403 1 1.1198482711318684e+01 1.4668976832715236e+01 8.1785301170254989e+00 2 2 0
4856 1 1.0102922690587899e+01 1.4323560409526147e+01 1.0606591319919174e+01 0 -1 1
6678 1 3.4383670738171279e+00 1.8087123312512524e+01 1.1273882881045871e+01 1 2 1
3490 1 3.9003349153053799e+00 1.8324301726669976e+01 8.6012484739372574e+00 -1 0 1
3094 1 8.3168395504478791e+00 1.8446192550182946e+01 8.2991881014336144e+00 2 1 1
3140 1 7.9998780293078617e+00 1.8285317938141958e+01 1.1137300440738652e+01 1 0 1
5360 1 1.7145626368488924e+00 2.1990098204594641e+01 9.0056950350808105e+00 1 1 0
1646 1 3.8767306395142320e+00 2.0896340135472929e+01 7.8678801513652843e+00 2 -1 1
3892 1 1.6389378247309501e+00 2.1679085475451203e+01 1.1602857080430663e+01 -1 2 1
4789 1 5.9002869580258999e+00 2.2080269385629144e+01 8.9335566864596512e+00 2 0 1
3492 1 5.8969553006310242e+00 2.1665649431443502e+01 1.1822036103523681e+01 -1 1 1
3432 1 1.0142595481667913e+01 2.1918381787990658e+01 8.7954227422907998e+00 0 -1 0
3595 1 1.0128418032926948e+01 2.1705772026507265e+01 1.1588398877977184e+01 0 1 0
3144 1 1.0690478198400590e+00 1.0842932143566169e+00 1.4152876839731471e+01 -1 -3 0
494 1 1.1945177505526974e+00 3.6653085889238932e+00 1.3661613829588171e+01 -3 2 1
1370 1 5.7083690656158259e+00 1.6051572245139076e+00 1.4088342371383238e+01 -2 1 1
282 1 5.8778721535843843e+00 3.9080075327712405e+00 1.3396390859028491e+01 -1 0 0
2011 1 1.0071763846098783e+01 9.4575438140765500e-01 1.3869105826978727e+01 0 0 1
1431 1 9.9494305731850332e+00 3.6131114746016242e+00 1.3225580681209694e+01 1 2 1
3031 1 3.6274757825991961e+00 4.8402392812673547e+00 1.4375633061016568e+01 0 3 1
185 1 3.4040627109003214e+00 7.2547531161897867e+00 1.3481381624749973e+01 0 -1 1
1479 1 8.1227643764939650e+00 5.4010814219010470e+00 1.4246905897263263e+01 -1 0 1
552 1 8.0075674183361230e+00 7.7059817946993743e+00 1.3626037576527480e+01 1 3 1
3646 1 1.2343275354569583e+01 7.4107414592146066e+00 1.3429190695083191e+01 -1 0 0
5146 1 1.2354198997077813e+01 4.8320958152810247e+00 1.3944135097168571e+01 -2 -4 1
6696 1 1.4391011394432496e+00 8.8101697188811166e+00 1.4533976149299361e+01 -1 0 1
1395 1 1.2027832836758163e+00 1.1544039451439277e+01 1.3939954584225401e+01 1 -2 1
5333 1 5.5422248068344739e+00 8.9201725391124747e+00 1.4691976431578148e+01 1 -1 0
5593 1 5.7078399144723555e+00 1.1557319360945248e+01 1.4192185922434779e+01 0 3 1
5119 1 1.0323511000426743e+01 8.9362710666846112e+00 1.4198923230862446e+01 1 3 0
3863 1 1.0015202614530248e+01 1.1616072817404488e+01 1.3873652921138442e+01 1 0 0
2194 1 3.6280009082855509e+00 1.2609133475107697e+01 1.5224051474215695e+01 3 0 0
3259 1 3.3755432374870358e+00 1.5146305639472899e+01 1.4586502495516479e+01 -1 -1 1
1389 1 3.3482889422265636e+00 1.5681521482706380e+01 1.1930037674020094e+01 1 2 1
1446 1 7.8701809326463295e+00 1.2706179954645977e+01 1.4977446318315911e+01 -1 0 1
2983 1 7.5659577774759255e+00 1.5434465965240573e+01 1.4256060786651927e+01 0 2 1
4718 1 1.2282100577525490e+01 1.5535661731796045e+01 1.4786063313394340e+01 -2 2 1
1447 1 9.7589611081952281e+00 1.6402644670937356e+01 1.5405003560281047e+01 -2 -2 1
1833 1 1.2073890248208106e+00 1.6497496792316070e+01 1.5820325085185857e+01 1 1 0
6460 1 1.3879774624937407e+00 1.9063184247777272e+01 1.5061168399095706e+01 1 -4 0
5014 1 1.2759851843812158e+00 1.9074100921541490e+01 1.2474606717778098e+01 1 -1 1
3551 1 5.6188988326964573e+00 1.9091143756665115e+01 1.5281689669956712e+01 -1 -1 1
3753 1 5.6136486221114508e+00 1.8737967979085639e+01 1.2384789164568801e+01 1 3 0
3501 1 1.0125696820097446e+01 1.9190160314943725e+01 1.2357794298662732e+01 1 0 1
5582 1 1.0090285814475330e+01 1.9331699885589426e+01 1.5291678991214871e+01 0 2 1
2026 1 3.6996269615324420e+00 2.3150458127183548e+01 1.2571515738209271e+01 1 1 0
3797 1 3.4045755883834903e+00 2.3097211278178573e+01 1.5294239148952284e+01 2 2 0
3108 1 7.8784122967183157e+00 2.2939148308993637e+01 1.5592368895630488e+01 -1 -1 1
5130 1 8.1291861684992668e+00 2.2854552030789517e+01 1.2973123755584588e+01 3 2 0
2058 1 1.2222400701540312e+01 2.3157366627241817e+01 1.2761199635850099e+01 0 2 0
1429 1 1.3315035225577252e+00 1.1727259023778001e+00 1.6742492762541652e+01 -3 2 1
5507 1 3.6060662574100659e+00 2.2400280374847577e+00 1.7870661455226415e+01 1 0 0
3921 1 5.5703973719345052e+00 1.2287934242186156e+00 1.6599899624658573e+01 1 0 0
3527 1 7.7653733308965025e+00 2.3721008696038970e+00 1.7481553479500409e+01 4 2 0
1364 1 1.0219020465889093e+01 8.6957890438876906e-01 1.6459034034550026e+01 0 0 1
4760 1 1.2307640525094760e+01 2.0995482023053178e+00 1.7188616505785784e+01 0 0 1
1512 1 3.5180879426006779e+00 4.9048299501787831e+00 1.7070769388132717e+01 3 -1 1
3022 1 1.0460627173716817e+00 6.3044134054548531e+00 1.7721273494912555e+01 -1 3 1
2189 1 5.7101940341148172e+00 5.9553626184966841e+00 1.7756000341440746e+01 4 2 0
528 1 7.7665636239224636e+00 4.7550037153965823e+00 1.6742887763296469e+01 1 2 1
6382 1 9.8813532951009559e+00 6.1154423751642835e+00 1.7692903664301735e+01 -2 2 1
5051 1 1.2151083727568913e+01 4.9485986734852903e+00 1.6444161043397962e+01 2 2 0
2115 1 1.4408285025300254e+00 8.6957318666076038e+00 1.7312276053656557e+01 -1 -1 0
5006 1 3.4731367475379931e+00 9.6728853798111984e+00 1.8850147423459720e+01 1 4 1
1611 1 3.6059905894489135e+00 1.2128733979955635e+01 1.7825552309372437e+01 1 0 0
2134 1 5.6997169987055347e+00 8.6124190808791070e+00 1.7523532211781195e+01 -1 3 0
2284 1 8.1476601719556232e+00 9.9639711876116834e+00 1.8227477910107577e+01 1 -1 1
3692 1 1.0226625908780340e+01 8.6150555297043336e+00 1.6983339654225855e+01 2 2 0
6664 1 1.3648588365030367e+00 1.3603012661953505e+01 1.8492862892628565e+01 1 0 1
1543 1 3.6733950916593938e-01 1.6272757317493095e+01 1.8451007564086130e+01 -1 -1 0
5500 1 5.5812154388727215e+00 1.6353464403063658e+01 1.5929179617629934e+01 -2 0 0
4770 1 5.7070674137408055e+00 1.3671245421291605e+01 1.8677958537512087e+01 1 1 1
4890 1 7.9086519982303063e+00 1.2581765409226149e+01 1.7725253383724716e+01 -2 -1 1
3345 1 6.5536767401934259e+00 1.6254754277520821e+01 1.8324796568731053e+01 -1 1 1
177 1 1.0356010147926304e+01 1.4110046905791792e+01 1.8244916481287802e+01 -1 0 0
6581 1 3.6134571137364611e+00 2.0437557347315337e+01 1.6188426552964774e+01 0 0 1
1721 1 3.4200945367641498e+00 1.9577328535526259e+01 1.9127564146107712e+01 1 -1 0
5529 1 7.9651181835388112e+00 1.9760068082297700e+01 1.9007278963429535e+01 0 -1 0
6568 1 7.8205526997201833e+00 2.0285731427235415e+01 1.6293772741153621e+01 0 1 0
469 1 1.2294982018019599e+01 2.0204734465307272e+01 1.5900545476751397e+01 -1 1 0
400 1 9.3544916141243508e+00 1.6505794593790284e+01 1.8028526801064213e+01 2 1 0
1933 1 1.0562209775479946e+01 1.8477567823890073e+01 1.9821524404270733e+01 3 0 0
3761 1 1.2386547582701974e+01 2.0213147527674774e+01 1.8813922965644000e+01 2 0 0
546 1 1.0997428185708882e+00 2.4044108972253511e+01 1.6664993059190145e+01 1 1 0
387 1 1.1555258778070072e+00 2.3581757623252159e+01 1.9344109319737314e+01 0 1 0
4927 1 5.6452379784615712e+00 2.4180077583965151e+01 1.6724377595196042e+01 2 -1 1
118 1 5.4450032126416126e+00 2.3566490571066765e+01 1.9160400040825529e+01 -1 -2 1
6416 1 1.0204867163418387e+01 2.3996644986119168e+01 1.6565871396843910e+01 2 0 1
2163 1 1.0394498564818848e+01 2.3837194145694937e+01 1.9416903957998475e+01 -2 0 0
5068 1 3.6076566252516287e+00 2.1955761606257744e+00 2.0523440514985456e+01 -1 1 1
1779 1 1.3400304374571894e+00 1.0632531350645709e+00 2.1067633251789488e+01 3 -1 0
179 1 1.2602265213381780e+00 1.2882048701203801e+00 2.3481459199974097e+01 -1 1 1
4851 1 5.5356532647049264e+00 7.8123344686604401e-01 2.1170100071697405e+01 -1 0 1
3699 1 7.9246432037874062e+00 2.3227949391388223e+00 2.0130590473215442e+01 -3 -1 0
6591 1 5.5794894552015633e+00 1.0584471541643385e+00 2.3841666734672557e+01 -1 0 1
6489 1 1.0090843409454978e+01 1.4341319023664314e+00 2.1153487832484888e+01 -1 0 0
5552 1 1.2210467979313261e+01 2.6487321772590988e+00 2.3674073998703442e+01 -2 -1 1
3608 1 3.0128515702660845e+00 5.5329363912950038e+00 2.3890043886133480e+01 1 -1 0
341 1 1.3320227173314951e+00 6.0610853025749032e+00 2.0297133425972010e+01 -1 0 0
6526 1 3.3527841099530971e+00 4.8767186773774682e+00 2.1284327020268027e+01 1 1 1
5388 1 5.7430317360852392e+00 6.1007865779308412e+00 2.0656144164378144e+01 -2 2 0
3019 1 7.9098058887629836e+00 4.5302441597484524e+00 2.1493424668883641e+01 -3 0 1
3727 1 5.5735428282724957e+00 7.0355408199928906e+00 2.3835696265566959e+01 -1 -1 0
3128 1 1.0235656513963795e+01 5.9918006293487007e+00 2.0307502780770786e+01 -1 -1 1
3186 1 1.5003926261501348e+00 8.9121584902846411e+00 2.1630129576376174e+01 -2 0 1
1350 1 3.3274785174296717e+00 1.1262291829751259e+01 2.1644046530299249e+01 -1 1 1
265 1 5.4569464458468895e+00 8.8648750703036097e+00 2.1173243946073974e+01 0 1 0
6731 1 8.1097715017658807e+00 9.6263002667181983e+00 2.0606465226026195e+01 1 0 1
1936 1 5.8626940411687363e+00 9.9538582648114264e+00 2.3655025321645962e+01 1 1 0
5432 1 1.0250661778040818e+01 8.4663269181311342e+00 2.1218849054825860e+01 2 1 0
3965 1 8.4784519962612315e+00 1.2153544182320381e+01 2.1642690896340319e+01 -2 0 1
1656 1 1.0058346950794533e+01 9.0127923695544769e+00 2.3829626916842376e+01 0 1 1
2270 1 1.1341657736849058e+00 1.5202398740856667e+01 2.2972048036549324e+01 0 1 1
2068 1 1.7079752968532851e+00 1.3171431935381433e+01 2.1027712787456061e+01 -2 0 0
126 1 3.5919519614123812e+00 1.4060331491334653e+01 2.3882060066227375e+01 3 -1 0
3360 1 6.1094991154838016e+00 1.5322392095803341e+01 2.3267076144579125e+01 3 -1 0
2310 1 5.9422290789910264e+00 1.3063512020978063e+01 2.1331228890217247e+01 0 -1 1
1930 1 1.0795994307401017e+01 1.3373531119343196e+01 2.1132138437930852e+01 -2 1 0
4780 1 1.0437852294152826e+01 1.5607060414122477e+01 2.3325056412619912e+01 1 0 1
1880 1 3.6176646769836096e+00 1.9426949494179475e+01 2.3597505336384796e+01 -1 0 0
3591 1 9.2309063473704744e-01 1.8465109239971209e+01 2.0058083669744470e+01 0 0 0
6713 1 1.1347661649074734e+00 1.8151782210203947e+01 2.2657587336452373e+01 -1 -2 1
6501 1 5.7641537525221764e+00 1.8488107594285065e+01 1.9950619365506800e+01 3 0 0
5063 1 5.7951702841047039e+00 1.7994108680621775e+01 2.2688388297886465e+01 4 1 1
550 1 7.5407603395559564e+00 1.9692669478341699e+01 2.3828863689254757e+01 1 -2 0
4988 1 1.2271496504243069e+01 1.9570729071115181e+01 2.3722017080581697e+01 1 -1 1
4878 1 1.0060154596664647e+01 1.8129603539459989e+01 2.2744032344839589e+01 0 0 1
1495 1 3.3338900235456599e+00 2.2039147269930478e+01 2.0272991255561593e+01 1 1 1
3229 1 3.0628347068262896e+00 2.2224608941405531e+01 2.3110465329855963e+01 -2 -1 1
1501 1 7.9416052996518918e+00 2.2296891818011868e+01 2.0035376333265678e+01 -4 -2 1
3577 1 7.8651680376159137e+00 2.2443809001330159e+01 2.2675012796262251e+01 -1 1 0
1841 1 5.4694807255036428e+00 2.3634066350481667e+01 2.3399786243010642e+01 -3 -1 0
2197 1 1.2090481019744438e+01 2.2328242331411182e+01 2.3362384109676370e+01 -1 -2 0
618 2 2.0009617416237546e-01 3.0178945344712353e+00 2.6736369911340201e+01 0 0 0
620 2 2.0009617416237546e-01 1.9928162552373152e-01 2.6736369911340201e+01 0 0 0
622 2 1.4205913654547810e+00 9.0393485276060748e-01 2.6736369911340201e+01 0 0 0
629 2 1.4205913654547810e+00 2.3132413072336324e+00 2.6736369911340201e+01 0 0 0
631 2 2.6410865567471866e+00 3.0178945344712353e+00 2.6736369911340201e+01 0 0 0
633 2 2.6410865567471866e+00 1.9928162552373152e-01 2.6736369911340201e+01 0 0 0
635 2 3.8615817480388004e+00 9.0393485276060748e-01 2.6736369911340201e+01 0 0 0
650 2 3.8615817480388004e+00 2.3132413072336324e+00 2.6736369911340201e+01 0 0 0
4759 1 3.3145511191315373e+00 2.5597595141938703e+00 2.4294916688539804e+01 1 1 1
652 2 5.0820769393319978e+00 3.0178945344712353e+00 2.6736369911340201e+01 0 0 0
654 2 5.0820769393319978e+00 1.9928162552373152e-01 2.6736369911340201e+01 0 0 0
656 2 6.3025721306210167e+00 9.0393485276060748e-01 2.6736369911340201e+01 0 0 0
679 2 6.3025721306210167e+00 2.3132413072336324e+00 2.6736369911340201e+01 0 0 0
681 2 7.5230673219152253e+00 3.0178945344712353e+00 2.6736369911340201e+01 0 0 0
683 2 7.5230673219152253e+00 1.9928162552373152e-01 2.6736369911340201e+01 0 0 0
453 1 7.6188291884333346e+00 2.6037990895310821e+00 2.4342819395245634e+01 0 3 0
685 2 8.7435625132007591e+00 9.0393485276060748e-01 2.6736369911340201e+01 0 0 0
716 2 8.7435625132007591e+00 2.3132413072336324e+00 2.6736369911340201e+01 0 0 0
718 2 9.9640577045016201e+00 3.0178945344712353e+00 2.6736369911340201e+01 0 0 0
720 2 9.9640577045016201e+00 1.9928162552373152e-01 2.6736369911340201e+01 0 0 0
722 2 1.1184552895791077e+01 9.0393485276060748e-01 2.6736369911340201e+01 0 0 0
761 2 1.1184552895791077e+01 2.3132413072336324e+00 2.6736369911340201e+01 0 0 0
763 2 1.2405048087079658e+01 3.0178945344712353e+00 2.6736369911340201e+01 0 0 0
765 2 1.2405048087079658e+01 1.9928162552373152e-01 2.6736369911340201e+01 0 0 0
3659 1 9.8671260840133979e+00 1.0895294667632092e+00 2.3986433350723868e+01 1 0 0
623 2 2.0009617416237546e-01 7.2458138978950455e+00 2.6736369911340201e+01 0 0 0
625 2 2.0009617416237546e-01 4.4272009889435333e+00 2.6736369911340201e+01 0 0 0
627 2 1.4205913654547810e+00 5.1318542161822629e+00 2.6736369911340201e+01 0 0 0
642 2 1.4205913654547810e+00 6.5411606706563266e+00 2.6736369911340201e+01 0 0 0
644 2 2.6410865567471866e+00 7.2458138978950455e+00 2.6736369911340201e+01 0 0 0
646 2 2.6410865567471866e+00 4.4272009889435333e+00 2.6736369911340201e+01 0 0 0
648 2 3.8615817480388004e+00 5.1318542161822629e+00 2.6736369911340201e+01 0 0 0
671 2 3.8615817480388004e+00 6.5411606706563266e+00 2.6736369911340201e+01 0 0 0
3395 1 9.9713310895679097e-01 7.1998669748000879e+00 2.4059713603540228e+01 4 0 0
673 2 5.0820769393319978e+00 7.2458138978950455e+00 2.6736369911340201e+01 0 0 0
675 2 5.0820769393319978e+00 4.4272009889435333e+00 2.6736369911340201e+01 0 0 0
677 2 6.3025721306210167e+00 5.1318542161822629e+00 2.6736369911340201e+01 0 0 0
708 2 6.3025721306210167e+00 6.5411606706563266e+00 2.6736369911340201e+01 0 0 0
710 2 7.5230673219152253e+00 7.2458138978950455e+00 2.6736369911340201e+01 0 0 0
712 2 7.5230673219152253e+00 4.4272009889435333e+00 2.6736369911340201e+01 0 0 0
1518 1 7.7908227492849047e+00 5.4201683099770488e+00 2.4098198722069856e+01 1 1 0
714 2 8.7435625132007591e+00 5.1318542161822629e+00 2.6736369911340201e+01 0 0 0
753 2 8.7435625132007591e+00 6.5411606706563266e+00 2.6736369911340201e+01 0 0 0
755 2 9.9640577045016201e+00 7.2458138978950455e+00 2.6736369911340201e+01 0 0 0
757 2 9.9640577045016201e+00 4.4272009889435333e+00 2.6736369911340201e+01 0 0 0
759 2 1.1184552895791077e+01 5.1318542161822629e+00 2.6736369911340201e+01 0 0 0
800 2 1.1184552895791077e+01 6.5411606706563266e+00 2.6736369911340201e+01 0 0 0
802 2 1.2405048087079658e+01 7.2458138978950455e+00 2.6736369911340201e+01 0 0 0
804 2 1.2405048087079658e+01 4.4272009889435333e+00 2.6736369911340201e+01 0 0 0
3582 1 1.0251742352708803e+01 6.4082717116944066e+00 2.4521528808125890e+01 1 0 0
5028 1 3.5291411252659919e+00 1.1431430783560938e+01 2.4226581613438888e+01 2 3 0
636 2 2.0009617416237546e-01 1.1473733261313747e+01 2.6736369911340201e+01 0 0 0
638 2 2.0009617416237546e-01 8.6551203523633351e+00 2.6736369911340201e+01 0 0 0
640 2 1.4205913654547810e+00 9.3597735796052710e+00 2.6736369911340201e+01 0 0 0
663 2 1.4205913654547810e+00 1.0769080034078369e+01 2.6736369911340201e+01 0 0 0
665 2 2.6410865567471866e+00 1.1473733261313747e+01 2.6736369911340201e+01 0 0 0
667 2 2.6410865567471866e+00 8.6551203523633351e+00 2.6736369911340201e+01 0 0 0
669 2 3.8615817480388004e+00 9.3597735796052710e+00 2.6736369911340201e+01 0 0 0
700 2 3.8615817480388004e+00 1.0769080034078369e+01 2.6736369911340201e+01 0 0 0
1871 1 1.1173093092053628e+00 1.0334679603571574e+01 2.4414662546409250e+01 1 0 0
702 2 5.0820769393319978e+00 1.1473733261313747e+01 2.6736369911340201e+01 0 0 0
704 2 5.0820769393319978e+00 8.6551203523633351e+00 2.6736369911340201e+01 0 0 0
706 2 6.3025721306210167e+00 9.3597735796052710e+00 2.6736369911340201e+01 0 0 0
745 2 6.3025721306210167e+00 1.0769080034078369e+01 2.6736369911340201e+01 0 0 0
747 2 7.5230673219152253e+00 1.1473733261313747e+01 2.6736369911340201e+01 0 0 0
749 2 7.5230673219152253e+00 8.6551203523633351e+00 2.6736369911340201e+01 0 0 0
751 2 8.7435625132007591e+00 9.3597735796052710e+00 2.6736369911340201e+01 0 0 0
792 2 8.7435625132007591e+00 1.0769080034078369e+01 2.6736369911340201e+01 0 0 0
794 2 9.9640577045016201e+00 1.1473733261313747e+01 2.6736369911340201e+01 0 0 0
796 2 9.9640577045016201e+00 8.6551203523633351e+00 2.6736369911340201e+01 0 0 0
798 2 1.1184552895791077e+01 9.3597735796052710e+00 2.6736369911340201e+01 0 0 0
839 2 1.1184552895791077e+01 1.0769080034078369e+01 2.6736369911340201e+01 0 0 0
841 2 1.2405048087079658e+01 1.1473733261313747e+01 2.6736369911340201e+01 0 0 0
843 2 1.2405048087079658e+01 8.6551203523633351e+00 2.6736369911340201e+01 0 0 0
3424 1 8.5187605904412429e+00 1.1309420000845583e+01 2.4294060418957592e+01 2 1 1
657 2 2.0009617416237546e-01 1.5701652624735040e+01 2.6736369911340201e+01 0 0 0
659 2 2.0009617416237546e-01 1.2883039715788922e+01 2.6736369911340201e+01 0 0 0
661 2 1.4205913654547810e+00 1.3587692943027438e+01 2.6736369911340201e+01 0 0 0
692 2 1.4205913654547810e+00 1.4996999397499918e+01 2.6736369911340201e+01 0 0 0
694 2 2.6410865567471866e+00 1.5701652624735040e+01 2.6736369911340201e+01 0 0 0
696 2 2.6410865567471866e+00 1.2883039715788922e+01 2.6736369911340201e+01 0 0 0
698 2 3.8615817480388004e+00 1.3587692943027438e+01 2.6736369911340201e+01 0 0 0
737 2 3.8615817480388004e+00 1.4996999397499918e+01 2.6736369911340201e+01 0 0 0
739 2 5.0820769393319978e+00 1.5701652624735040e+01 2.6736369911340201e+01 0 0 0
741 2 5.0820769393319978e+00 1.2883039715788922e+01 2.6736369911340201e+01 0 0 0
743 2 6.3025721306210167e+00 1.3587692943027438e+01 2.6736369911340201e+01 0 0 0
784 2 6.3025721306210167e+00 1.4996999397499918e+01 2.6736369911340201e+01 0 0 0
786 2 7.5230673219152253e+00 1.5701652624735040e+01 2.6736369911340201e+01 0 0 0
788 2 7.5230673219152253e+00 1.2883039715788922e+01 2.6736369911340201e+01 0 0 0
3601 1 8.2507872483825828e+00 1.4294015975677070e+01 2.4063334968515115e+01 0 -1 0
790 2 8.7435625132007591e+00 1.3587692943027438e+01 2.6736369911340201e+01 0 0 0
831 2 8.7435625132007591e+00 1.4996999397499918e+01 2.6736369911340201e+01 0 0 0
833 2 9.9640577045016201e+00 1.5701652624735040e+01 2.6736369911340201e+01 0 0 0
835 2 9.9640577045016201e+00 1.2883039715788922e+01 2.6736369911340201e+01 0 0 0
837 2 1.1184552895791077e+01 1.3587692943027438e+01 2.6736369911340201e+01 0 0 0
873 2 1.1184552895791077e+01 1.4996999397499918e+01 2.6736369911340201e+01 0 0 0
875 2 1.2405048087079658e+01 1.5701652624735040e+01 2.6736369911340201e+01 0 0 0
877 2 1.2405048087079658e+01 1.2883039715788922e+01 2.6736369911340201e+01 0 0 0
686 2 2.0009617416237546e-01 1.9929571988157857e+01 2.6736369911340201e+01 0 0 0
688 2 2.0009617416237546e-01 1.7110959079202939e+01 2.6736369911340201e+01 0 0 0
690 2 1.4205913654547810e+00 1.7815612306441775e+01 2.6736369911340201e+01 0 0 0
729 2 1.4205913654547810e+00 1.9224918760919028e+01 2.6736369911340201e+01 0 0 0
731 2 2.6410865567471866e+00 1.9929571988157857e+01 2.6736369911340201e+01 0 0 0
733 2 2.6410865567471866e+00 1.7110959079202939e+01 2.6736369911340201e+01 0 0 0
735 2 3.8615817480388004e+00 1.7815612306441775e+01 2.6736369911340201e+01 0 0 0
776 2 3.8615817480388004e+00 1.9224918760919028e+01 2.6736369911340201e+01 0 0 0
778 2 5.0820769393319978e+00 1.9929571988157857e+01 2.6736369911340201e+01 0 0 0
780 2 5.0820769393319978e+00 1.7110959079202939e+01 2.6736369911340201e+01 0 0 0
782 2 6.3025721306210167e+00 1.7815612306441775e+01 2.6736369911340201e+01 0 0 0
823 2 6.3025721306210167e+00 1.9224918760919028e+01 2.6736369911340201e+01 0 0 0
825 2 7.5230673219152253e+00 1.9929571988157857e+01 2.6736369911340201e+01 0 0 0
827 2 7.5230673219152253e+00 1.7110959079202939e+01 2.6736369911340201e+01 0 0 0
829 2 8.7435625132007591e+00 1.7815612306441775e+01 2.6736369911340201e+01 0 0 0
865 2 8.7435625132007591e+00 1.9224918760919028e+01 2.6736369911340201e+01 0 0 0
867 2 9.9640577045016201e+00 1.9929571988157857e+01 2.6736369911340201e+01 0 0 0
869 2 9.9640577045016201e+00 1.7110959079202939e+01 2.6736369911340201e+01 0 0 0
871 2 1.1184552895791077e+01 1.7815612306441775e+01 2.6736369911340201e+01 0 0 0
899 2 1.1184552895791077e+01 1.9224918760919028e+01 2.6736369911340201e+01 0 0 0
903 2 1.2405048087079658e+01 1.7110959079202939e+01 2.6736369911340201e+01 0 0 0
723 2 2.0009617416237546e-01 2.4157491351590085e+01 2.6736369911340201e+01 0 0 0
725 2 2.0009617416237546e-01 2.1338878442633007e+01 2.6736369911340201e+01 0 0 0
727 2 1.4205913654547810e+00 2.2043531669866738e+01 2.6736369911340201e+01 0 0 0
768 2 1.4205913654547810e+00 2.3452838124346812e+01 2.6736369911340201e+01 0 0 0
770 2 2.6410865567471866e+00 2.4157491351590085e+01 2.6736369911340201e+01 0 0 0
772 2 2.6410865567471866e+00 2.1338878442633007e+01 2.6736369911340201e+01 0 0 0
774 2 3.8615817480388004e+00 2.2043531669866738e+01 2.6736369911340201e+01 0 0 0
815 2 3.8615817480388004e+00 2.3452838124346812e+01 2.6736369911340201e+01 0 0 0
1844 1 1.0085167709798655e+00 2.3401945157680377e+01 2.4283705532545945e+01 0 2 0