LAMMPS data file via write_data, version 16 Mar 2018, timestep = 100000

6489 atoms
2 atom types

0.0000000000000000e+00 4.9219999999999999e+01 xlo xhi
0.0000000000000000e+00 4.9019635930410494e+01 ylo yhi
2.0334121184003671e+00 5.8028587881598284e+01 zlo zhi

Masses

1 18.015
2 12.01

Atoms # atomic

3075 1 3.7541146924116831e+00 3.8992836556743162e+00 3.8338662000849553e+00 0 0 1
5199 1 1.0980725781221081e+00 9.7875779519088599e+00 8.2430452155337548e+00 0 0 0
1631 1 5.4768884974738761e+00 1.4594761977990092e+00 4.3111615090887323e+00 0 0 1
6432 1 7.7007980509141021e+00 2.0809530112159966e+00 2.5999441301453281e+00 0 1 1
1537 1 2.1302739419044610e+00 5.9688541337295096e+00 6.8987169763568073e+00 2 0 1
1745 1 4.5264418322446787e+00 7.9665617778330384e+00 2.4385961351831922e+00 0 2 0
2988 1 5.9356676046555670e+00 6.1597857092551545e+00 3.8770884292687482e+00 0 -1 0
3173 1 3.6927864034363261e-01 8.0140470071763517e+00 6.0589865619189949e+00 0 1 1
3660 1 1.1182082458470710e+00 1.0409791920935525e+01 3.8680816540872072e+00 0 0 0
1380 1 8.6618238386501414e+00 1.0017997049486510e+01 5.6897367557114515e+00 1 0 1
5029 1 5.2354201105492688e+00 8.9286304265864125e+00 8.1112668038208984e+00 1 1 1
2119 1 1.8709830910227354e+00 3.4491047780999353e+00 5.5623000059163417e+00 0 0 0
2911 1 3.8814401139233743e+00 3.5032877050412887e+00 8.0831380219023927e+00 0 1 1
76 1 2.8537853327255500e+00 6.4525849208385933e-01 3.8176323919323458e+00 0 1 0
5289 1 5.8865935862546372e+00 2.0825746866857897e+00 6.9586094922899777e+00 1 0 0
286 1 8.7260813468419602e+00 2.3519799022859407e+00 7.5262248455252214e+00 0 0 0
4888 1 5.5354131086632794e+00 5.5689411874345183e+00 8.5185524292843606e+00 1 0 0
5007 1 4.4292610968909054e+00 7.2007444076359279e+00 5.9893553182074690e+00 1 0 0
3508 1 1.6387045286364985e+00 1.1920688101311510e+01 6.6381339743228329e+00 0 0 0
1389 1 8.8347705534985081e+00 5.9168423676997310e+00 5.1939633987765674e+00 0 1 0
5084 1 9.2886052909803762e+00 8.4178557084278118e+00 3.6427483713882260e+00 1 0 1
3025 1 5.9291117784112224e+00 1.0802697293451729e+01 6.2596972932034882e+00 0 1 1
5045 1 3.8523916923471950e+00 9.7938806712744331e+00 4.5351154723206220e+00 1 0 0
4605 1 8.2890182583055392e+00 5.0817295634833846e+00 7.7381200898886675e+00 0 0 1
1544 1 4.8961427774712236e+00 1.1374851431948484e+01 2.4327705547744323e+00 0 0 0
2095 1 1.5405312351373590e+00 4.3342314668356119e-01 6.1807466381705307e+00 1 1 1
5256 1 1.6633098896789278e-01 8.1553590352385825e+00 2.8594795873411161e+00 1 1 0
1533 1 3.3951470920716864e-01 5.9265553063835696e+00 8.9351050212536514e+00 1 1 1
4756 1 4.9541090162355408e+00 1.2229860344780613e+01 8.9555120332072189e+00 0 1 1
6276 1 3.1354724124853521e+00 9.5004330144511606e-01 9.7415427502560732e+00 1 0 1
1668 1 5.0637893854685085e+00 1.1363709668377071e+00 1.1717651922836820e+01 1 1 1
4831 1 9.9494208026594189e-01 2.7786998228546622e-01 1.5838023438265079e+01 1 0 0
4726 1 9.0527790572294631e+00 7.0220800743257927e-01 9.6021123000768043e+00 1 0 1
3421 1 2.4319054113135565e+00 4.7067363831632472e+00 1.2750289718168201e+01 0 -1 0
1753 1 4.9242358104410631e+00 6.4258277597539362e+00 1.0930925950491716e+01 -1 -1 0
2960 1 1.6065129309387849e+00 7.0180227910914716e+00 1.1144177156123174e+01 0 0 1
4883 1 3.4647647029806983e+00 7.1579837984838584e+00 1.3993681723961803e+01 1 -1 1
400 1 8.9233200255856477e+00 3.1232195746434921e+00 1.1691020253697461e+01 1 1 0
1919 1 1.1742066206963646e+00 2.7732453745862586e+00 1.0917837813526146e+01 1 0 0
1479 1 3.1379744177156392e+00 9.0841930336944205e+00 9.8707006435502649e+00 0 0 1
1642 1 6.1963237612698610e+00 4.0979257507423679e+00 1.4808899832805194e+01 0 1 0
5149 1 6.7352944161455719e+00 8.4595102611677113e+00 1.1879389040290437e+01 0 0 0
3454 1 9.7505218331704633e+00 7.6558067500060902e+00 1.1497207317189599e+01 0 0 0
397 1 7.2260041068122645e+00 1.1687445543940957e+01 1.0500629215913666e+01 1 1 0
14 1 8.1236110367350793e+00 1.0794127422754702e+01 1.4991798291455188e+01 0 -1 0
4882 1 5.8592485398532457e+00 3.7109274538246733e+00 1.2132451951640087e+01 1 1 0
1672 1 1.5160704001873371e+00 9.6484873286947739e+00 1.5411836227333513e+01 0 0 0
5366 1 8.1106493273462892e+00 9.3123822242988847e+00 9.1402591886855689e+00 1 0 0
136 1 9.1013709345579112e+00 6.4825091847086158e-01 1.4987457404715425e+01 0 -1 0
162 1 7.8578796906298409e-01 4.5383695813868830e+00 1.5077558947556911e+01 2 1 0
6296 1 5.5882836453169462e+00 6.4027270385207924e+00 1.5690562168394891e+01 1 1 1
2098 1 2.2691578856590455e+00 1.1345752767032716e+01 1.1544766954223379e+01 0 0 0
3230 1 8.6416187017616775e+00 3.2556155550112789e+00 1.5610680437822452e+01 1 -1 1
5329 1 3.5017200973225178e+00 9.9812411187344949e+00 1.3550229356251101e+01 1 0 0
2005 1 6.3684966650752708e+00 1.0822204537180657e+01 1.3084969139258218e+01 0 0 0
387 1 3.2350217680528520e-01 7.4008432143750040e+00 1.3603519021187791e+01 1 1 0
1911 1 7.9917816584575601e+00 7.9743112006092272e+00 1.5217842948026261e+01 0 0 0
1670 1 7.7981475433747676e+00 7.0057841223716277e-01 1.2380752518747855e+01 0 -1 0
4956 1 3.7833628786228557e+00 3.7127095826704459e+00 1.8816907686225591e+01 1 0 1
5059 1 6.8786992349392859e+00 1.1403599108720353e+00 1.8805360710278418e+01 1 0 1
3039 1 1.9303679162029495e+00 2.4324307596575583e+00 1.7042038982912914e+01 1 0 1
3477 1 9.3790136868963785e+00 8.5480955063225341e+00 2.1277838207574000e+01 1 -1 0
1961 1 4.1656703303454350e+00 6.3990490675849490e+00 1.8017819511081296e+01 0 0 1
361 1 8.7293379698378608e+00 8.1195510351009226e+00 1.8303893296053374e+01 0 0 0
1831 1 5.2273852088730850e+00 1.1346261795489806e+01 2.1291313824512287e+01 1 0 0
1418 1 3.8834524378683559e+00 1.1350727340265268e+01 1.8705868923301416e+01 0 1 1
2046 1 1.0272000477789578e+00 6.3096590545499449e+00 2.1377442399699053e+01 1 0 0
388 1 8.1561604135719143e+00 1.1115978349109147e+01 2.0731106387033861e+01 1 -1 0
3801 1 7.1584660290359308e+00 1.0293319411760255e+01 1.7830656494487755e+01 0 -1 0
421 1 5.2688181212273189e-01 3.7275521444496049e+00 2.1531993070797544e+01 1 1 0
5271 1 9.0359835985557311e+00 2.9640801378716319e+00 1.8369854651534311e+01 0 0 0
5384 1 2.9735272402176585e+00 2.2200302208321729e+00 2.1217023801350180e+01 1 0 0
1630 1 6.0345198155542095e+00 3.7162956449480125e+00 2.1467935778729455e+01 0 0 1
5238 1 5.5640009220332525e+00 4.1615644583459532e-01 2.1473380557601089e+01 1 1 0
224 1 1.7440291391676277e+00 6.7058132710236462e+00 1.6689292764582188e+01 1 0 1
3584 1 3.6825674931220442e+00 5.9301365650368529e+00 2.1396587650072323e+01 0 1 0
3225 1 2.9458843278581139e+00 9.0882139766886265e+00 2.1134545846218181e+01 1 0 0
1572 1 5.4250363204296637e+00 8.2504377030474760e+00 1.9791544840551428e+01 1 1 1
153 1 6.9812489710031018e+00 6.6877844982778472e+00 2.1409888169612799e+01 1 0 1
5349 1 4.5530326553250106e-01 1.1213434577088600e+01 1.7604380276708529e+01 2 0 0
3214 1 5.1793454796066838e+00 2.3879809338850886e+00 1.6854610686088854e+01 1 1 1
4985 1 9.0091173413113825e+00 2.9098569847837719e+00 2.1374445546159503e+01 0 0 1
3591 1 4.7590641443614343e+00 1.0229605855587126e+01 1.6067231606171472e+01 1 0 0
431 1 9.4293861267126058e+00 5.5308727010858050e+00 1.9903420449461432e+01 2 1 0
3520 1 7.7991624566626527e-01 1.1065133953677570e+01 2.0354978400205940e+01 1 0 0
746 2 8.6134999999999984e+00 1.0656442593567498e+01 2.6877572896483631e+01 0 0 0
5175 1 2.9725328399440052e+00 2.2703757227612709e+00 2.4205186031477233e+01 0 0 0
4960 1 5.5765636180005993e+00 1.6949918856797641e+00 2.4261277138568452e+01 0 0 1
660 2 6.1524999999999999e+00 9.2355835810918343e+00 2.6877572896483631e+01 0 0 0
2063 1 2.7651566314094778e+00 5.1494524021767427e+00 2.4227816622457947e+01 1 0 0
656 2 4.9220000000000006e+00 1.1366872099805333e+01 2.6877572896483631e+01 0 0 0
6 1 7.1839816670082790e+00 3.9201633058432988e+00 2.4115890451436208e+01 0 0 0
5345 1 6.9439482997161353e+00 6.8417505332104183e+00 2.4299160731920946e+01 1 1 0
5327 1 4.7494951064108095e+00 1.0682019487716151e+01 2.4149155823662479e+01 1 -1 0
5325 1 4.3897201539303925e+00 7.8828789795629310e+00 2.3934204328264538e+01 0 1 0
5211 1 7.7087346173845175e+00 1.0788094622201696e+01 2.3937903575149683e+01 1 0 0
2010 1 9.2518480097896614e+00 8.2314888786453686e+00 2.4222879437745028e+01 0 1 0
572 2 0.0000000000000000e+00 2.8417180249513345e+00 2.6877572896483631e+01 0 0 0
574 2 0.0000000000000000e+00 0.0000000000000000e+00 2.6877572896483631e+01 0 0 0
576 2 1.2305000000000001e+00 7.1042950623783474e-01 2.6877572896483631e+01 0 0 0
583 2 1.2305000000000001e+00 2.1312885187134998e+00 2.6877572896483631e+01 0 0 0
585 2 2.4610000000000003e+00 2.8417180249513345e+00 2.6877572896483631e+01 0 0 0
587 2 2.4610000000000003e+00 0.0000000000000000e+00 2.6877572896483631e+01 0 0 0
589 2 3.6915000000000004e+00 7.1042950623783474e-01 2.6877572896483631e+01 0 0 0
604 2 3.6914999999999996e+00 2.1312885187134998e+00 2.6877572896483631e+01 0 0 0
606 2 4.9220000000000006e+00 2.8417180249513332e+00 2.6877572896483631e+01 0 0 0
608 2 4.9220000000000006e+00 0.0000000000000000e+00 2.6877572896483631e+01 0 0 0
610 2 6.1524999999999999e+00 7.1042950623783407e-01 2.6877572896483631e+01 0 0 0
633 2 6.1524999999999999e+00 2.1312885187134989e+00 2.6877572896483631e+01 0 0 0
635 2 7.3829999999999991e+00 2.8417180249513345e+00 2.6877572896483631e+01 0 0 0
637 2 7.3829999999999991e+00 0.0000000000000000e+00 2.6877572896483631e+01 0 0 0
639 2 8.6134999999999984e+00 7.1042950623783407e-01 2.6877572896483631e+01 0 0 0
670 2 8.6134999999999984e+00 2.1312885187135002e+00 2.6877572896483631e+01 0 0 0
579 2 0.0000000000000000e+00 4.2625770374269996e+00 2.6877572896483631e+01 0 0 0
581 2 1.2305000000000001e+00 4.9730065436648339e+00 2.6877572896483631e+01 0 0 0
596 2 1.2305000000000001e+00 6.3938655561404980e+00 2.6877572896483631e+01 0 0 0
600 2 2.4610000000000003e+00 4.2625770374269996e+00 2.6877572896483631e+01 0 0 0
602 2 3.6914999999999996e+00 4.9730065436648339e+00 2.6877572896483631e+01 0 0 0
625 2 3.6914999999999996e+00 6.3938655561404980e+00 2.6877572896483631e+01 0 0 0
577 2 0.0000000000000000e+00 7.1042950623783341e+00 2.6877572896483631e+01 0 0 0
598 2 2.4610000000000003e+00 7.1042950623783341e+00 2.6877572896483631e+01 0 0 0
629 2 4.9220000000000006e+00 4.2625770374269978e+00 2.6877572896483631e+01 0 0 0
631 2 6.1524999999999999e+00 4.9730065436648339e+00 2.6877572896483631e+01 0 0 0
662 2 6.1524999999999999e+00 6.3938655561404980e+00 2.6877572896483631e+01 0 0 0
666 2 7.3829999999999991e+00 4.2625770374269996e+00 2.6877572896483631e+01 0 0 0
668 2 8.6135000000000002e+00 4.9730065436648339e+00 2.6877572896483631e+01 0 0 0
707 2 8.6135000000000002e+00 6.3938655561404980e+00 2.6877572896483631e+01 0 0 0
627 2 4.9220000000000006e+00 7.1042950623783341e+00 2.6877572896483631e+01 0 0 0
664 2 7.3830000000000009e+00 7.1042950623783341e+00 2.6877572896483631e+01 0 0 0
592 2 0.0000000000000000e+00 8.5251540748539991e+00 2.6877572896483631e+01 0 0 0
594 2 1.2305000000000001e+00 9.2355835810918343e+00 2.6877572896483631e+01 0 0 0
621 2 2.4610000000000003e+00 8.5251540748539991e+00 2.6877572896483631e+01 0 0 0
623 2 3.6915000000000004e+00 9.2355835810918343e+00 2.6877572896483631e+01 0 0 0
590 2 0.0000000000000000e+00 1.1366872099805333e+01 2.6877572896483631e+01 0 0 0
617 2 1.2305000000000001e+00 1.0656442593567498e+01 2.6877572896483631e+01 0 0 0
619 2 2.4610000000000003e+00 1.1366872099805333e+01 2.6877572896483631e+01 0 0 0
654 2 3.6914999999999996e+00 1.0656442593567499e+01 2.6877572896483631e+01 0 0 0
703 2 7.3830000000000009e+00 8.5251540748539991e+00 2.6877572896483631e+01 0 0 0
699 2 6.1524999999999999e+00 1.0656442593567499e+01 2.6877572896483631e+01 0 0 0
705 2 8.6134999999999984e+00 9.2355835810918343e+00 2.6877572896483631e+01 0 0 0
658 2 4.9220000000000006e+00 8.5251540748539991e+00 2.6877572896483631e+01 0 0 0
701 2 7.3829999999999991e+00 1.1366872099805333e+01 2.6877572896483631e+01 0 0 0
1447 1 2.3854837303064244e-01 6.8130886517665088e+00 2.4188763692002375e+01 1 0 1
3195 1 1.6286977714515667e+00 9.4303790228034003e+00 2.3747997517613552e+01 0 0 0
1866 1 7.0740077908641907e-01 6.0167504712706021e-01 2.4135238582410132e+01 0 0 0
5232 1 1.8387135066838334e+00 1.2106051800159497e+01 2.4617450639499484e+01 1 -1 0
573 2 0.0000000000000000e+00 1.4208590124756650e+00 3.0030999999999633e+01 0 0 0
575 2 0.0000000000000000e+00 0.0000000000000000e+00 3.0030999999999633e+01 0 0 0
584 2 1.2305000000000001e+00 2.1312885187134998e+00 3.0030999999999633e+01 0 0 0
586 2 2.4610000000000003e+00 1.4208590124756650e+00 3.0030999999999633e+01 0 0 0
588 2 2.4610000000000003e+00 0.0000000000000000e+00 3.0030999999999633e+01 0 0 0
605 2 3.6914999999999996e+00 2.1312885187134998e+00 3.0030999999999633e+01 0 0 0
582 2 1.2305000000000001e+00 3.5521475311891644e+00 3.0030999999999633e+01 0 0 0
603 2 3.6914999999999996e+00 3.5521475311891644e+00 3.0030999999999633e+01 0 0 0
901 2 0.0000000000000000e+00 2.8417180249513345e+00 3.3184427103514452e+01 0 0 0
902 2 0.0000000000000000e+00 0.0000000000000000e+00 3.3184427103514452e+01 0 0 0
903 2 1.2305000000000001e+00 7.1042950623783474e-01 3.3184427103514452e+01 0 0 0
907 2 1.2305000000000001e+00 2.1312885187134998e+00 3.3184427103514452e+01 0 0 0
908 2 2.4610000000000003e+00 2.8417180249513345e+00 3.3184427103514452e+01 0 0 0
909 2 2.4610000000000003e+00 0.0000000000000000e+00 3.3184427103514452e+01 0 0 0
910 2 3.6915000000000004e+00 7.1042950623783474e-01 3.3184427103514452e+01 0 0 0
918 2 3.6914999999999996e+00 2.1312885187134998e+00 3.3184427103514452e+01 0 0 0
607 2 4.9220000000000006e+00 1.4208590124756650e+00 3.0030999999999633e+01 0 0 0
609 2 4.9220000000000006e+00 0.0000000000000000e+00 3.0030999999999633e+01 0 0 0
634 2 6.1524999999999999e+00 2.1312885187134989e+00 3.0030999999999633e+01 0 0 0
636 2 7.3829999999999991e+00 1.4208590124756659e+00 3.0030999999999633e+01 0 0 0
638 2 7.3829999999999991e+00 0.0000000000000000e+00 3.0030999999999633e+01 0 0 0
671 2 8.6134999999999984e+00 2.1312885187135002e+00 3.0030999999999633e+01 0 0 0
632 2 6.1524999999999999e+00 3.5521475311891644e+00 3.0030999999999633e+01 0 0 0
669 2 8.6134999999999984e+00 3.5521475311891657e+00 3.0030999999999633e+01 0 0 0
919 2 4.9220000000000006e+00 2.8417180249513332e+00 3.3184427103514452e+01 0 0 0
920 2 4.9220000000000006e+00 0.0000000000000000e+00 3.3184427103514452e+01 0 0 0
921 2 6.1524999999999999e+00 7.1042950623783407e-01 3.3184427103514452e+01 0 0 0
933 2 6.1524999999999999e+00 2.1312885187134989e+00 3.3184427103514452e+01 0 0 0
934 2 7.3829999999999991e+00 2.8417180249513345e+00 3.3184427103514452e+01 0 0 0
935 2 7.3829999999999991e+00 0.0000000000000000e+00 3.3184427103514452e+01 0 0 0
936 2 8.6134999999999984e+00 7.1042950623783407e-01 3.3184427103514452e+01 0 0 0
952 2 8.6134999999999984e+00 2.1312885187135002e+00 3.3184427103514452e+01 0 0 0
578 2 0.0000000000000000e+00 5.6834360499026637e+00 3.0030999999999633e+01 0 0 0
580 2 0.0000000000000000e+00 4.2625770374269996e+00 3.0030999999999633e+01 0 0 0
597 2 1.2305000000000001e+00 6.3938655561404980e+00 3.0030999999999633e+01 0 0 0
599 2 2.4610000000000003e+00 5.6834360499026637e+00 3.0030999999999633e+01 0 0 0
601 2 2.4610000000000003e+00 4.2625770374269996e+00 3.0030999999999633e+01 0 0 0
626 2 3.6914999999999996e+00 6.3938655561404980e+00 3.0030999999999633e+01 0 0 0
595 2 1.2305000000000001e+00 7.8147245686161639e+00 3.0030999999999633e+01 0 0 0
624 2 3.6914999999999996e+00 7.8147245686161639e+00 3.0030999999999633e+01 0 0 0
905 2 0.0000000000000000e+00 4.2625770374269996e+00 3.3184427103514452e+01 0 0 0
906 2 1.2305000000000001e+00 4.9730065436648339e+00 3.3184427103514452e+01 0 0 0
914 2 1.2305000000000001e+00 6.3938655561404980e+00 3.3184427103514452e+01 0 0 0
916 2 2.4610000000000003e+00 4.2625770374269996e+00 3.3184427103514452e+01 0 0 0
917 2 3.6914999999999996e+00 4.9730065436648339e+00 3.3184427103514452e+01 0 0 0
929 2 3.6914999999999996e+00 6.3938655561404980e+00 3.3184427103514452e+01 0 0 0
904 2 0.0000000000000000e+00 7.1042950623783341e+00 3.3184427103514452e+01 0 0 0
915 2 2.4610000000000003e+00 7.1042950623783341e+00 3.3184427103514452e+01 0 0 0
628 2 4.9220000000000006e+00 5.6834360499026637e+00 3.0030999999999633e+01 0 0 0
630 2 4.9220000000000006e+00 4.2625770374269978e+00 3.0030999999999633e+01 0 0 0
663 2 6.1524999999999999e+00 6.3938655561404980e+00 3.0030999999999633e+01 0 0 0
665 2 7.3829999999999991e+00 5.6834360499026637e+00 3.0030999999999633e+01 0 0 0
667 2 7.3829999999999991e+00 4.2625770374269996e+00 3.0030999999999633e+01 0 0 0
708 2 8.6135000000000002e+00 6.3938655561404980e+00 3.0030999999999633e+01 0 0 0
661 2 6.1524999999999999e+00 7.8147245686161639e+00 3.0030999999999633e+01 0 0 0
706 2 8.6135000000000002e+00 7.8147245686161639e+00 3.0030999999999633e+01 0 0 0
931 2 4.9220000000000006e+00 4.2625770374269978e+00 3.3184427103514452e+01 0 0 0
932 2 6.1524999999999999e+00 4.9730065436648339e+00 3.3184427103514452e+01 0 0 0
948 2 6.1524999999999999e+00 6.3938655561404980e+00 3.3184427103514452e+01 0 0 0
950 2 7.3829999999999991e+00 4.2625770374269996e+00 3.3184427103514452e+01 0 0 0
951 2 8.6135000000000002e+00 4.9730065436648339e+00 3.3184427103514452e+01 0 0 0
971 2 8.6135000000000002e+00 6.3938655561404980e+00 3.3184427103514452e+01 0 0 0
930 2 4.9220000000000006e+00 7.1042950623783341e+00 3.3184427103514452e+01 0 0 0
949 2 7.3830000000000009e+00 7.1042950623783341e+00 3.3184427103514452e+01 0 0 0
591 2 0.0000000000000000e+00 9.9460130873296642e+00 3.0030999999999633e+01 0 0 0
593 2 0.0000000000000000e+00 8.5251540748539991e+00 3.0030999999999633e+01 0 0 0
620 2 2.4610000000000003e+00 9.9460130873296642e+00 3.0030999999999633e+01 0 0 0
622 2 2.4610000000000003e+00 8.5251540748539991e+00 3.0030999999999633e+01 0 0 0
616 2 1.2305000000000001e+00 1.2077301606043163e+01 3.0030999999999633e+01 0 0 0
618 2 1.2305000000000001e+00 1.0656442593567498e+01 3.0030999999999633e+01 0 0 0
653 2 3.6914999999999996e+00 1.2077301606043163e+01 3.0030999999999633e+01 0 0 0
655 2 3.6914999999999996e+00 1.0656442593567499e+01 3.0030999999999633e+01 0 0 0
912 2 0.0000000000000000e+00 8.5251540748539991e+00 3.3184427103514452e+01 0 0 0
913 2 1.2305000000000001e+00 9.2355835810918343e+00 3.3184427103514452e+01 0 0 0
927 2 2.4610000000000003e+00 8.5251540748539991e+00 3.3184427103514452e+01 0 0 0
928 2 3.6915000000000004e+00 9.2355835810918343e+00 3.3184427103514452e+01 0 0 0
911 2 0.0000000000000000e+00 1.1366872099805333e+01 3.3184427103514452e+01 0 0 0
925 2 1.2305000000000001e+00 1.0656442593567498e+01 3.3184427103514452e+01 0 0 0
926 2 2.4610000000000003e+00 1.1366872099805333e+01 3.3184427103514452e+01 0 0 0
944 2 3.6914999999999996e+00 1.0656442593567499e+01 3.3184427103514452e+01 0 0 0
657 2 4.9220000000000006e+00 9.9460130873296642e+00 3.0030999999999633e+01 0 0 0
659 2 4.9220000000000006e+00 8.5251540748539991e+00 3.0030999999999633e+01 0 0 0
702 2 7.3830000000000009e+00 9.9460130873296642e+00 3.0030999999999633e+01 0 0 0
704 2 7.3830000000000009e+00 8.5251540748539991e+00 3.0030999999999633e+01 0 0 0
698 2 6.1524999999999999e+00 1.2077301606043163e+01 3.0030999999999633e+01 0 0 0
700 2 6.1524999999999999e+00 1.0656442593567499e+01 3.0030999999999633e+01 0 0 0
745 2 8.6135000000000002e+00 1.2077301606043163e+01 3.0030999999999633e+01 0 0 0
747 2 8.6134999999999984e+00 1.0656442593567498e+01 3.0030999999999633e+01 0 0 0
946 2 4.9220000000000006e+00 8.5251540748539991e+00 3.3184427103514452e+01 0 0 0
947 2 6.1524999999999999e+00 9.2355835810918343e+00 3.3184427103514452e+01 0 0 0
969 2 7.3830000000000009e+00 8.5251540748539991e+00 3.3184427103514452e+01 0 0 0
970 2 8.6134999999999984e+00 9.2355835810918343e+00 3.3184427103514452e+01 0 0 0
945 2 4.9220000000000006e+00 1.1366872099805333e+01 3.3184427103514452e+01 0 0 0
967 2 6.1524999999999999e+00 1.0656442593567499e+01 3.3184427103514452e+01 0 0 0
968 2 7.3829999999999991e+00 1.1366872099805333e+01 3.3184427103514452e+01 0 0 0
991 2 8.6134999999999984e+00 1.0656442593567498e+01 3.3184427103514452e+01 0 0 0
4715 1 2.9207931259155444e+00 2.7177010600935976e+00 3.5701886324284956e+01 1 0 0
156 1 9.6299735374567841e-01 7.7361008311259036e+00 3.5798452998963299e+01 1 0 -1
5154 1 5.4877754871956190e+00 1.5864182438413377e+00 3.5754578254032509e+01 1 1 -1
6483 1 7.9540554241215036e+00 3.3783684483216940e+00 3.5974605631386439e+01 1 1 -1
8 1 4.1711342599956085e+00 1.0694139702758587e+01 3.5732216554057004e+01 1 0 0
6316 1 3.2003032943065191e+00 5.8196492838825282e+00 3.5699317912260952e+01 1 0 0
2193 1 4.8561115201024352e+00 7.9778384275312852e+00 3.6235028416378938e+01 0 0 0
2905 1 7.2263249334797157e+00 6.2704971197022132e+00 3.6290199341185797e+01 0 1 0
1539 1 7.9131487582281268e-01 5.2516357659062696e-01 3.5856849526235763e+01 0 1 0
6115 1 1.5807528516087284e+00 1.0363088296673521e+01 3.5846408923103127e+01 0 0 0
3096 1 9.7570262065595017e+00 7.1789415134118100e+00 3.5722971004287217e+01 0 -1 0
3364 1 2.8667552391053968e+00 4.9550038931650064e+00 3.9916916078767414e+01 0 1 -1
495 1 1.0932168221958734e+00 6.5438530546957407e+00 3.7990209110577410e+01 -1 0 -1
3193 1 6.9386811846420882e+00 3.5404479473843442e+00 3.8528475784606997e+01 1 1 0
4916 1 4.2000830960387967e+00 2.9209607828195279e+00 3.8345785664435013e+01 0 0 -1
2190 1 4.3158237277342293e+00 7.3226989888529452e+00 3.8914545822376269e+01 0 1 0
3344 1 7.9164863333581825e-01 9.9247479365670088e+00 3.9038920836493233e+01 0 0 0
1452 1 6.8154717039278054e+00 6.0994752049154393e+00 3.9021791980550404e+01 0 1 0
1713 1 9.5199950296083085e+00 7.0736624281947931e+00 3.9742544655579550e+01 0 0 0
3045 1 1.7712877785088581e+00 6.1142627182136811e-01 3.8506319168199354e+01 0 0 0
5402 1 3.4821895855420038e+00 9.9199011557850874e+00 3.9584284451701748e+01 0 1 0
3185 1 7.5934721664842204e+00 1.1711582524997121e+01 3.9657429588061134e+01 0 0 0
533 1 9.3992663869420898e+00 9.5248231515326900e+00 3.8575328045064410e+01 1 0 0
1360 1 8.9616466472546730e+00 7.5107494135258746e+00 4.2811452543638225e+01 0 1 -1
4612 1 6.2580761971193422e+00 9.8423636986772878e-01 4.1684592556198183e+01 -1 0 -1
4581 1 1.4938550741165841e+00 4.4187535625799939e+00 4.2687673385868095e+01 0 0 0
4804 1 6.2241305328234997e+00 4.0872688641274504e+00 4.1883325087887144e+01 0 1 0
3004 1 6.6045593641692069e+00 1.0973156966118850e+01 4.2223257799001331e+01 0 0 -1
4690 1 5.0904860134487260e+00 1.1999382332500167e+01 3.8182520269919067e+01 0 1 0
4508 1 8.9673565392807664e+00 4.3517562735182151e+00 4.0999669527760418e+01 0 1 0
1545 1 7.4026084870470099e-01 3.6789507841430016e+00 3.7470006175968805e+01 0 1 0
3758 1 6.3716348064543196e+00 8.2628136473833855e+00 4.3786053654966281e+01 0 0 0
3786 1 5.0845440788430487e+00 6.7416583322512480e+00 4.1912996359591645e+01 0 1 0
6292 1 3.8246016419827535e+00 1.0163500878838452e+01 4.2324828446226718e+01 0 1 -1
3496 1 9.4221127917269225e+00 1.9834257742545429e+00 3.9461133030531556e+01 1 1 -1
1748 1 7.7587198580625172e-01 2.3019300404614360e+00 4.0611689552522947e+01 0 1 -1
2214 1 1.8386149743757119e+00 8.6257075366631710e+00 4.3270863447601940e+01 0 1 0
1622 1 4.3802878106265242e+00 2.9325935108130657e-01 3.9701160401347607e+01 0 0 0
6111 1 1.7473004798958991e+00 1.9934617625072384e+00 4.6840103928225716e+01 1 1 -1
4496 1 9.5393643261544021e+00 1.4049861463640829e+00 4.5797092596365815e+01 0 0 0
3360 1 8.5147720530381719e+00 1.1465518935442352e+01 4.8988198715771887e+01 -1 1 0
1881 1 5.1318473595828431e+00 3.4692246086691938e+00 4.4213854906010226e+01 0 0 -1
1914 1 2.5104544506439694e+00 2.0374052759649408e+00 4.4338934933027616e+01 1 0 0
477 1 2.1535007418319436e+00 6.7010623894302075e+00 4.6777619878465515e+01 0 0 -1
3147 1 1.7041969174906411e+00 9.3538619387450854e+00 4.6053701913327700e+01 1 -1 0
2183 1 7.8155556897838219e+00 7.4444721321316853e+00 4.8717467873904567e+01 1 1 0
4664 1 5.8184140311461210e+00 5.8470088810785965e+00 4.6026432976540406e+01 0 1 0
6274 1 6.5902032300340982e+00 1.5630705162981553e+00 4.5494165938916666e+01 0 1 0
5145 1 8.3174562449835232e+00 4.4279692863546831e+00 4.6187489339453847e+01 1 0 -1
4851 1 3.9635564194543478e+00 1.0629292680615736e+01 4.6432936869115139e+01 1 1 -1
3323 1 6.5072505183661757e+00 4.7229491490104882e+00 4.9875108178429002e+01 0 0 -1
3068 1 8.5320032829580388e+00 1.0022990256825777e+01 4.6376082066794098e+01 0 0 0
4498 1 5.9446163188888796e+00 8.7073804347992265e+00 4.6547775054800596e+01 0 0 0
6100 1 3.6066673281520054e+00 8.6007312467110957e+00 4.9966331180487515e+01 0 1 0
3229 1 9.1266608883842295e+00 7.3164562256285590e+00 4.5970565757981689e+01 0 1 0
47 1 7.8303761342254175e-01 7.9829022485160346e+00 5.0787746240243351e+01 0 0 0
4827 1 3.0956334914696555e+00 3.0698591777462498e+00 4.9172082204201175e+01 -1 1 0
3409 1 5.4984514782455616e+00 1.0264166437864648e+00 4.8029626989580279e+01 1 0 -1
4676 1 4.1907459916937562e+00 5.6013540930681343e+00 4.8391874806110962e+01 1 0 0
137 1 9.5194158068702404e+00 4.6399823955273938e+00 4.8723030446113697e+01 0 2 -1
4868 1 6.3185683597289932e+00 2.1147167447250825e+00 5.0409970440074829e+01 0 0 -1
1674 1 8.9661196553676736e-01 4.0465808078366496e+00 5.0762294811473225e+01 0 0 -1
30 1 3.7445360176140707e+00 1.1432280333028272e+01 4.9213971907168727e+01 1 1 -1
2026 1 3.8111910466056254e-01 4.5555179812228817e+00 4.6758391036518205e+01 0 0 -1
1287 1 8.1946571986051886e+00 1.1851003368817654e+01 4.4424906053463005e+01 1 0 0
4892 1 8.7586837335379570e+00 9.5777302731803515e-01 5.0778445776808127e+01 1 1 -1
2124 1 3.1442396759313302e+00 6.2104363015820567e+00 4.4268988315817296e+01 -1 1 0
3280 1 5.6983683163766541e+00 4.4315390903859808e-01 5.3373058236732476e+01 0 0 0
4785 1 2.6056964255065584e+00 1.5625252046690092e+00 5.5911318458060080e+01 1 0 0
1854 1 9.2381969810322122e+00 3.8725204309716843e+00 5.4396785648031937e+01 1 0 0
3290 1 9.3540255275064936e+00 9.4590774599056324e+00 5.5548494336468735e+01 0 0 -1
4755 1 4.9954581042655075e+00 9.3477074643454650e+00 5.2153580588267474e+01 1 -1 0
4768 1 4.4097169509141922e+00 4.7272396116329638e+00 5.3259124212753790e+01 1 0 0
4749 1 1.7271194882443521e+00 6.1898419449634563e+00 5.2700935837420715e+01 1 1 -1
5321 1 1.4704015274054414e+00 7.9075682551370639e+00 5.4781712396387249e+01 1 1 -1
4744 1 8.1804126965586246e+00 6.6133428634132887e+00 5.3697114220943192e+01 0 0 0
4934 1 5.8722533569359268e+00 6.4319480510091420e+00 5.1990459088807370e+01 0 0 -1
2882 1 5.7916758516903926e+00 1.2206040711877325e+01 5.2363509157706915e+01 0 1 0
424 1 4.2524885403060839e+00 9.0208527869178337e+00 5.4723839663491120e+01 1 0 -1
2967 1 4.0000590537025232e-01 1.1349400226533740e+01 5.6999850668736855e+01 0 1 0
1473 1 6.9811101373288453e+00 9.7056510428411826e+00 5.7828222122622776e+01 0 0 0
4758 1 6.2814076208937308e+00 7.2584777219547538e+00 5.5857748108718141e+01 -1 1 0
2875 1 4.8368853388386466e+00 4.8694488704508219e+00 5.5945206584182372e+01 0 1 0
15 1 3.2797549212461385e+00 1.1053512184516002e+01 5.6151798330107439e+01 0 1 0
6157 1 3.7387606017052661e+00 2.3924741380578687e+00 5.1783206193068509e+01 0 1 0
480 1 9.2012247180705131e+00 7.0412515559070217e+00 5.6896430852042258e+01 0 -2 -1
3177 1 7.2575327032668779e+00 3.5084860358794869e+00 5.6341311887209585e+01 1 0 -1
438 1 5.3855463321221384e+00 1.1487072544952237e+00 5.6058205629869121e+01 0 0 -1
4904 1 1.9889471523147015e+00 6.9872254796644260e+00 5.7404696162023541e+01 1 0 -1
6299 1 7.1747755579679700e+00 1.1896410087747139e+01 5.5682958611086178e+01 0 1 -1
2139 1 2.3807699033582028e+00 4.2902242007521840e+00 5.7413054734583625e+01 0 0 0
1589 1 2.1575887189540035e+00 5.2804779843074301e-01 5.3650309085832461e+01 -1 1 0
1661 1 7.8076417176066419e+00 9.7029964631950190e+00 5.1093263524100180e+01 0 0 0
2903 1 9.7954883101714412e+00 9.8083304167841756e-01 5.5245220875530080e+01 0 0 0
329 1 9.6909264277113945e+00 3.3734276214391503e+00 5.1602764143077010e+01 1 0 -1
6099 1 5.4814335023724778e+00 1.6111431619829236e+01 6.8485771862057225e+00 -1 1 1
5449 1 1.1188273939760232e+00 2.4141559489641136e+01 5.9655581695780135e+00 0 0 0
395 1 8.6380471228957880e+00 2.2136328064849284e+01 6.9207676719451428e+00 1 -1 0
3664 1 2.2111341504782853e+00 2.0147875943175571e+01 4.2320170116492717e+00 1 0 0
2116 1 1.7866738211123883e+00 1.7744913121809944e+01 2.9420341752659462e+00 1 0 1
5198 1 5.6849758286232186e+00 1.8285762464609924e+01 3.0378098297364486e+00 1 0 0
4792 1 7.0320443256845397e+00 1.2761726425791515e+01 4.2435775183674309e+00 1 1 1
81 1 5.9257604560837276e+00 2.3275141933439532e+01 6.5873474095059752e+00 0 0 1
1465 1 8.9573872139697510e+00 2.2182622052412871e+01 2.6655216831451813e+00 0 0 1
2059 1 5.4135795473962167e-01 2.2315684218941982e+01 4.0476884692467783e+00 1 0 0
5181 1 8.6384088002476282e+00 1.6875045367908044e+01 4.2289741264592786e+00 1 0 0
6220 1 7.1715504934334735e+00 1.9592074579804827e+01 5.2034342586279720e+00 0 2 1
6239 1 2.6882577534748768e+00 1.5508228440761185e+01 7.8856179617176387e+00 0 0 1
200 1 6.8354165405137213e+00 1.4716397822513077e+01 8.8744552629373139e+00 0 0 1
3524 1 7.6924156668770427e-01 2.0664450320675446e+01 8.4303709809685792e+00 0 0 0
3440 1 4.3513578478468351e-01 1.4997615495846015e+01 6.6430895728924853e+00 0 0 1
5330 1 3.1371700804444669e+00 2.0394365896451841e+01 6.7130852498225222e+00 1 0 1
5262 1 1.8518673547846769e+00 1.8019010789839889e+01 8.8009965099929381e+00 0 -1 1
5150 1 6.3848913327992873e+00 2.2288920415688374e+01 4.1262319452080902e+00 1 -1 0
1273 1 5.3932328672127703e+00 1.8977362578093079e+01 7.2367120048693794e+00 1 0 1
6374 1 4.0093642716540119e+00 1.3270949946522753e+01 6.2753585890602270e+00 1 0 0
3603 1 6.1068851556677188e+00 1.5692542528363933e+01 4.2363647350395928e+00 1 1 0
2977 1 2.6254297042685542e+00 1.5015726832223296e+01 2.2731211119207293e+00 0 0 1
6289 1 3.2563458523836255e+00 2.2880373627816105e+01 7.3124687885287081e+00 1 0 1
3545 1 8.9165241205635297e+00 1.7613067844844057e+01 8.9369598098231080e+00 1 0 0
6433 1 9.7288491147965122e+00 1.4956227507475647e+01 8.5113470308919830e+00 -1 1 1