LAMMPS data file via write_data, version 16 Mar 2018, timestep = 6000000

6489 atoms
2 atom types

0.0000000000000000e+00 4.9219999999999999e+01 xlo xhi
0.0000000000000000e+00 4.9019635930410494e+01 ylo yhi
5.4651457960852667e-01 5.9515485420393233e+01 zlo zhi

Masses

1 18.015
2 12.01

Atoms # atomic

6409 1 1.2834294957735621e+00 1.7191341430029501e+00 2.7338712826316618e+00 1 1 0
5257 1 3.4463424190974838e+00 1.8585329223161795e-01 1.8244586209033402e+00 0 4 1
4514 1 5.3415368141502473e+00 2.3925531381862877e+00 2.6618524071046061e+00 0 1 1
5188 1 7.5995801785406591e+00 1.1048996747032340e+00 1.5723830470335007e+00 -2 -1 0
4707 1 6.0118391447055828e+00 1.1984119238224908e+01 6.5275158344793880e+00 0 3 1
120 1 2.5706600502236325e+00 5.8970332110409451e+00 2.6135779649341071e+00 2 0 0
5070 1 4.8748517054239606e+00 4.9884205075881898e+00 1.7053760883220916e+00 1 0 0
2021 1 9.2666185690483189e+00 5.5535766122009838e+00 1.6563358541109698e+00 1 -1 0
4841 1 7.0125954350750135e+00 6.6490471620773901e+00 2.4975461084905239e+00 -1 0 1
326 1 2.0175197843154797e+00 8.4185232459460657e+00 1.9282380091413320e+00 0 0 0
5006 1 4.0302590258832964e+00 1.0404450200749647e+01 2.7602904604923619e+00 2 1 0
2945 1 6.4155456525532104e+00 9.3215659658145693e+00 1.5318455653542118e+00 0 2 1
3017 1 8.2934493041368782e+00 1.1191754337698910e+01 2.7612492150708601e+00 0 1 0
1311 1 3.2896766386057918e+00 3.2048303418133344e+00 6.5390656917896708e+00 -1 1 1
1402 1 1.3037183441706814e+00 1.6320670710707481e+00 5.4554721775674251e+00 1 3 1
5256 1 5.6252648140049804e+00 2.2878117630687882e+00 5.2994575140018458e+00 -1 1 0
1909 1 8.3151851121639488e+00 1.0925290927757905e+01 5.4170521940939302e+00 1 1 0
2887 1 2.6549376296055045e+00 5.4916807679475497e+00 5.4314623535569364e+00 2 0 1
5059 1 4.6495571599078573e+00 7.4749647669904133e+00 6.0950507901548745e+00 3 -3 1
478 1 8.7824324631477655e+00 8.3016605854188814e+00 6.3411679443998823e+00 -2 0 1
1860 1 7.2599535859888498e+00 4.1489388981934550e+00 6.3298203508060631e+00 2 3 0
3458 1 6.9977527835627047e+00 6.6801935257868514e+00 5.2052184432576558e+00 1 1 0
1926 1 1.7123748105160370e+00 1.1525151942468449e+01 6.2155940262780698e+00 1 1 1
6432 1 4.2050141734857762e+00 1.0133868993261029e+01 5.5052313455016675e+00 0 3 1
3551 1 9.3711665612258865e-01 4.1802212655266651e+00 1.7497802007601062e+00 0 1 0
1353 1 9.4140055007562875e+00 2.8777205034280966e+00 2.5117009049337407e+00 -3 3 1
3365 1 1.7564200330315230e-01 7.0241762100777523e+00 6.3652180445069568e+00 -1 -4 1
3041 1 3.1834496316979832e+00 3.4650044226083585e+00 9.5046934762678958e+00 0 0 1
3604 1 1.2355670631632705e+00 1.4806920222882121e+00 1.0122394403119319e+01 0 -2 0
452 1 5.6650061983817634e+00 2.1592827920128355e+00 9.9545554817382396e+00 -1 -1 1
1879 1 3.9569178991485567e+00 1.0102197267334507e+01 1.2615508664964675e+01 1 1 0
4639 1 2.6158969874727123e+00 5.9698459066250233e+00 1.0136997701560260e+01 1 0 1
3554 1 4.6261531938693841e+00 7.5894022265092529e+00 8.7200154224472719e+00 1 0 0
294 1 1.1327328493717941e-01 6.9303301167307456e+00 1.3724476649444641e+01 1 1 0
3366 1 7.5884236518119783e+00 3.9847213682172047e+00 9.1571550731919054e+00 0 -2 1
3453 1 7.0741976188826463e+00 6.6281056471793667e+00 9.9957777624927360e+00 -1 0 0
3260 1 3.9382531050596823e+00 1.0256232577122660e+01 9.7484908854602708e+00 0 -2 0
2911 1 1.5705121056982350e+00 1.1346337046864226e+01 8.9762922845469202e+00 -1 -2 1
5092 1 8.9087329907162847e+00 8.3850090277902023e+00 9.1061140189950240e+00 1 -1 0
5204 1 8.4299372600619602e+00 1.1024012925106929e+01 1.0056153772229885e+01 -3 1 0
4671 1 8.5017602924149820e+00 1.0794945345005875e+01 1.2881225984351399e+01 -2 1 0
4578 1 3.1965342130072343e+00 3.0984732075726029e+00 1.3668318225688598e+01 -1 2 0
5384 1 1.4861993059486862e+00 1.3042287631345044e+00 1.2753205936468520e+01 0 -3 0
436 1 5.4231260731748456e+00 1.9778841033024428e+00 1.2783217593242037e+01 0 3 0
2938 1 7.3998443715205164e+00 3.8954534821186075e+00 1.3305206289069407e+01 0 3 1
6443 1 2.4992786944959304e+00 5.7159679808881663e+00 1.2785372311821691e+01 0 -1 0
24 1 4.5495782614445366e+00 7.5819904010891124e+00 1.3530598896565975e+01 -3 -1 0
3466 1 1.4143991513774585e+00 1.0894345636697844e+01 1.3931573824435738e+01 2 -1 0
2161 1 8.7560167473449599e+00 7.9464250908882690e+00 1.3635603822329038e+01 3 2 1
3055 1 6.8096611734435450e+00 6.5922470231069852e+00 1.2656166719620114e+01 0 1 0
1393 1 6.0142343809971042e+00 1.1975880826221704e+01 1.3384149495833130e+01 2 0 1
1815 1 6.0188443134839735e+00 1.1773630146890968e+01 9.1266040793187244e+00 0 3 0
4913 1 2.5391276959427861e-01 7.0432081378883780e+00 9.3441152967348593e+00 -2 0 0
4676 1 3.1968119503644461e+00 3.1480144071003262e+00 1.6399825979878983e+01 2 -1 1
447 1 1.4991111479824226e+00 1.2176067924856635e+00 1.7347405518626381e+01 3 2 0
1847 1 5.5315084807868384e+00 2.1364448521648760e+00 1.7415138851939091e+01 0 -1 1
6483 1 7.3674242473665217e+00 3.7786833237372885e+00 1.6023853301220136e+01 -2 0 0
6133 1 2.6461412355440839e+00 5.6088576723327694e+00 1.7345872801067667e+01 0 0 1
5211 1 4.3171260348045148e+00 7.7011018109452500e+00 1.6356174573754309e+01 0 2 0
2916 1 9.2959109026740574e+00 5.1653411124702506e+00 2.1321657915328270e+01 -1 0 1
3256 1 6.9392721350906479e+00 6.0561708072126681e+00 1.7324072578340918e+01 -1 0 0
5003 1 8.7273367938228894e+00 8.1404948945455526e+00 1.6445548363847763e+01 0 1 1
6263 1 4.0598717520443364e+00 1.0139897881568762e+01 1.7407461503101903e+01 2 2 1
5164 1 1.4204277003889805e+00 1.1217525477272286e+01 1.6658883421775659e+01 2 1 0
1466 1 8.2289347461916869e+00 1.0693472145966046e+01 1.7541902119050420e+01 0 -2 1
7 1 6.1542850559933111e+00 1.1783395579183310e+01 1.6214331265101642e+01 0 -2 1
4925 1 3.8019873500747328e+00 1.7151498344027480e-01 2.1147941022134258e+01 1 -3 0
1455 1 1.4644819131665050e+00 1.2477919521063146e+00 2.0083851774219955e+01 -1 -1 1
3267 1 5.7183694151235045e+00 1.9424073706764244e+00 2.0227793043374053e+01 -1 0 1
5327 1 8.2453215152709429e+00 1.1490888218488970e+00 2.0950764961574542e+01 1 0 0
2985 1 6.4895564215761352e+00 8.6350352689135459e+00 2.1217261332582058e+01 2 1 0
1930 1 6.4742242848804343e-01 4.0347736969943169e+00 2.0795889326529768e+01 0 -1 0
2028 1 2.6320676954667808e+00 5.5902083528073083e+00 2.0112245822568568e+01 1 2 0
3750 1 2.3902797074998365e+00 8.2533249528028563e+00 2.0864352021835234e+01 2 1 1
1610 1 8.2910632135903946e+00 1.0695512184730118e+01 2.0438582845823877e+01 -1 1 0
2064 1 5.0659827447685739e+00 4.3873444870224025e+00 2.1009457350092113e+01 0 3 0
4594 1 7.0931885220106334e+00 6.0277562729553207e+00 2.0156061224200929e+01 1 1 1
1647 1 4.3090560156031934e+00 1.0109637996583993e+01 2.0016093490462676e+01 0 0 1
3661 1 9.5247642890770443e+00 2.4961752464402274e+00 1.7252064813014719e+01 0 -1 0
1789 1 2.5335556061774150e-01 6.6892947142247268e+00 1.6267458310017247e+01 3 2 0
1260 1 5.9427516265496048e-02 9.6999736031597141e+00 2.0024225650424654e+01 -1 -2 1
3611 1 1.4399068264014330e+00 1.6227124969717368e+00 2.4347863430101516e+01 1 2 1
3636 1 7.9455658570058851e-01 4.3410775336968124e+00 2.3671878806826943e+01 1 -1 1
746 2 8.6134999999999984e+00 1.0656442593567498e+01 2.6710100504978492e+01 0 0 0
3246 1 6.3651424262721772e+00 1.7035740079934607e+00 2.3968303222556880e+01 1 1 1
6147 1 3.1684967803868127e+00 5.6827581974323040e+00 2.3282514572962704e+01 1 1 1
1780 1 2.7740573671302968e+00 8.4891727967892194e+00 2.3599185763806975e+01 -2 3 0
1941 1 5.7052806004207399e+00 4.3959828491397284e+00 2.3754325410644363e+01 -1 1 0
404 1 7.9321272643680185e+00 5.9542889896953035e+00 2.3987339896517021e+01 2 -1 1
660 2 6.1524999999999999e+00 9.2355835810918343e+00 2.6710100504978492e+01 0 0 0
1925 1 5.0751635165306759e+00 9.8982394572888257e+00 2.4175618760146815e+01 -2 3 0
5330 1 7.7809850797216233e+00 8.8152692873897607e+00 2.4019302476442618e+01 1 -2 1
658 2 4.9220000000000006e+00 8.5251540748539991e+00 2.6710100504978492e+01 0 0 0
572 2 0.0000000000000000e+00 2.8417180249513345e+00 2.6710100504978492e+01 0 0 0
574 2 0.0000000000000000e+00 0.0000000000000000e+00 2.6710100504978492e+01 0 0 0
576 2 1.2305000000000001e+00 7.1042950623783474e-01 2.6710100504978492e+01 0 0 0
583 2 1.2305000000000001e+00 2.1312885187134998e+00 2.6710100504978492e+01 0 0 0
585 2 2.4610000000000003e+00 2.8417180249513345e+00 2.6710100504978492e+01 0 0 0
587 2 2.4610000000000003e+00 0.0000000000000000e+00 2.6710100504978492e+01 0 0 0
589 2 3.6915000000000004e+00 7.1042950623783474e-01 2.6710100504978492e+01 0 0 0
604 2 3.6914999999999996e+00 2.1312885187134998e+00 2.6710100504978492e+01 0 0 0
606 2 4.9220000000000006e+00 2.8417180249513332e+00 2.6710100504978492e+01 0 0 0
608 2 4.9220000000000006e+00 0.0000000000000000e+00 2.6710100504978492e+01 0 0 0
610 2 6.1524999999999999e+00 7.1042950623783407e-01 2.6710100504978492e+01 0 0 0
633 2 6.1524999999999999e+00 2.1312885187134989e+00 2.6710100504978492e+01 0 0 0
635 2 7.3829999999999991e+00 2.8417180249513345e+00 2.6710100504978492e+01 0 0 0
637 2 7.3829999999999991e+00 0.0000000000000000e+00 2.6710100504978492e+01 0 0 0
639 2 8.6134999999999984e+00 7.1042950623783407e-01 2.6710100504978492e+01 0 0 0
670 2 8.6134999999999984e+00 2.1312885187135002e+00 2.6710100504978492e+01 0 0 0
579 2 0.0000000000000000e+00 4.2625770374269996e+00 2.6710100504978492e+01 0 0 0
581 2 1.2305000000000001e+00 4.9730065436648339e+00 2.6710100504978492e+01 0 0 0
596 2 1.2305000000000001e+00 6.3938655561404980e+00 2.6710100504978492e+01 0 0 0
600 2 2.4610000000000003e+00 4.2625770374269996e+00 2.6710100504978492e+01 0 0 0
602 2 3.6914999999999996e+00 4.9730065436648339e+00 2.6710100504978492e+01 0 0 0
625 2 3.6914999999999996e+00 6.3938655561404980e+00 2.6710100504978492e+01 0 0 0
577 2 0.0000000000000000e+00 7.1042950623783341e+00 2.6710100504978492e+01 0 0 0
598 2 2.4610000000000003e+00 7.1042950623783341e+00 2.6710100504978492e+01 0 0 0
629 2 4.9220000000000006e+00 4.2625770374269978e+00 2.6710100504978492e+01 0 0 0
631 2 6.1524999999999999e+00 4.9730065436648339e+00 2.6710100504978492e+01 0 0 0
662 2 6.1524999999999999e+00 6.3938655561404980e+00 2.6710100504978492e+01 0 0 0
666 2 7.3829999999999991e+00 4.2625770374269996e+00 2.6710100504978492e+01 0 0 0
668 2 8.6135000000000002e+00 4.9730065436648339e+00 2.6710100504978492e+01 0 0 0
707 2 8.6135000000000002e+00 6.3938655561404980e+00 2.6710100504978492e+01 0 0 0
627 2 4.9220000000000006e+00 7.1042950623783341e+00 2.6710100504978492e+01 0 0 0
664 2 7.3830000000000009e+00 7.1042950623783341e+00 2.6710100504978492e+01 0 0 0
592 2 0.0000000000000000e+00 8.5251540748539991e+00 2.6710100504978492e+01 0 0 0
594 2 1.2305000000000001e+00 9.2355835810918343e+00 2.6710100504978492e+01 0 0 0
621 2 2.4610000000000003e+00 8.5251540748539991e+00 2.6710100504978492e+01 0 0 0
623 2 3.6915000000000004e+00 9.2355835810918343e+00 2.6710100504978492e+01 0 0 0
590 2 0.0000000000000000e+00 1.1366872099805333e+01 2.6710100504978492e+01 0 0 0
617 2 1.2305000000000001e+00 1.0656442593567498e+01 2.6710100504978492e+01 0 0 0
619 2 2.4610000000000003e+00 1.1366872099805333e+01 2.6710100504978492e+01 0 0 0
654 2 3.6914999999999996e+00 1.0656442593567499e+01 2.6710100504978492e+01 0 0 0
656 2 4.9220000000000006e+00 1.1366872099805333e+01 2.6710100504978492e+01 0 0 0
703 2 7.3830000000000009e+00 8.5251540748539991e+00 2.6710100504978492e+01 0 0 0
701 2 7.3829999999999991e+00 1.1366872099805333e+01 2.6710100504978492e+01 0 0 0
699 2 6.1524999999999999e+00 1.0656442593567499e+01 2.6710100504978492e+01 0 0 0
705 2 8.6134999999999984e+00 9.2355835810918343e+00 2.6710100504978492e+01 0 0 0
199 1 3.8815811695343276e+00 3.2243827874839448e-01 2.3842951421196652e+01 2 -2 0
237 1 8.8695754601844659e+00 4.9919145808319687e-01 2.3790634037401396e+01 -1 2 0
4800 1 2.8097519426123752e-01 9.2862637865601609e+00 2.4317404660875578e+01 -1 1 1
573 2 0.0000000000000000e+00 1.4208590124756650e+00 3.0031000000001278e+01 0 0 0
575 2 0.0000000000000000e+00 0.0000000000000000e+00 3.0031000000001278e+01 0 0 0
584 2 1.2305000000000001e+00 2.1312885187134998e+00 3.0031000000001278e+01 0 0 0
586 2 2.4610000000000003e+00 1.4208590124756650e+00 3.0031000000001278e+01 0 0 0
588 2 2.4610000000000003e+00 0.0000000000000000e+00 3.0031000000001278e+01 0 0 0
605 2 3.6914999999999996e+00 2.1312885187134998e+00 3.0031000000001278e+01 0 0 0
582 2 1.2305000000000001e+00 3.5521475311891644e+00 3.0031000000001278e+01 0 0 0
603 2 3.6914999999999996e+00 3.5521475311891644e+00 3.0031000000001278e+01 0 0 0
901 2 0.0000000000000000e+00 2.8417180249513345e+00 3.3351899495031176e+01 0 0 0
902 2 0.0000000000000000e+00 0.0000000000000000e+00 3.3351899495031176e+01 0 0 0
903 2 1.2305000000000001e+00 7.1042950623783474e-01 3.3351899495031176e+01 0 0 0
907 2 1.2305000000000001e+00 2.1312885187134998e+00 3.3351899495031176e+01 0 0 0
908 2 2.4610000000000003e+00 2.8417180249513345e+00 3.3351899495031176e+01 0 0 0
909 2 2.4610000000000003e+00 0.0000000000000000e+00 3.3351899495031176e+01 0 0 0
910 2 3.6915000000000004e+00 7.1042950623783474e-01 3.3351899495031176e+01 0 0 0
918 2 3.6914999999999996e+00 2.1312885187134998e+00 3.3351899495031176e+01 0 0 0
607 2 4.9220000000000006e+00 1.4208590124756650e+00 3.0031000000001278e+01 0 0 0
609 2 4.9220000000000006e+00 0.0000000000000000e+00 3.0031000000001278e+01 0 0 0
634 2 6.1524999999999999e+00 2.1312885187134989e+00 3.0031000000001278e+01 0 0 0
636 2 7.3829999999999991e+00 1.4208590124756659e+00 3.0031000000001278e+01 0 0 0
638 2 7.3829999999999991e+00 0.0000000000000000e+00 3.0031000000001278e+01 0 0 0
671 2 8.6134999999999984e+00 2.1312885187135002e+00 3.0031000000001278e+01 0 0 0
632 2 6.1524999999999999e+00 3.5521475311891644e+00 3.0031000000001278e+01 0 0 0
669 2 8.6134999999999984e+00 3.5521475311891657e+00 3.0031000000001278e+01 0 0 0
919 2 4.9220000000000006e+00 2.8417180249513332e+00 3.3351899495031176e+01 0 0 0
920 2 4.9220000000000006e+00 0.0000000000000000e+00 3.3351899495031176e+01 0 0 0
921 2 6.1524999999999999e+00 7.1042950623783407e-01 3.3351899495031176e+01 0 0 0
933 2 6.1524999999999999e+00 2.1312885187134989e+00 3.3351899495031176e+01 0 0 0
934 2 7.3829999999999991e+00 2.8417180249513345e+00 3.3351899495031176e+01 0 0 0
935 2 7.3829999999999991e+00 0.0000000000000000e+00 3.3351899495031176e+01 0 0 0
936 2 8.6134999999999984e+00 7.1042950623783407e-01 3.3351899495031176e+01 0 0 0
952 2 8.6134999999999984e+00 2.1312885187135002e+00 3.3351899495031176e+01 0 0 0
578 2 0.0000000000000000e+00 5.6834360499026637e+00 3.0031000000001278e+01 0 0 0
580 2 0.0000000000000000e+00 4.2625770374269996e+00 3.0031000000001278e+01 0 0 0
597 2 1.2305000000000001e+00 6.3938655561404980e+00 3.0031000000001278e+01 0 0 0
599 2 2.4610000000000003e+00 5.6834360499026637e+00 3.0031000000001278e+01 0 0 0
601 2 2.4610000000000003e+00 4.2625770374269996e+00 3.0031000000001278e+01 0 0 0
626 2 3.6914999999999996e+00 6.3938655561404980e+00 3.0031000000001278e+01 0 0 0
595 2 1.2305000000000001e+00 7.8147245686161639e+00 3.0031000000001278e+01 0 0 0
624 2 3.6914999999999996e+00 7.8147245686161639e+00 3.0031000000001278e+01 0 0 0
905 2 0.0000000000000000e+00 4.2625770374269996e+00 3.3351899495031176e+01 0 0 0
906 2 1.2305000000000001e+00 4.9730065436648339e+00 3.3351899495031176e+01 0 0 0
914 2 1.2305000000000001e+00 6.3938655561404980e+00 3.3351899495031176e+01 0 0 0
916 2 2.4610000000000003e+00 4.2625770374269996e+00 3.3351899495031176e+01 0 0 0
917 2 3.6914999999999996e+00 4.9730065436648339e+00 3.3351899495031176e+01 0 0 0
929 2 3.6914999999999996e+00 6.3938655561404980e+00 3.3351899495031176e+01 0 0 0
904 2 0.0000000000000000e+00 7.1042950623783341e+00 3.3351899495031176e+01 0 0 0
915 2 2.4610000000000003e+00 7.1042950623783341e+00 3.3351899495031176e+01 0 0 0
628 2 4.9220000000000006e+00 5.6834360499026637e+00 3.0031000000001278e+01 0 0 0
630 2 4.9220000000000006e+00 4.2625770374269978e+00 3.0031000000001278e+01 0 0 0
663 2 6.1524999999999999e+00 6.3938655561404980e+00 3.0031000000001278e+01 0 0 0
665 2 7.3829999999999991e+00 5.6834360499026637e+00 3.0031000000001278e+01 0 0 0
667 2 7.3829999999999991e+00 4.2625770374269996e+00 3.0031000000001278e+01 0 0 0
708 2 8.6135000000000002e+00 6.3938655561404980e+00 3.0031000000001278e+01 0 0 0
661 2 6.1524999999999999e+00 7.8147245686161639e+00 3.0031000000001278e+01 0 0 0
706 2 8.6135000000000002e+00 7.8147245686161639e+00 3.0031000000001278e+01 0 0 0
931 2 4.9220000000000006e+00 4.2625770374269978e+00 3.3351899495031176e+01 0 0 0
932 2 6.1524999999999999e+00 4.9730065436648339e+00 3.3351899495031176e+01 0 0 0
948 2 6.1524999999999999e+00 6.3938655561404980e+00 3.3351899495031176e+01 0 0 0
950 2 7.3829999999999991e+00 4.2625770374269996e+00 3.3351899495031176e+01 0 0 0
951 2 8.6135000000000002e+00 4.9730065436648339e+00 3.3351899495031176e+01 0 0 0
971 2 8.6135000000000002e+00 6.3938655561404980e+00 3.3351899495031176e+01 0 0 0
930 2 4.9220000000000006e+00 7.1042950623783341e+00 3.3351899495031176e+01 0 0 0
949 2 7.3830000000000009e+00 7.1042950623783341e+00 3.3351899495031176e+01 0 0 0
591 2 0.0000000000000000e+00 9.9460130873296642e+00 3.0031000000001278e+01 0 0 0
593 2 0.0000000000000000e+00 8.5251540748539991e+00 3.0031000000001278e+01 0 0 0
620 2 2.4610000000000003e+00 9.9460130873296642e+00 3.0031000000001278e+01 0 0 0
622 2 2.4610000000000003e+00 8.5251540748539991e+00 3.0031000000001278e+01 0 0 0
616 2 1.2305000000000001e+00 1.2077301606043163e+01 3.0031000000001278e+01 0 0 0
618 2 1.2305000000000001e+00 1.0656442593567498e+01 3.0031000000001278e+01 0 0 0
653 2 3.6914999999999996e+00 1.2077301606043163e+01 3.0031000000001278e+01 0 0 0
655 2 3.6914999999999996e+00 1.0656442593567499e+01 3.0031000000001278e+01 0 0 0
912 2 0.0000000000000000e+00 8.5251540748539991e+00 3.3351899495031176e+01 0 0 0
913 2 1.2305000000000001e+00 9.2355835810918343e+00 3.3351899495031176e+01 0 0 0
927 2 2.4610000000000003e+00 8.5251540748539991e+00 3.3351899495031176e+01 0 0 0
928 2 3.6915000000000004e+00 9.2355835810918343e+00 3.3351899495031176e+01 0 0 0
911 2 0.0000000000000000e+00 1.1366872099805333e+01 3.3351899495031176e+01 0 0 0
925 2 1.2305000000000001e+00 1.0656442593567498e+01 3.3351899495031176e+01 0 0 0
926 2 2.4610000000000003e+00 1.1366872099805333e+01 3.3351899495031176e+01 0 0 0
944 2 3.6914999999999996e+00 1.0656442593567499e+01 3.3351899495031176e+01 0 0 0
657 2 4.9220000000000006e+00 9.9460130873296642e+00 3.0031000000001278e+01 0 0 0
659 2 4.9220000000000006e+00 8.5251540748539991e+00 3.0031000000001278e+01 0 0 0
702 2 7.3830000000000009e+00 9.9460130873296642e+00 3.0031000000001278e+01 0 0 0
704 2 7.3830000000000009e+00 8.5251540748539991e+00 3.0031000000001278e+01 0 0 0
698 2 6.1524999999999999e+00 1.2077301606043163e+01 3.0031000000001278e+01 0 0 0
700 2 6.1524999999999999e+00 1.0656442593567499e+01 3.0031000000001278e+01 0 0 0
745 2 8.6135000000000002e+00 1.2077301606043163e+01 3.0031000000001278e+01 0 0 0
747 2 8.6134999999999984e+00 1.0656442593567498e+01 3.0031000000001278e+01 0 0 0
946 2 4.9220000000000006e+00 8.5251540748539991e+00 3.3351899495031176e+01 0 0 0
947 2 6.1524999999999999e+00 9.2355835810918343e+00 3.3351899495031176e+01 0 0 0
969 2 7.3830000000000009e+00 8.5251540748539991e+00 3.3351899495031176e+01 0 0 0
970 2 8.6134999999999984e+00 9.2355835810918343e+00 3.3351899495031176e+01 0 0 0
945 2 4.9220000000000006e+00 1.1366872099805333e+01 3.3351899495031176e+01 0 0 0
967 2 6.1524999999999999e+00 1.0656442593567499e+01 3.3351899495031176e+01 0 0 0
968 2 7.3829999999999991e+00 1.1366872099805333e+01 3.3351899495031176e+01 0 0 0
991 2 8.6134999999999984e+00 1.0656442593567498e+01 3.3351899495031176e+01 0 0 0
3039 1 2.8639628442375389e+00 3.4183713278637700e+00 3.6223425749806843e+01 3 -1 0
3608 1 9.0451577925888813e+00 8.8174529365216738e+00 3.5889877315865128e+01 2 0 0
2936 1 5.5313601794221592e+00 2.4325473773257578e+00 3.5816447780164587e+01 2 0 -1
3028 1 7.7328785027345566e+00 3.9339090644378025e+00 3.6210332709584797e+01 -1 3 0
3301 1 1.9697231488849791e+00 6.2248860783628146e+00 3.5630065315460058e+01 -1 -2 -1
60 1 4.4843363945369843e+00 7.8928406915044480e+00 3.6242780177374023e+01 -1 3 -1
1439 1 7.0715935767154585e+00 6.8229320837175989e+00 3.6005930368765753e+01 0 2 -1
6300 1 4.4399757106874063e+00 1.0545653179581667e+01 3.5691322050339544e+01 2 1 0
1551 1 1.6612036236623282e+00 1.1408194747896570e+01 3.6184299317717645e+01 -2 0 0
4570 1 8.6263241261481500e+00 1.1554697996230619e+01 3.5856428208122885e+01 0 -1 -1
1305 1 7.1021772707733100e-01 1.6238610900081909e+00 3.6622414608754681e+01 2 0 0
4920 1 3.0175840667771641e+00 3.2167303102589107e+00 3.9061865275373073e+01 3 -2 -1
6412 1 7.2393043024602699e-01 1.5323319251096978e+00 3.9665881363130666e+01 0 -3 -1
4585 1 5.4719564129381100e+00 2.4050129125295876e+00 3.9718824799735600e+01 0 0 0
1913 1 7.5397695894214607e+00 4.0666234649338362e+00 3.8891876919953994e+01 1 0 0
4842 1 2.5703688973806766e+00 5.8953045932629617e+00 3.9563549563923196e+01 1 4 0
4679 1 4.3871408434945360e+00 7.7490076931841223e+00 3.9019672122805204e+01 -2 2 0
1360 1 6.6121675910238675e+00 9.4116087533980455e+00 4.3426456728086244e+01 0 0 -1
1276 1 6.9584074610037572e+00 6.8142378272695989e+00 3.9649647160157016e+01 -1 0 0
2072 1 8.8519110661535532e+00 8.5320903244927013e+00 3.8831299793636433e+01 1 0 -1
3364 1 4.2176196870251728e+00 1.0545773257108021e+01 3.9940918687408391e+01 -2 2 -1
1684 1 1.9169489177050951e+00 1.1571436635136410e+01 3.8767171047932372e+01 0 0 0
4540 1 8.4194904621206170e+00 1.1167431833820112e+01 3.9714536778230823e+01 -2 -2 0
1762 1 8.3594399245208280e+00 1.1309470864915216e+01 4.2361362532254823e+01 -1 0 -1
2905 1 3.5036971670982648e+00 6.4729256097703258e-01 4.3296285584770580e+01 4 0 0
2964 1 9.3834194371235669e-01 1.6786643977009328e+00 4.2549285838590940e+01 0 2 0
4500 1 5.5173247388930466e+00 2.5843658799199445e+00 4.2572697233592756e+01 1 2 0
4996 1 7.9785853309928170e+00 1.5660848715649689e+00 4.3248120803898225e+01 1 2 0
6172 1 6.4270877935108550e-01 4.3069508523741034e+00 4.3406109187841956e+01 2 1 0
82 1 2.8176345842307264e+00 6.0500813792176595e+00 4.2269051461894300e+01 0 1 0
465 1 9.6052549164273113e+00 5.6236599443931139e+00 4.3396618290607599e+01 -2 -2 -1
6399 1 5.3468014624097924e+00 5.4460683433056110e+00 4.3002551889238774e+01 1 1 0
5403 1 7.3389407788437602e+00 7.0669064568840891e+00 4.2389855067777567e+01 2 0 -1
516 1 1.9095679658092661e+00 8.4923972659199372e+00 4.3244850423683587e+01 1 1 0
1951 1 4.0041063940019388e+00 1.0247253425605864e+01 4.2738810145926593e+01 0 1 -1
3669 1 6.7485172104525898e-02 7.1292290914834551e+00 3.8610903752493719e+01 -2 0 -1
1916 1 3.2644773773321223e+00 3.3215054562195951e+00 4.6903062278044004e+01 2 0 -1
5298 1 3.6397558734223110e+00 8.0201778190662332e-01 4.5995104007931317e+01 1 1 -1
6125 1 7.9105016248938380e+00 1.5341555234074844e+00 4.6102603382319707e+01 -1 2 0
5123 1 7.3179975652654106e+00 3.9636052296493980e+00 4.6846208862432839e+01 3 0 0
1487 1 6.2353555616115419e-01 4.1406902797816141e+00 4.6093712772107871e+01 -1 -1 0
1511 1 4.3095320333487033e+00 7.6804018269207281e+00 4.7126070440896619e+01 1 0 -1
1432 1 5.2270223606586024e+00 5.2016916368636501e+00 4.6118823689680916e+01 -1 0 0
1376 1 5.6800046046457195e+00 1.1771356144979082e+01 4.9921316398986718e+01 -1 0 -1
3168 1 9.1131063142183262e+00 5.5923669627788293e+00 4.6026008813653277e+01 2 4 0
6268 1 1.9590910358176727e+00 8.5609457827825146e+00 4.5986882928650097e+01 2 -3 0
3416 1 1.3079373022604985e+00 1.1000859377024135e+01 4.7329832181005813e+01 5 1 0
283 1 8.7546269199227407e+00 7.9930632409366886e+00 4.7157307875089160e+01 -1 2 -1
1915 1 6.4023475656746918e+00 9.1734386584719410e+00 4.6250077292161649e+01 -1 1 -1
186 1 5.8115991097669690e+00 1.1741420315583802e+01 4.7108019036435316e+01 1 1 -1
410 1 9.7660744414694345e-01 1.1899092130467781e+00 5.0315510973741560e+01 2 1 -1
462 1 2.9574690959506107e+00 3.0888470346485444e+00 4.9737726341336817e+01 1 0 0
6466 1 5.5513807257238801e+00 1.8610729739649938e+00 5.0400305334607438e+01 3 1 0
3791 1 7.4264347938227875e+00 3.8158530278261065e+00 4.9558931349599220e+01 -1 0 0
1942 1 8.2116020644103909e+00 1.0767997111527658e+01 5.0621877633419267e+01 0 -1 -1
2020 1 2.5999557191147069e+00 5.6302815938401300e+00 5.0492766168230446e+01 4 0 -1
2965 1 4.5724084366830500e+00 7.6495779130024086e+00 4.9765552378448987e+01 1 1 0
6449 1 8.8548509374210838e+00 8.0712355465685750e+00 4.9813749129875895e+01 -2 0 0
5197 1 6.6589673519219836e+00 6.1150586991838081e+00 5.0609691723699413e+01 -1 1 -1
1655 1 1.0954738913423705e+00 1.1078633799801860e+01 5.0112550234920370e+01 3 1 0
175 1 3.5507767736936358e+00 1.0087927478309124e+01 5.0973381480997269e+01 3 2 -1
4900 1 9.6214289201567715e-02 6.6510961539531364e+00 4.9892655033801844e+01 -1 -1 -1
5035 1 9.8178384544328416e+00 2.8454094999022690e+00 5.0408877058391681e+01 -2 -4 -1
1976 1 2.9554738595863004e+00 2.6890569900444903e+00 5.4046212176414649e+01 1 1 0
1705 1 8.8604461151734171e-01 1.2101232021180621e+00 5.3306556872044183e+01 -1 1 -1
5129 1 5.4155353234275188e+00 1.9237223204536633e+00 5.3208787798108013e+01 -1 2 -1
5137 1 7.4512722716130915e+00 3.6026264026763957e+00 5.4209868070663994e+01 0 1 -1
1 1 1.5187418041985785e+00 1.0968726125683778e+01 5.7145182850733953e+01 0 -1 -1
2188 1 2.7294898183372567e+00 5.3226029403179842e+00 5.3176064876718804e+01 3 2 0
3792 1 4.5016714876349377e+00 7.2435007557666644e+00 5.4071381088484920e+01 3 -1 -1
6387 1 5.7118080397909559e+00 1.1570731657640980e+01 5.6966880844293733e+01 -1 -1 0
414 1 6.9128105099018375e+00 6.3538353480658367e+00 5.3358891259426521e+01 1 3 -1
4703 1 8.9642784409459733e+00 8.0953454025773652e+00 5.4138796818862204e+01 -1 1 0
239 1 3.9195588339466552e+00 9.8332950334100069e+00 5.3547430995989018e+01 -1 -3 -1
1399 1 1.5114704569612509e+00 1.1147935693964472e+01 5.4298412301380431e+01 0 0 0
3023 1 8.4650768010683564e+00 1.0860254772738566e+01 5.3336081780096528e+01 -2 1 0
500 1 5.9365379340437086e+00 1.1492707728416365e+01 5.4068739872497119e+01 -2 1 -1
1824 1 3.7181546355298791e+00 3.5149362316023713e-01 5.7772458228685871e+01 1 -1 -1
3273 1 3.0558208463486127e+00 2.9515379706591669e+00 5.6785752456934887e+01 1 1 -1
1816 1 7.9322892308971991e+00 1.2843669598386129e+00 5.7858192555877530e+01 0 1 -1
1880 1 7.5107643072812129e+00 4.0005412465389094e+00 5.6774744086016931e+01 2 -2 -1
4778 1 8.2159913622903935e-01 4.2518723577704716e+00 5.8091439445734160e+01 0 -1 0
1510 1 4.4169038299889660e+00 7.2666208004138344e+00 5.6882421384629019e+01 2 0 -1
195 1 6.4085026919041717e+00 8.9173935201891794e+00 5.7944751908367074e+01 1 1 -1
113 1 8.9892281860838672e+00 8.4966722724411543e+00 5.6923264619723057e+01 2 2 -1
5138 1 9.3691999440623750e+00 5.8808008287132889e+00 5.7814521606618868e+01 1 4 -1
6369 1 4.9177134746844517e+00 4.5935025473703108e+00 5.7883985044755320e+01 0 -2 -1
3747 1 2.4308329911709721e+00 8.5467500363062925e+00 5.8072514747705213e+01 -1 0 0
2146 1 4.8649265199987984e-01 6.6197570244076047e+00 5.7020605325043725e+01 -2 2 0
4595 1 1.7824187651918325e-01 6.6135276002195029e+00 5.4210236946992609e+01 0 4 -1
5144 1 1.1320383106580743e+00 1.4286552418736520e+01 2.8823540140582988e+00 -1 1 1
4788 1 3.4322293916791868e+00 1.3039317659505306e+01 1.7958737323877660e+00 -2 2 0
315 1 5.4417872618327756e+00 1.4409524016958066e+01 2.7913932486180562e+00 0 4 1
3693 1 7.8478468640564341e+00 1.3542170428928275e+01 1.7927617957357029e+00 2 -1 0
2054 1 5.5426401228377153e-01 1.6669340924130729e+01 1.9733908252628236e+00 1 1 0
212 1 2.7303425119293476e+00 1.8188494959166821e+01 2.7162821637645989e+00 -1 0 0
5210 1 5.1463659495920666e+00 1.7192217007424169e+01 2.0769228500538786e+00 -1 0 0
3233 1 7.2128543268238232e+00 1.8729238922588003e+01 2.9279931136564126e+00 1 -1 1
3325 1 9.5022607898390277e+00 1.7519692740006906e+01 1.9690068352232495e+00 2 0 0
3560 1 2.0934308750308541e+00 2.0486262005024809e+01 1.6232992712351049e+00 0 3 0
3337 1 3.9313020788672786e+00 2.2349782641677010e+01 2.7643469347166993e+00 -2 2 0
2923 1 6.2661265291264838e+00 2.1173959298697451e+01 1.9109074217822162e+00 -3 -1 0
3784 1 8.3180519840613840e+00 2.3066504715919738e+01 2.7864772149063119e+00 1 1 1
3272 1 3.2589104645084448e+00 1.5671915213491824e+01 6.6315146026415395e+00 3 2 0
3030 1 1.1570432573410225e+00 1.4116318890158761e+01 5.7276233390579554e+00 1 1 1
178 1 5.4781750038344228e+00 1.4545360838055855e+01 5.2904443752382662e+00 3 -1 0
3413 1 6.0841083727832181e+00 2.4235044777537762e+01 6.6638531018989493e+00 1 -2 1
2977 1 2.9378172462078904e+00 1.8241110533256329e+01 5.3769225524277138e+00 1 0 1
3304 1 4.9263344087346859e+00 1.9531231774584064e+01 6.4268233860214448e+00 -2 1 1
402 1 8.2334082249070057e+00 2.3030053240059139e+01 5.5602298622035189e+00 1 -4 0
2925 1 7.7175466462375955e+00 1.5954474992612701e+01 6.4200994615052718e+00 0 0 1
347 1 7.2098049548495915e+00 1.8447306951188239e+01 5.6037199827780411e+00 2 0 0
14 1 1.6578258249650810e+00 2.3160042933720952e+01 6.0804891234810983e+00 0 0 0
3298 1 4.2540091237588360e+00 2.2288049922743451e+01 5.5419398229182830e+00 1 2 1
3007 1 8.9288335447024938e+00 2.0454220567552699e+01 6.5302423223008077e+00 2 1 0
3263 1 5.3849523071608296e-01 1.9090593698143962e+01 6.1507703577364294e+00 2 3 0
5440 1 2.7664031403291878e+00 1.5361559337814347e+01 9.3829133600098249e+00 0 0 1
2961 1 9.6211413660939682e-01 1.3645793169428931e+01 1.0531126157896948e+01 1 1 1
2004 1 5.4753082617802971e+00 1.4377700479572241e+01 1.0156932532689620e+01 2 3 0
5303 1 7.2981045983641568e+00 1.6181071866862979e+01 9.2266715147152603e+00 -1 2 0
6481 1 8.4424676850105715e+00 2.3216859693160039e+01 1.2836237776148446e+01 -3 0 0
480 1 2.7312181765241639e+00 1.8161105577563696e+01 1.0015599555152914e+01 1 -1 0
510 1 4.6759504042356497e+00 1.9711261296956078e+01 9.2213243924064230e+00 2 -1 0
3323 1 5.9257981715004924e+00 2.4238732762103158e+01 1.3724053215208498e+01 0 0 0
370 1 7.0613384704358086e+00 1.8838789984163121e+01 1.0190551611951031e+01 3 0 0