LAMMPS data file via write_data, version 16 Mar 2018, timestep = 100000

6328 atoms
2 atom types

0.0000000000000000e+00 4.9219999999999999e+01 xlo xhi
0.0000000000000000e+00 4.9019635930410494e+01 ylo yhi
3.6113746785116163e+00 5.6450625321488005e+01 zlo zhi

Masses

1 18.015
2 12.01

Atoms # atomic

1920 1 5.3910024108957710e+00 1.1943463488380113e+01 1.4462981588993827e+01 0 0 1
2118 1 1.3827577954295260e+00 3.2907410248730993e+00 5.8641231502512294e+00 0 0 0
5225 1 6.6834994103785572e+00 2.8363449530454163e+00 6.4934934298667155e+00 -1 -1 0
1808 1 9.0718116223478553e+00 1.8245012638000888e+00 7.4106234207454289e+00 0 1 0
5058 1 1.0827533133206259e+01 3.8002468172242128e+00 7.3964289435425155e+00 1 1 1
2960 1 4.0672671072058364e+00 5.5321368993772682e+00 5.3125694579959770e+00 0 0 1
3332 1 1.5463889207740338e+00 6.8161819350642707e+00 6.0407534428109342e+00 0 0 0
2905 1 6.6746245635111245e+00 4.9465185462586039e+00 8.2463745613714465e+00 1 1 1
3082 1 6.1842449367993026e+00 7.0251300470070870e+00 6.4463522040458852e+00 0 1 0
2080 1 1.0245279294141424e+01 6.3659325330751253e+00 5.0944340770733838e+00 1 0 0
3411 1 9.1571656653213811e+00 6.2909960249283658e+00 7.8902247336405713e+00 1 0 0
6079 1 1.0583155313698320e+01 4.6279242973588192e-01 4.7001942826312364e+00 0 1 1
4877 1 1.1904716228543400e+01 3.0251642326890296e+00 5.0641050743161697e+00 0 -1 0
5227 1 2.7295942316856530e+00 9.3451875530743518e+00 5.6262940745465730e+00 0 2 0
410 1 1.1342800714615644e+01 6.1502014444907094e-01 1.2612073095456742e+01 -1 -1 0
1313 1 4.6298950481576719e+00 8.9467578874011888e+00 7.6310021851476373e+00 0 0 1
2131 1 1.7504893375393547e+00 1.1661590404651543e+01 6.4572108910983825e+00 1 1 1
1955 1 3.7145404203737460e+00 1.1837543283873700e+01 1.6659517595470501e+01 1 1 1
3110 1 4.8607375862793706e-01 1.0628378547463756e+01 1.2628723187938478e+01 0 -1 0
116 1 2.9673875667680734e+00 1.1877154478038314e+01 1.2818683956149345e+01 1 1 1
1336 1 2.2434232645289596e+00 4.1122458158076460e+00 8.3284878044287147e+00 0 -1 0
5174 1 1.1797219724338623e+01 1.1439447502180743e+01 6.3354562682850659e+00 -1 0 0
3198 1 2.9384356769978472e+00 1.7915342182595335e+00 9.1313214939515799e+00 0 0 0
2128 1 5.6730450685864300e+00 3.6029434612804532e+00 1.1496360534875887e+01 0 0 0
315 1 7.5011291016092816e+00 9.4583740010424922e-01 1.2164647335406723e+01 -1 0 1
3628 1 9.3845110670717613e+00 6.0691196333745179e-01 9.8910488459862140e+00 0 1 0
1971 1 1.0752897252684271e+01 3.2069903844031633e+00 1.0425055979803886e+01 0 0 0
5026 1 5.3031477317625670e+00 8.7794423231120895e+00 1.0393103722452409e+01 1 0 1
5237 1 1.4693515963898389e+00 6.8103907744239276e+00 9.2069304704993939e+00 1 1 1
4518 1 4.5729138101882558e+00 5.5091054656795091e+00 9.9855386333387166e+00 0 0 0
4965 1 7.7306412624673388e+00 7.1599026550884028e+00 1.0793413147449732e+01 0 0 0
1659 1 9.8164211490517879e+00 8.8589109778607238e+00 8.7703142300704204e+00 1 1 0
5965 1 7.0216992577883515e+00 7.8122460675811620e+00 1.3649801052850997e+01 0 1 1
297 1 1.1905452528535378e+01 1.0721393742713538e+01 1.3877477826753864e+01 1 1 1
3237 1 6.4081618348922591e+00 1.1134264405912329e+01 1.1255426439663387e+01 0 0 0
3197 1 7.9579607988107757e+00 7.5961859015278899e+00 4.6157800770785533e+00 1 0 0
1660 1 8.0330823903322290e+00 2.1236985054470021e+00 4.0761559522670661e+00 1 0 1
1417 1 7.9646038150415173e+00 1.1245063167888135e+01 8.8964887589502055e+00 0 0 1
128 1 5.6910583188587829e+00 5.2566668740935976e+00 1.3898474795125898e+01 0 1 0
3047 1 1.0093451633333277e+01 9.0713990862893095e+00 1.1495940357883313e+01 0 0 1
5266 1 9.7673592060647572e+00 9.9069714330626706e+00 4.8476755448220512e+00 1 0 1
5098 1 1.1590116936664252e+00 1.1561831247528048e+01 9.1650447897178644e+00 1 0 0
4883 1 7.1458431022205693e-01 4.4807581859715215e+00 1.3174760142440753e+01 1 0 1
3290 1 2.6738782435559458e+00 2.7578797283197067e+00 1.2100941968527579e+01 0 0 0
1339 1 5.2585428355331825e+00 7.3970698983213179e-01 7.6042122189123038e+00 1 0 1
1368 1 5.3295893660516445e+00 6.1068872459208146e-01 1.4021438543905049e+01 0 1 1
3067 1 8.5636178045654816e+00 4.6067272687314365e+00 1.5100510525142527e+01 0 1 0
4787 1 8.2094999308914378e+00 4.3812762705849169e+00 1.0754144036379319e+01 0 0 1
4626 1 6.0588604258991552e+00 1.1264972832239602e+01 6.9227818215414567e+00 1 0 0
85 1 1.0564825856460434e+01 3.3678441914407444e+00 1.3680496878446757e+01 1 0 0
178 1 1.0581577830033670e+01 2.1465282173381368e+00 1.6285352480883255e+01 0 1 0
1403 1 1.3330461101075006e+00 7.1581548120910519e+00 1.4282885641027745e+01 1 0 1
6264 1 3.7804378997898369e+00 6.5278480104474035e+00 1.5713712422379560e+01 0 0 1
1870 1 4.4210391568089591e+00 9.0365542681123809e+00 1.3754747879493742e+01 0 0 0
1529 1 5.2926890762217544e+00 3.0113194462217812e+00 1.5542013395030496e+01 0 1 1
1632 1 1.1797391613691966e+01 8.2364260234013269e+00 6.7676959538269132e+00 -1 -1 1
1324 1 7.4303236280658673e+00 1.1245434454788603e+01 4.4772852850415594e+00 1 0 1
2892 1 2.3697015045799033e+00 8.2889249606360771e+00 1.1440890213362554e+01 0 1 1
15 1 8.5386533088303889e+00 1.0792224499368867e+01 1.3257939710456462e+01 0 0 1
332 1 9.3924920436419086e+00 7.4573666624517614e+00 1.5189696231048304e+01 0 1 0
4592 1 3.8717744948295523e+00 2.5622840061395937e+00 4.4095139792564169e+00 0 1 1
1530 1 7.6349292545256313e+00 1.0148431336142172e+01 1.5992791095425529e+01 0 -1 0
4716 1 1.1530064188846866e+01 1.1813667558273872e+01 1.1150327541258921e+01 0 0 1
4998 1 7.3371609530554105e-01 2.4860208373191323e-01 8.5764295470725749e+00 -1 1 0
4555 1 3.0731897876774508e-02 8.9401371169442427e+00 8.2992544244989581e+00 0 1 0
2052 1 1.8241102847653716e+00 7.1992142606743040e-02 1.6070572344721882e+01 0 0 1
432 1 5.7600995222855378e-01 5.7652420205954966e+00 1.6547585082615733e+01 0 1 0
6271 1 2.2388086379997429e+00 4.1597275003753692e-01 1.3409096926680327e+01 0 0 0
1826 1 2.7055388307143553e+00 3.9539457606626298e+00 1.6582694028563225e+01 -1 -1 1
326 1 1.1201105943560261e+01 1.6309151432137641e+00 2.4437148729261146e+01 1 0 1
4762 1 1.1880958454847995e+01 3.4807628155247849e+00 2.0629119443790511e+01 1 0 0
303 1 4.3604940412747100e+00 7.6981307599926758e+00 1.8483991763547184e+01 0 0 0
773 2 1.1074500000000002e+01 1.0656442593567498e+01 2.6877809588518485e+01 0 0 0
4764 1 8.2831367489847079e+00 1.5280009465267084e+00 1.7745932612295192e+01 0 1 1
5123 1 1.2071348594585308e+01 4.5000478071887438e+00 2.4391886484878491e+01 1 0 0
2935 1 1.3580396143287490e+00 7.3220611786104133e+00 1.8661033399840903e+01 1 2 1
5246 1 1.8594032937183560e+00 7.6682551888852482e+00 2.1380958764736377e+01 1 0 1
732 2 1.1074500000000002e+01 9.2355835810918343e+00 2.6877809588518485e+01 0 0 0
5969 1 4.0023489017981273e+00 5.9116082544606714e+00 2.0866718744070006e+01 0 1 1
3222 1 7.2809592854336467e+00 4.0700293052369174e+00 1.7611782206085174e+01 0 0 0
1489 1 4.3962133637232768e+00 4.0816934842321215e+00 1.8915544262720402e+01 0 1 0
4979 1 1.4341434518779486e+00 9.3600132591689644e-01 2.1853852418713362e+01 0 1 0
3199 1 1.0614091309826595e+01 5.7562618856571222e+00 2.1371569595344415e+01 0 0 1
3011 1 1.5824644143174704e+00 9.8239394548215859e+00 1.7458069254857826e+01 1 1 0
3392 1 8.5163139275105912e+00 5.8106085118062270e+00 1.9433302663288337e+01 0 0 1
1707 1 5.8421536102216196e+00 1.0031111852385104e+01 1.8161441472057277e+01 0 1 0
726 2 8.6134999999999984e+00 1.0656442593567498e+01 2.6877809588518485e+01 0 0 0
3673 1 9.4064106166318524e+00 8.0558743172422087e+00 1.7888802973596153e+01 0 0 1
6120 1 1.2177384417326207e+01 7.8734474126227045e+00 2.1870771419375927e+01 0 -1 1
6007 1 3.0808126726123195e+00 1.8264035320877037e+00 2.4298023057612262e+01 0 1 0
3124 1 4.1873470346113120e+00 5.5484875963118183e+00 2.3749248823979048e+01 0 1 1
4843 1 5.5442727315354299e+00 1.4192026485558236e+00 2.1652263642993841e+01 1 1 0
1750 1 5.8172505852749641e+00 2.9790502674502966e+00 2.4061237161327551e+01 0 1 0
238 1 8.6671854402641397e+00 3.4584559357994262e+00 2.4051873416516827e+01 1 1 0
730 2 9.8440000000000012e+00 8.5251540748539956e+00 2.6877809588518485e+01 0 0 0
5140 1 1.2696144162480345e+00 4.2102486671644712e+00 2.3793708123706573e+01 0 1 1
4689 1 7.8323630180697466e+00 5.4681255046720489e-01 2.0408922107172017e+01 0 2 1
1849 1 7.6217211044900504e+00 1.0730244914693572e-01 2.3892921144533688e+01 1 0 1
775 2 1.2304999999999998e+01 1.1366872099805333e+01 2.6877809588518485e+01 0 0 0
3571 1 2.5743998315740759e+00 8.4803504269021612e+00 2.4300419702605868e+01 1 0 0
164 1 4.7103790829869502e-01 6.7978759060194980e+00 2.4502602196286702e+01 2 0 1
3190 1 6.6537365968792885e+00 7.1826666997302384e+00 2.3930396869762895e+01 0 0 0
1630 1 6.5324824843771383e+00 7.0093417386217114e+00 2.1198956187314998e+01 0 2 0
2002 1 9.4413108820938483e+00 6.0151267971323934e+00 2.4165372604790534e+01 0 0 0
5967 1 9.7815571218343376e+00 1.8845974926502578e+00 2.1810980072487155e+01 2 1 0
1924 1 6.6071054877958408e+00 1.2120758735550215e+01 2.1387932548441547e+01 0 1 1
4813 1 1.9757341569079319e+00 1.1454839921109260e+01 2.4533995268483093e+01 1 1 0
728 2 9.8440000000000012e+00 1.1366872099805333e+01 2.6877809588518485e+01 0 0 0
1406 1 1.7590347639886377e+00 3.7618233007752315e+00 2.0827483981436657e+01 1 1 1
372 1 8.9242873348263689e+00 9.7003874272655057e+00 2.3605747288763066e+01 0 0 1
1703 1 4.9031030488821870e+00 9.7082706563435366e+00 2.1761868669371214e+01 0 -1 0
2097 1 5.5716358005122544e+00 9.5712671613676186e+00 2.4466468796230885e+01 1 0 1
685 2 8.6134999999999984e+00 9.2355835810918343e+00 2.6877809588518485e+01 0 0 0
4695 1 8.0079499202775590e+00 9.5826449821171185e+00 2.0511029727169163e+01 1 2 1
4933 1 3.1670464256386593e-01 2.1845755649290637e+00 1.7149512117015632e+01 0 0 1
3254 1 1.1710384692895175e+01 1.0813213680903141e+01 2.3772301351157303e+01 -1 0 0
552 2 0.0000000000000000e+00 2.8417180249513345e+00 2.6877809588518485e+01 0 0 0
554 2 0.0000000000000000e+00 0.0000000000000000e+00 2.6877809588518485e+01 0 0 0
556 2 1.2305000000000001e+00 7.1042950623783474e-01 2.6877809588518485e+01 0 0 0
563 2 1.2305000000000001e+00 2.1312885187134998e+00 2.6877809588518485e+01 0 0 0
565 2 2.4610000000000003e+00 2.8417180249513345e+00 2.6877809588518485e+01 0 0 0
567 2 2.4610000000000003e+00 0.0000000000000000e+00 2.6877809588518485e+01 0 0 0
569 2 3.6915000000000004e+00 7.1042950623783474e-01 2.6877809588518485e+01 0 0 0
584 2 3.6914999999999996e+00 2.1312885187134998e+00 2.6877809588518485e+01 0 0 0
586 2 4.9220000000000006e+00 2.8417180249513332e+00 2.6877809588518485e+01 0 0 0
588 2 4.9220000000000006e+00 0.0000000000000000e+00 2.6877809588518485e+01 0 0 0
590 2 6.1524999999999999e+00 7.1042950623783407e-01 2.6877809588518485e+01 0 0 0
613 2 6.1524999999999999e+00 2.1312885187134989e+00 2.6877809588518485e+01 0 0 0
615 2 7.3829999999999991e+00 2.8417180249513345e+00 2.6877809588518485e+01 0 0 0
617 2 7.3829999999999991e+00 0.0000000000000000e+00 2.6877809588518485e+01 0 0 0
619 2 8.6134999999999984e+00 7.1042950623783407e-01 2.6877809588518485e+01 0 0 0
650 2 8.6134999999999984e+00 2.1312885187135002e+00 2.6877809588518485e+01 0 0 0
652 2 9.8440000000000012e+00 2.8417180249513332e+00 2.6877809588518485e+01 0 0 0
654 2 9.8440000000000012e+00 0.0000000000000000e+00 2.6877809588518485e+01 0 0 0
656 2 1.1074500000000002e+01 7.1042950623783330e-01 2.6877809588518485e+01 0 0 0
695 2 1.1074500000000002e+01 2.1312885187135002e+00 2.6877809588518485e+01 0 0 0
559 2 0.0000000000000000e+00 4.2625770374269996e+00 2.6877809588518485e+01 0 0 0
561 2 1.2305000000000001e+00 4.9730065436648339e+00 2.6877809588518485e+01 0 0 0
576 2 1.2305000000000001e+00 6.3938655561404980e+00 2.6877809588518485e+01 0 0 0
580 2 2.4610000000000003e+00 4.2625770374269996e+00 2.6877809588518485e+01 0 0 0
582 2 3.6914999999999996e+00 4.9730065436648339e+00 2.6877809588518485e+01 0 0 0
605 2 3.6914999999999996e+00 6.3938655561404980e+00 2.6877809588518485e+01 0 0 0
557 2 0.0000000000000000e+00 7.1042950623783341e+00 2.6877809588518485e+01 0 0 0
578 2 2.4610000000000003e+00 7.1042950623783341e+00 2.6877809588518485e+01 0 0 0
609 2 4.9220000000000006e+00 4.2625770374269978e+00 2.6877809588518485e+01 0 0 0
611 2 6.1524999999999999e+00 4.9730065436648339e+00 2.6877809588518485e+01 0 0 0
642 2 6.1524999999999999e+00 6.3938655561404980e+00 2.6877809588518485e+01 0 0 0
646 2 7.3829999999999991e+00 4.2625770374269996e+00 2.6877809588518485e+01 0 0 0
607 2 4.9220000000000006e+00 7.1042950623783341e+00 2.6877809588518485e+01 0 0 0
644 2 7.3830000000000009e+00 7.1042950623783341e+00 2.6877809588518485e+01 0 0 0
648 2 8.6135000000000002e+00 4.9730065436648339e+00 2.6877809588518485e+01 0 0 0
687 2 8.6135000000000002e+00 6.3938655561404980e+00 2.6877809588518485e+01 0 0 0
691 2 9.8440000000000012e+00 4.2625770374270004e+00 2.6877809588518485e+01 0 0 0
693 2 1.1074500000000002e+01 4.9730065436648339e+00 2.6877809588518485e+01 0 0 0
734 2 1.1074500000000002e+01 6.3938655561404980e+00 2.6877809588518485e+01 0 0 0
689 2 9.8440000000000012e+00 7.1042950623783341e+00 2.6877809588518485e+01 0 0 0
572 2 0.0000000000000000e+00 8.5251540748539991e+00 2.6877809588518485e+01 0 0 0
574 2 1.2305000000000001e+00 9.2355835810918343e+00 2.6877809588518485e+01 0 0 0
601 2 2.4610000000000003e+00 8.5251540748539991e+00 2.6877809588518485e+01 0 0 0
603 2 3.6915000000000004e+00 9.2355835810918343e+00 2.6877809588518485e+01 0 0 0
570 2 0.0000000000000000e+00 1.1366872099805333e+01 2.6877809588518485e+01 0 0 0
597 2 1.2305000000000001e+00 1.0656442593567498e+01 2.6877809588518485e+01 0 0 0
599 2 2.4610000000000003e+00 1.1366872099805333e+01 2.6877809588518485e+01 0 0 0
634 2 3.6914999999999996e+00 1.0656442593567499e+01 2.6877809588518485e+01 0 0 0
679 2 6.1524999999999999e+00 1.0656442593567499e+01 2.6877809588518485e+01 0 0 0
636 2 4.9220000000000006e+00 1.1366872099805333e+01 2.6877809588518485e+01 0 0 0
683 2 7.3830000000000009e+00 8.5251540748539991e+00 2.6877809588518485e+01 0 0 0
638 2 4.9220000000000006e+00 8.5251540748539991e+00 2.6877809588518485e+01 0 0 0
640 2 6.1524999999999999e+00 9.2355835810918343e+00 2.6877809588518485e+01 0 0 0
681 2 7.3829999999999991e+00 1.1366872099805333e+01 2.6877809588518485e+01 0 0 0
469 1 1.0707780050090824e+01 1.0979627957576906e+01 2.1007168164035182e+01 0 1 0
1502 1 3.6105081225786306e+00 1.4018583400822504e+00 1.9817492661457173e+01 1 -1 0
5067 1 1.6789091332821099e-01 4.6326157609166596e-01 2.4500777592496245e+01 0 1 0
4564 1 2.2334726178115316e+00 1.0782781650918324e+01 2.1457533295996878e+01 0 0 0
3518 1 1.2186480284158437e+01 8.8428442794358499e+00 1.7997467527398584e+01 -1 0 0
3365 1 1.2297560911379316e+01 3.6019409381542200e+00 1.7708329849705699e+01 1 1 1
344 1 7.0381503510399135e+00 1.2063415074082007e+01 2.4148200785746134e+01 1 0 1
146 1 1.1964503768011927e+01 1.1681411965311352e+01 1.8099695559671410e+01 1 -1 0
1865 1 8.9704079022853005e+00 1.1657450450612510e+01 1.8173343644389902e+01 1 1 1
553 2 0.0000000000000000e+00 1.4208590124756650e+00 3.0030999999999874e+01 0 0 0
555 2 0.0000000000000000e+00 0.0000000000000000e+00 3.0030999999999874e+01 0 0 0
564 2 1.2305000000000001e+00 2.1312885187134998e+00 3.0030999999999874e+01 0 0 0
566 2 2.4610000000000003e+00 1.4208590124756650e+00 3.0030999999999874e+01 0 0 0
568 2 2.4610000000000003e+00 0.0000000000000000e+00 3.0030999999999874e+01 0 0 0
585 2 3.6914999999999996e+00 2.1312885187134998e+00 3.0030999999999874e+01 0 0 0
562 2 1.2305000000000001e+00 3.5521475311891644e+00 3.0030999999999874e+01 0 0 0
583 2 3.6914999999999996e+00 3.5521475311891644e+00 3.0030999999999874e+01 0 0 0
881 2 0.0000000000000000e+00 2.8417180249513345e+00 3.3184190411478923e+01 0 0 0
882 2 0.0000000000000000e+00 0.0000000000000000e+00 3.3184190411478923e+01 0 0 0
883 2 1.2305000000000001e+00 7.1042950623783474e-01 3.3184190411478923e+01 0 0 0
887 2 1.2305000000000001e+00 2.1312885187134998e+00 3.3184190411478923e+01 0 0 0
888 2 2.4610000000000003e+00 2.8417180249513345e+00 3.3184190411478923e+01 0 0 0
889 2 2.4610000000000003e+00 0.0000000000000000e+00 3.3184190411478923e+01 0 0 0
890 2 3.6915000000000004e+00 7.1042950623783474e-01 3.3184190411478923e+01 0 0 0
898 2 3.6914999999999996e+00 2.1312885187134998e+00 3.3184190411478923e+01 0 0 0
587 2 4.9220000000000006e+00 1.4208590124756650e+00 3.0030999999999874e+01 0 0 0
589 2 4.9220000000000006e+00 0.0000000000000000e+00 3.0030999999999874e+01 0 0 0
614 2 6.1524999999999999e+00 2.1312885187134989e+00 3.0030999999999874e+01 0 0 0
616 2 7.3829999999999991e+00 1.4208590124756659e+00 3.0030999999999874e+01 0 0 0
618 2 7.3829999999999991e+00 0.0000000000000000e+00 3.0030999999999874e+01 0 0 0
612 2 6.1524999999999999e+00 3.5521475311891644e+00 3.0030999999999874e+01 0 0 0
899 2 4.9220000000000006e+00 2.8417180249513332e+00 3.3184190411478923e+01 0 0 0
900 2 4.9220000000000006e+00 0.0000000000000000e+00 3.3184190411478923e+01 0 0 0
901 2 6.1524999999999999e+00 7.1042950623783407e-01 3.3184190411478923e+01 0 0 0
913 2 6.1524999999999999e+00 2.1312885187134989e+00 3.3184190411478923e+01 0 0 0
914 2 7.3829999999999991e+00 2.8417180249513345e+00 3.3184190411478923e+01 0 0 0
915 2 7.3829999999999991e+00 0.0000000000000000e+00 3.3184190411478923e+01 0 0 0
651 2 8.6134999999999984e+00 2.1312885187135002e+00 3.0030999999999874e+01 0 0 0
653 2 9.8440000000000012e+00 1.4208590124756659e+00 3.0030999999999874e+01 0 0 0
655 2 9.8440000000000012e+00 0.0000000000000000e+00 3.0030999999999874e+01 0 0 0
696 2 1.1074500000000002e+01 2.1312885187135002e+00 3.0030999999999874e+01 0 0 0
649 2 8.6134999999999984e+00 3.5521475311891657e+00 3.0030999999999874e+01 0 0 0
694 2 1.1074500000000002e+01 3.5521475311891644e+00 3.0030999999999874e+01 0 0 0
916 2 8.6134999999999984e+00 7.1042950623783407e-01 3.3184190411478923e+01 0 0 0
932 2 8.6134999999999984e+00 2.1312885187135002e+00 3.3184190411478923e+01 0 0 0
933 2 9.8440000000000012e+00 2.8417180249513332e+00 3.3184190411478923e+01 0 0 0
934 2 9.8440000000000012e+00 0.0000000000000000e+00 3.3184190411478923e+01 0 0 0
935 2 1.1074500000000002e+01 7.1042950623783330e-01 3.3184190411478923e+01 0 0 0
955 2 1.1074500000000002e+01 2.1312885187135002e+00 3.3184190411478923e+01 0 0 0
558 2 0.0000000000000000e+00 5.6834360499026637e+00 3.0030999999999874e+01 0 0 0
560 2 0.0000000000000000e+00 4.2625770374269996e+00 3.0030999999999874e+01 0 0 0
577 2 1.2305000000000001e+00 6.3938655561404980e+00 3.0030999999999874e+01 0 0 0
579 2 2.4610000000000003e+00 5.6834360499026637e+00 3.0030999999999874e+01 0 0 0
581 2 2.4610000000000003e+00 4.2625770374269996e+00 3.0030999999999874e+01 0 0 0
606 2 3.6914999999999996e+00 6.3938655561404980e+00 3.0030999999999874e+01 0 0 0
575 2 1.2305000000000001e+00 7.8147245686161639e+00 3.0030999999999874e+01 0 0 0
604 2 3.6914999999999996e+00 7.8147245686161639e+00 3.0030999999999874e+01 0 0 0
885 2 0.0000000000000000e+00 4.2625770374269996e+00 3.3184190411478923e+01 0 0 0
886 2 1.2305000000000001e+00 4.9730065436648339e+00 3.3184190411478923e+01 0 0 0
894 2 1.2305000000000001e+00 6.3938655561404980e+00 3.3184190411478923e+01 0 0 0
896 2 2.4610000000000003e+00 4.2625770374269996e+00 3.3184190411478923e+01 0 0 0
897 2 3.6914999999999996e+00 4.9730065436648339e+00 3.3184190411478923e+01 0 0 0
909 2 3.6914999999999996e+00 6.3938655561404980e+00 3.3184190411478923e+01 0 0 0
884 2 0.0000000000000000e+00 7.1042950623783341e+00 3.3184190411478923e+01 0 0 0
895 2 2.4610000000000003e+00 7.1042950623783341e+00 3.3184190411478923e+01 0 0 0
608 2 4.9220000000000006e+00 5.6834360499026637e+00 3.0030999999999874e+01 0 0 0
610 2 4.9220000000000006e+00 4.2625770374269978e+00 3.0030999999999874e+01 0 0 0
643 2 6.1524999999999999e+00 6.3938655561404980e+00 3.0030999999999874e+01 0 0 0
645 2 7.3829999999999991e+00 5.6834360499026637e+00 3.0030999999999874e+01 0 0 0
647 2 7.3829999999999991e+00 4.2625770374269996e+00 3.0030999999999874e+01 0 0 0
641 2 6.1524999999999999e+00 7.8147245686161639e+00 3.0030999999999874e+01 0 0 0
911 2 4.9220000000000006e+00 4.2625770374269978e+00 3.3184190411478923e+01 0 0 0
912 2 6.1524999999999999e+00 4.9730065436648339e+00 3.3184190411478923e+01 0 0 0
928 2 6.1524999999999999e+00 6.3938655561404980e+00 3.3184190411478923e+01 0 0 0
930 2 7.3829999999999991e+00 4.2625770374269996e+00 3.3184190411478923e+01 0 0 0
910 2 4.9220000000000006e+00 7.1042950623783341e+00 3.3184190411478923e+01 0 0 0
929 2 7.3830000000000009e+00 7.1042950623783341e+00 3.3184190411478923e+01 0 0 0
688 2 8.6135000000000002e+00 6.3938655561404980e+00 3.0030999999999874e+01 0 0 0
690 2 9.8440000000000012e+00 5.6834360499026637e+00 3.0030999999999874e+01 0 0 0
692 2 9.8440000000000012e+00 4.2625770374270004e+00 3.0030999999999874e+01 0 0 0
735 2 1.1074500000000002e+01 6.3938655561404980e+00 3.0030999999999874e+01 0 0 0
686 2 8.6135000000000002e+00 7.8147245686161639e+00 3.0030999999999874e+01 0 0 0
733 2 1.1074500000000002e+01 7.8147245686161639e+00 3.0030999999999874e+01 0 0 0
931 2 8.6135000000000002e+00 4.9730065436648339e+00 3.3184190411478923e+01 0 0 0
951 2 8.6135000000000002e+00 6.3938655561404980e+00 3.3184190411478923e+01 0 0 0
953 2 9.8440000000000012e+00 4.2625770374270004e+00 3.3184190411478923e+01 0 0 0
954 2 1.1074500000000002e+01 4.9730065436648339e+00 3.3184190411478923e+01 0 0 0
975 2 1.1074500000000002e+01 6.3938655561404980e+00 3.3184190411478923e+01 0 0 0
952 2 9.8440000000000012e+00 7.1042950623783341e+00 3.3184190411478923e+01 0 0 0
571 2 0.0000000000000000e+00 9.9460130873296642e+00 3.0030999999999874e+01 0 0 0
573 2 0.0000000000000000e+00 8.5251540748539991e+00 3.0030999999999874e+01 0 0 0
600 2 2.4610000000000003e+00 9.9460130873296642e+00 3.0030999999999874e+01 0 0 0
602 2 2.4610000000000003e+00 8.5251540748539991e+00 3.0030999999999874e+01 0 0 0
596 2 1.2305000000000001e+00 1.2077301606043163e+01 3.0030999999999874e+01 0 0 0
598 2 1.2305000000000001e+00 1.0656442593567498e+01 3.0030999999999874e+01 0 0 0
633 2 3.6914999999999996e+00 1.2077301606043163e+01 3.0030999999999874e+01 0 0 0
635 2 3.6914999999999996e+00 1.0656442593567499e+01 3.0030999999999874e+01 0 0 0
892 2 0.0000000000000000e+00 8.5251540748539991e+00 3.3184190411478923e+01 0 0 0
893 2 1.2305000000000001e+00 9.2355835810918343e+00 3.3184190411478923e+01 0 0 0
907 2 2.4610000000000003e+00 8.5251540748539991e+00 3.3184190411478923e+01 0 0 0
908 2 3.6915000000000004e+00 9.2355835810918343e+00 3.3184190411478923e+01 0 0 0
891 2 0.0000000000000000e+00 1.1366872099805333e+01 3.3184190411478923e+01 0 0 0
905 2 1.2305000000000001e+00 1.0656442593567498e+01 3.3184190411478923e+01 0 0 0
906 2 2.4610000000000003e+00 1.1366872099805333e+01 3.3184190411478923e+01 0 0 0
924 2 3.6914999999999996e+00 1.0656442593567499e+01 3.3184190411478923e+01 0 0 0
637 2 4.9220000000000006e+00 9.9460130873296642e+00 3.0030999999999874e+01 0 0 0
639 2 4.9220000000000006e+00 8.5251540748539991e+00 3.0030999999999874e+01 0 0 0
682 2 7.3830000000000009e+00 9.9460130873296642e+00 3.0030999999999874e+01 0 0 0
684 2 7.3830000000000009e+00 8.5251540748539991e+00 3.0030999999999874e+01 0 0 0
678 2 6.1524999999999999e+00 1.2077301606043163e+01 3.0030999999999874e+01 0 0 0
680 2 6.1524999999999999e+00 1.0656442593567499e+01 3.0030999999999874e+01 0 0 0
926 2 4.9220000000000006e+00 8.5251540748539991e+00 3.3184190411478923e+01 0 0 0
927 2 6.1524999999999999e+00 9.2355835810918343e+00 3.3184190411478923e+01 0 0 0
949 2 7.3830000000000009e+00 8.5251540748539991e+00 3.3184190411478923e+01 0 0 0
925 2 4.9220000000000006e+00 1.1366872099805333e+01 3.3184190411478923e+01 0 0 0
947 2 6.1524999999999999e+00 1.0656442593567499e+01 3.3184190411478923e+01 0 0 0
948 2 7.3829999999999991e+00 1.1366872099805333e+01 3.3184190411478923e+01 0 0 0
729 2 9.8440000000000012e+00 9.9460130873296642e+00 3.0030999999999874e+01 0 0 0
731 2 9.8440000000000012e+00 8.5251540748539956e+00 3.0030999999999874e+01 0 0 0
725 2 8.6135000000000002e+00 1.2077301606043163e+01 3.0030999999999874e+01 0 0 0
727 2 8.6134999999999984e+00 1.0656442593567498e+01 3.0030999999999874e+01 0 0 0
772 2 1.1074500000000002e+01 1.2077301606043163e+01 3.0030999999999874e+01 0 0 0
774 2 1.1074500000000002e+01 1.0656442593567498e+01 3.0030999999999874e+01 0 0 0
950 2 8.6134999999999984e+00 9.2355835810918343e+00 3.3184190411478923e+01 0 0 0
973 2 9.8440000000000012e+00 8.5251540748539956e+00 3.3184190411478923e+01 0 0 0
974 2 1.1074500000000002e+01 9.2355835810918343e+00 3.3184190411478923e+01 0 0 0
971 2 8.6134999999999984e+00 1.0656442593567498e+01 3.3184190411478923e+01 0 0 0
972 2 9.8440000000000012e+00 1.1366872099805333e+01 3.3184190411478923e+01 0 0 0
995 2 1.1074500000000002e+01 1.0656442593567498e+01 3.3184190411478923e+01 0 0 0
996 2 1.2304999999999998e+01 1.1366872099805333e+01 3.3184190411478923e+01 0 0 0
5172 1 1.0386815415414571e+01 1.8865988396191702e+00 3.5863909735890871e+01 0 0 0
3155 1 2.8368155488430796e-01 3.0432283872499735e+00 3.9023940787519535e+01 0 1 0
1476 1 2.2956713136944713e+00 2.0204996159767621e+00 4.2572707439557604e+01 1 1 0
1824 1 4.7509645247936616e+00 2.5131631091900535e+00 3.5795597355957007e+01 1 1 -1
2815 1 7.5132005032944118e+00 2.7272556356504736e+00 3.6138572584816366e+01 2 1 -1
3339 1 8.9839652659748523e+00 3.2468994681377041e+00 3.9125144774310648e+01 0 0 -1
1616 1 1.0383209484957513e+01 6.9911332191437410e+00 4.2266961557067120e+01 2 0 -1
5043 1 9.4162321887437219e+00 9.8581924096471774e+00 4.2177418586578661e+01 1 1 -1
3387 1 2.3717278922307545e+00 4.1265902412557258e+00 3.5665750813164280e+01 0 1 -1
4591 1 8.4949325950896604e-02 8.4933802984474251e+00 3.8394704764241880e+01 1 1 0
5176 1 1.1763747402381910e+01 3.0689798734534603e+00 3.8818846862546984e+01 0 0 -1
2869 1 4.2969852409508977e+00 7.6156199238296596e+00 3.8416292300773506e+01 1 0 0
2959 1 6.0815921195376808e+00 4.3008482554642340e+00 4.0164107785909820e+01 1 0 -1
6024 1 6.5439902704566366e+00 7.4691728843988745e+00 3.9681485319423281e+01 0 1 -1
3552 1 8.4109116086390578e+00 5.2647028575464558e+00 3.6203133873905870e+01 1 1 0
6137 1 1.0906165360465371e+01 5.0886912079726558e+00 3.5813327613336007e+01 0 -1 0
3147 1 8.7031304050672791e+00 6.0874410163183272e+00 3.8612556040049078e+01 0 0 -1
364 1 1.1177852127288819e+01 7.5979127296239044e+00 3.9018539249512145e+01 1 0 0
338 1 4.8712418908953019e+00 1.0919394615609187e+01 4.2528400043681991e+01 0 0 0
3654 1 7.9973978869619367e-01 7.0808040049275300e+00 3.6031466102241190e+01 -1 1 0
5136 1 9.3158816651384573e+00 1.1203304792079219e+01 3.9686785902321368e+01 0 0 0
3589 1 1.8253830128552950e+00 1.2038745575640496e+01 3.5726407492642238e+01 1 0 -1
4442 1 4.1660443942758532e+00 1.0607550595329110e+01 3.5608205138841747e+01 1 1 0
1782 1 5.0265069726962333e+00 7.8433963467306542e+00 3.5773649437401943e+01 -1 0 0
1367 1 7.3744890822917384e+00 7.9271385824516871e+00 3.5897180157300610e+01 1 0 -1
2967 1 7.4989938774270453e+00 9.6989738816001996e+00 3.8542329481968643e+01 1 0 0
5064 1 1.2006722734185256e+01 7.9545311776610230e+00 3.6440842006507815e+01 1 1 -1
2804 1 2.6423911857870985e+00 5.4640097732853752e+00 3.8010558938051950e+01 1 -1 0
2017 1 3.1318424890187764e+00 1.0060835990644851e+01 3.9859695992398422e+01 1 2 -1
3295 1 4.1567774725903028e+00 3.1037873975838481e+00 3.8510920091154475e+01 1 0 -1
1497 1 4.8282497210121136e+00 5.6867456771990668e+00 4.2031812944689570e+01 1 0 0
6042 1 8.5809770516477590e-01 1.1532265366245257e+01 3.8420045037495370e+01 0 0 0
1739 1 1.0032466794792620e+01 9.8967664616027828e-01 4.2178816100697418e+01 1 0 -1
5990 1 8.2227282412381673e+00 3.1576446843617942e+00 4.1858670965164983e+01 1 1 1
1582 1 2.8211120358846320e+00 7.5410904442692361e+00 4.1094442543695450e+01 -1 0 -1
6221 1 7.4458141826929769e-01 5.6961869648167136e+00 4.0231001096307232e+01 1 1 -1
2939 1 6.6883135945134979e+00 9.0809016092180528e+00 4.2130065002771801e+01 0 1 -1
26 1 5.1428630179931645e+00 1.1297657932968779e+01 3.8462026397850529e+01 0 0 -1
6242 1 8.3335688521255786e+00 1.0577604482031317e+01 3.5732714896138447e+01 0 0 0
4849 1 7.5921206337580029e+00 5.4246979236016568e-01 3.8403972773490260e+01 1 0 0
3556 1 4.2727849211256713e-01 4.1202717870184022e+00 4.2561207267357737e+01 -1 1 -1
286 1 1.1551400994547077e+01 1.1294512546062180e+01 3.8185306209352632e+01 0 -1 -1
2848 1 2.2875145026155850e+00 1.4600843367215779e+00 3.9886385980633150e+01 0 1 0
2110 1 1.1131177582862470e+01 1.0507350644197494e+01 3.5807372465387395e+01 1 -1 0
4723 1 6.5701708723511452e+00 1.3264606412506448e+00 4.3219684571492415e+01 0 1 0
3115 1 3.0104274941395226e+00 3.4307757992157861e-01 4.6931901003758405e+01 0 1 0
1975 1 3.2509903263930258e+00 2.7907406660221681e+00 4.8133225591569484e+01 0 0 0
299 1 2.6806365178022995e+00 9.1309880907387999e+00 4.3533219871285887e+01 0 1 -1
2846 1 3.0827294199007680e+00 2.0168351946270482e+00 5.4731015362473691e+01 0 0 0
3658 1 7.3429803164377923e+00 1.3229674777408742e+00 4.6265527206598442e+01 2 1 -1
4870 1 1.1021499901603299e+01 3.1495647552347732e+00 4.5986755181580584e+01 -2 1 -1
4989 1 9.7475080004328110e+00 1.0176504725554747e+00 4.4735751075920604e+01 -1 2 -1
476 1 2.6890117296186959e+00 7.0886816088742313e+00 4.5355262533316967e+01 0 1 0
5116 1 3.9643448906849899e-01 6.4117548489979270e-01 5.4770174230691083e+01 0 0 -1
4609 1 1.9454803475583404e+00 4.4904701289617002e+00 5.4220621131915010e+01 1 -1 -1
1677 1 5.4307937508461839e+00 3.6795137956987789e+00 4.6535429009392161e+01 -1 -1 -1
2922 1 5.1953113741795560e+00 6.3756693115139011e+00 4.6089556777959054e+01 0 0 0
1579 1 8.1086475500964585e+00 4.0899323117746240e+00 4.7562651118701375e+01 0 1 0
3341 1 9.6049954259687258e+00 5.4372146321432382e+00 4.5689736615713144e+01 1 0 -1
3639 1 1.0197549842399306e+01 7.8173550215113723e+00 4.6804046467132764e+01 1 1 0
5983 1 8.5331615255193227e-01 1.0948636712296663e+01 5.4437605524499460e+01 1 1 0
4834 1 9.6964311694048966e-01 1.0609365152287172e+01 4.6669353600578972e+01 0 1 -1
3532 1 2.5829730322862958e+00 1.1803775259864441e+01 4.4602319223696362e+01 1 0 -1