LAMMPS data file via write_data, version 16 Mar 2018, timestep = 8000000

6328 atoms
2 atom types

0.0000000000000000e+00 4.9219999999999999e+01 xlo xhi
0.0000000000000000e+00 4.9019635930410494e+01 ylo yhi
1.9929997965701425e+00 5.8069000203422718e+01 zlo zhi

Masses

1 18.015
2 12.01

Atoms # atomic

345 1 1.2190000963530604e+01 6.4051117610105122e+00 1.2529526268536237e+01 -1 -2 0
4430 1 6.7117634267816397e+00 7.8046207417975468e+00 1.3036429626929305e+01 3 0 1
4960 1 6.5322845787322690e+00 8.4659768283917258e-01 4.7005701594217069e+00 -3 4 0
2946 1 7.9848580795915050e+00 1.1566132602296474e+01 1.2946368766707835e+01 2 1 1
1883 1 9.4161739495834489e+00 9.0896286445295811e+00 2.0759768406984080e+00 0 1 0
528 1 8.4092088097266551e+00 1.1461971233625915e+01 8.3526249002107775e+00 -1 6 1
316 1 3.3555329486803074e+00 3.8853320688299213e+00 4.7590306992924916e+00 -2 2 0
6138 1 1.5552421317206371e+00 1.1290609891879081e+01 2.1114234217066574e+00 3 -1 1
2878 1 7.7774206995815858e+00 5.1137468656208300e+00 5.1522672127791367e+00 -1 2 1
3571 1 1.1092693481020627e+01 1.4099716930760273e+00 2.2831304405749133e+00 -4 0 0
3717 1 2.8885526449717247e-01 7.6564262536073233e+00 1.1935368704260503e+01 -1 2 1
390 1 1.1464201792398770e+01 8.8502323418913083e+00 1.3482584653161885e+01 -4 5 1
1993 1 2.5361502359910908e+00 6.8723654234631111e+00 1.2902050607455308e+01 1 -3 0
2945 1 1.2342216765069149e+00 1.1229743086759671e+01 4.9220124660747775e+00 4 -1 1
1547 1 6.5303873418578826e+00 8.0771094514440946e+00 1.5701412275565268e+01 2 -1 1
1766 1 4.5625187501097821e+00 8.1732230723319912e+00 4.6746211206229056e+00 0 -2 0
112 1 3.8619045169111779e+00 1.1100298936390621e+01 1.3009745522964991e+01 1 1 1
4639 1 9.5589862464191118e+00 9.3720016333428973e+00 4.8190847699119566e+00 -3 -2 1
1334 1 1.5436738246364023e+00 2.1385561186695732e+00 5.5899500033207588e+00 -1 0 0
2141 1 1.3021896490187339e+00 2.5829148281207033e+00 8.3004756447320567e+00 3 3 0
3043 1 5.8480433112550276e+00 3.3454507230094861e+00 6.0031312824515162e+00 1 2 1
3230 1 5.6053717090040847e+00 3.0731064026474195e+00 8.7590850502584647e+00 1 7 0
371 1 1.0547522941594771e+01 4.6956568136608023e+00 5.9748027851429519e+00 2 0 1
520 1 8.5353623333708040e+00 8.5536045435248520e-01 8.5931681417325514e+00 2 1 1
3203 1 1.0701740858228477e-01 7.0697602394534771e+00 4.3880149603865934e+00 1 -2 0
4619 1 2.6415536679980165e+00 6.4596669477099598e+00 5.4473236628909980e+00 0 -3 1
1745 1 2.6335136847053389e+00 6.5613474417284747e+00 8.2842486480097062e+00 -1 1 0
4904 1 7.3224802973480942e+00 7.9146093857301230e+00 5.6832469224748374e+00 -3 -1 0
4723 1 7.1620248751456783e+00 7.7580233101042744e+00 8.3894996855757444e+00 -1 -1 1
4814 1 1.0375943664353636e+01 4.8782900361101680e+00 8.7073853150717930e+00 2 2 0
2038 1 3.8887671836104487e+00 1.0823184072546821e+01 8.5196780077222627e+00 3 0 1
4877 1 3.9253605468322910e+00 1.0607096143438364e+01 5.8027489886965125e+00 -2 1 0
5315 1 8.9100779106034249e+00 9.4605824097556884e-02 5.8906924183499552e+00 -3 2 0
3172 1 1.1934655421460141e+01 8.5656574901144769e+00 8.2747289224937326e+00 -2 0 1
4755 1 1.2224792643722386e+01 8.2761746913841527e+00 5.5332268527626640e+00 0 3 0
2817 1 1.0821008992915390e+01 2.0889622178832461e+00 5.1223113920335148e+00 0 1 1
3263 1 3.3523251334362985e+00 1.1029693741250695e+01 1.5604210188786901e+01 4 -2 0
3427 1 9.6627428077477528e+00 4.9373772996160703e+00 1.3279782783340453e+01 -1 1 1
2102 1 6.1338496650250161e+00 4.9684216356507666e-01 1.0096933923570052e+01 1 3 1
3096 1 1.0742437909329034e+01 2.2842405952346647e+00 9.6499322335231383e+00 -1 1 2
5256 1 3.3403856272813623e+00 4.0434255123765519e+00 9.4883782285036062e+00 1 -2 1
3141 1 2.9105752832034648e+00 4.2935548799035121e+00 1.2106547144472115e+01 0 2 1
1856 1 7.5780700653410777e+00 5.2191652717999970e+00 9.2103208519525825e+00 -4 0 1
328 1 7.3042258676785394e+00 5.5077221490505002e+00 1.2093283294779932e+01 -3 2 0
4598 1 8.4289125530383782e+00 1.1616125162171638e+01 5.6791918899378491e+00 -5 -1 1
4663 1 1.3423635841820749e+00 1.1580341335453213e+01 9.3251577756750432e+00 -5 2 1
5134 1 4.3422549583179793e+00 8.3390494885575510e+00 9.1264665032907715e+00 2 -2 0
357 1 4.4689956335115832e+00 8.6032137932133761e+00 1.2018952270196580e+01 4 2 1
5998 1 9.4963837100660786e+00 9.1870524027683871e+00 9.4232947440814012e+00 1 2 1
3413 1 9.0536860039929543e+00 9.1820278485161477e+00 1.2304300583797424e+01 4 1 0
285 1 1.1768250889969842e+00 2.1904746199229548e+00 1.2958722686066061e+01 -2 0 0
10 1 6.3757734432751851e+00 4.6614476749949596e-01 2.1571095531591382e+00 3 2 0
3718 1 6.0207438294699207e+00 1.2383985869158025e+00 1.2647999465964771e+01 -1 5 0
377 1 5.2392641099858412e+00 3.6478847485442523e+00 1.3085518665478034e+01 1 -1 0
256 1 8.3747173310348675e+00 7.0859403779637953e-01 1.3806841102762707e+01 -2 0 1
4692 1 1.0291419879292715e+01 2.2844499371021816e+00 1.2764650382778010e+01 -4 0 0
2909 1 2.1064038816694151e+00 6.7557367351165780e+00 1.5500471145799404e+01 4 -1 0
1482 1 2.6677007573681910e-01 7.1917574858694842e+00 9.4095061557687600e+00 1 2 0
4433 1 1.2702893615208231e+00 1.1733014976293681e+01 1.2113337919127797e+01 -1 4 1
5155 1 7.8947654531595246e+00 1.2136087800647429e+01 1.5542922890657000e+01 1 0 1
1965 1 6.6833881650403903e-01 2.4212347053497045e+00 1.5671638749788388e+01 7 0 1
1782 1 8.1728651748704433e+00 4.6933958947291128e+00 2.3233207894458214e+00 -2 0 1
3224 1 2.0203986045353104e+00 2.4834090573808254e-01 9.1655667060572181e+00 2 1 0
1878 1 9.6047072634763371e+00 4.6208728884346284e+00 1.5967101796587256e+01 -3 0 0
4879 1 4.8886687744822295e+00 3.6885240046651133e+00 1.6001556318265589e+01 3 -3 1
3197 1 3.4629898774390449e+00 3.6972084261077232e+00 2.1182218465914815e+00 1 -4 0
6164 1 5.0059448123312658e+00 7.7684907897449813e+00 2.0687179598461825e+00 -1 1 0
156 1 3.2279028022934084e+00 1.7440903951880082e+00 1.7025171141869819e+01 -4 0 0
5969 1 7.4035293923966963e+00 3.0226675321549457e+00 1.7161248332622797e+01 -2 0 1
1840 1 1.1824846080210770e+01 4.2204822888098814e+00 1.7649575187081982e+01 -2 -1 0
4626 1 1.0653817879600819e+01 1.3353927522472677e+00 1.7395705706353983e+01 -1 -2 0
89 1 1.1690443671824635e+01 5.2178727062989614e+00 2.0335587450477131e+01 2 3 0
5267 1 8.2490223286403523e+00 5.6286330244037719e-01 1.6495210759514180e+01 -2 -1 1
2987 1 4.5132309465026763e+00 6.4076411074596793e+00 1.6546072901014071e+01 3 2 1
1299 1 8.8774102438129425e+00 7.1627316777297931e+00 1.7011175927897817e+01 2 -1 1
4539 1 2.3524387324103888e-01 4.8467823072878033e+00 1.9303635702193858e+01 -1 0 1
4498 1 1.6641073301058975e+00 4.9352618329948217e-01 2.4626247557974981e+01 1 1 1
260 1 1.6902547196890931e+00 9.0235658396524840e+00 1.6670077584983666e+01 0 1 0
282 1 1.7920050990069916e+00 9.2734132060122398e+00 1.9323446230279057e+01 -5 3 0
4958 1 5.8789502449524322e+00 1.0520518511256352e+01 1.6697549450432309e+01 4 1 1
4586 1 5.7264171045086680e+00 1.0413358429323280e+01 1.9591162871295129e+01 0 0 0
4921 1 1.1462237902444301e+01 6.5598534024546371e+00 2.4250080571412827e+01 -1 8 0
2012 1 1.0507509373259488e+01 1.1664981998596428e+01 1.6907174249498496e+01 -4 -4 0
2908 1 3.3893182017201631e+00 1.7593388673946200e+00 1.9592333384447830e+01 3 1 1
363 1 9.4950046297205137e-01 2.4994008275753581e+00 2.0419534308924682e+01 0 1 0
6027 1 7.5026936311614172e+00 3.5341215364000593e+00 1.9782674787831880e+01 0 0 0
4454 1 4.8357686874389039e+00 3.8691579151432656e+00 2.0723027721739356e+01 2 2 1
3582 1 8.1205340852144658e+00 9.6901974345298625e-01 2.0785658274189256e+01 -1 4 1
3299 1 1.0793927244302573e+01 8.4708367263644846e-01 2.0084385725421871e+01 -4 2 0
728 2 9.8440000000000012e+00 1.1366872099805333e+01 2.6684656048383573e+01 0 0 0
4409 1 1.8835990740882171e+00 6.7836722179207234e+00 2.0486270964658651e+01 4 3 0
3301 1 2.0422002403987225e+00 6.6340288521099859e+00 2.3252091191508296e+01 6 -3 0
3039 1 4.4544313693323581e+00 6.3481586831673260e+00 1.9297822533378287e+01 3 -2 1
1516 1 7.5734127487514415e+00 1.2135564496399779e+01 2.0502175870570088e+01 0 3 1
4612 1 8.6634250220027518e+00 7.7504699340510106e+00 1.9701730648871045e+01 0 -3 1
3454 1 9.2071028452174239e+00 5.2618705924101530e+00 2.0994338136453280e+01 2 1 0
3055 1 3.2712003569872183e+00 1.1254635362739485e+01 2.0080526131558322e+01 2 2 0
4769 1 6.2250077119143006e+00 8.0324761838746799e+00 2.0668919351572843e+01 -3 2 1
732 2 1.1074500000000002e+01 9.2355835810918343e+00 2.6684656048383573e+01 0 0 0
217 1 1.0423774913324834e+01 9.4440224714596539e+00 2.0654543824846446e+01 0 0 1
4760 1 1.0336878896757526e+01 1.1968466703050497e+01 1.9702027471788451e+01 0 3 0
5174 1 8.7970070309932691e-01 2.9452958411093331e+00 2.3440955583372521e+01 -1 -2 0
6155 1 6.0057648342994758e+00 1.3284961838053717e+00 2.4358407189803678e+01 2 -2 1
4738 1 8.4451756414816703e+00 5.7882404325218650e-01 2.3510333722612845e+01 -1 2 1
1525 1 1.0697334432637041e+01 2.2939308701082997e+00 2.4283188294624832e+01 -1 -1 1
2098 1 2.5799395467721080e+00 4.3909990955729281e+00 2.4325455097285015e+01 0 3 0
4955 1 4.8773319390672851e+00 3.6170268451062619e+00 2.3459199992759828e+01 -1 -2 1
340 1 6.6066498613180995e+00 5.5751008104498796e+00 2.4344059832542325e+01 1 -2 0
6275 1 9.1687885169278118e+00 4.9119532427706130e+00 2.4088776829539892e+01 0 1 1
773 2 1.1074500000000002e+01 1.0656442593567498e+01 2.6684656048383573e+01 0 0 0
2912 1 3.2755943204379094e+00 1.1315095594484449e+01 2.2951495727184593e+01 1 3 0
5121 1 3.6081577700102816e+00 8.8818439348474385e+00 2.4466250795559745e+01 -2 2 0
6170 1 6.0008691708399002e+00 8.1178338277544757e+00 2.3467150573460202e+01 1 2 1
775 2 1.2304999999999998e+01 1.1366872099805333e+01 2.6684656048383573e+01 0 0 0
3352 1 8.1174837182629744e+00 9.5234503871114189e+00 2.4388321636098642e+01 -4 1 0
1483 1 1.0502561298589921e+01 8.9960931657578183e+00 2.3457747972472724e+01 1 1 1
552 2 0.0000000000000000e+00 2.8417180249513345e+00 2.6684656048383573e+01 0 0 0
554 2 0.0000000000000000e+00 0.0000000000000000e+00 2.6684656048383573e+01 0 0 0
556 2 1.2305000000000001e+00 7.1042950623783474e-01 2.6684656048383573e+01 0 0 0
563 2 1.2305000000000001e+00 2.1312885187134998e+00 2.6684656048383573e+01 0 0 0
565 2 2.4610000000000003e+00 2.8417180249513345e+00 2.6684656048383573e+01 0 0 0
567 2 2.4610000000000003e+00 0.0000000000000000e+00 2.6684656048383573e+01 0 0 0
569 2 3.6915000000000004e+00 7.1042950623783474e-01 2.6684656048383573e+01 0 0 0
584 2 3.6914999999999996e+00 2.1312885187134998e+00 2.6684656048383573e+01 0 0 0
586 2 4.9220000000000006e+00 2.8417180249513332e+00 2.6684656048383573e+01 0 0 0
588 2 4.9220000000000006e+00 0.0000000000000000e+00 2.6684656048383573e+01 0 0 0
590 2 6.1524999999999999e+00 7.1042950623783407e-01 2.6684656048383573e+01 0 0 0
613 2 6.1524999999999999e+00 2.1312885187134989e+00 2.6684656048383573e+01 0 0 0
615 2 7.3829999999999991e+00 2.8417180249513345e+00 2.6684656048383573e+01 0 0 0
617 2 7.3829999999999991e+00 0.0000000000000000e+00 2.6684656048383573e+01 0 0 0
619 2 8.6134999999999984e+00 7.1042950623783407e-01 2.6684656048383573e+01 0 0 0
650 2 8.6134999999999984e+00 2.1312885187135002e+00 2.6684656048383573e+01 0 0 0
652 2 9.8440000000000012e+00 2.8417180249513332e+00 2.6684656048383573e+01 0 0 0
654 2 9.8440000000000012e+00 0.0000000000000000e+00 2.6684656048383573e+01 0 0 0
656 2 1.1074500000000002e+01 7.1042950623783330e-01 2.6684656048383573e+01 0 0 0
695 2 1.1074500000000002e+01 2.1312885187135002e+00 2.6684656048383573e+01 0 0 0
559 2 0.0000000000000000e+00 4.2625770374269996e+00 2.6684656048383573e+01 0 0 0
561 2 1.2305000000000001e+00 4.9730065436648339e+00 2.6684656048383573e+01 0 0 0
576 2 1.2305000000000001e+00 6.3938655561404980e+00 2.6684656048383573e+01 0 0 0
580 2 2.4610000000000003e+00 4.2625770374269996e+00 2.6684656048383573e+01 0 0 0
582 2 3.6914999999999996e+00 4.9730065436648339e+00 2.6684656048383573e+01 0 0 0
605 2 3.6914999999999996e+00 6.3938655561404980e+00 2.6684656048383573e+01 0 0 0
557 2 0.0000000000000000e+00 7.1042950623783341e+00 2.6684656048383573e+01 0 0 0
578 2 2.4610000000000003e+00 7.1042950623783341e+00 2.6684656048383573e+01 0 0 0
609 2 4.9220000000000006e+00 4.2625770374269978e+00 2.6684656048383573e+01 0 0 0
611 2 6.1524999999999999e+00 4.9730065436648339e+00 2.6684656048383573e+01 0 0 0
642 2 6.1524999999999999e+00 6.3938655561404980e+00 2.6684656048383573e+01 0 0 0
646 2 7.3829999999999991e+00 4.2625770374269996e+00 2.6684656048383573e+01 0 0 0
607 2 4.9220000000000006e+00 7.1042950623783341e+00 2.6684656048383573e+01 0 0 0
644 2 7.3830000000000009e+00 7.1042950623783341e+00 2.6684656048383573e+01 0 0 0
648 2 8.6135000000000002e+00 4.9730065436648339e+00 2.6684656048383573e+01 0 0 0
687 2 8.6135000000000002e+00 6.3938655561404980e+00 2.6684656048383573e+01 0 0 0
691 2 9.8440000000000012e+00 4.2625770374270004e+00 2.6684656048383573e+01 0 0 0
693 2 1.1074500000000002e+01 4.9730065436648339e+00 2.6684656048383573e+01 0 0 0
734 2 1.1074500000000002e+01 6.3938655561404980e+00 2.6684656048383573e+01 0 0 0
689 2 9.8440000000000012e+00 7.1042950623783341e+00 2.6684656048383573e+01 0 0 0
634 2 3.6914999999999996e+00 1.0656442593567499e+01 2.6684656048383573e+01 0 0 0
572 2 0.0000000000000000e+00 8.5251540748539991e+00 2.6684656048383573e+01 0 0 0
597 2 1.2305000000000001e+00 1.0656442593567498e+01 2.6684656048383573e+01 0 0 0
574 2 1.2305000000000001e+00 9.2355835810918343e+00 2.6684656048383573e+01 0 0 0
599 2 2.4610000000000003e+00 1.1366872099805333e+01 2.6684656048383573e+01 0 0 0
601 2 2.4610000000000003e+00 8.5251540748539991e+00 2.6684656048383573e+01 0 0 0
603 2 3.6915000000000004e+00 9.2355835810918343e+00 2.6684656048383573e+01 0 0 0
570 2 0.0000000000000000e+00 1.1366872099805333e+01 2.6684656048383573e+01 0 0 0
683 2 7.3830000000000009e+00 8.5251540748539991e+00 2.6684656048383573e+01 0 0 0
681 2 7.3829999999999991e+00 1.1366872099805333e+01 2.6684656048383573e+01 0 0 0
640 2 6.1524999999999999e+00 9.2355835810918343e+00 2.6684656048383573e+01 0 0 0
638 2 4.9220000000000006e+00 8.5251540748539991e+00 2.6684656048383573e+01 0 0 0
636 2 4.9220000000000006e+00 1.1366872099805333e+01 2.6684656048383573e+01 0 0 0
679 2 6.1524999999999999e+00 1.0656442593567499e+01 2.6684656048383573e+01 0 0 0
726 2 8.6134999999999984e+00 1.0656442593567498e+01 2.6684656048383573e+01 0 0 0
685 2 8.6134999999999984e+00 9.2355835810918343e+00 2.6684656048383573e+01 0 0 0
730 2 9.8440000000000012e+00 8.5251540748539956e+00 2.6684656048383573e+01 0 0 0
2081 1 6.7538247245769134e-01 1.2081124444997148e+01 2.4115221456359336e+01 -1 -1 0
6205 1 3.3744374549019601e-01 5.2633690288164834e+00 1.6728253412677994e+01 2 0 0
6006 1 1.2240743636742748e+01 2.6741231708996485e+00 2.1740909960242110e+01 2 0 1
6084 1 7.9313207820900917e+00 1.1977586678195379e+01 2.3318844323226180e+01 -2 2 1
1242 1 1.0743889530383473e+01 8.9572905550962076e+00 1.6250119918340616e+01 2 1 1
553 2 0.0000000000000000e+00 1.4208590124756650e+00 3.0030999999996521e+01 0 0 0
555 2 0.0000000000000000e+00 0.0000000000000000e+00 3.0030999999996521e+01 0 0 0
564 2 1.2305000000000001e+00 2.1312885187134998e+00 3.0030999999996521e+01 0 0 0
566 2 2.4610000000000003e+00 1.4208590124756650e+00 3.0030999999996521e+01 0 0 0
568 2 2.4610000000000003e+00 0.0000000000000000e+00 3.0030999999996521e+01 0 0 0
585 2 3.6914999999999996e+00 2.1312885187134998e+00 3.0030999999996521e+01 0 0 0
562 2 1.2305000000000001e+00 3.5521475311891644e+00 3.0030999999996521e+01 0 0 0
583 2 3.6914999999999996e+00 3.5521475311891644e+00 3.0030999999996521e+01 0 0 0
881 2 0.0000000000000000e+00 2.8417180249513345e+00 3.3377343951622620e+01 0 0 0
882 2 0.0000000000000000e+00 0.0000000000000000e+00 3.3377343951622620e+01 0 0 0
883 2 1.2305000000000001e+00 7.1042950623783474e-01 3.3377343951622620e+01 0 0 0
887 2 1.2305000000000001e+00 2.1312885187134998e+00 3.3377343951622620e+01 0 0 0
888 2 2.4610000000000003e+00 2.8417180249513345e+00 3.3377343951622620e+01 0 0 0
889 2 2.4610000000000003e+00 0.0000000000000000e+00 3.3377343951622620e+01 0 0 0
890 2 3.6915000000000004e+00 7.1042950623783474e-01 3.3377343951622620e+01 0 0 0
898 2 3.6914999999999996e+00 2.1312885187134998e+00 3.3377343951622620e+01 0 0 0
587 2 4.9220000000000006e+00 1.4208590124756650e+00 3.0030999999996521e+01 0 0 0
589 2 4.9220000000000006e+00 0.0000000000000000e+00 3.0030999999996521e+01 0 0 0
614 2 6.1524999999999999e+00 2.1312885187134989e+00 3.0030999999996521e+01 0 0 0
616 2 7.3829999999999991e+00 1.4208590124756659e+00 3.0030999999996521e+01 0 0 0
618 2 7.3829999999999991e+00 0.0000000000000000e+00 3.0030999999996521e+01 0 0 0
612 2 6.1524999999999999e+00 3.5521475311891644e+00 3.0030999999996521e+01 0 0 0
899 2 4.9220000000000006e+00 2.8417180249513332e+00 3.3377343951622620e+01 0 0 0
900 2 4.9220000000000006e+00 0.0000000000000000e+00 3.3377343951622620e+01 0 0 0
901 2 6.1524999999999999e+00 7.1042950623783407e-01 3.3377343951622620e+01 0 0 0
913 2 6.1524999999999999e+00 2.1312885187134989e+00 3.3377343951622620e+01 0 0 0
914 2 7.3829999999999991e+00 2.8417180249513345e+00 3.3377343951622620e+01 0 0 0
915 2 7.3829999999999991e+00 0.0000000000000000e+00 3.3377343951622620e+01 0 0 0
651 2 8.6134999999999984e+00 2.1312885187135002e+00 3.0030999999996521e+01 0 0 0
653 2 9.8440000000000012e+00 1.4208590124756659e+00 3.0030999999996521e+01 0 0 0
655 2 9.8440000000000012e+00 0.0000000000000000e+00 3.0030999999996521e+01 0 0 0
696 2 1.1074500000000002e+01 2.1312885187135002e+00 3.0030999999996521e+01 0 0 0
649 2 8.6134999999999984e+00 3.5521475311891657e+00 3.0030999999996521e+01 0 0 0
694 2 1.1074500000000002e+01 3.5521475311891644e+00 3.0030999999996521e+01 0 0 0
916 2 8.6134999999999984e+00 7.1042950623783407e-01 3.3377343951622620e+01 0 0 0
932 2 8.6134999999999984e+00 2.1312885187135002e+00 3.3377343951622620e+01 0 0 0
933 2 9.8440000000000012e+00 2.8417180249513332e+00 3.3377343951622620e+01 0 0 0
934 2 9.8440000000000012e+00 0.0000000000000000e+00 3.3377343951622620e+01 0 0 0
935 2 1.1074500000000002e+01 7.1042950623783330e-01 3.3377343951622620e+01 0 0 0
955 2 1.1074500000000002e+01 2.1312885187135002e+00 3.3377343951622620e+01 0 0 0
558 2 0.0000000000000000e+00 5.6834360499026637e+00 3.0030999999996521e+01 0 0 0
560 2 0.0000000000000000e+00 4.2625770374269996e+00 3.0030999999996521e+01 0 0 0
577 2 1.2305000000000001e+00 6.3938655561404980e+00 3.0030999999996521e+01 0 0 0
579 2 2.4610000000000003e+00 5.6834360499026637e+00 3.0030999999996521e+01 0 0 0
581 2 2.4610000000000003e+00 4.2625770374269996e+00 3.0030999999996521e+01 0 0 0
606 2 3.6914999999999996e+00 6.3938655561404980e+00 3.0030999999996521e+01 0 0 0
575 2 1.2305000000000001e+00 7.8147245686161639e+00 3.0030999999996521e+01 0 0 0
604 2 3.6914999999999996e+00 7.8147245686161639e+00 3.0030999999996521e+01 0 0 0
885 2 0.0000000000000000e+00 4.2625770374269996e+00 3.3377343951622620e+01 0 0 0
886 2 1.2305000000000001e+00 4.9730065436648339e+00 3.3377343951622620e+01 0 0 0
894 2 1.2305000000000001e+00 6.3938655561404980e+00 3.3377343951622620e+01 0 0 0
896 2 2.4610000000000003e+00 4.2625770374269996e+00 3.3377343951622620e+01 0 0 0
897 2 3.6914999999999996e+00 4.9730065436648339e+00 3.3377343951622620e+01 0 0 0
909 2 3.6914999999999996e+00 6.3938655561404980e+00 3.3377343951622620e+01 0 0 0
884 2 0.0000000000000000e+00 7.1042950623783341e+00 3.3377343951622620e+01 0 0 0
895 2 2.4610000000000003e+00 7.1042950623783341e+00 3.3377343951622620e+01 0 0 0
608 2 4.9220000000000006e+00 5.6834360499026637e+00 3.0030999999996521e+01 0 0 0
610 2 4.9220000000000006e+00 4.2625770374269978e+00 3.0030999999996521e+01 0 0 0
643 2 6.1524999999999999e+00 6.3938655561404980e+00 3.0030999999996521e+01 0 0 0
645 2 7.3829999999999991e+00 5.6834360499026637e+00 3.0030999999996521e+01 0 0 0
647 2 7.3829999999999991e+00 4.2625770374269996e+00 3.0030999999996521e+01 0 0 0
641 2 6.1524999999999999e+00 7.8147245686161639e+00 3.0030999999996521e+01 0 0 0
911 2 4.9220000000000006e+00 4.2625770374269978e+00 3.3377343951622620e+01 0 0 0
912 2 6.1524999999999999e+00 4.9730065436648339e+00 3.3377343951622620e+01 0 0 0
928 2 6.1524999999999999e+00 6.3938655561404980e+00 3.3377343951622620e+01 0 0 0
930 2 7.3829999999999991e+00 4.2625770374269996e+00 3.3377343951622620e+01 0 0 0
910 2 4.9220000000000006e+00 7.1042950623783341e+00 3.3377343951622620e+01 0 0 0
929 2 7.3830000000000009e+00 7.1042950623783341e+00 3.3377343951622620e+01 0 0 0
688 2 8.6135000000000002e+00 6.3938655561404980e+00 3.0030999999996521e+01 0 0 0
690 2 9.8440000000000012e+00 5.6834360499026637e+00 3.0030999999996521e+01 0 0 0
692 2 9.8440000000000012e+00 4.2625770374270004e+00 3.0030999999996521e+01 0 0 0
735 2 1.1074500000000002e+01 6.3938655561404980e+00 3.0030999999996521e+01 0 0 0
686 2 8.6135000000000002e+00 7.8147245686161639e+00 3.0030999999996521e+01 0 0 0
733 2 1.1074500000000002e+01 7.8147245686161639e+00 3.0030999999996521e+01 0 0 0
931 2 8.6135000000000002e+00 4.9730065436648339e+00 3.3377343951622620e+01 0 0 0
951 2 8.6135000000000002e+00 6.3938655561404980e+00 3.3377343951622620e+01 0 0 0
953 2 9.8440000000000012e+00 4.2625770374270004e+00 3.3377343951622620e+01 0 0 0
954 2 1.1074500000000002e+01 4.9730065436648339e+00 3.3377343951622620e+01 0 0 0
975 2 1.1074500000000002e+01 6.3938655561404980e+00 3.3377343951622620e+01 0 0 0
952 2 9.8440000000000012e+00 7.1042950623783341e+00 3.3377343951622620e+01 0 0 0
571 2 0.0000000000000000e+00 9.9460130873296642e+00 3.0030999999996521e+01 0 0 0
573 2 0.0000000000000000e+00 8.5251540748539991e+00 3.0030999999996521e+01 0 0 0
600 2 2.4610000000000003e+00 9.9460130873296642e+00 3.0030999999996521e+01 0 0 0
602 2 2.4610000000000003e+00 8.5251540748539991e+00 3.0030999999996521e+01 0 0 0
596 2 1.2305000000000001e+00 1.2077301606043163e+01 3.0030999999996521e+01 0 0 0
598 2 1.2305000000000001e+00 1.0656442593567498e+01 3.0030999999996521e+01 0 0 0
633 2 3.6914999999999996e+00 1.2077301606043163e+01 3.0030999999996521e+01 0 0 0
635 2 3.6914999999999996e+00 1.0656442593567499e+01 3.0030999999996521e+01 0 0 0
892 2 0.0000000000000000e+00 8.5251540748539991e+00 3.3377343951622620e+01 0 0 0
893 2 1.2305000000000001e+00 9.2355835810918343e+00 3.3377343951622620e+01 0 0 0
907 2 2.4610000000000003e+00 8.5251540748539991e+00 3.3377343951622620e+01 0 0 0
908 2 3.6915000000000004e+00 9.2355835810918343e+00 3.3377343951622620e+01 0 0 0
891 2 0.0000000000000000e+00 1.1366872099805333e+01 3.3377343951622620e+01 0 0 0
905 2 1.2305000000000001e+00 1.0656442593567498e+01 3.3377343951622620e+01 0 0 0
906 2 2.4610000000000003e+00 1.1366872099805333e+01 3.3377343951622620e+01 0 0 0
924 2 3.6914999999999996e+00 1.0656442593567499e+01 3.3377343951622620e+01 0 0 0
637 2 4.9220000000000006e+00 9.9460130873296642e+00 3.0030999999996521e+01 0 0 0
639 2 4.9220000000000006e+00 8.5251540748539991e+00 3.0030999999996521e+01 0 0 0
682 2 7.3830000000000009e+00 9.9460130873296642e+00 3.0030999999996521e+01 0 0 0
684 2 7.3830000000000009e+00 8.5251540748539991e+00 3.0030999999996521e+01 0 0 0
678 2 6.1524999999999999e+00 1.2077301606043163e+01 3.0030999999996521e+01 0 0 0
680 2 6.1524999999999999e+00 1.0656442593567499e+01 3.0030999999996521e+01 0 0 0
926 2 4.9220000000000006e+00 8.5251540748539991e+00 3.3377343951622620e+01 0 0 0
927 2 6.1524999999999999e+00 9.2355835810918343e+00 3.3377343951622620e+01 0 0 0
949 2 7.3830000000000009e+00 8.5251540748539991e+00 3.3377343951622620e+01 0 0 0
925 2 4.9220000000000006e+00 1.1366872099805333e+01 3.3377343951622620e+01 0 0 0
947 2 6.1524999999999999e+00 1.0656442593567499e+01 3.3377343951622620e+01 0 0 0
948 2 7.3829999999999991e+00 1.1366872099805333e+01 3.3377343951622620e+01 0 0 0
729 2 9.8440000000000012e+00 9.9460130873296642e+00 3.0030999999996521e+01 0 0 0
731 2 9.8440000000000012e+00 8.5251540748539956e+00 3.0030999999996521e+01 0 0 0
725 2 8.6135000000000002e+00 1.2077301606043163e+01 3.0030999999996521e+01 0 0 0
727 2 8.6134999999999984e+00 1.0656442593567498e+01 3.0030999999996521e+01 0 0 0
772 2 1.1074500000000002e+01 1.2077301606043163e+01 3.0030999999996521e+01 0 0 0
774 2 1.1074500000000002e+01 1.0656442593567498e+01 3.0030999999996521e+01 0 0 0
950 2 8.6134999999999984e+00 9.2355835810918343e+00 3.3377343951622620e+01 0 0 0
973 2 9.8440000000000012e+00 8.5251540748539956e+00 3.3377343951622620e+01 0 0 0
974 2 1.1074500000000002e+01 9.2355835810918343e+00 3.3377343951622620e+01 0 0 0
971 2 8.6134999999999984e+00 1.0656442593567498e+01 3.3377343951622620e+01 0 0 0
972 2 9.8440000000000012e+00 1.1366872099805333e+01 3.3377343951622620e+01 0 0 0
995 2 1.1074500000000002e+01 1.0656442593567498e+01 3.3377343951622620e+01 0 0 0
996 2 1.2304999999999998e+01 1.1366872099805333e+01 3.3377343951622620e+01 0 0 0
3108 1 1.8718957027284810e+00 1.9635397435713189e+00 3.6502636944760667e+01 -4 0 0
1629 1 3.8080556659153229e+00 4.0169073574625846e+00 3.6137538927568087e+01 1 -4 -1
2874 1 6.3844537142588873e+00 3.0686935684102359e+00 3.6423898824683420e+01 5 -2 -1
3723 1 7.1889371472955226e+00 3.2654162492900646e-01 3.5948432738649771e+01 -2 0 0
1428 1 1.1490329927499399e+01 1.7783043488460397e+00 3.5845488465037434e+01 2 -4 0
1445 1 1.0673407476193798e+01 4.1532735077689997e+00 3.6345982857256303e+01 1 0 0
5260 1 3.1898313791823276e+00 6.6620552886087019e+00 3.6194084174229218e+01 0 1 -1
1502 1 7.4131665578723649e-01 7.4098606707593966e+00 3.5543848218596196e+01 0 2 -1
4712 1 6.7749348471788187e+00 7.4169319765223385e+00 3.6049090288457720e+01 3 -3 0
3458 1 7.9601531880989320e+00 4.9460693617532021e+00 3.5728380620076962e+01 3 2 -1
1381 1 2.3352214692127609e+00 1.1481015144218578e+01 3.5864965164646975e+01 2 4 0
1630 1 4.6285875231698137e+00 8.8700555059418615e+00 3.6213395469455662e+01 -2 7 -1
2140 1 2.6543683927740247e+00 8.7883458243346091e+00 4.3687341444745670e+01 -2 0 0
175 1 8.8303456435625076e+00 9.1575100978365978e+00 3.5864646646226518e+01 4 -1 -1
490 1 8.0263437597602341e+00 1.1653759549626589e+01 3.6386985724206212e+01 -5 -2 0
2975 1 2.1591806977193317e-01 1.7498388933537121e-01 4.3599069252487638e+01 3 3 0
4613 1 2.0142794324378097e+00 1.7818819836653936e+00 3.9276663554795519e+01 3 1 0
1489 1 3.8583271968172639e+00 3.7905724356021371e+00 4.0089629781075999e+01 -3 4 -1
1681 1 6.4624554621288572e+00 2.8812468346279045e+00 3.9104168713079559e+01 -1 -2 0
5292 1 7.1944314469987640e+00 3.4609961975284448e-01 4.0106447097306003e+01 2 0 0
3496 1 1.1665802895786614e+01 1.8646616475885529e+00 4.0074237099358015e+01 0 -4 -1
2039 1 3.0331736728605745e+00 6.2377871835796741e+00 3.9027139280402565e+01 -2 2 -1
6328 1 6.6751530710827911e-01 7.2380588531170122e+00 4.0132718299124519e+01 1 -3 0
4948 1 7.1985030230513436e+00 7.4868120523120156e+00 3.9156501645421230e+01 1 -3 -1
1741 1 8.0739764366758049e+00 4.8390952926060846e+00 3.9995550261691420e+01 3 -1 -1
1886 1 1.0483656240155877e+01 4.2153655415484037e+00 3.9099597074713131e+01 0 -1 -1
1923 1 1.5545477059986994e+00 1.1306605084720902e+01 3.9913662193109033e+01 -4 -3 -1
455 1 4.0970630335973475e+00 1.0767361632091195e+01 3.8649798365413645e+01 -5 2 -1
1707 1 4.7184585247824611e+00 8.3994779841962810e+00 3.9750208048506366e+01 -2 1 -1
1616 1 8.9786192896699983e+00 9.4417037782228643e+00 4.0167525032406090e+01 6 0 -1
1511 1 8.5683594199029312e+00 1.1768647773188064e+01 3.8916612642378254e+01 7 3 0
3472 1 1.1548074049933925e+01 8.6846971850120305e+00 3.9275292409137748e+01 -1 -3 -1
3256 1 3.7781093324032193e+00 3.8062252344161562e+00 4.2813247118821707e+01 3 0 0
5052 1 1.3488238771937180e-01 9.7623871307045853e+00 3.6468979629682835e+01 -3 3 -1
3541 1 7.1145918252731031e+00 6.8092175782060915e-01 4.2895051181647801e+01 1 1 0
6282 1 9.8551332553446329e+00 6.7353042572852395e+00 4.3764459475753640e+01 0 2 -1
5990 1 9.1580591705037016e+00 9.1759277946186497e+00 4.3032709069814771e+01 4 2 1
3337 1 1.1907169857835951e+01 1.8965416512972928e+00 4.2909796220050509e+01 1 4 -1
3105 1 7.1189236419916391e-01 7.1611967762414448e+00 4.2750711871145256e+01 2 1 0
4698 1 1.1437791275123299e+01 1.0845486763940954e+01 4.3861865176765562e+01 0 0 -1
3481 1 1.7357018579131647e+00 1.1116339584342185e+01 4.2564726491434698e+01 -2 -2 -1
1262 1 5.0574824111478769e+00 8.1585221851581480e+00 4.2599660453670850e+01 1 -2 -1
1487 1 8.1138508654425170e+00 4.8489946890258766e+00 4.2857779636858439e+01 0 6 -1
126 1 1.1415612710195109e+01 8.4261776620896942e+00 3.6189175718802289e+01 3 -1 -1
6038 1 4.5200317643335142e+00 1.2988093875282509e+00 4.3636134102824258e+01 0 1 0
4981 1 6.8388661076647050e+00 1.0140292116859618e+01 4.3825199607510839e+01 5 0 -1
4859 1 9.1127697644442609e+00 2.3763821920296979e+00 4.3621424997477135e+01 2 -2 -1
5127 1 1.1446523709552083e+00 4.4450829559393501e+00 4.3486183690953396e+01 1 -2 -1
1579 1 5.6826810683999964e+00 5.7364620820243175e+00 4.3876839797631092e+01 0 2 0
2815 1 1.2273452803547368e+01 5.9563719232024628e+00 3.9989386683268918e+01 4 1 -1
3552 1 5.4417623417166521e+00 1.1888073210334460e+01 3.6086492067811307e+01 -1 2 0
4830 1 9.6129722062150620e+00 3.0797601661696206e-02 3.9075813680655841e+01 4 -2 -1
4473 1 3.8321345695852482e+00 3.3236656377366804e+00 4.7155937618723343e+01 3 3 0
5293 1 2.6537876522897363e+00 8.6966066603975314e+00 5.7324787403124930e+01 0 3 -1
3066 1 4.3961853837268912e+00 9.2683415609332920e-01 4.6460483881566560e+01 3 -2 0
3176 1 3.3416653732257556e-01 7.1995716489344854e+00 5.7666705549700140e+01 -2 2 -1
6119 1 8.8800341385654988e+00 2.1370761924926365e+00 4.6422894777867342e+01 2 2 -1
545 1 1.1340852189821625e+01 1.7526386679555941e+00 4.7400332162166677e+01 2 1 -1
5157 1 1.2465083528491241e+00 4.0155978652758622e+00 4.6368640120544583e+01 5 -1 -1
4993 1 6.8857908471598817e-01 6.7286821849541747e+00 4.7090998681513597e+01 1 -1 -1
276 1 5.5542702608413643e+00 5.5426894076257254e+00 4.6731193958794066e+01 3 -2 -1
1442 1 8.1054292255794191e+00 4.5671625977351811e+00 4.7593413145945689e+01 -3 -3 0
448 1 1.0027284935508872e+01 6.4135781084542884e+00 4.6668913426163940e+01 -5 -3 0