LAMMPS data file via write_data, version 16 Mar 2018, timestep = 6000000

6768 atoms
2 atom types

3.3448048804783070e-01 4.8885519511947358e+01 xlo xhi
3.3311888967899250e-01 4.8686517040715643e+01 ylo yhi
-6.1631358102419398e-01 6.0678313581033386e+01 zlo zhi

Masses

1 18.015
2 12.01

Atoms # atomic

1621 1 1.2949461882080491e+00 1.0680215636760686e+00 2.7238660890052695e+00 -1 0 1
80 1 1.6856206967852203e+00 1.6501873122686421e+00 1.1644691463767942e-01 0 0 1
3166 1 2.0509155914872976e+00 3.7741475685275501e+00 3.3978023394418067e+00 2 1 1
6763 1 8.3562068156804870e+00 2.4007029357190387e+01 7.0652853465264274e+00 0 0 1
5650 1 8.7633876804633051e+00 3.5378811094610061e+00 2.8461250296783587e+00 -2 0 0
138 1 1.1632758672061150e+00 2.4314885378197985e+01 3.5006049698102268e+00 -2 -2 1
1979 1 1.1721453709272376e+01 2.1628775009278449e+01 9.8340827993650937e+00 3 1 0
6568 1 6.7632510525491973e+00 2.1458883529765910e+01 9.3353780540231135e+00 1 3 1
1865 1 7.5636478870991457e+00 2.3952138304304135e+01 -3.1904268379491602e-01 -1 0 0
5519 1 4.3782387694730902e+00 4.6391815551207030e+00 2.4617312445994468e+00 2 2 0
3544 1 7.9290822620884462e+00 7.8597842683329686e+00 2.9441312498945154e+00 2 2 0
2126 1 8.0559342774529661e+00 7.9364550528472151e+00 1.2281982803750158e-01 -1 0 0
3007 1 6.9984035800789792e+00 1.8399141315271823e+01 1.0542365290254027e+01 1 -1 1
6439 1 1.1971152207087723e+01 1.3254196733619445e+01 3.4639998016714717e+00 0 0 1
5640 1 3.4339428810676749e+00 8.9094898290082600e+00 2.8308980354574849e+00 1 1 0
5492 1 3.5622865478839509e+00 9.1069364641502002e+00 1.3877573072624971e-01 1 -2 0
1675 1 6.9721551587579293e+00 1.1999202046210465e+01 2.9827368361485820e+00 -1 -2 1
508 1 1.1106267417598188e+01 1.0890593912482117e+01 3.0276790436295720e-02 3 -1 1
6557 1 1.0946561667090114e+01 1.0962999470769303e+01 2.7687390623518335e+00 0 0 1
418 1 8.7575785182987342e+00 1.0129417544676489e+01 3.9464859666229133e+00 1 3 0
2015 1 2.6597617231352921e+00 1.3212345758210077e+01 -1.0634125041356146e-01 -1 1 0
408 1 2.4322287908876614e+00 1.3390609518054978e+01 2.5932537994828770e+00 -1 0 1
5018 1 3.1955369641520828e+00 1.5828465166485437e+01 3.3905076298278036e+00 -2 0 1
4983 1 7.1033000133602879e+00 1.2043372880213616e+01 1.5934186804064965e-01 0 1 1
6518 1 7.6482911701850922e+00 1.4424849215061753e+01 3.7936890205800733e+00 0 0 1
5402 1 1.0204214168912165e+01 1.4984512910974153e+01 2.8214907746357274e+00 2 0 0
6442 1 1.2407974683852609e+01 6.5188573753498913e+00 7.0658634699304983e+00 -1 -1 1
4830 1 1.0196720170777867e+01 1.5380090357993259e+01 1.9715977945781593e-01 0 4 1
5069 1 1.3382548211482257e+00 1.7777924380002663e+01 2.5985946246526308e+00 1 2 1
6522 1 1.6567595395331516e+00 1.7596884349711704e+01 1.1695122887295684e-01 2 0 1
1905 1 2.0593896865851562e+00 1.9916895176799283e+01 3.8192293342248700e+00 0 0 0
28 1 5.9578946086284184e+00 1.6353014133482915e+01 2.8886647299740655e+00 1 0 0
3381 1 4.7899205678251677e+00 4.6488890901649054e+00 -9.5151286127433288e-02 -2 2 0
3400 1 8.7593206222705451e+00 1.9585953813751768e+01 2.5290714214602792e+00 1 -2 1
6697 1 1.0782310801824664e+01 1.7811043239719449e+01 3.4511442180901355e+00 0 1 1
1900 1 9.2496821733622809e+00 1.9631279551055037e+01 -1.5376020454965711e-01 -1 2 0
3705 1 4.8119702189512923e+00 2.2723144131061090e+01 1.0450084942466512e+01 4 1 0
5577 1 9.1709816005701281e+00 3.2473295932785580e+00 1.9857776954122042e-01 -2 2 1
112 1 2.8279458053693483e+00 2.0967663988548228e+01 9.8089075514313464e+00 0 -1 0
3942 1 5.9555550903051184e+00 5.0064860896417629e-01 -1.3769189533143017e-01 1 2 0
3283 1 7.5853932904459871e+00 2.3921924441816394e+01 2.6264747538610260e+00 0 2 1
5559 1 4.4101034748654344e+00 2.0682231778107742e+01 2.9873222481434172e+00 2 1 0
4947 1 4.5118835943986380e+00 2.0770697409334730e+01 1.2136437601713546e-01 0 1 1
4800 1 5.4760227876544834e+00 2.3363223191255909e+01 3.9054030351454747e+00 2 -1 1
4856 1 9.3941905868813986e+00 1.7456612393306536e+01 9.5636146670061599e+00 0 -1 1
3025 1 1.8669175656264538e+00 3.5944737227366970e+00 5.8148669563060711e+00 -2 -1 1
1985 1 1.3635448651718758e+00 1.3357991343971678e+00 6.6614583645639689e+00 0 0 0
3131 1 6.2704605755571761e+00 3.0318255417536011e+00 3.5708378036353912e+00 -1 3 1
5270 1 6.4174131566217243e+00 2.3581503472621317e+00 6.0536372862851362e+00 0 -1 0
5407 1 9.0784796468473825e+00 2.2604689919504874e+01 1.0459795193821902e+01 1 2 0
5330 1 1.0647091611116339e+01 1.4312893904708599e+00 3.2523173970799126e+00 1 2 0
1690 1 8.9299934405887100e+00 2.9347148667043954e+00 7.1071676978192926e+00 0 3 1
6685 1 1.0754825093967625e+01 1.3076993285596756e+00 6.1289072810776144e+00 -1 1 1
1998 1 9.4051466435079090e-01 8.3539878391839046e+00 3.2407730757048454e+00 0 0 0
5545 1 1.0443080831123410e+00 8.0537129239841576e+00 5.7999982559216834e+00 1 1 0
5196 1 6.0970270026498730e+00 1.6395958797321079e+01 2.2229845391131509e-01 0 1 1
455 1 4.4170186399226186e+00 4.1901974162780729e+00 6.7349819703137017e+00 1 -2 0
1651 1 5.2693881858173768e+00 6.9735753805320595e+00 3.4458381634750808e+00 0 2 1
3261 1 5.1734862856094184e+00 6.8023939602185939e+00 5.9765224221225441e+00 0 2 1
2122 1 7.6302243681498396e+00 7.4185148365411733e+00 7.3373216072714191e+00 0 -2 1
3571 1 9.7782558207196448e+00 5.9130002066971938e+00 3.7938231264021516e+00 0 4 0
5335 1 9.6598542330606456e+00 5.7780286881746221e+00 6.4285749232135787e+00 2 2 0
3191 1 8.8234464204945784e+00 8.8811024535263450e-01 9.3932282799941333e+00 1 1 1
2129 1 4.1839761473713839e+00 1.1557717179500894e+01 3.5143983852655198e+00 -1 0 1
5648 1 3.7322167806347037e+00 9.0874973941443145e+00 6.8641890142847810e+00 -1 -5 1
6512 1 4.2211084206644340e+00 1.1576694538015822e+01 6.1676889716771166e+00 -2 0 1
5251 1 8.5764275661901053e+00 1.0316478790992756e+01 6.7516987196458267e+00 3 1 0
366 1 1.1188692795165323e+01 1.1004388086192279e+01 7.0962121012843564e+00 2 2 0
3045 1 2.4116722242672179e+00 1.3163878974219726e+01 6.9356243283137342e+00 2 2 1
4751 1 3.1968779206585918e+00 1.5719430259356008e+01 6.1585392785787700e+00 0 -2 1
1465 1 6.7845336341867757e+00 1.2157518949565070e+01 7.1450860264894569e+00 0 0 1
1314 1 7.4797684005792187e+00 1.4739274665924979e+01 6.3053731664110479e+00 2 -2 1
405 1 1.1880865844024843e+01 1.3576169374996432e+01 6.3170674397404003e+00 -2 -1 0
5086 1 9.9906458949409149e+00 1.5254148295840487e+01 7.1716858269506885e+00 -1 3 1
354 1 2.0742326335016692e+00 1.9707188089973162e+01 6.7853275746674484e+00 1 0 0
267 1 1.2107569603747779e+00 1.7075462648761071e+01 7.4386440043194888e+00 2 -1 0
4898 1 6.5821109993753915e+00 1.8899441934639611e+01 3.8502602469938658e+00 1 0 1
3331 1 5.5711378761803285e+00 1.6534101711764997e+01 7.3141062021551742e+00 3 2 0
5163 1 6.4944434939902695e+00 1.9122554123729724e+01 6.5442002723772275e+00 1 1 1
6455 1 9.2077664647489623e+00 1.9992083681559492e+01 7.2522350235586543e+00 0 2 1
4758 1 1.0506239858837628e+01 1.7911022007988500e+01 6.2541604258763046e+00 5 2 1
2097 1 1.2380506486860615e+01 2.2768179282758496e+01 2.9993491640082071e+00 0 -1 0
313 1 1.1348847049478209e+01 1.9086788042988577e+01 1.0493900415702155e+01 2 1 0
6412 1 1.2230017782165849e+01 2.2764957423256870e+01 7.3678318837983099e+00 3 1 1
546 1 4.6033503664120952e+00 2.0796499816766236e+01 7.1904008603104028e+00 -1 1 1
5247 1 5.7709777824614443e+00 2.3302271864025929e+01 6.5566344726754719e+00 0 0 0
5453 1 9.4555666136681786e+00 2.2102544569032556e+01 3.3714394690207539e+00 1 1 0
3334 1 9.9343092244539957e+00 2.2246734838128944e+01 6.1253474999127686e+00 -1 -1 1
319 1 4.6584307246879497e+00 6.8893059849216476e-01 9.7871167025516073e+00 1 1 0
1316 1 2.3345614945110702e+00 2.5164763520758924e+00 1.0505615936966564e+01 -4 2 0
3123 1 5.2851958938964383e-01 1.7214449812226515e+01 1.0236402474751303e+01 2 -1 1
3773 1 6.7100157582252331e+00 2.4561495988476625e+00 1.0283576773995810e+01 0 1 0
1912 1 1.0822674681224091e+01 2.1292859974642759e+00 1.0258004982971086e+01 0 1 0
6391 1 2.7839282575803863e+00 5.0474367005461662e+00 9.0053099827384564e+00 0 0 1
3881 1 4.8338081972688745e+00 6.4558196296654389e+00 1.0150773471205451e+01 0 1 1
6564 1 6.8646594388772657e+00 5.1664763997379515e+00 9.3709493320259512e+00 -2 1 1
1579 1 9.0866458109154458e+00 6.2348449420752630e+00 1.0375670728902621e+01 0 2 1
4770 1 1.1746131035225851e+01 4.8069005400436868e+00 9.5916722048397656e+00 1 -1 1
223 1 2.1452206153402340e+00 1.0629734287885350e+01 1.0212342866683372e+01 0 2 0
5280 1 4.2022655706305638e+00 9.0281178738708547e+00 9.3780859694193470e+00 0 1 1
1485 1 6.3847204267017261e+00 1.0334065412268728e+01 1.0291632982181467e+01 0 1 1
4978 1 8.5516509270011465e+00 8.8632415540876792e+00 9.8866340863785194e+00 3 -1 1
1760 1 1.0854485739205254e+01 1.0421703629712869e+01 9.8305675591404675e+00 0 2 0
3774 1 2.4692231679593935e+00 1.3382785440099097e+01 9.6954784581567459e+00 -1 -4 0
4803 1 4.7262883598077785e+00 1.4522906791474345e+01 1.0692322071511450e+01 1 -1 1
2105 1 6.5770271015693158e+00 1.2856535923135636e+01 9.8171495452236694e+00 3 0 0
575 1 1.1230654346770855e+01 1.3278331839398195e+01 9.8662294487250950e+00 1 -2 1
2136 1 8.9540941029450032e+00 1.4441492735091400e+01 1.0577984951239353e+01 0 -1 0
6394 1 2.5254890417600135e+00 1.8729939856021439e+01 1.1186651909834419e+01 0 2 0
6701 1 4.8936248634705315e+00 1.6806646873940469e+01 9.7673254607261164e+00 2 0 1
3184 1 1.2040550306477797e+01 2.3107048372406172e+01 2.7755366462094511e-01 0 -1 1
3727 1 1.2155210918058968e+01 6.8365882488833334e+00 2.9076098220421307e+00 0 0 0
426 1 1.2147702877459244e+01 6.7628663043591031e+00 -9.6188146026407906e-02 -1 0 0
2032 1 1.2414717158666853e+00 2.4212775746038737e+01 6.0602207184923991e+00 0 1 0
1687 1 7.1062651987736114e-01 2.2504583163068197e+01 1.0268396261538458e+01 0 1 1
3741 1 5.0126597775045068e-01 5.9743354413194210e+00 9.6467591261899854e-02 1 2 1
450 1 5.1692997097464621e-01 5.7127760823098761e+00 6.8248598619672558e+00 2 -2 1
1928 1 5.7490768757062050e+00 6.7639371662471959e-01 2.6349852298683030e+00 -1 1 0
1597 1 3.5479147612644368e-01 2.1579699034110767e+01 6.7274343929403795e+00 1 0 1
5484 1 1.1380307068308172e+01 4.1573594947218915e+00 -5.0618851428015743e-01 -2 1 0
6525 1 2.2089047367853309e+00 2.8069676124196121e+00 1.2942014951906081e+01 1 1 0
5373 1 4.3462852596707977e+00 1.0581044834340094e+00 1.3418915524677310e+01 -2 1 0
3338 1 6.6915839593920676e+00 2.3049438301910525e+00 1.2985562430861709e+01 1 2 1
3104 1 1.0986009982053428e+01 2.3867649428087052e+00 1.2895968452980375e+01 2 0 1
5224 1 8.7731419543710736e+00 9.3176131426250552e-01 1.3980897870217888e+01 -1 3 0
2284 1 2.5416049834503185e+00 5.5095654932650762e+00 1.3894003432817174e+01 -1 1 1
1814 1 4.4466280492902488e+00 6.7523889522792269e+00 1.2819151301272218e+01 0 2 0
5442 1 6.7132975669508159e+00 5.3094659632050565e+00 1.3455041872153226e+01 2 1 0
493 1 9.0720912575775454e+00 6.7545320100539170e+00 1.3312729804521734e+01 0 -1 0
5158 1 1.1291903986089110e+01 5.2806930023991825e+00 1.3638399567909605e+01 0 -1 1
2332 1 2.1149233983493154e+00 1.0605927411873045e+01 1.2786000831667971e+01 1 0 1
481 1 4.3608763142869638e+00 9.0855586053707906e+00 1.4021009317838965e+01 2 0 0
172 1 6.3955836169521598e+00 1.0522009436012429e+01 1.3024003024345649e+01 -1 1 0
5483 1 8.9940976372016976e+00 9.2874569847705324e+00 1.3784377848087150e+01 4 1 0
6592 1 1.1073708371572813e+01 1.0733204156846083e+01 1.2575587517966245e+01 -1 1 0
5564 1 2.6640924496297744e+00 1.3252586041026737e+01 1.3966044578654040e+01 0 -2 0
4802 1 4.5873965644250640e+00 1.4772724884360235e+01 1.3554751851257684e+01 1 2 1
1799 1 6.3644414963280731e+00 1.3270179243390610e+01 1.4094697842139958e+01 -2 0 0
6600 1 8.8028519051857028e+00 1.4380210208428704e+01 1.3238017915211998e+01 2 -1 1
417 1 1.1290806604770733e+01 1.3163059186255316e+01 1.3688780295204802e+01 -2 2 0
3271 1 2.4255024954967124e+00 1.8552144293525298e+01 1.3711312011745573e+01 -1 0 1
3690 1 4.8578353225799242e+00 1.7295564711415800e+01 1.4587234894010839e+01 -1 -1 0
3424 1 6.9846893345916641e+00 1.8704055274809448e+01 1.3335435598180089e+01 0 -1 1
276 1 9.3162911129697488e+00 1.7057521020027853e+01 1.3632011187370358e+01 -1 -1 0
3030 1 1.1437601210577698e+01 1.8924434395943091e+01 1.3243624077387343e+01 0 2 1
3458 1 2.1686930510856373e+00 2.1250200114492202e+01 1.3940585924331993e+01 1 0 0
3134 1 4.2581698746455636e+00 2.2596305854299157e+01 1.3132082033544997e+01 0 -1 1
6467 1 6.5268903352694769e+00 2.1190759563817515e+01 1.3983273081616449e+01 2 0 1
212 1 8.6164562286014679e+00 2.2788446391728804e+01 1.3346249721214608e+01 2 -1 0
3818 1 1.1277054475238668e+01 2.1685716008431740e+01 1.3779390392856799e+01 0 1 0
3556 1 2.1687875347605461e+00 2.1510711251630896e+00 1.7179503399625730e+01 0 -1 0
1897 1 4.5143043604705735e+00 9.9505445128252235e-01 1.6143321166834273e+01 2 2 0
614 1 6.7977211039629823e+00 2.7986689479889417e+00 1.7093180378265789e+01 2 -2 0
107 1 1.1242035472639825e+01 2.4706736732335250e+00 1.7133481158394986e+01 1 1 0
473 1 8.7971684981862293e+00 1.3365704602772044e+00 1.6368584206508263e+01 -1 1 1
5006 1 2.3196201465936399e+00 5.2595265676577174e+00 1.6563413059181727e+01 1 1 0
5036 1 4.6243769053600490e+00 6.4813360618590368e+00 1.7448715715974853e+01 1 0 1
6432 1 6.9174624096619457e+00 5.1647993411927606e+00 1.6153278311379733e+01 2 0 1
3120 1 8.9032889995023936e+00 6.5166279542359460e+00 1.7311482740668662e+01 2 -1 1
3563 1 1.1081468595406857e+01 5.3297072821955469e+00 1.6415347562501115e+01 1 3 0
1439 1 2.1248837371407681e+00 1.0448776624645408e+01 1.7603849020711181e+01 -1 -1 1
3082 1 4.3965067477254962e+00 9.3298798681435020e+00 1.6959924590853888e+01 0 -1 1
1635 1 6.8954764116919289e+00 1.0402458361931956e+01 1.7649450069897362e+01 1 3 0
3244 1 9.0364581273566653e+00 9.0867780511040355e+00 1.6554198473949867e+01 2 1 0
3612 1 1.1399997581306989e+01 1.0671275199399803e+01 1.7414767629207613e+01 -1 -2 0
1973 1 2.2652943831164998e+00 1.3126930407867896e+01 1.6759604978857084e+01 0 -1 0
6644 1 4.6370143133349311e+00 1.4347390804289814e+01 1.7464587385195067e+01 0 0 0
5047 1 6.9088324495999878e+00 1.3161400716178814e+01 1.6727245681730302e+01 0 1 1
304 1 9.4640353940306685e+00 1.4936528274663141e+01 1.7431380155156180e+01 -2 0 0
3155 1 1.1576718256260422e+01 1.3294239999326553e+01 1.6501565417948601e+01 -1 0 1
6510 1 9.1376312277986962e+00 1.4747854384418511e+01 1.9965507085311444e+01 0 2 1
6766 1 2.2221352472930613e+00 1.8663499675152039e+01 1.7789738359062284e+01 2 1 1
5430 1 4.3962627453541439e+00 1.7105600610333813e+01 1.7438756428689079e+01 2 2 0
161 1 6.7385246980252926e+00 1.8619543017224299e+01 1.7253190835885690e+01 1 0 1
5305 1 8.8425098932078416e+00 1.7533033237917760e+01 1.6434183519740802e+01 -4 1 0
502 1 1.1210587902035083e+01 1.8818306799550584e+01 1.6885629882020538e+01 -2 1 1
5206 1 2.2441027125446569e+00 2.1078298797347813e+01 1.6594194007255336e+01 1 2 0
5275 1 4.3432658098280292e+00 2.2690629991747389e+01 1.7648898916335067e+01 2 -1 1
6680 1 6.6837037902866676e+00 2.1502360253256693e+01 1.6537005120577216e+01 1 -1 0
3957 1 9.0667076232184556e+00 2.2771190930122071e+01 1.7218300032424985e+01 2 0 1
4722 1 1.1287862409614839e+01 2.1373367434656483e+01 1.6377717540783493e+01 1 2 1
3696 1 2.0929197116212048e+00 2.0571957943277419e+00 1.9990394111881518e+01 1 3 0
3440 1 4.5780442399319474e+00 1.1559162284808848e+00 2.0662254199145750e+01 1 2 0
3146 1 6.6917403066192209e+00 2.7561521617117655e+00 2.0000348709588337e+01 -1 2 1
1486 1 1.1549225487523671e+01 2.1322396149358692e+01 2.0554775669055786e+01 -2 2 1
6678 1 7.1531764242607911e+00 2.1716759197985159e+01 2.3352234389796955e+01 0 -1 1
5302 1 1.0874675718116867e+01 2.4535335367325142e+00 1.9977306688487484e+01 -1 1 0
2190 1 8.8444549423130052e+00 1.1338975258296684e+00 2.0440572743432526e+01 0 0 1
4962 1 4.4079496935457430e+00 6.4940139127821617e+00 2.3855506923023579e+01 1 1 1
5665 1 9.3436256122625920e+00 2.2821591779589578e+01 1.9980417569945558e+01 0 -1 1
5687 1 2.2037261406963049e+00 4.9823227548917055e+00 2.0745051904458077e+01 -2 0 1
2283 1 2.5427832784175481e+00 1.3421168704922000e+01 2.3216337047539003e+01 -1 2 1
3949 1 4.7503846501374412e+00 6.3929108833781694e+00 2.0263037121753054e+01 1 2 1
3923 1 6.8727584519473313e+00 5.1994006970248092e+00 2.1091830258234030e+01 0 -1 1
1505 1 4.6585161582900287e+00 2.2255145060548745e+01 2.0609940001582519e+01 3 0 1
5010 1 9.1914056654610885e+00 1.7345894348047985e+01 2.3604462046729559e+01 -2 0 1
3453 1 8.6516786142264213e+00 6.3888593048696922e+00 1.9860975474017245e+01 2 0 0
210 1 1.0653596759693418e+01 4.9492259630089972e+00 2.0730590919558558e+01 1 -1 0
5267 1 2.1985527493108421e+00 1.0353893718596414e+01 2.0223185311872790e+01 0 3 0
3668 1 1.1226506818977795e+01 1.0278990419688906e+01 2.3462363885398553e+01 1 -1 0
5108 1 4.5604273395960488e+00 9.1413911849811083e+00 2.1260572788256709e+01 0 3 1
6694 1 6.9170562100944117e+00 1.0221970901355364e+01 2.0184960920439540e+01 -1 0 1
265 1 2.3012696332208522e+00 2.1520914290307566e+01 2.1219130856397193e+01 2 -1 0
6758 1 8.9058981732446814e+00 8.9405541099309094e+00 2.0648043559609139e+01 0 0 1
4765 1 1.1109000422732812e+01 1.0736226321055051e+01 2.0368647127493457e+01 0 -2 1
6464 1 1.1086444987293955e+01 1.3215964977546914e+01 2.3818218144093557e+01 1 -2 1
6463 1 2.5238772456937597e+00 1.2987834915595281e+01 2.0709367582199274e+01 1 2 1
5041 1 4.5636322199679746e+00 1.4506967119092858e+01 2.0125169561761542e+01 2 1 1
4827 1 7.0018705160179087e+00 1.3321933216919003e+01 2.0561568428506838e+01 2 -2 1
1820 1 4.6888949946664296e+00 1.7495413671058436e+01 2.3796800858807490e+01 1 5 1
4998 1 5.0992445377077000e-01 1.4507802856376854e+01 1.3260047233029729e+01 3 2 0
3396 1 1.1068660342080809e+01 1.3403801926737641e+01 2.1182860977769437e+01 0 -2 1
3072 1 2.2797015022255658e+00 1.8762647142001804e+01 2.0345558024438098e+01 0 -2 1
2044 1 4.6398707521194513e+00 1.7313237231495624e+01 2.1018371589243646e+01 0 2 0
3169 1 7.0169300295033938e+00 1.8698536654683480e+01 2.0163061712196086e+01 -1 1 1
4959 1 2.2305464699305966e+00 4.9262766813179599e+00 2.3495976361722246e+01 -3 0 1
2041 1 9.2451997855936945e+00 1.7423986930561622e+01 2.0828191139276694e+01 -1 0 0
2144 1 1.0963389601634114e+01 4.8148323360980818e+00 2.3374137781919668e+01 -1 0 0
1643 1 1.1157323478420876e+01 1.8825136493582669e+01 1.9631824314181010e+01 0 0 1
6748 1 7.1099993615139176e+00 2.1321314404628399e+01 2.0877794812978223e+01 2 1 1
3894 1 9.0632167260198866e+00 9.0185493104951018e+00 2.3420665648149125e+01 0 1 1
592 1 4.2196964899306053e+00 1.2666910791595924e+00 2.3317662036797635e+01 -1 -1 1
1937 1 7.1243064903111302e+00 1.3145538821694249e+01 2.3215693732732774e+01 0 0 0
3867 1 4.7779219341860593e+00 2.2819503063104030e+01 2.3842743074819147e+01 2 -2 0
3255 1 8.7562877004668884e+00 1.0943281533521541e+00 2.3384839957182010e+01 2 0 1
154 1 1.1614880599902826e+01 2.1015067478303070e+01 2.3202404434795675e+01 2 -2 0
5066 1 4.7377283571840030e+00 1.4615351734340752e+01 2.3718429703575840e+01 2 0 0
623 2 3.3448048804783070e-01 3.1362144346661891e+00 2.6756999639231566e+01 0 0 0
625 2 3.3448048804783070e-01 3.3311888967899250e-01 2.6756999639231566e+01 0 0 0
627 2 1.5482564636448555e+00 1.0338927759258070e+00 2.6756999639231566e+01 0 0 0
634 2 1.5482564636448555e+00 2.4354405484185397e+00 2.6756999639231566e+01 0 0 0
636 2 2.7620324392418802e+00 3.1362144346661891e+00 2.6756999639231566e+01 0 0 0
638 2 2.7620324392418802e+00 3.3311888967899250e-01 2.6756999639231566e+01 0 0 0
640 2 3.9758084148397104e+00 1.0338927759258070e+00 2.6756999639231566e+01 0 0 0
655 2 3.9758084148397104e+00 2.4354405484185397e+00 2.6756999639231566e+01 0 0 0
299 1 3.4933438073278084e-01 1.4634306420396099e+01 2.4053988269796935e+01 -1 0 0
657 2 5.1895843904359298e+00 3.1362144346661891e+00 2.6756999639231566e+01 0 0 0
659 2 5.1895843904359298e+00 3.3311888967899250e-01 2.6756999639231566e+01 0 0 0
661 2 6.4033603660352698e+00 1.0338927759258070e+00 2.6756999639231566e+01 0 0 0
684 2 6.4033603660352698e+00 2.4354405484185397e+00 2.6756999639231566e+01 0 0 0
686 2 7.6171363416315900e+00 3.1362144346661891e+00 2.6756999639231566e+01 0 0 0
688 2 7.6171363416315900e+00 3.3311888967899250e-01 2.6756999639231566e+01 0 0 0
690 2 8.8309123172258559e+00 1.0338927759258070e+00 2.6756999639231566e+01 0 0 0
721 2 8.8309123172258559e+00 2.4354405484185397e+00 2.6756999639231566e+01 0 0 0
723 2 1.0044688292824029e+01 3.1362144346661891e+00 2.6756999639231566e+01 0 0 0
725 2 1.0044688292824029e+01 3.3311888967899250e-01 2.6756999639231566e+01 0 0 0
727 2 1.1258464268422196e+01 1.0338927759258070e+00 2.6756999639231566e+01 0 0 0
766 2 1.1258464268422196e+01 2.4354405484185397e+00 2.6756999639231566e+01 0 0 0
768 2 1.2472240244022709e+01 3.1362144346661891e+00 2.6756999639231566e+01 0 0 0
770 2 1.2472240244022709e+01 3.3311888967899250e-01 2.6756999639231566e+01 0 0 0
628 2 3.3448048804783070e-01 7.3408577521471559e+00 2.6756999639231566e+01 0 0 0
630 2 3.3448048804783070e-01 4.5377622071580870e+00 2.6756999639231566e+01 0 0 0
632 2 1.5482564636448555e+00 5.2385360934073422e+00 2.6756999639231566e+01 0 0 0
647 2 1.5482564636448555e+00 6.6400838658992489e+00 2.6756999639231566e+01 0 0 0
649 2 2.7620324392418802e+00 7.3408577521471559e+00 2.6756999639231566e+01 0 0 0
651 2 2.7620324392418802e+00 4.5377622071580870e+00 2.6756999639231566e+01 0 0 0
653 2 3.9758084148397104e+00 5.2385360934073422e+00 2.6756999639231566e+01 0 0 0
676 2 3.9758084148397104e+00 6.6400838658992489e+00 2.6756999639231566e+01 0 0 0
678 2 5.1895843904359298e+00 7.3408577521471559e+00 2.6756999639231566e+01 0 0 0
680 2 5.1895843904359298e+00 4.5377622071580870e+00 2.6756999639231566e+01 0 0 0
682 2 6.4033603660352698e+00 5.2385360934073422e+00 2.6756999639231566e+01 0 0 0
713 2 6.4033603660352698e+00 6.6400838658992489e+00 2.6756999639231566e+01 0 0 0
715 2 7.6171363416315900e+00 7.3408577521471559e+00 2.6756999639231566e+01 0 0 0
717 2 7.6171363416315900e+00 4.5377622071580870e+00 2.6756999639231566e+01 0 0 0
257 1 8.9909125129062186e+00 6.3578026283289564e+00 2.4231738320434289e+01 0 -1 0
3628 1 4.4022474269252685e+00 1.3848911998088614e+01 3.5815686657255782e+01 1 -1 -1
719 2 8.8309123172258559e+00 5.2385360934073422e+00 2.6756999639231566e+01 0 0 0
758 2 8.8309123172258559e+00 6.6400838658992489e+00 2.6756999639231566e+01 0 0 0
760 2 1.0044688292824029e+01 7.3408577521471559e+00 2.6756999639231566e+01 0 0 0
762 2 1.0044688292824029e+01 4.5377622071580870e+00 2.6756999639231566e+01 0 0 0
764 2 1.1258464268422196e+01 5.2385360934073422e+00 2.6756999639231566e+01 0 0 0
805 2 1.1258464268422196e+01 6.6400838658992489e+00 2.6756999639231566e+01 0 0 0
807 2 1.2472240244022709e+01 7.3408577521471559e+00 2.6756999639231566e+01 0 0 0
809 2 1.2472240244022709e+01 4.5377622071580870e+00 2.6756999639231566e+01 0 0 0
494 1 2.5036540142107002e+00 1.8628464449344506e+01 2.4311336323378583e+01 1 -1 0
641 2 3.3448048804783070e-01 1.1545501069627779e+01 2.6756999639231566e+01 0 0 0
643 2 3.3448048804783070e-01 8.7424055246371815e+00 2.6756999639231566e+01 0 0 0
645 2 1.5482564636448555e+00 9.4431794108864686e+00 2.6756999639231566e+01 0 0 0
668 2 1.5482564636448555e+00 1.0844727183377406e+01 2.6756999639231566e+01 0 0 0
670 2 2.7620324392418802e+00 1.1545501069627779e+01 2.6756999639231566e+01 0 0 0
672 2 2.7620324392418802e+00 8.7424055246371815e+00 2.6756999639231566e+01 0 0 0
674 2 3.9758084148397104e+00 9.4431794108864686e+00 2.6756999639231566e+01 0 0 0
705 2 3.9758084148397104e+00 1.0844727183377406e+01 2.6756999639231566e+01 0 0 0
707 2 5.1895843904359298e+00 1.1545501069627779e+01 2.6756999639231566e+01 0 0 0
709 2 5.1895843904359298e+00 8.7424055246371815e+00 2.6756999639231566e+01 0 0 0
711 2 6.4033603660352698e+00 9.4431794108864686e+00 2.6756999639231566e+01 0 0 0
750 2 6.4033603660352698e+00 1.0844727183377406e+01 2.6756999639231566e+01 0 0 0
752 2 7.6171363416315900e+00 1.1545501069627779e+01 2.6756999639231566e+01 0 0 0
754 2 7.6171363416315900e+00 8.7424055246371815e+00 2.6756999639231566e+01 0 0 0
5486 1 9.6785442117908165e+00 2.2679810477368871e+01 2.4243536205453182e+01 -2 2 0
756 2 8.8309123172258559e+00 9.4431794108864686e+00 2.6756999639231566e+01 0 0 0
797 2 8.8309123172258559e+00 1.0844727183377406e+01 2.6756999639231566e+01 0 0 0
799 2 1.0044688292824029e+01 1.1545501069627779e+01 2.6756999639231566e+01 0 0 0
801 2 1.0044688292824029e+01 8.7424055246371815e+00 2.6756999639231566e+01 0 0 0
803 2 1.1258464268422196e+01 9.4431794108864686e+00 2.6756999639231566e+01 0 0 0
844 2 1.1258464268422196e+01 1.0844727183377406e+01 2.6756999639231566e+01 0 0 0
846 2 1.2472240244022709e+01 1.1545501069627779e+01 2.6756999639231566e+01 0 0 0
848 2 1.2472240244022709e+01 8.7424055246371815e+00 2.6756999639231566e+01 0 0 0
544 1 1.1783066827864333e+01 2.0556490114201022e+01 3.5500076355645312e+01 -1 1 0
1846 1 9.0266140466940037e+00 1.4675390546816359e+01 2.4438951770235839e+01 1 0 1
662 2 3.3448048804783070e-01 1.5750144387103511e+01 2.6756999639231566e+01 0 0 0
664 2 3.3448048804783070e-01 1.2947048842119505e+01 2.6756999639231566e+01 0 0 0
666 2 1.5482564636448555e+00 1.3647822728362280e+01 2.6756999639231566e+01 0 0 0
697 2 1.5482564636448555e+00 1.5049370500858640e+01 2.6756999639231566e+01 0 0 0
699 2 2.7620324392418802e+00 1.5750144387103511e+01 2.6756999639231566e+01 0 0 0
701 2 2.7620324392418802e+00 1.2947048842119505e+01 2.6756999639231566e+01 0 0 0
703 2 3.9758084148397104e+00 1.3647822728362280e+01 2.6756999639231566e+01 0 0 0
742 2 3.9758084148397104e+00 1.5049370500858640e+01 2.6756999639231566e+01 0 0 0
744 2 5.1895843904359298e+00 1.5750144387103511e+01 2.6756999639231566e+01 0 0 0
746 2 5.1895843904359298e+00 1.2947048842119505e+01 2.6756999639231566e+01 0 0 0
748 2 6.4033603660352698e+00 1.3647822728362280e+01 2.6756999639231566e+01 0 0 0
789 2 6.4033603660352698e+00 1.5049370500858640e+01 2.6756999639231566e+01 0 0 0
791 2 7.6171363416315900e+00 1.5750144387103511e+01 2.6756999639231566e+01 0 0 0
793 2 7.6171363416315900e+00 1.2947048842119505e+01 2.6756999639231566e+01 0 0 0
795 2 8.8309123172258559e+00 1.3647822728362280e+01 2.6756999639231566e+01 0 0 0
836 2 8.8309123172258559e+00 1.5049370500858640e+01 2.6756999639231566e+01 0 0 0
838 2 1.0044688292824029e+01 1.5750144387103511e+01 2.6756999639231566e+01 0 0 0
840 2 1.0044688292824029e+01 1.2947048842119505e+01 2.6756999639231566e+01 0 0 0
842 2 1.1258464268422196e+01 1.3647822728362280e+01 2.6756999639231566e+01 0 0 0
878 2 1.1258464268422196e+01 1.5049370500858640e+01 2.6756999639231566e+01 0 0 0
880 2 1.2472240244022709e+01 1.5750144387103511e+01 2.6756999639231566e+01 0 0 0
882 2 1.2472240244022709e+01 1.2947048842119505e+01 2.6756999639231566e+01 0 0 0
1790 1 1.0670554481199506e+01 2.4244420948179769e+01 3.5707850851632358e+01 0 0 -1
3014 1 3.4535425093104782e-01 6.4642664939134464e+00 2.4027182497930372e+01 0 2 1
691 2 3.3448048804783070e-01 1.9954787704592391e+01 2.6756999639231566e+01 0 0 0
693 2 3.3448048804783070e-01 1.7151692159595370e+01 2.6756999639231566e+01 0 0 0
695 2 1.5482564636448555e+00 1.7852466045843698e+01 2.6756999639231566e+01 0 0 0
734 2 1.5482564636448555e+00 1.9254013818338713e+01 2.6756999639231566e+01 0 0 0
736 2 2.7620324392418802e+00 1.9954787704592391e+01 2.6756999639231566e+01 0 0 0
738 2 2.7620324392418802e+00 1.7151692159595370e+01 2.6756999639231566e+01 0 0 0
740 2 3.9758084148397104e+00 1.7852466045843698e+01 2.6756999639231566e+01 0 0 0
781 2 3.9758084148397104e+00 1.9254013818338713e+01 2.6756999639231566e+01 0 0 0
1094 2 1.0044688292824029e+01 2.1356335477075820e+01 3.3305000360786174e+01 0 0 0
783 2 5.1895843904359298e+00 1.9954787704592391e+01 2.6756999639231566e+01 0 0 0
785 2 5.1895843904359298e+00 1.7151692159595370e+01 2.6756999639231566e+01 0 0 0
787 2 6.4033603660352698e+00 1.7852466045843698e+01 2.6756999639231566e+01 0 0 0
828 2 6.4033603660352698e+00 1.9254013818338713e+01 2.6756999639231566e+01 0 0 0
830 2 7.6171363416315900e+00 1.9954787704592391e+01 2.6756999639231566e+01 0 0 0
832 2 7.6171363416315900e+00 1.7151692159595370e+01 2.6756999639231566e+01 0 0 0
4876 1 7.9758972443512555e+00 1.0393601929142799e+00 3.5637519776486258e+01 -2 1 0
834 2 8.8309123172258559e+00 1.7852466045843698e+01 2.6756999639231566e+01 0 0 0
870 2 8.8309123172258559e+00 1.9254013818338713e+01 2.6756999639231566e+01 0 0 0
872 2 1.0044688292824029e+01 1.9954787704592391e+01 2.6756999639231566e+01 0 0 0
874 2 1.0044688292824029e+01 1.7151692159595370e+01 2.6756999639231566e+01 0 0 0
876 2 1.1258464268422196e+01 1.7852466045843698e+01 2.6756999639231566e+01 0 0 0
904 2 1.1258464268422196e+01 1.9254013818338713e+01 2.6756999639231566e+01 0 0 0
908 2 1.2472240244022709e+01 1.7151692159595370e+01 2.6756999639231566e+01 0 0 0
728 2 3.3448048804783070e-01 2.4159431022065633e+01 2.6756999639231566e+01 0 0 0
730 2 3.3448048804783070e-01 2.1356335477075820e+01 2.6756999639231566e+01 0 0 0
732 2 1.5482564636448555e+00 2.2057109363332231e+01 2.6756999639231566e+01 0 0 0
773 2 1.5482564636448555e+00 2.3458657135827540e+01 2.6756999639231566e+01 0 0 0
775 2 2.7620324392418802e+00 2.4159431022065633e+01 2.6756999639231566e+01 0 0 0
777 2 2.7620324392418802e+00 2.1356335477075820e+01 2.6756999639231566e+01 0 0 0
779 2 3.9758084148397104e+00 2.2057109363332231e+01 2.6756999639231566e+01 0 0 0
820 2 3.9758084148397104e+00 2.3458657135827540e+01 2.6756999639231566e+01 0 0 0
3669 1 5.8077592162533378e+00 9.5456920430886498e+00 3.6106529686894696e+01 0 2 -1
822 2 5.1895843904359298e+00 2.4159431022065633e+01 2.6756999639231566e+01 0 0 0
824 2 5.1895843904359298e+00 2.1356335477075820e+01 2.6756999639231566e+01 0 0 0
826 2 6.4033603660352698e+00 2.2057109363332231e+01 2.6756999639231566e+01 0 0 0
862 2 6.4033603660352698e+00 2.3458657135827540e+01 2.6756999639231566e+01 0 0 0
864 2 7.6171363416315900e+00 2.4159431022065633e+01 2.6756999639231566e+01 0 0 0
866 2 7.6171363416315900e+00 2.1356335477075820e+01 2.6756999639231566e+01 0 0 0