LAMMPS data file via write_data, version 16 Mar 2018, timestep = 100000

6768 atoms
2 atom types

3.0045075734138749e-01 4.8919549242658434e+01 xlo xhi
2.9922768671112721e-01 4.8720408243700859e+01 ylo yhi
-6.5927537336148134e-01 6.0721275373363923e+01 zlo zhi

Masses

1 18.015
2 12.01

Atoms # atomic

3007 1 1.7884792892639811e+00 1.9604473929503687e+01 1.8255164426482340e-01 0 -1 1
5486 1 3.5071529060086237e+00 2.4369742804413082e+01 8.9778830258190934e-01 0 1 0
3269 1 1.3415296144252569e+00 3.5153327963881971e+00 2.0887635512040030e+00 0 1 0
2141 1 7.6991932421800726e+00 3.0195870846448147e+00 2.2020302756663548e+00 0 0 0
3350 1 4.9641467175462974e+00 2.4149068466936171e+01 7.7376883729960753e+00 0 1 0
3410 1 1.1275799822876825e+01 4.0241946133058377e+00 6.0052952743002814e+00 0 0 0
3548 1 1.2232517827149444e+01 1.9811139237843687e+01 4.9421434997759874e+00 0 0 0
190 1 5.9923119593474103e+00 7.0969823049726584e+00 4.6495790468345399e-02 0 0 0
1971 1 3.3664084688703007e+00 5.2240328155760860e+00 3.3928486399114250e+00 1 1 0
3785 1 4.8867402279154843e+00 2.5058619828229078e+00 2.7199865617292605e+00 0 1 0
4778 1 7.6354687098973315e+00 5.8985231937751266e+00 2.1360784140758073e+00 0 1 1
1567 1 8.9697791508587554e-01 2.1677388681585661e+01 8.0287941082876095e+00 0 -1 1
1727 1 1.1815598995752746e+01 6.7966262959031800e+00 2.0400711671408942e+00 -1 1 0
110 1 1.8632174317808021e+00 1.0521535261362468e+01 1.0882333307806868e-01 1 0 0
1506 1 1.1173270832683726e+00 8.0190310277744850e+00 7.6247291063114941e-01 0 1 1
3709 1 4.0685232653787242e+00 1.1149683281402442e+01 9.3881143158218316e-01 1 0 0
443 1 6.2442846675097319e-01 9.5403490930302237e-01 3.7856105917501361e+00 2 0 0
6451 1 9.4804524721448651e+00 8.2880211926805192e+00 2.8253960696131517e+00 0 0 1
3662 1 9.6114304360078133e+00 1.0219053224231653e+01 5.4597979549664388e-01 0 2 0
6681 1 1.4896885607912831e+00 1.6821138348520979e+01 1.0270357866046644e+00 0 -1 1
1653 1 7.1976900529507741e+00 4.7802116844869963e-01 8.8883145734868361e+00 1 1 1
1635 1 1.1636133375357351e+01 1.2035402275020671e+01 1.1403144844586803e+00 1 0 0
4796 1 9.8760536031574233e+00 1.3438562507349685e+01 2.5461149518335620e+00 1 0 1
3356 1 4.5841042619480827e+00 1.9479713905550593e+01 -1.1135851222864745e-01 0 1 1
4931 1 5.3196114266850891e+00 1.7664309861446092e+01 2.5873704152130319e+00 0 -1 1
6488 1 3.6381977064540414e+00 1.5736226316408628e+01 2.0291800857406308e+00 -1 -1 1
3048 1 8.6064776886834640e+00 1.5462186238555541e+01 1.1876548561280089e+00 0 0 1
1616 1 7.9662583768903703e+00 1.7749072247261470e+01 2.2815021423362811e+00 1 -1 0
391 1 4.2593435138517197e+00 1.3923873557210410e+01 3.4397240584805489e-01 0 0 0
1768 1 1.0861156600867764e+01 2.1721786957436215e+01 3.4298477126413607e+00 1 0 0
457 1 5.6180075541368675e+00 2.4146720725984100e+01 2.4793955449196412e+00 -1 0 0
1783 1 9.9364329081540070e+00 1.4981498712948158e+01 9.4214278568647689e+00 0 0 0
1614 1 2.8293323212026320e+00 2.1765935939335058e+01 1.9816621259023646e+00 1 0 0
1736 1 3.6628711185322809e+00 2.4231665509616089e+01 5.2658228030862846e+00 -1 0 0
3669 1 1.1809466898911934e+01 1.5009633519708852e+00 8.9628798006757862e+00 1 2 0
5066 1 5.9851485645367015e+00 9.6852665286164914e+00 -6.0491461700766180e-01 2 0 0
6390 1 8.7431349697308001e+00 2.0037511318846889e+01 3.8118331142220709e+00 1 0 1
3568 1 1.1690703548969333e+01 3.9369405926694228e+00 1.5499379516336975e+00 1 0 0
3442 1 2.7881751247383044e+00 1.4919467020268465e+01 4.3699381182037254e+00 1 0 0
1958 1 8.2836536207313873e+00 2.1127849642539172e+00 -2.3929593569594859e-01 0 1 0
1805 1 2.1768492804121324e+00 2.7610559539863599e+00 5.6647124663400570e+00 1 0 0
3700 1 3.0289038339209209e+00 3.3985365395680861e-01 2.2933793102241955e+00 -1 -1 0
3517 1 4.9132366746864635e+00 2.4093400911364626e+00 5.4259197294780925e+00 1 -1 0
1392 1 1.0943635247219587e+00 9.7314999503294732e+00 4.3186951383195931e+00 1 -1 1
5539 1 9.9991744744334330e+00 4.5711770854567781e+00 3.6095072345015637e+00 0 1 1
3217 1 8.4599983677892823e+00 6.2479884276213582e+00 6.0805865910182897e+00 0 0 1
6448 1 1.6898411774427242e+00 5.8332772651779505e+00 5.9187841021272671e+00 -1 1 1
6607 1 2.5730350601591243e+00 8.4423771742127496e+00 6.4616062759818371e+00 2 0 1
6698 1 5.9690050134722430e+00 4.6212922145435105e+00 7.0268760460102424e+00 0 -1 1
65 1 5.6840908980228662e+00 6.0820362818449771e+00 4.2231877060251799e+00 0 1 0
4775 1 1.0268272738563336e+01 8.8127375651692823e+00 5.5439117389995909e+00 1 1 0
2340 1 3.8832161960840219e+00 1.0364442097320772e+01 3.5205404608797917e+00 0 0 1
3506 1 5.7523201661407377e+00 1.1887636487951747e+01 9.1157787873310152e+00 1 0 0
3720 1 1.1095851940691812e+01 1.9262458732428257e+01 -2.0210160005277344e-01 1 0 0
602 1 6.7248751583477091e+00 9.6246619009350702e+00 2.6612826892434067e+00 0 0 0
3472 1 5.1930851051704030e+00 8.8077215684763654e+00 5.4266080811777408e+00 -1 1 1
3564 1 7.0985456222162124e+00 9.7363627204924441e+00 7.4483724764119117e+00 0 -1 1
5523 1 1.0891038594905476e+01 3.5874434312688788e+00 1.1291457845292657e+01 1 0 0
3528 1 3.1931646929754560e+00 6.4045680124262949e+00 9.0917997460726152e-01 -1 -1 0
1782 1 1.0961445258327307e+01 1.0546618607339678e+01 8.9206360220562395e+00 0 1 1
3196 1 4.4554152297658387e+00 1.2870264107956370e+01 4.8931327930221116e+00 2 -1 0
3940 1 1.0177567700844122e+01 2.3050256463172321e+01 8.8615713154578035e-01 1 -1 1
3852 1 7.7887690865821959e+00 1.2249964426200179e+01 6.3692939793419043e+00 0 1 0
4927 1 7.5566538330906363e+00 1.2237022514979035e+01 3.3629115197991455e+00 1 2 0
3633 1 6.4126960594780575e+00 1.4829678409620787e+01 4.2438118328232992e+00 0 1 0
6576 1 3.2029107876854854e+00 2.9863957862452133e+00 -2.7064657750331578e-01 1 1 1
5141 1 1.0410064159135276e+01 1.1557624003646923e+01 6.4521319107565551e+00 0 0 0
4751 1 1.1667667662089070e+01 1.4912595891501484e+01 3.9940311917566103e+00 1 1 1
6368 1 3.9708195905235910e+00 1.9842864786720675e+01 3.8550040292873780e+00 1 0 1
313 1 1.0095249231250246e+01 2.3770397224719105e+01 1.0262841587616503e+01 0 0 0
260 1 1.0065936098719323e+01 1.8986920632035314e+01 6.0123766601683117e+00 0 0 0
6625 1 2.4997497849601857e+00 1.6303762178950482e+01 7.0990437510990461e+00 0 0 1
6422 1 6.3959436389408202e+00 1.9281302066309621e+01 6.5509130139428686e+00 0 -1 1
2106 1 5.0062980189936521e+00 1.7062824612143324e+01 5.8506797096173795e+00 0 1 0
1396 1 9.0325025795478275e+00 1.6420850005314364e+01 4.7257811432483212e+00 1 2 1
2025 1 5.8427065955511646e+00 1.7370585757620720e+01 1.0134129621331205e+01 0 1 0
1677 1 1.7418068250489114e+00 1.8282149136069954e+01 3.6431523193666902e+00 0 0 0
1322 1 6.4869075847753175e+00 2.1695447008476780e+01 4.7505784510509210e+00 2 1 1
1632 1 7.4773671704030038e+00 2.3142884556950026e+01 6.9156464761316352e+00 1 0 0
70 1 1.1661141582016191e+01 2.4393772480569094e+01 4.2459190144316219e+00 0 0 0
6434 1 7.8073369401327666e+00 2.2089736125430864e+01 9.2810601928324381e+00 1 1 1
502 1 1.2016274973155925e+01 2.1333213426228230e+01 7.7872241456092421e+00 0 0 1
352 1 2.1566114416689386e+00 2.4378869419385159e+00 8.2853052924656936e+00 1 0 0
4783 1 9.0302908236034884e+00 1.2767938385436775e+00 4.6496230568465267e+00 0 -1 1
3384 1 1.0997593960488059e+01 1.7892088895063996e+01 9.1922179205813865e+00 0 0 0
5363 1 1.8018451919249554e+00 2.2546594445406448e+01 1.0366381827530503e+01 0 0 0
5335 1 8.1842299191922816e+00 4.0752633075821070e+00 8.5501577190806373e+00 0 1 0
3578 1 1.0074283367033421e+00 6.6475525339495762e+00 1.0258647263174609e+01 0 1 0
3760 1 3.3524154924993583e+00 5.0087570150702945e+00 8.9449170778791949e+00 0 0 0
3909 1 5.3262823648401367e+00 7.3106314053007857e+00 8.2016544977324521e+00 1 0 0
2036 1 7.4755085060833015e-01 2.2148464430047287e+01 3.3307241430269490e+00 -1 -1 0
4826 1 9.4566914288364856e+00 8.4354430336619082e+00 8.4236481194782442e+00 1 -1 1
3489 1 1.0485056183175905e+01 5.9197979969763104e+00 8.8496818343252173e+00 0 0 0
1945 1 8.4681815570799213e+00 1.7978054489308668e+01 1.0923887820336477e+01 1 1 0
2281 1 4.1849290657564531e+00 1.0194605916572810e+01 1.0425227726363319e+01 1 1 1
3821 1 2.1098335076867683e+00 9.0330217298844193e+00 9.1972664754160558e+00 1 0 0
546 1 8.3138348402194744e+00 8.4154064285260226e+00 1.0780661869759820e+01 1 1 1
3697 1 1.0821550261081203e+00 1.3520335951694662e+01 8.0198551951216110e+00 1 0 0
1738 1 8.3034537513818591e+00 1.9573837830450131e+01 8.3460338464022481e+00 0 1 1
6690 1 1.0260935493741073e+01 1.2382921464319507e+01 1.0978917712923092e+01 1 0 1
5481 1 3.9584127986253352e+00 1.3418656157997765e+01 7.5105770792297939e+00 0 -1 0
593 1 6.0394756781173440e+00 1.5536249406452239e+01 7.9033838682648838e+00 0 -1 1
1707 1 8.6367561568685662e+00 1.4695010557903222e+01 7.0309111647664322e+00 1 2 1
1443 1 1.1178649861251666e+01 7.8504059672982418e+00 -5.3408860202104469e-01 -1 1 1
232 1 9.5740682428649446e+00 2.0784978468187782e+00 7.3823842977003586e+00 2 -1 0
2306 1 2.5634283137843958e+00 1.7651298720354838e+01 9.4254172231628850e+00 1 0 1
3094 1 2.4311373995155483e+00 2.1838663194903528e+01 5.6854509132452922e+00 0 1 1
3639 1 7.3162317218513966e+00 3.4010862483399138e+00 1.1187823205968300e+01 0 1 0
4745 1 4.4881363034471651e+00 2.0934601642194352e+01 7.7708270840821694e+00 0 1 1
1809 1 7.0504217128923079e+00 1.2720858162444534e+01 1.1356543127677327e+01 1 1 0
3152 1 8.6371598064419324e+00 2.1245669921919713e+01 -6.0081442864974799e-01 1 1 1
1807 1 4.2782635422168092e+00 1.9955597043780379e+01 1.0252591200671352e+01 0 1 0
142 1 5.6471888544268687e+00 7.7745493765243552e+00 1.1065675303167495e+01 0 0 0
1595 1 1.7289912306561037e+00 1.1182338635384326e+00 1.0836605523129982e+01 0 0 1
6426 1 6.4545352337699011e+00 2.1341467924098186e+01 1.6263901097784967e+00 -1 1 1
3378 1 4.4525754029347464e+00 4.5125043103567437e+00 1.1288083718665765e+01 0 0 1
321 1 1.0950839882577410e+01 2.3812034877941919e+01 7.5110273127350151e+00 0 -1 0
5497 1 1.1371967996644683e+01 1.5604694488213328e+01 -3.7623519026905156e-01 0 -1 0
3672 1 5.1966430985824275e-01 1.9006215622544651e+01 8.3127345138158599e+00 1 0 1
3903 1 9.9437443740957454e-01 1.3872299312212025e+01 1.0994318956438038e+01 1 0 1
2039 1 3.2211221871690299e-01 1.4102495137451113e+01 3.2091218151112502e+00 0 2 0
6696 1 1.1008956479102270e+01 1.2276304492182468e+00 1.2666444257090586e+00 1 0 1
1872 1 6.4358222055717036e+00 2.1130179961265867e+01 1.1558326149241832e+01 1 0 0
3653 1 1.2027543827048950e+01 1.6196802890242552e+01 6.6840218411489154e+00 1 0 0
3960 1 1.2229487225412685e+01 7.1727032476604640e+00 1.1450943881053439e+01 0 0 1
1502 1 3.7644744793224598e+00 2.2970674447284343e+00 1.2374968533828044e+01 0 1 1
3900 1 1.2059363623999490e+01 2.3957143728460175e+00 2.0910760317782742e+01 1 1 0
1547 1 4.1405034398168379e+00 3.8504411823261964e+00 1.4981420627109282e+01 1 0 1
4953 1 9.5238864880540017e+00 8.0532938405494967e+00 2.2473101186071627e+01 0 1 1
1484 1 9.4659976082029562e+00 2.0875282429688546e+00 1.5003176686436635e+01 0 1 1
5445 1 8.6696260834750252e+00 1.0503147109840638e+01 1.2562536362106250e+01 0 1 1
4889 1 8.8540167199190201e+00 4.0396489280636203e+00 1.3208820100166601e+01 1 -1 1
3572 1 6.8280730112357615e+00 6.6684678466981151e-01 1.4497275093318207e+01 -1 0 1
1824 1 1.4356393928763855e+00 1.4891371982805350e+00 1.4339311550253891e+01 1 1 0
405 1 4.4740575881637410e+00 6.6256253780735417e+00 1.2981878787673807e+01 -1 -1 0
5462 1 1.1747660587792311e+01 1.1647363925563059e+00 1.3164660648040872e+01 0 0 0
201 1 1.3609666860471741e+00 2.3596049517557862e+01 1.8931473683285546e+01 0 1 0
3220 1 8.7875673225209976e+00 8.7374902825195058e+00 1.4721019530991825e+01 1 0 0
6702 1 2.9735394868741816e+00 1.0402411221209388e+01 1.4801796691167377e+01 0 0 1
2057 1 2.7123145568441371e+00 1.5607496298865938e+01 2.3432896833017743e+01 2 0 0
3412 1 2.4357360589767629e+00 8.0921520036801233e+00 1.3152137102991890e+01 0 1 0
1969 1 5.3273338938935160e+00 1.0090518420599821e+01 1.5809082975337592e+01 -1 -1 0
1974 1 6.7640447027748198e+00 1.2029329498577329e+01 1.4683376867353388e+01 0 1 0
3174 1 6.1395007126607073e+00 9.2160215426617709e-01 1.1813583896526328e+01 0 1 1
3541 1 1.1571702982865464e+01 1.2286140270262658e+01 1.5080246375237735e+01 2 -1 0
3764 1 8.5835716210043600e+00 2.1248527375535733e+01 2.3678903674951879e+01 1 0 0
3310 1 5.1479062283425145e+00 1.3835875945657572e+01 1.2976793702350909e+01 1 0 0
5498 1 8.8480195409500588e+00 2.3822890105543003e+01 2.1493834442186056e+01 3 0 0
1401 1 4.5747407407186875e+00 1.4072455183985372e+01 1.5945603572968810e+01 0 1 1
3846 1 4.9627846249760950e+00 1.6659188940215810e+01 1.2976535016928327e+01 0 0 1
4973 1 8.3991251231916486e+00 1.5437446086682373e+01 1.2375036405241893e+01 0 1 1
3308 1 1.0502608484937609e+01 1.4891493649899772e+01 1.4119793809244628e+01 1 1 0
5349 1 1.1225127563134757e+01 1.6897848191682481e+01 1.5813634048304330e+01 1 0 0
4994 1 1.8554029898078812e+00 1.9532869536610388e+01 1.1925653646214975e+01 1 0 0
6562 1 6.2388618378135074e+00 1.7462843162998801e+01 1.5314862406902391e+01 1 1 1
3102 1 1.2258286564836146e+01 1.8604023483853101e+01 2.0173905725476761e+01 0 1 1
4720 1 9.2889338240419850e+00 1.9689581638136296e+01 1.2850881984445689e+01 2 0 1
6737 1 7.8294914136228941e+00 1.9325842958026502e+01 1.4948105191866402e+01 -1 2 0
3325 1 8.9266308501995848e+00 1.6471166105554598e+01 2.2294341313503452e+01 0 1 1
2300 1 1.4099296288603740e+00 1.9766074520678858e+00 2.3729600403747234e+01 0 1 1
6730 1 4.3149760210837220e+00 2.2206591970474463e+01 1.5950102942061136e+01 0 1 0
2201 1 6.3128787391249528e+00 2.1494177638140563e+01 1.4357241457439859e+01 0 -1 0
5207 1 1.1731317814785234e+01 1.2859648076677527e+01 2.3888786741915716e+01 1 0 0
1339 1 1.1368054449274871e+01 2.3377547289944847e+01 1.5301195121812654e+01 -1 -1 1
5153 1 4.5166884008412973e+00 2.0592794077507122e+01 2.2970331867225173e+01 0 0 1
5588 1 6.6829265389756287e+00 2.0216767589197313e+00 1.8787165528924877e+01 2 0 0
2220 1 8.7841593563679492e+00 3.7350535850483557e+00 1.9626021820243388e+01 1 0 0
5611 1 5.3660353038439981e+00 1.8468854783950976e+00 1.6343007378812512e+01 1 1 1
6757 1 5.7853796193241083e+00 5.5542784497029514e+00 1.6509457342714157e+01 2 1 1
3101 1 8.4150634192650242e-01 2.0925367101001729e+01 1.9103253734784150e+01 0 0 1
401 1 8.4100151335336122e+00 5.4338737253539380e+00 1.7262484627845385e+01 1 -1 0
1739 1 1.0464578722281995e+01 2.6965224650720554e+00 1.7509370544380968e+01 1 1 0
1951 1 1.4655472797939550e+00 4.0208085080896678e+00 1.5604130402338733e+01 0 1 0
2209 1 9.7258917571719259e+00 6.7004262166363908e+00 1.2319612052255136e+01 0 0 0
6515 1 6.1066739983174454e+00 7.6680013544526764e+00 1.5000143305376183e+01 0 0 0
1314 1 4.2915474655084118e+00 6.7772712281724248e+00 1.8575361671441037e+01 2 0 1
3047 1 1.0648040718628680e+01 5.9685781751360869e+00 1.5409659574720443e+01 0 0 1
172 1 2.8747750664459466e+00 1.2202117011205104e+01 1.8181746457237647e+01 0 0 0
3928 1 8.2648838611086575e+00 1.0573451523994922e+01 2.2785217874238761e+01 -1 0 1
4772 1 5.5074460675112542e+00 9.5676560257170085e+00 1.8500631908370007e+01 1 0 1
323 1 8.2469796331147194e+00 9.7214889005136857e+00 1.9186936913449046e+01 1 2 0
6762 1 9.3958017293437859e+00 2.2455333274204154e+01 1.2680944838907450e+01 0 -1 1
5590 1 9.8458651830016031e+00 1.0392034781517227e+01 1.6953301334453641e+01 0 -1 1
6577 1 1.5179958349727209e+00 1.4917821761045763e+01 1.8127630611973675e+01 0 1 1
1382 1 2.3851201637006230e+00 1.5893623081982360e+01 1.5701783805961881e+01 1 -1 1
2159 1 8.8570318059054554e+00 1.3272239232625576e+01 1.6189947667257027e+01 -1 0 0
5274 1 8.2583064422930281e+00 1.3912300807982986e+01 1.9044719058143610e+01 0 1 0
1709 1 2.4136441302812823e+00 2.0223863543932051e+01 1.4967110580239986e+01 1 0 1
3477 1 3.9200544772777302e+00 1.8446302353988340e+01 1.6360911227946804e+01 1 1 0
6540 1 1.9197250528512768e+00 8.9145122793715359e-01 1.9466013362820004e+01 1 1 0
5204 1 6.5137153472043465e+00 1.5895168010832331e+01 1.7397322209706044e+01 1 1 0
5279 1 3.7615628651131203e+00 1.9260036019238424e+01 1.8982886463342922e+01 -1 2 1
6736 1 9.4411733391829848e+00 1.7026795730424663e+01 1.7807521734962556e+01 1 1 1
1328 1 9.4880534705793611e+00 1.9921485459966377e+01 1.6928843985411067e+01 0 0 1
5347 1 9.8022797339172740e+00 1.9376508054335453e+01 1.9665472292579025e+01 2 0 0
229 1 1.5046396248761851e+00 2.3657258192461697e+01 2.3514495500464484e+01 1 0 0
174 1 4.2138258337855152e+00 2.3142083659945417e+01 1.8458435391246102e+01 0 -1 0
3224 1 8.0092109425173881e+00 3.9951137460843444e+00 2.3215505476082711e+01 -1 2 1
3611 1 9.1275035496459704e+00 2.2701262038667892e+01 1.7821979646792066e+01 1 0 0
2244 1 1.1235548145657770e+01 1.9434892648633106e+01 2.3017797602993099e+01 0 2 1
1976 1 2.3910056433101174e+00 2.9829403304663784e+00 2.1256812099508640e+01 1 0 0
4906 1 1.1669939991546978e+00 8.3067420316389189e+00 2.0536928391088296e+01 1 0 1
424 1 9.2890929717928969e+00 1.9664269950812296e+00 2.1835865625680064e+01 0 0 0
3066 1 8.2352436998715355e+00 2.3986088151031776e+01 1.4736472845647013e+01 0 1 1
3694 1 7.9834172777533663e+00 2.1225142240800995e+01 2.0697671476171795e+01 2 0 0
6697 1 1.0851682904886651e+01 5.3109306689544367e+00 2.1338788659920986e+01 1 0 1
2277 1 1.1709564660009139e+01 1.8934626681436434e+01 1.3706562303832030e+01 1 1 1
2228 1 2.9852539868851822e+00 6.6513046892632914e+00 2.3877021988266712e+01 0 0 1
6712 1 5.1634164249705705e+00 3.2370981175849867e+00 2.0761336320640329e+01 0 -1 0
227 1 2.1122537937111492e+00 5.5517474088123153e+00 1.9962163979068986e+01 0 0 0
1520 1 6.0144876825855551e+00 6.0117046419588513e+00 2.0522819340864420e+01 1 2 1
2334 1 8.6346135391879155e+00 7.2220753377765927e+00 1.9410614441036326e+01 -1 0 1
3386 1 5.0661687014636794e+00 2.1160910248183267e+01 2.0259781432288911e+01 0 0 1
3628 1 1.1802590462266396e+01 8.2254437362911546e+00 1.6633457802002926e+01 0 0 0
3468 1 1.1959237572491640e+01 6.9680949092587117e+00 1.9446707700714445e+01 2 0 0
5137 1 1.9998462698691928e+00 1.0864124282041587e+01 2.0484809860609211e+01 1 0 1
3204 1 2.6257460415138172e+00 1.0671208725875294e+01 2.3169764095408393e+01 0 1 1
3485 1 1.0953476925628478e+00 1.1161716755777743e+01 1.6673322945614942e+01 -1 0 0
5091 1 4.8776643198952900e+00 1.1367199128892606e+01 2.0511995779475360e+01 1 0 1
1374 1 5.9267079014592374e+00 2.4253973821194705e+01 1.2812775020755094e+01 1 0 1
3565 1 9.5607037405384308e+00 1.1912002446940409e+01 2.0763556697725388e+01 0 1 0
1585 1 5.3648454615857091e+00 1.0121520896220240e+01 2.3153890639779497e+01 1 0 1
3455 1 5.4060425341728360e+00 7.3502310709975500e+00 2.3044914061601045e+01 -1 2 0
6418 1 2.1263331247493458e+00 1.6363898154963437e+01 1.2053439926822699e+01 1 0 1
1903 1 3.1566895491410003e+00 1.5753238236183799e+01 2.0384835546610958e+01 0 0 0
2216 1 7.2011682675708641e+00 1.4897106288514740e+01 2.3106909379213189e+01 0 1 0
6481 1 5.9169736136294588e+00 1.4145677176666728e+01 2.0771790567564931e+01 1 1 1
3536 1 1.0301759654100644e+01 1.5347970613716793e+01 2.0404773183583664e+01 1 0 0
5125 1 6.8808060880355422e+00 2.4245174052519072e+01 1.7564737728802317e+01 1 0 0
1684 1 2.9223566772606620e+00 1.2110656668281477e+01 1.2470080594315068e+01 1 -2 1
5038 1 2.0501083433870013e+00 1.9447287853035686e+01 2.3275707347562779e+01 0 1 1
5428 1 1.6897866371630825e+00 1.8158726992413026e+01 2.0783653540515242e+01 0 1 0
4977 1 7.3298184907094308e+00 1.8333804156678053e+01 2.1462481425309612e+01 1 -1 0
5391 1 5.5918771985794216e+00 1.7268363981891735e+01 1.9682046948090719e+01 0 0 0
5048 1 8.7921413763387024e-01 8.4840027969085963e+00 2.3611624046903721e+01 0 1 1
6672 1 1.2073032438637876e+01 1.3030339847761466e+01 2.1206582708370668e+01 -1 0 0
5389 1 1.2428273052105755e+01 2.2747190935195235e+01 1.1828140332378483e+01 -1 1 0
3769 1 4.3037074423897987e+00 2.3071061960772241e+01 2.3549495324870549e+01 1 0 0
4779 1 5.5766431186863930e+00 2.7929082660186992e+00 2.3649380187592726e+01 0 1 1
3780 1 2.8814414484998729e+00 5.8373707620025783e-01 1.6458720615699132e+01 1 0 0
3413 1 1.2415475392219417e+01 1.9960863404450369e+00 2.3726779927552780e+01 1 -1 0
2192 1 1.2049690294178484e+01 2.0507124482623020e+01 1.6121838028118173e+01 1 1 0
623 2 3.0045075734138749e-01 3.1062526465365661e+00 2.6752410104061880e+01 0 0 0
625 2 3.0045075734138749e-01 2.9922768671112721e-01 2.6752410104061880e+01 0 0 0
627 2 1.5159282194743446e+00 1.0009839266674709e+00 2.6752410104061880e+01 0 0 0
634 2 1.5159282194743446e+00 2.4044964065801748e+00 2.6752410104061880e+01 0 0 0
636 2 2.7314056816073018e+00 3.1062526465365661e+00 2.6752410104061880e+01 0 0 0
638 2 2.7314056816073018e+00 2.9922768671112721e-01 2.6752410104061880e+01 0 0 0
640 2 3.9468831437401604e+00 1.0009839266674709e+00 2.6752410104061880e+01 0 0 0
655 2 3.9468831437401604e+00 2.4044964065801748e+00 2.6752410104061880e+01 0 0 0
657 2 5.1623606058732161e+00 3.1062526465365661e+00 2.6752410104061880e+01 0 0 0
659 2 5.1623606058732161e+00 2.9922768671112721e-01 2.6752410104061880e+01 0 0 0
661 2 6.3778380680060165e+00 1.0009839266674709e+00 2.6752410104061880e+01 0 0 0
684 2 6.3778380680060165e+00 2.4044964065801748e+00 2.6752410104061880e+01 0 0 0
686 2 7.5933155301389332e+00 3.1062526465365661e+00 2.6752410104061880e+01 0 0 0
688 2 7.5933155301389332e+00 2.9922768671112721e-01 2.6752410104061880e+01 0 0 0
5102 1 4.9919907579795302e+00 3.6664662719988703e+00 3.6033135344610592e+01 -1 0 0
4736 1 8.8730029436115068e+00 1.3071620385685113e+01 2.4376756017697517e+01 0 0 1
690 2 8.8087929922715045e+00 1.0009839266674709e+00 2.6752410104061880e+01 0 0 0
721 2 8.8087929922715045e+00 2.4044964065801748e+00 2.6752410104061880e+01 0 0 0
723 2 1.0024270454405045e+01 3.1062526465365661e+00 2.6752410104061880e+01 0 0 0
725 2 1.0024270454405045e+01 2.9922768671112721e-01 2.6752410104061880e+01 0 0 0
727 2 1.1239747916537324e+01 1.0009839266674709e+00 2.6752410104061880e+01 0 0 0
766 2 1.1239747916537324e+01 2.4044964065801748e+00 2.6752410104061880e+01 0 0 0
768 2 1.2455225378670645e+01 3.1062526465365661e+00 2.6752410104061880e+01 0 0 0
770 2 1.2455225378670645e+01 2.9922768671112721e-01 2.6752410104061880e+01 0 0 0
628 2 3.0045075734138749e-01 7.3167900862750193e+00 2.6752410104061880e+01 0 0 0
630 2 3.0045075734138749e-01 4.5097651264492224e+00 2.6752410104061880e+01 0 0 0
632 2 1.5159282194743446e+00 5.2115213664057007e+00 2.6752410104061880e+01 0 0 0
647 2 1.5159282194743446e+00 6.6150338463184140e+00 2.6752410104061880e+01 0 0 0
649 2 2.7314056816073018e+00 7.3167900862750193e+00 2.6752410104061880e+01 0 0 0
651 2 2.7314056816073018e+00 4.5097651264492224e+00 2.6752410104061880e+01 0 0 0
653 2 3.9468831437401604e+00 5.2115213664057007e+00 2.6752410104061880e+01 0 0 0
676 2 3.9468831437401604e+00 6.6150338463184140e+00 2.6752410104061880e+01 0 0 0
678 2 5.1623606058732161e+00 7.3167900862750193e+00 2.6752410104061880e+01 0 0 0
680 2 5.1623606058732161e+00 4.5097651264492224e+00 2.6752410104061880e+01 0 0 0
682 2 6.3778380680060165e+00 5.2115213664057007e+00 2.6752410104061880e+01 0 0 0
713 2 6.3778380680060165e+00 6.6150338463184140e+00 2.6752410104061880e+01 0 0 0
715 2 7.5933155301389332e+00 7.3167900862750193e+00 2.6752410104061880e+01 0 0 0
717 2 7.5933155301389332e+00 4.5097651264492224e+00 2.6752410104061880e+01 0 0 0
719 2 8.8087929922715045e+00 5.2115213664057007e+00 2.6752410104061880e+01 0 0 0
758 2 8.8087929922715045e+00 6.6150338463184140e+00 2.6752410104061880e+01 0 0 0
760 2 1.0024270454405045e+01 7.3167900862750193e+00 2.6752410104061880e+01 0 0 0
762 2 1.0024270454405045e+01 4.5097651264492224e+00 2.6752410104061880e+01 0 0 0
764 2 1.1239747916537324e+01 5.2115213664057007e+00 2.6752410104061880e+01 0 0 0
805 2 1.1239747916537324e+01 6.6150338463184140e+00 2.6752410104061880e+01 0 0 0
807 2 1.2455225378670645e+01 7.3167900862750193e+00 2.6752410104061880e+01 0 0 0
809 2 1.2455225378670645e+01 4.5097651264492224e+00 2.6752410104061880e+01 0 0 0
641 2 3.0045075734138749e-01 1.1527327526012883e+01 2.6752410104061880e+01 0 0 0
643 2 3.0045075734138749e-01 8.7203025661873177e+00 2.6752410104061880e+01 0 0 0
645 2 1.5159282194743446e+00 9.4220588061438555e+00 2.6752410104061880e+01 0 0 0
668 2 1.5159282194743446e+00 1.0825571286056720e+01 2.6752410104061880e+01 0 0 0
670 2 2.7314056816073018e+00 1.1527327526012883e+01 2.6752410104061880e+01 0 0 0
672 2 2.7314056816073018e+00 8.7203025661873177e+00 2.6752410104061880e+01 0 0 0
674 2 3.9468831437401604e+00 9.4220588061438555e+00 2.6752410104061880e+01 0 0 0
705 2 3.9468831437401604e+00 1.0825571286056720e+01 2.6752410104061880e+01 0 0 0
1095 2 1.1239747916537324e+01 2.2053671125358424e+01 3.3309589895944143e+01 0 0 0
1411 1 4.8483169645072426e+00 2.3340018394917585e+01 3.6108377446881462e+01 -1 0 0
707 2 5.1623606058732161e+00 1.1527327526012883e+01 2.6752410104061880e+01 0 0 0
709 2 5.1623606058732161e+00 8.7203025661873177e+00 2.6752410104061880e+01 0 0 0
711 2 6.3778380680060165e+00 9.4220588061438555e+00 2.6752410104061880e+01 0 0 0
750 2 6.3778380680060165e+00 1.0825571286056720e+01 2.6752410104061880e+01 0 0 0
752 2 7.5933155301389332e+00 1.1527327526012883e+01 2.6752410104061880e+01 0 0 0
754 2 7.5933155301389332e+00 8.7203025661873177e+00 2.6752410104061880e+01 0 0 0
756 2 8.8087929922715045e+00 9.4220588061438555e+00 2.6752410104061880e+01 0 0 0
797 2 8.8087929922715045e+00 1.0825571286056720e+01 2.6752410104061880e+01 0 0 0
799 2 1.0024270454405045e+01 1.1527327526012883e+01 2.6752410104061880e+01 0 0 0
801 2 1.0024270454405045e+01 8.7203025661873177e+00 2.6752410104061880e+01 0 0 0
803 2 1.1239747916537324e+01 9.4220588061438555e+00 2.6752410104061880e+01 0 0 0
844 2 1.1239747916537324e+01 1.0825571286056720e+01 2.6752410104061880e+01 0 0 0
846 2 1.2455225378670645e+01 1.1527327526012883e+01 2.6752410104061880e+01 0 0 0
848 2 1.2455225378670645e+01 8.7203025661873177e+00 2.6752410104061880e+01 0 0 0
662 2 3.0045075734138749e-01 1.5737864965751175e+01 2.6752410104061880e+01 0 0 0
664 2 3.0045075734138749e-01 1.2930840005925701e+01 2.6752410104061880e+01 0 0 0
666 2 1.5159282194743446e+00 1.3632596245881937e+01 2.6752410104061880e+01 0 0 0
697 2 1.5159282194743446e+00 1.5036108725795328e+01 2.6752410104061880e+01 0 0 0
699 2 2.7314056816073018e+00 1.5737864965751175e+01 2.6752410104061880e+01 0 0 0
701 2 2.7314056816073018e+00 1.2930840005925701e+01 2.6752410104061880e+01 0 0 0
703 2 3.9468831437401604e+00 1.3632596245881937e+01 2.6752410104061880e+01 0 0 0
742 2 3.9468831437401604e+00 1.5036108725795328e+01 2.6752410104061880e+01 0 0 0
744 2 5.1623606058732161e+00 1.5737864965751175e+01 2.6752410104061880e+01 0 0 0
746 2 5.1623606058732161e+00 1.2930840005925701e+01 2.6752410104061880e+01 0 0 0
748 2 6.3778380680060165e+00 1.3632596245881937e+01 2.6752410104061880e+01 0 0 0
789 2 6.3778380680060165e+00 1.5036108725795328e+01 2.6752410104061880e+01 0 0 0
791 2 7.5933155301389332e+00 1.5737864965751175e+01 2.6752410104061880e+01 0 0 0
793 2 7.5933155301389332e+00 1.2930840005925701e+01 2.6752410104061880e+01 0 0 0
3419 1 1.1899594264693998e+00 1.7268561142695432e+01 2.4405838979725484e+01 1 2 0
6604 1 1.0891182946814560e+01 5.8323075256198891e+00 3.5942270018986598e+01 0 0 0
795 2 8.8087929922715045e+00 1.3632596245881937e+01 2.6752410104061880e+01 0 0 0
836 2 8.8087929922715045e+00 1.5036108725795328e+01 2.6752410104061880e+01 0 0 0
838 2 1.0024270454405045e+01 1.5737864965751175e+01 2.6752410104061880e+01 0 0 0
840 2 1.0024270454405045e+01 1.2930840005925701e+01 2.6752410104061880e+01 0 0 0
842 2 1.1239747916537324e+01 1.3632596245881937e+01 2.6752410104061880e+01 0 0 0
878 2 1.1239747916537324e+01 1.5036108725795328e+01 2.6752410104061880e+01 0 0 0
880 2 1.2455225378670645e+01 1.5737864965751175e+01 2.6752410104061880e+01 0 0 0
882 2 1.2455225378670645e+01 1.2930840005925701e+01 2.6752410104061880e+01 0 0 0
6354 1 3.2478022269691111e+00 4.0145226901652924e+00 2.4138568193266323e+01 0 1 1
691 2 3.0045075734138749e-01 1.9948402405489421e+01 2.6752410104061880e+01 0 0 0
693 2 3.0045075734138749e-01 1.7141377445663508e+01 2.6752410104061880e+01 0 0 0
695 2 1.5159282194743446e+00 1.7843133685620177e+01 2.6752410104061880e+01 0 0 0
734 2 1.5159282194743446e+00 1.9246646165533139e+01 2.6752410104061880e+01 0 0 0
736 2 2.7314056816073018e+00 1.9948402405489421e+01 2.6752410104061880e+01 0 0 0
738 2 2.7314056816073018e+00 1.7141377445663508e+01 2.6752410104061880e+01 0 0 0
740 2 3.9468831437401604e+00 1.7843133685620177e+01 2.6752410104061880e+01 0 0 0
781 2 3.9468831437401604e+00 1.9246646165533139e+01 2.6752410104061880e+01 0 0 0
3934 1 6.9943272790576492e+00 1.9896483031636389e+01 3.5550190819905104e+01 2 0 0
783 2 5.1623606058732161e+00 1.9948402405489421e+01 2.6752410104061880e+01 0 0 0
785 2 5.1623606058732161e+00 1.7141377445663508e+01 2.6752410104061880e+01 0 0 0
787 2 6.3778380680060165e+00 1.7843133685620177e+01 2.6752410104061880e+01 0 0 0
828 2 6.3778380680060165e+00 1.9246646165533139e+01 2.6752410104061880e+01 0 0 0
830 2 7.5933155301389332e+00 1.9948402405489421e+01 2.6752410104061880e+01 0 0 0
832 2 7.5933155301389332e+00 1.7141377445663508e+01 2.6752410104061880e+01 0 0 0
287 1 1.0712000177609102e+01 3.7647519639566038e+00 2.4501077386666260e+01 0 -1 0
834 2 8.8087929922715045e+00 1.7843133685620177e+01 2.6752410104061880e+01 0 0 0
870 2 8.8087929922715045e+00 1.9246646165533139e+01 2.6752410104061880e+01 0 0 0
872 2 1.0024270454405045e+01 1.9948402405489421e+01 2.6752410104061880e+01 0 0 0
874 2 1.0024270454405045e+01 1.7141377445663508e+01 2.6752410104061880e+01 0 0 0
876 2 1.1239747916537324e+01 1.7843133685620177e+01 2.6752410104061880e+01 0 0 0
904 2 1.1239747916537324e+01 1.9246646165533139e+01 2.6752410104061880e+01 0 0 0
908 2 1.2455225378670645e+01 1.7141377445663508e+01 2.6752410104061880e+01 0 0 0
728 2 3.0045075734138749e-01 2.4158939845227348e+01 2.6752410104061880e+01 0 0 0
730 2 3.0045075734138749e-01 2.1351914885402312e+01 2.6752410104061880e+01 0 0 0