LAMMPS data file via write_data, version 16 Mar 2018, timestep = 6000000

6736 atoms
2 atom types

0.0000000000000000e+00 4.9219999999999999e+01 xlo xhi
0.0000000000000000e+00 4.9019635930410494e+01 ylo yhi
6.0014676866635241e-01 5.9461853231341635e+01 zlo zhi

Masses

1 18.015
2 12.01

Atoms # atomic

294 1 2.4063907553529944e+00 1.2854354267234303e+00 1.9906213713781973e+00 2 2 0
6495 1 2.6665657966448566e+00 3.7593476408726278e+00 3.0234310055272537e+00 2 -1 1
5082 1 6.9478421166184221e+00 3.1388726069434538e+00 3.0241331177634363e+00 0 1 1
1641 1 7.1060716825806445e+00 6.1660790253517861e-01 2.2377437382837106e+00 1 0 1
517 1 3.3671346150553778e+00 1.3477492269221198e+01 9.4660554967355885e+00 -1 3 1
5210 1 1.1477997236777799e+01 2.5671994879432640e+00 2.9686999992613892e+00 3 1 0
6364 1 9.4169233326946937e+00 4.2624439432722685e+00 2.2785182946457532e+00 0 0 1
2014 1 8.3843528173389377e+00 1.5272403570972507e+01 1.0224351025382514e+01 2 1 0
5405 1 8.4894767322293530e-01 5.3091985706003637e+00 2.2095521508645852e+00 4 -1 0
4833 1 1.0163532688455417e+00 7.9730978842557709e+00 3.1885800050687871e+00 1 1 1
4744 1 4.9573393552290463e+00 4.8451234690884446e+00 2.2890052760196604e+00 0 -1 1
545 1 5.5132774868051442e+00 7.3260790530709734e+00 3.1427727164491817e+00 1 1 0
5578 1 7.6906040607948860e+00 8.0404896557368453e+00 2.2115852582962257e+00 2 -2 0
425 1 9.6961404656271135e+00 6.5482431688044187e+00 2.8890455044770107e+00 2 -2 1
4923 1 1.0915125371213042e+01 1.6084841238785376e+01 9.6076145598268337e+00 0 -1 1
3874 1 3.3807533894559176e+00 8.7698240124914850e+00 2.3658547775947318e+00 1 0 0
3189 1 3.7399256125508664e+00 1.1302435875076476e+01 3.0953764280439553e+00 -1 -1 0
3049 1 6.1785614231315167e+00 1.2145358010128346e+01 2.0737879769531880e+00 0 1 1
5611 1 8.1002169839521052e+00 1.0563744209541877e+01 2.8481215095300731e+00 1 -1 0
71 1 1.0600712553015679e+01 1.1269741560512966e+01 1.8239073087919553e+00 -1 -2 1
1681 1 1.4144621931575383e+00 1.2684341220307493e+01 2.1508641792855814e+00 -2 -1 1
3962 1 1.8226677066490204e+00 1.5447111886083214e+01 2.7707850107066010e+00 1 1 1
6423 1 1.1047124953389840e+00 1.2628982118765364e+01 1.0452860192405041e+01 -2 0 1
29 1 6.1689820893025935e+00 1.4622100013906035e+01 3.0153564814057265e+00 2 2 0
1702 1 8.7704967172198813e+00 1.5458380868295055e+01 2.4872039200448128e+00 1 1 0
3710 1 1.0897324315037958e+01 1.3553098889011407e+01 3.0471669566805586e+00 2 1 0
3718 1 5.3097433350546919e-01 4.7070483718694733e-01 5.8293476607673718e+00 1 -1 0
5430 1 2.8613458565922758e+00 3.8093273323925709e+00 5.9213176467315192e+00 0 2 0
193 1 1.0049038423175604e+01 8.6497945169803145e+00 9.2857981491308088e+00 1 0 0
3856 1 4.8769653879934793e+00 2.2375016630581697e+00 6.6784358522773823e+00 3 0 0
5058 1 7.2841544525563799e+00 3.1558995178646718e+00 5.7536235338596065e+00 -4 0 1
3617 1 1.1591790319947211e+01 2.6055654354229092e+00 5.7301995020222565e+00 0 1 0
3420 1 9.0404106060820464e+00 1.6834863598114251e+00 6.7972932440636251e+00 0 2 0
6392 1 3.5871320455829458e+00 6.2195819540497377e+00 6.8300751831080975e+00 1 2 1
1927 1 1.3935201858302495e+00 7.4978994856031802e+00 5.7240785018239144e+00 2 1 1
3705 1 5.7321512367364269e+00 7.1808593729503913e+00 5.7519530188851276e+00 1 0 0
6478 1 7.7311543375992624e+00 5.4951570819901061e+00 6.4575154916528295e+00 -1 1 1
2298 1 9.8405499284698017e+00 6.7624155185415802e+00 5.6043360512565465e+00 -1 0 1
4716 1 1.2131937102738762e+01 5.2773143314221747e+00 6.7837783978579873e+00 0 0 1
3115 1 1.6859175936044877e+00 1.0237735783587439e+01 6.6541501454320233e+00 -1 3 1
3564 1 3.9480371878442773e+00 1.1291254501619070e+01 5.7088071518060346e+00 0 -1 0
2967 1 6.0721477025415602e+00 9.9250853369898397e+00 6.4693952879759431e+00 0 0 0
4952 1 8.2093066716611300e+00 1.0777170498877449e+01 5.5038306523692384e+00 0 -1 0
6496 1 1.0048663382554743e+01 9.0800549395461196e+00 6.6721450024520461e+00 2 2 1
1848 1 1.0281530862646660e+01 1.1097598389677904e+01 1.0098340019948663e+01 1 0 0
4908 1 1.7429211639047641e+00 1.5574975080397639e+01 5.4825444919613080e+00 0 0 1
3685 1 3.8694717069305948e+00 1.4018703270118916e+01 6.6670372841633601e+00 0 0 0
1912 1 6.1705874217874310e+00 1.4458143869039327e+01 5.9029812046635595e+00 3 4 0
5170 1 8.3773963065235844e+00 1.3010447282189334e+01 6.7832262704404203e+00 0 -5 0
5656 1 1.0671568866048110e+01 1.3616800376825148e+01 5.7720892623493159e+00 2 -2 1
5168 1 8.2880706389262730e+00 1.2720209534893533e+01 9.4135415331721717e+00 0 -1 0
538 1 6.5464295302365194e-01 2.6918246178260410e+00 9.5433076128126597e+00 0 2 0
1987 1 2.7511670623322906e+00 9.0283916421686305e-01 1.0227325125271724e+01 0 2 0
5326 1 4.9693081705360598e+00 1.9095210949885193e+00 9.4155242088195177e+00 0 0 0
6629 1 7.1216006545867083e+00 7.8361578115366970e-01 1.0710039747416701e+01 1 3 1
3455 1 9.4262247627152647e+00 1.5117618701413900e+00 9.5285701705510224e+00 1 -3 0
530 1 1.0253296702956476e+00 5.2928939927277829e+00 1.0459053548290374e+01 -1 0 0
2139 1 3.3755213803589599e+00 5.9410458818434906e+00 9.6247399445892388e+00 0 0 1
1453 1 5.5469362119758978e+00 4.3945472851745828e+00 1.0059262251729328e+01 1 -3 1
1527 1 7.7926242168322011e+00 5.0712415811553928e+00 9.0861824429674378e+00 -1 -1 1
6339 1 9.9098133696396964e+00 4.0646711986038406e+00 1.0094246744498063e+01 1 2 1
5332 1 3.0818277168652902e-01 2.4138940523529043e-01 3.1620782289893037e+00 -1 -1 0
346 1 1.7805505940701767e+00 1.0221399717461530e+01 9.2196116001692783e+00 -3 0 0
2002 1 3.6228251257884825e+00 8.5401191220606343e+00 1.0346978709773131e+01 1 0 1
1619 1 7.8413184376153016e+00 7.2891153695333806e+00 1.0255826720834195e+01 0 2 1
3664 1 5.5011881032639671e+00 1.2083186244226068e+01 1.0115405313831964e+01 1 2 0
5029 1 6.0882535694164384e+00 9.3494409971781902e+00 9.0349149813445244e+00 0 0 1
1367 1 7.0475473418253243e-01 2.9511035993269505e+00 6.8590612900614403e+00 -1 -1 1
3828 1 1.2237352101923436e+01 7.3866794240299418e+00 2.0899367545637109e+00 1 0 0
6512 1 1.2211382053650823e+01 7.4081740378248284e+00 1.0380891753340681e+01 3 5 1
6529 1 3.7019170696414583e+00 1.5738393688058814e+01 1.0213870645667512e+01 4 1 1
2255 1 1.0899488142064937e+01 1.5904716712988865e+01 6.9049249963149713e+00 1 0 0
4804 1 4.2663920250248708e+00 1.6283082602723383e+01 2.4643717734495922e+00 -1 0 1
5581 1 2.7304830412241707e+00 1.4785333429481999e+00 1.3057063763961668e+01 -1 2 0
6368 1 3.2919554549414567e+00 4.1531361214559057e+00 1.3908848602713856e+01 -1 0 1
3484 1 9.6955920647544858e+00 1.0879990986020109e+01 1.2788194150312380e+01 -2 2 0
5407 1 7.0638162337728332e+00 3.2812512352053034e+00 1.4121954163420268e+01 1 2 0
374 1 7.1145902335904188e+00 8.9438488942990757e-01 1.3523032612196630e+01 3 2 0
5317 1 9.7507450336859289e+00 1.3443312716221389e+01 2.0028871381897027e+01 1 2 0
270 1 1.1909429110076367e+01 2.4438859271714022e+00 1.3816922410301633e+01 -2 -1 0
1374 1 1.1846064862712371e+00 5.6397742636032717e+00 1.3114729222227522e+01 0 0 1
3156 1 6.0754903714819211e+00 7.5750071797370255e+00 1.3483875554377825e+01 -2 3 1
3654 1 5.4150096166044461e+00 4.8671399908280204e+00 1.2826788260316954e+01 -2 0 0
1989 1 9.7092705969531696e+00 3.9911058006451476e+00 1.2960293910063610e+01 2 3 0
5147 1 1.0062250657040105e+01 6.5287022002339370e+00 1.3881423796880833e+01 1 2 0
5140 1 1.5192187590273059e+00 8.3360629230533760e+00 1.3730043362812799e+01 0 4 0
5520 1 4.1007093095495923e+00 9.1690557554059158e+00 1.2828984936111967e+01 -1 1 1
467 1 8.1478458808772181e-01 1.2479286141355667e+01 1.3006725259635376e+01 1 1 0
4791 1 5.3506776080135428e+00 1.1717535693903780e+01 1.2646622844856557e+01 1 -1 1
3671 1 8.4370247614341576e+00 8.2963110814161940e+00 1.2793240692201318e+01 0 -1 0
2068 1 1.1800242516585351e+01 1.1987015431684682e+01 2.3236240571076316e+01 2 1 0
6466 1 7.2056556760525470e-01 4.3613693675793019e-01 1.6728960782298412e+01 1 -2 1
5242 1 3.3902922027167617e+00 1.3312758663986223e+01 1.3885832625958930e+01 0 4 0
3112 1 6.1894821071663308e-01 5.7712755108891201e-01 1.4263574458380582e+01 -1 0 1
1494 1 7.6445673071836806e+00 1.2754807856317873e+01 1.3526721294547185e+01 0 1 1
5123 1 8.2024636878732835e+00 1.5387740043055233e+01 1.3001670390237912e+01 0 0 0
3248 1 3.9206309887864785e+00 6.8224776057291603e+00 2.4096818094191271e+01 2 0 1
3616 1 9.2657982248114890e-01 3.1807622768393342e+00 1.7220821913648642e+01 1 -1 0
1630 1 3.1742003142885236e+00 4.0989454369917127e+00 1.6589819951602987e+01 1 3 1
4843 1 1.0309415352980127e+00 3.1784291497670836e+00 1.9885153500489110e+01 1 1 0
167 1 2.9569249148149575e+00 1.3305541265166553e+01 2.3815523498280264e+01 -1 -2 0
533 1 7.3680456797834495e+00 3.3784860156866516e+00 1.6774504881974320e+01 -3 1 1
1974 1 4.9627109943121859e+00 2.1237213127545864e+00 1.7382454019177924e+01 -1 5 0
4745 1 4.8789171273735015e+00 2.2930840126744458e+00 1.9922421366574738e+01 -1 -1 1
4990 1 9.2354369749061611e+00 1.4859715057443745e+00 1.7345276236886999e+01 0 0 1
5595 1 1.1992580568755422e+01 2.2947227254529659e+00 1.6532689525812678e+01 0 -1 1
2319 1 9.4517701067891302e+00 1.4379617503591120e+00 2.0037836377161959e+01 0 0 1
5214 1 3.6364527159767444e+00 6.6933675411021563e+00 1.7554225556618018e+01 -1 -1 0
1981 1 3.6719106220952540e+00 6.6398666794953938e+00 2.0202636792226205e+01 -3 2 0
5610 1 5.9205493347784515e+00 7.4863269682313369e+00 1.6353429494372790e+01 2 -1 1
4663 1 8.1168900311552932e+00 5.8820327153511434e+00 1.7282997061015781e+01 1 -2 0
3271 1 7.9809725498166717e+00 5.6672579281166060e+00 1.9774958529205037e+01 2 0 1
2973 1 1.0290148378303758e+01 6.6307940088004749e+00 1.6380278840959150e+01 1 2 1
6343 1 9.4848515796437916e+00 3.7878827219657722e+00 2.3549103482453386e+01 0 -1 0
586 1 2.0654105723255167e+00 8.5746222229587641e+00 1.6572225615767476e+01 -1 -3 1
315 1 3.0570678164918759e+00 1.0808945920322829e+01 1.7790157447846742e+01 3 1 0
6419 1 2.4748992678031039e+00 1.1044749317357445e+01 2.0494730402524659e+01 -1 0 1
3361 1 5.7466465713595021e+00 1.0256111039218865e+01 1.7131721270066937e+01 2 -1 1
1984 1 6.2661182052033135e+00 9.9747722798642240e+00 1.9941321384633731e+01 0 0 0
6474 1 1.0932960255133814e+01 1.5207042027712703e-01 1.3092096284967161e+01 2 2 1
3519 1 1.0985627872062471e+01 9.0649193177966492e+00 2.0372505676719406e+01 0 -2 0
1971 1 6.9003620973513833e+00 5.8569549684269850e-01 2.1019381397051063e+01 2 0 0
2161 1 3.2309976685840334e+00 1.3516316394142054e+01 1.6520463981396329e+01 -1 -3 0
6673 1 1.1855557580633682e+00 1.4995445466863840e+01 1.7527293617824750e+01 1 -2 0
3774 1 7.2158442542555186e+00 1.2501389805097260e+01 1.6211450470754297e+01 2 -1 1
1898 1 5.6972201717563440e+00 1.4408776176738884e+01 1.7280553095658323e+01 3 -1 0
3761 1 5.4305179679165141e+00 1.4523627305788361e+01 2.0154193312466955e+01 4 0 0
1732 1 1.0660226400788888e+01 1.6126213535647569e+01 1.6378120830765752e+01 2 1 1
3796 1 9.8407048897433569e+00 1.3456881926745600e+01 1.7206789182427517e+01 0 -1 0
2089 1 2.6857713026341750e+00 1.1774902051879794e+00 2.0968639925659900e+01 -1 -2 0
3523 1 2.4521824793267064e+00 1.1264939546913650e+00 2.3710899869846852e+01 1 1 0
1539 1 7.0034848875286633e+00 3.2205774441242990e-01 2.3620200884791963e+01 -2 0 1
460 1 4.3154768273635939e+00 9.4873164312180531e+00 2.3759876501299193e+01 1 1 0
6503 1 1.3057150869152931e+00 1.5420669668121537e+01 2.3951593612144183e+01 -4 -1 1
3064 1 1.3968424977254945e+00 5.9002543624843806e+00 2.3727551354202987e+01 -1 1 1
1332 1 1.0635070624588554e+00 5.8258629713177665e+00 2.0974005295521206e+01 -3 -1 1
5266 1 5.7699147170719813e+00 4.7274127257373681e+00 2.3787144930562196e+01 -2 -3 0
5134 1 5.5655928904080927e+00 4.7878201588272402e+00 2.1096951137971164e+01 1 2 0
1612 1 9.5061116851207572e+00 3.8190552567997118e+00 2.1063730788548643e+01 2 -6 1
3501 1 7.4486657728864305e+00 1.2752532762889357e+01 2.3574543111315919e+01 5 4 0
3651 1 4.1543333933770636e+00 9.3233148932737038e+00 2.1009504863869989e+01 -1 -1 0
1933 1 6.9289716637197063e-01 1.5149102674226011e+01 2.0281240475127543e+01 0 -1 0
1698 1 8.7304923645146832e+00 8.6506516754972402e+00 2.3742553544385324e+01 1 -3 1
4790 1 7.1960315366048526e+00 1.2322091419578255e+01 2.0741666018323876e+01 1 1 0
1364 1 1.0765956468803790e+01 1.6189103234258759e+01 1.3745715751266356e+01 0 1 1
1884 1 8.2180565355379631e+00 8.1560310183451108e+00 2.0848590255475642e+01 0 0 1
6504 1 3.6901905433076987e+00 1.5960178294139384e+01 1.3015111998017707e+01 -2 1 1
3313 1 2.8885651367289813e+00 1.3698528369841737e+01 2.1092888603036041e+01 1 -1 1
2217 1 1.2059861655762978e+01 1.1784741737373803e+01 2.0594270440444976e+01 0 1 1
2281 1 1.2174126873728044e+01 1.2030385756340960e+01 1.4019266436973323e+01 -1 0 1
1888 1 1.0466130665531567e+01 1.5959998851656263e+01 2.0911386288623074e+01 1 -1 1
1717 1 1.2280359164022553e+01 4.6476156739934584e+00 2.0366400816156187e+01 1 -2 0
2229 1 1.2113257069958896e+01 1.1584047448100327e+01 1.6726358411891798e+01 2 -2 1
3212 1 1.1680821589128454e+01 8.8175814230463896e+00 1.7662791594678858e+01 -3 -1 1
3596 1 1.0627582220004024e+01 1.6177790595510011e+01 2.3664430641857962e+01 2 3 0
4741 1 1.1164187771324320e+01 9.4325214089939848e+00 2.3758158495708763e+01 -4 2 1
616 2 0.0000000000000000e+00 2.8417180249513345e+00 2.6787060252796273e+01 0 0 0
618 2 0.0000000000000000e+00 0.0000000000000000e+00 2.6787060252796273e+01 0 0 0
620 2 1.2305000000000001e+00 7.1042950623783474e-01 2.6787060252796273e+01 0 0 0
627 2 1.2305000000000001e+00 2.1312885187134998e+00 2.6787060252796273e+01 0 0 0
629 2 2.4610000000000003e+00 2.8417180249513345e+00 2.6787060252796273e+01 0 0 0
631 2 2.4610000000000003e+00 0.0000000000000000e+00 2.6787060252796273e+01 0 0 0
633 2 3.6915000000000004e+00 7.1042950623783474e-01 2.6787060252796273e+01 0 0 0
648 2 3.6914999999999996e+00 2.1312885187134998e+00 2.6787060252796273e+01 0 0 0
3025 1 5.4913261763207446e+00 1.4397069990426173e+01 2.4643018110953420e+01 0 1 1
650 2 4.9220000000000006e+00 2.8417180249513332e+00 2.6787060252796273e+01 0 0 0
652 2 4.9220000000000006e+00 0.0000000000000000e+00 2.6787060252796273e+01 0 0 0
654 2 6.1524999999999999e+00 7.1042950623783407e-01 2.6787060252796273e+01 0 0 0
677 2 6.1524999999999999e+00 2.1312885187134989e+00 2.6787060252796273e+01 0 0 0
679 2 7.3829999999999991e+00 2.8417180249513345e+00 2.6787060252796273e+01 0 0 0
681 2 7.3829999999999991e+00 0.0000000000000000e+00 2.6787060252796273e+01 0 0 0
399 1 5.1055991547248132e+00 2.2086126972011297e+00 2.4364546070799172e+01 2 1 0
683 2 8.6134999999999984e+00 7.1042950623783407e-01 2.6787060252796273e+01 0 0 0
714 2 8.6134999999999984e+00 2.1312885187135002e+00 2.6787060252796273e+01 0 0 0
716 2 9.8440000000000012e+00 2.8417180249513332e+00 2.6787060252796273e+01 0 0 0
718 2 9.8440000000000012e+00 0.0000000000000000e+00 2.6787060252796273e+01 0 0 0
720 2 1.1074500000000002e+01 7.1042950623783330e-01 2.6787060252796273e+01 0 0 0
759 2 1.1074500000000002e+01 2.1312885187135002e+00 2.6787060252796273e+01 0 0 0
6559 1 8.1497699967500346e+00 5.8345235317865924e+00 2.4206304249403964e+01 0 -2 1
621 2 0.0000000000000000e+00 7.1042950623783341e+00 2.6787060252796273e+01 0 0 0
623 2 0.0000000000000000e+00 4.2625770374269996e+00 2.6787060252796273e+01 0 0 0
625 2 1.2305000000000001e+00 4.9730065436648339e+00 2.6787060252796273e+01 0 0 0
640 2 1.2305000000000001e+00 6.3938655561404980e+00 2.6787060252796273e+01 0 0 0
642 2 2.4610000000000003e+00 7.1042950623783341e+00 2.6787060252796273e+01 0 0 0
644 2 2.4610000000000003e+00 4.2625770374269996e+00 2.6787060252796273e+01 0 0 0
646 2 3.6914999999999996e+00 4.9730065436648339e+00 2.6787060252796273e+01 0 0 0
669 2 3.6914999999999996e+00 6.3938655561404980e+00 2.6787060252796273e+01 0 0 0
1057 2 9.8440000000000012e+00 1.2787731112280996e+01 3.3274939747206247e+01 0 0 0
671 2 4.9220000000000006e+00 7.1042950623783341e+00 2.6787060252796273e+01 0 0 0
673 2 4.9220000000000006e+00 4.2625770374269978e+00 2.6787060252796273e+01 0 0 0
675 2 6.1524999999999999e+00 4.9730065436648339e+00 2.6787060252796273e+01 0 0 0
706 2 6.1524999999999999e+00 6.3938655561404980e+00 2.6787060252796273e+01 0 0 0
708 2 7.3830000000000009e+00 7.1042950623783341e+00 2.6787060252796273e+01 0 0 0
710 2 7.3829999999999991e+00 4.2625770374269996e+00 2.6787060252796273e+01 0 0 0
1076 2 1.1074500000000002e+01 1.4919019630994494e+01 3.3274939747206247e+01 0 0 0
712 2 8.6135000000000002e+00 4.9730065436648339e+00 2.6787060252796273e+01 0 0 0
751 2 8.6135000000000002e+00 6.3938655561404980e+00 2.6787060252796273e+01 0 0 0
753 2 9.8440000000000012e+00 7.1042950623783341e+00 2.6787060252796273e+01 0 0 0
755 2 9.8440000000000012e+00 4.2625770374270004e+00 2.6787060252796273e+01 0 0 0
757 2 1.1074500000000002e+01 4.9730065436648339e+00 2.6787060252796273e+01 0 0 0
798 2 1.1074500000000002e+01 6.3938655561404980e+00 2.6787060252796273e+01 0 0 0
1700 1 7.2322977787352993e+00 3.0545402599060694e+00 3.5831676180254433e+01 2 4 -1
634 2 0.0000000000000000e+00 1.1366872099805333e+01 2.6787060252796273e+01 0 0 0
636 2 0.0000000000000000e+00 8.5251540748539991e+00 2.6787060252796273e+01 0 0 0
638 2 1.2305000000000001e+00 9.2355835810918343e+00 2.6787060252796273e+01 0 0 0
661 2 1.2305000000000001e+00 1.0656442593567498e+01 2.6787060252796273e+01 0 0 0
663 2 2.4610000000000003e+00 1.1366872099805333e+01 2.6787060252796273e+01 0 0 0
665 2 2.4610000000000003e+00 8.5251540748539991e+00 2.6787060252796273e+01 0 0 0
667 2 3.6915000000000004e+00 9.2355835810918343e+00 2.6787060252796273e+01 0 0 0
698 2 3.6914999999999996e+00 1.0656442593567499e+01 2.6787060252796273e+01 0 0 0
700 2 4.9220000000000006e+00 1.1366872099805333e+01 2.6787060252796273e+01 0 0 0
702 2 4.9220000000000006e+00 8.5251540748539991e+00 2.6787060252796273e+01 0 0 0
704 2 6.1524999999999999e+00 9.2355835810918343e+00 2.6787060252796273e+01 0 0 0
743 2 6.1524999999999999e+00 1.0656442593567499e+01 2.6787060252796273e+01 0 0 0
745 2 7.3829999999999991e+00 1.1366872099805333e+01 2.6787060252796273e+01 0 0 0
747 2 7.3830000000000009e+00 8.5251540748539991e+00 2.6787060252796273e+01 0 0 0
749 2 8.6134999999999984e+00 9.2355835810918343e+00 2.6787060252796273e+01 0 0 0
790 2 8.6134999999999984e+00 1.0656442593567498e+01 2.6787060252796273e+01 0 0 0
792 2 9.8440000000000012e+00 1.1366872099805333e+01 2.6787060252796273e+01 0 0 0
794 2 9.8440000000000012e+00 8.5251540748539956e+00 2.6787060252796273e+01 0 0 0
796 2 1.1074500000000002e+01 9.2355835810918343e+00 2.6787060252796273e+01 0 0 0
837 2 1.1074500000000002e+01 1.0656442593567498e+01 2.6787060252796273e+01 0 0 0
839 2 1.2304999999999998e+01 1.1366872099805333e+01 2.6787060252796273e+01 0 0 0
1033 2 7.3829999999999991e+00 1.2787731112280996e+01 3.3274939747206247e+01 0 0 0
655 2 0.0000000000000000e+00 1.5629449137232333e+01 2.6787060252796273e+01 0 0 0
657 2 0.0000000000000000e+00 1.2787731112280996e+01 2.6787060252796273e+01 0 0 0
659 2 1.2305000000000001e+00 1.3498160618518829e+01 2.6787060252796273e+01 0 0 0
690 2 1.2305000000000001e+00 1.4919019630994494e+01 2.6787060252796273e+01 0 0 0
692 2 2.4610000000000003e+00 1.5629449137232328e+01 2.6787060252796273e+01 0 0 0
694 2 2.4610000000000003e+00 1.2787731112280996e+01 2.6787060252796273e+01 0 0 0
696 2 3.6915000000000004e+00 1.3498160618518829e+01 2.6787060252796273e+01 0 0 0
735 2 3.6915000000000004e+00 1.4919019630994494e+01 2.6787060252796273e+01 0 0 0
737 2 4.9220000000000006e+00 1.5629449137232333e+01 2.6787060252796273e+01 0 0 0
739 2 4.9220000000000006e+00 1.2787731112280996e+01 2.6787060252796273e+01 0 0 0
741 2 6.1524999999999990e+00 1.3498160618518829e+01 2.6787060252796273e+01 0 0 0
782 2 6.1524999999999990e+00 1.4919019630994494e+01 2.6787060252796273e+01 0 0 0
784 2 7.3829999999999991e+00 1.5629449137232333e+01 2.6787060252796273e+01 0 0 0
786 2 7.3829999999999991e+00 1.2787731112280996e+01 2.6787060252796273e+01 0 0 0
1711 1 2.3439849268571815e+00 1.0838838397064785e+01 2.4595580044619460e+01 3 -1 1
1055 2 8.6135000000000002e+00 1.4919019630994494e+01 3.3274939747206247e+01 0 0 0
788 2 8.6135000000000002e+00 1.3498160618518835e+01 2.6787060252796273e+01 0 0 0
829 2 8.6135000000000002e+00 1.4919019630994494e+01 2.6787060252796273e+01 0 0 0
831 2 9.8440000000000012e+00 1.5629449137232328e+01 2.6787060252796273e+01 0 0 0
833 2 9.8440000000000012e+00 1.2787731112280996e+01 2.6787060252796273e+01 0 0 0
835 2 1.1074500000000002e+01 1.3498160618518829e+01 2.6787060252796273e+01 0 0 0
871 2 1.1074500000000002e+01 1.4919019630994494e+01 2.6787060252796273e+01 0 0 0
617 2 0.0000000000000000e+00 1.4208590124756650e+00 3.0031000000004180e+01 0 0 0
619 2 0.0000000000000000e+00 0.0000000000000000e+00 3.0031000000004180e+01 0 0 0
626 2 1.2305000000000001e+00 3.5521475311891644e+00 3.0031000000004180e+01 0 0 0
628 2 1.2305000000000001e+00 2.1312885187134998e+00 3.0031000000004180e+01 0 0 0
630 2 2.4610000000000003e+00 1.4208590124756650e+00 3.0031000000004180e+01 0 0 0
632 2 2.4610000000000003e+00 0.0000000000000000e+00 3.0031000000004180e+01 0 0 0
647 2 3.6914999999999996e+00 3.5521475311891644e+00 3.0031000000004180e+01 0 0 0
649 2 3.6914999999999996e+00 2.1312885187134998e+00 3.0031000000004180e+01 0 0 0
651 2 4.9220000000000006e+00 1.4208590124756650e+00 3.0031000000004180e+01 0 0 0
653 2 4.9220000000000006e+00 0.0000000000000000e+00 3.0031000000004180e+01 0 0 0
676 2 6.1524999999999999e+00 3.5521475311891644e+00 3.0031000000004180e+01 0 0 0
678 2 6.1524999999999999e+00 2.1312885187134989e+00 3.0031000000004180e+01 0 0 0
680 2 7.3829999999999991e+00 1.4208590124756659e+00 3.0031000000004180e+01 0 0 0
682 2 7.3829999999999991e+00 0.0000000000000000e+00 3.0031000000004180e+01 0 0 0
713 2 8.6134999999999984e+00 3.5521475311891657e+00 3.0031000000004180e+01 0 0 0
715 2 8.6134999999999984e+00 2.1312885187135002e+00 3.0031000000004180e+01 0 0 0
717 2 9.8440000000000012e+00 1.4208590124756659e+00 3.0031000000004180e+01 0 0 0
719 2 9.8440000000000012e+00 0.0000000000000000e+00 3.0031000000004180e+01 0 0 0
758 2 1.1074500000000002e+01 3.5521475311891644e+00 3.0031000000004180e+01 0 0 0
760 2 1.1074500000000002e+01 2.1312885187135002e+00 3.0031000000004180e+01 0 0 0
622 2 0.0000000000000000e+00 5.6834360499026637e+00 3.0031000000004180e+01 0 0 0
624 2 0.0000000000000000e+00 4.2625770374269996e+00 3.0031000000004180e+01 0 0 0
639 2 1.2305000000000001e+00 7.8147245686161639e+00 3.0031000000004180e+01 0 0 0
641 2 1.2305000000000001e+00 6.3938655561404980e+00 3.0031000000004180e+01 0 0 0
643 2 2.4610000000000003e+00 5.6834360499026637e+00 3.0031000000004180e+01 0 0 0
645 2 2.4610000000000003e+00 4.2625770374269996e+00 3.0031000000004180e+01 0 0 0
668 2 3.6914999999999996e+00 7.8147245686161639e+00 3.0031000000004180e+01 0 0 0
670 2 3.6914999999999996e+00 6.3938655561404980e+00 3.0031000000004180e+01 0 0 0
672 2 4.9220000000000006e+00 5.6834360499026637e+00 3.0031000000004180e+01 0 0 0
674 2 4.9220000000000006e+00 4.2625770374269978e+00 3.0031000000004180e+01 0 0 0
705 2 6.1524999999999999e+00 7.8147245686161639e+00 3.0031000000004180e+01 0 0 0
707 2 6.1524999999999999e+00 6.3938655561404980e+00 3.0031000000004180e+01 0 0 0
709 2 7.3829999999999991e+00 5.6834360499026637e+00 3.0031000000004180e+01 0 0 0
711 2 7.3829999999999991e+00 4.2625770374269996e+00 3.0031000000004180e+01 0 0 0
750 2 8.6135000000000002e+00 7.8147245686161639e+00 3.0031000000004180e+01 0 0 0
752 2 8.6135000000000002e+00 6.3938655561404980e+00 3.0031000000004180e+01 0 0 0
754 2 9.8440000000000012e+00 5.6834360499026637e+00 3.0031000000004180e+01 0 0 0
756 2 9.8440000000000012e+00 4.2625770374270004e+00 3.0031000000004180e+01 0 0 0
797 2 1.1074500000000002e+01 7.8147245686161639e+00 3.0031000000004180e+01 0 0 0
799 2 1.1074500000000002e+01 6.3938655561404980e+00 3.0031000000004180e+01 0 0 0
635 2 0.0000000000000000e+00 9.9460130873296642e+00 3.0031000000004180e+01 0 0 0
637 2 0.0000000000000000e+00 8.5251540748539991e+00 3.0031000000004180e+01 0 0 0
660 2 1.2305000000000001e+00 1.2077301606043163e+01 3.0031000000004180e+01 0 0 0
662 2 1.2305000000000001e+00 1.0656442593567498e+01 3.0031000000004180e+01 0 0 0
664 2 2.4610000000000003e+00 9.9460130873296642e+00 3.0031000000004180e+01 0 0 0
666 2 2.4610000000000003e+00 8.5251540748539991e+00 3.0031000000004180e+01 0 0 0
697 2 3.6914999999999996e+00 1.2077301606043163e+01 3.0031000000004180e+01 0 0 0
699 2 3.6914999999999996e+00 1.0656442593567499e+01 3.0031000000004180e+01 0 0 0
701 2 4.9220000000000006e+00 9.9460130873296642e+00 3.0031000000004180e+01 0 0 0
703 2 4.9220000000000006e+00 8.5251540748539991e+00 3.0031000000004180e+01 0 0 0
742 2 6.1524999999999999e+00 1.2077301606043163e+01 3.0031000000004180e+01 0 0 0
744 2 6.1524999999999999e+00 1.0656442593567499e+01 3.0031000000004180e+01 0 0 0
746 2 7.3830000000000009e+00 9.9460130873296642e+00 3.0031000000004180e+01 0 0 0
748 2 7.3830000000000009e+00 8.5251540748539991e+00 3.0031000000004180e+01 0 0 0
789 2 8.6135000000000002e+00 1.2077301606043163e+01 3.0031000000004180e+01 0 0 0
791 2 8.6134999999999984e+00 1.0656442593567498e+01 3.0031000000004180e+01 0 0 0
793 2 9.8440000000000012e+00 9.9460130873296642e+00 3.0031000000004180e+01 0 0 0
795 2 9.8440000000000012e+00 8.5251540748539956e+00 3.0031000000004180e+01 0 0 0
836 2 1.1074500000000002e+01 1.2077301606043163e+01 3.0031000000004180e+01 0 0 0
838 2 1.1074500000000002e+01 1.0656442593567498e+01 3.0031000000004180e+01 0 0 0
656 2 0.0000000000000000e+00 1.4208590124756663e+01 3.0031000000004180e+01 0 0 0
658 2 0.0000000000000000e+00 1.2787731112280996e+01 3.0031000000004180e+01 0 0 0
691 2 1.2305000000000001e+00 1.4919019630994494e+01 3.0031000000004180e+01 0 0 0
693 2 2.4610000000000003e+00 1.4208590124756663e+01 3.0031000000004180e+01 0 0 0
695 2 2.4610000000000003e+00 1.2787731112280996e+01 3.0031000000004180e+01 0 0 0
736 2 3.6915000000000004e+00 1.4919019630994494e+01 3.0031000000004180e+01 0 0 0
738 2 4.9220000000000006e+00 1.4208590124756663e+01 3.0031000000004180e+01 0 0 0
740 2 4.9220000000000006e+00 1.2787731112280996e+01 3.0031000000004180e+01 0 0 0
783 2 6.1524999999999990e+00 1.4919019630994494e+01 3.0031000000004180e+01 0 0 0
785 2 7.3830000000000009e+00 1.4208590124756663e+01 3.0031000000004180e+01 0 0 0
787 2 7.3829999999999991e+00 1.2787731112280996e+01 3.0031000000004180e+01 0 0 0
870 2 1.1074500000000002e+01 1.6339878643470161e+01 3.0031000000004180e+01 0 0 0
834 2 9.8440000000000012e+00 1.2787731112280996e+01 3.0031000000004180e+01 0 0 0
830 2 8.6135000000000002e+00 1.4919019630994494e+01 3.0031000000004180e+01 0 0 0
872 2 1.1074500000000002e+01 1.4919019630994494e+01 3.0031000000004180e+01 0 0 0
832 2 9.8440000000000012e+00 1.4208590124756663e+01 3.0031000000004180e+01 0 0 0
874 2 1.2304999999999998e+01 1.4208590124756658e+01 3.0031000000004180e+01 0 0 0
945 2 0.0000000000000000e+00 2.8417180249513345e+00 3.3274939747206247e+01 0 0 0
946 2 0.0000000000000000e+00 0.0000000000000000e+00 3.3274939747206247e+01 0 0 0
947 2 1.2305000000000001e+00 7.1042950623783474e-01 3.3274939747206247e+01 0 0 0
951 2 1.2305000000000001e+00 2.1312885187134998e+00 3.3274939747206247e+01 0 0 0
952 2 2.4610000000000003e+00 2.8417180249513345e+00 3.3274939747206247e+01 0 0 0
953 2 2.4610000000000003e+00 0.0000000000000000e+00 3.3274939747206247e+01 0 0 0
954 2 3.6915000000000004e+00 7.1042950623783474e-01 3.3274939747206247e+01 0 0 0
962 2 3.6914999999999996e+00 2.1312885187134998e+00 3.3274939747206247e+01 0 0 0
963 2 4.9220000000000006e+00 2.8417180249513332e+00 3.3274939747206247e+01 0 0 0
964 2 4.9220000000000006e+00 0.0000000000000000e+00 3.3274939747206247e+01 0 0 0
965 2 6.1524999999999999e+00 7.1042950623783407e-01 3.3274939747206247e+01 0 0 0
977 2 6.1524999999999999e+00 2.1312885187134989e+00 3.3274939747206247e+01 0 0 0
978 2 7.3829999999999991e+00 2.8417180249513345e+00 3.3274939747206247e+01 0 0 0
979 2 7.3829999999999991e+00 0.0000000000000000e+00 3.3274939747206247e+01 0 0 0
1058 2 1.1074500000000002e+01 1.3498160618518829e+01 3.3274939747206247e+01 0 0 0
980 2 8.6134999999999984e+00 7.1042950623783407e-01 3.3274939747206247e+01 0 0 0
996 2 8.6134999999999984e+00 2.1312885187135002e+00 3.3274939747206247e+01 0 0 0
997 2 9.8440000000000012e+00 2.8417180249513332e+00 3.3274939747206247e+01 0 0 0
998 2 9.8440000000000012e+00 0.0000000000000000e+00 3.3274939747206247e+01 0 0 0
999 2 1.1074500000000002e+01 7.1042950623783330e-01 3.3274939747206247e+01 0 0 0
1019 2 1.1074500000000002e+01 2.1312885187135002e+00 3.3274939747206247e+01 0 0 0
1034 2 8.6135000000000002e+00 1.3498160618518835e+01 3.3274939747206247e+01 0 0 0
948 2 0.0000000000000000e+00 7.1042950623783341e+00 3.3274939747206247e+01 0 0 0
949 2 0.0000000000000000e+00 4.2625770374269996e+00 3.3274939747206247e+01 0 0 0
950 2 1.2305000000000001e+00 4.9730065436648339e+00 3.3274939747206247e+01 0 0 0
958 2 1.2305000000000001e+00 6.3938655561404980e+00 3.3274939747206247e+01 0 0 0
959 2 2.4610000000000003e+00 7.1042950623783341e+00 3.3274939747206247e+01 0 0 0
960 2 2.4610000000000003e+00 4.2625770374269996e+00 3.3274939747206247e+01 0 0 0
961 2 3.6914999999999996e+00 4.9730065436648339e+00 3.3274939747206247e+01 0 0 0
973 2 3.6914999999999996e+00 6.3938655561404980e+00 3.3274939747206247e+01 0 0 0
974 2 4.9220000000000006e+00 7.1042950623783341e+00 3.3274939747206247e+01 0 0 0
975 2 4.9220000000000006e+00 4.2625770374269978e+00 3.3274939747206247e+01 0 0 0
976 2 6.1524999999999999e+00 4.9730065436648339e+00 3.3274939747206247e+01 0 0 0
992 2 6.1524999999999999e+00 6.3938655561404980e+00 3.3274939747206247e+01 0 0 0
993 2 7.3830000000000009e+00 7.1042950623783341e+00 3.3274939747206247e+01 0 0 0
994 2 7.3829999999999991e+00 4.2625770374269996e+00 3.3274939747206247e+01 0 0 0
1056 2 9.8440000000000012e+00 1.5629449137232328e+01 3.3274939747206247e+01 0 0 0
995 2 8.6135000000000002e+00 4.9730065436648339e+00 3.3274939747206247e+01 0 0 0
1015 2 8.6135000000000002e+00 6.3938655561404980e+00 3.3274939747206247e+01 0 0 0
1016 2 9.8440000000000012e+00 7.1042950623783341e+00 3.3274939747206247e+01 0 0 0