LAMMPS data file via write_data, version 16 Mar 2018, timestep = 100000

6736 atoms
2 atom types

0.0000000000000000e+00 4.9219999999999999e+01 xlo xhi
0.0000000000000000e+00 4.9019635930410494e+01 ylo yhi
8.8817124717075657e-01 5.9173828752827930e+01 zlo zhi

Masses

1 18.015
2 12.01

Atoms # atomic

5191 1 4.4567621525954628e+00 1.5086590977030045e+00 1.6062965870150812e+00 1 1 0
100 1 4.8023002529756340e+00 1.7613274575391231e+00 6.4899460606740851e+00 0 0 0
61 1 3.1211450374428744e+00 1.7470965059793324e+00 4.1187284488340712e+00 0 1 0
1782 1 4.5109041622949029e+00 7.3882655588022033e+00 1.8029137612576571e+00 0 1 0
3481 1 9.4479928817041419e+00 1.3309205923697136e+00 6.2323185354050734e+00 0 1 0
2155 1 4.1001240544113449e+00 7.7302969920833222e+00 1.0409347990171204e+01 0 0 0
5071 1 1.9362249286463058e+00 4.2132173228706584e+00 3.9915721910076769e+00 0 1 1
5154 1 3.1434291371020877e+00 1.5127900235827676e+01 1.1158408220461364e+01 1 0 0
1677 1 2.5802433215849572e+00 1.3635486696591476e+01 8.8391574709367582e+00 0 0 1
5131 1 1.1592133162736397e+01 6.0088557274290055e+00 5.5798762711127621e+00 1 1 0
332 1 4.6953346959076088e+00 9.7506955758060609e+00 3.6756896125596139e+00 0 0 0
3225 1 3.5904317250578921e+00 4.9502617916371756e+00 9.4870337066617108e+00 0 0 1
399 1 2.6358529026363762e+00 1.2621550803390635e+00 8.0925973749876796e+00 1 0 0
1401 1 8.5120318977471481e+00 5.5229522407947842e+00 4.4448615306617718e+00 0 0 1
3246 1 1.8846981441862312e-01 4.0359066600556623e+00 1.9384420878974440e+00 0 0 1
5027 1 7.6164649022600228e+00 9.9271149272578114e+00 4.2266471128633292e+00 0 0 1
6659 1 8.3186866870793885e+00 1.2386547843288998e+01 4.4945575169195404e+00 1 0 1
3700 1 2.2889713945854036e+00 1.0953515122815611e+01 7.2521180314886236e+00 1 0 0
3369 1 9.5795012033887215e+00 7.8461053122503097e+00 3.3401081390460092e+00 0 0 1
1748 1 5.0626099417196153e+00 1.2003505674986942e+01 1.5313271674654052e+00 1 1 0
1664 1 3.0718560196355762e+00 1.3997895436551746e+01 2.3568564865769535e+00 0 0 0
1545 1 7.3192158260643971e+00 1.3905165415360342e+01 2.6154019024512758e+00 0 1 1
125 1 9.8127561903290133e+00 1.3433396495977775e+01 7.1869749742556905e+00 0 0 0
1809 1 1.0669541525650988e+01 1.5748712482135915e+01 6.0504473035987294e+00 1 0 0
3056 1 1.1155787958553146e+01 1.1591609985772536e+01 3.6563030805236898e+00 0 0 1
3436 1 9.5323633908564140e+00 1.5657652042664913e-01 1.1507688920683623e+01 1 0 0
5160 1 5.3174218433989182e+00 3.9352383573979948e+00 7.5632569883073213e+00 1 0 1
6565 1 7.7668684711685234e+00 4.8627097848976684e+00 8.0329000201565162e+00 1 1 1
4878 1 7.8562437177777662e+00 4.3064795831996534e+00 2.0292457502652264e+00 0 0 1
542 1 7.1476936865958551e+00 3.2471633896118229e-01 5.7083073319558642e+00 0 0 1
314 1 9.5708065990411910e+00 3.8905252525782767e+00 6.5385039275800727e+00 0 0 0
3516 1 1.2246761290882050e+01 5.1270626631007943e+00 8.2923562583039114e+00 1 0 0
3753 1 3.5390129645473425e+00 7.9093936485695613e+00 5.8638413676601679e+00 1 0 1
81 1 6.6215202341331450e-02 1.0636112383079530e+01 2.6320070007872860e+00 1 0 1
1591 1 1.4033714782119076e+00 6.7613703228944058e+00 4.7491802750513017e+00 0 0 1
3881 1 4.9954139080361317e+00 5.4137922561148377e+00 5.3949513086194356e+00 0 0 1
1833 1 7.0695198997240984e+00 7.0781696881534728e+00 6.2592392305695936e+00 0 0 1
354 1 8.6796631471345833e+00 7.0487214953897208e+00 9.6309828130580932e+00 0 1 0
505 1 7.1482620863637099e+00 1.1766085960191889e+01 1.0077787469825987e+01 0 0 0
424 1 1.1803109034058750e+01 8.3118321840636504e+00 7.2238197589710555e+00 0 0 1
3754 1 1.1425041100256442e+01 6.5403893026396149e+00 1.0876555130272765e+01 0 0 0
6614 1 3.2427435181780848e+00 1.2016978380067703e+01 4.4005267861854138e+00 1 -1 1
1874 1 1.6246596357008043e+00 9.7469906408208615e+00 1.0728739369479451e+01 0 0 0
3150 1 5.1256817343082064e+00 4.8531825226796750e+00 2.1993299415114409e+00 0 0 0
2084 1 7.6323165286091097e+00 9.7382141842440024e+00 6.8072844103565391e+00 1 0 0
277 1 8.5921712323116299e+00 9.7654449303071775e+00 1.1813055892097392e+01 0 0 0
3207 1 8.6523867653435982e-01 5.6197037146699484e+00 8.7969997446402424e+00 1 1 1
3742 1 4.8854232561241435e+00 9.0885793784871929e+00 8.1587608359066159e+00 0 1 1
5504 1 9.5803752639254665e+00 9.5226407327111673e+00 8.6401592204024755e+00 0 0 0
1459 1 1.6095115316208872e+00 7.1213237654118116e+00 1.7526088406921079e+00 1 0 0
1574 1 7.5813268937146183e-01 1.4943708286854202e+01 3.5269788489049669e+00 0 0 0
4917 1 1.2888395111143580e+00 1.2526003365250743e+01 1.2152472110890146e+01 1 0 1
3519 1 1.2458456922087597e+00 3.3019578888414491e+00 6.7138416366715665e+00 1 0 0
1919 1 4.2232705383283546e+00 1.3577328814753203e+01 6.3267631181569293e+00 1 1 1
5173 1 6.6101930503445558e+00 1.2978422158661406e+01 6.9951882375622443e+00 0 -1 0
1696 1 1.1601513211119228e+01 1.1202395997757453e+01 9.5348249292670939e+00 1 0 0
4659 1 1.1059615747909284e+01 2.5967157484198089e-01 7.7097122788850667e+00 0 0 0
2980 1 9.5757099388085187e+00 2.1410974242424068e+00 1.2505815751506060e+00 0 1 0
3460 1 2.2896501840628267e+00 2.8295756386465101e+00 1.0530828667770189e+01 1 0 1
1959 1 1.0763793109438552e+01 1.6075543188525465e+01 1.0315535584039745e+01 1 0 0
1543 1 7.1304163471147310e+00 2.5999994066593581e+00 9.9118896965961074e+00 0 0 1
6541 1 7.8758379347358662e+00 9.6431595838548727e+00 1.0865175930870026e+00 1 1 1
3391 1 6.0249449290836683e+00 1.4623502161841889e+01 1.0794542297241737e+01 1 -1 1
423 1 9.7715137827420850e+00 2.8131638778091483e+00 1.0814796784036171e+01 0 1 1
2063 1 9.5613190435810012e+00 1.3350753919545918e+01 1.0240901849747429e+01 0 1 0
5033 1 5.8060564185273789e+00 4.4288984404935707e+00 1.1345306176392361e+01 1 0 1
5436 1 7.4628116903756272e+00 1.5413043793344507e+01 8.6170627629331431e+00 0 1 0
2216 1 1.1693295245270990e+01 2.5163952568145151e+00 9.1198685625057809e+00 0 1 0
3672 1 4.4072689940232008e+00 1.1886172497712877e+00 1.1510096665781383e+01 1 1 0
3100 1 3.9949872901315557e+00 1.1543243408217862e+01 9.9666266578687992e+00 0 0 1
5119 1 3.4934446593987545e-01 1.2500764515506576e+01 4.9867973859764234e+00 0 0 0
6633 1 4.4358441064200278e+00 1.6133900500245950e+01 5.1530551933292346e+00 1 1 1
5347 1 1.0371073153570881e+01 7.2824065545902572e-01 3.7259469865020001e+00 1 1 0
60 1 6.8418686282976973e+00 7.1965671037655206e+00 1.1338737332384094e+01 0 0 0
3106 1 5.1742788142947322e+00 1.5736003998047011e+01 2.6942610486120779e+00 1 1 1
3657 1 7.5835734827187729e-01 8.6683333379046434e+00 7.8948285352972958e+00 0 0 0
214 1 9.2458433473876003e+00 1.5977036990309596e+01 3.4291870484785005e+00 0 0 0
1770 1 1.5987877008374594e+00 5.5529946210080618e+00 1.4978939040286575e+01 1 0 0
1886 1 1.4712350490660071e+00 4.5868811553941375e+00 1.7450348186017631e+01 0 1 1
1933 1 6.5050949955279647e+00 1.0101749341552850e+01 2.0702900317176674e+01 0 1 0
5301 1 1.6632714132466446e+00 2.4230629621687605e+00 2.3442780240719603e+01 1 1 0
3628 1 2.1170421209692583e+00 3.0956338051194416e+00 1.3702227515581299e+01 1 1 0
3433 1 7.9227211655026037e+00 3.1026663400538612e+00 1.4076228284784397e+01 0 0 1
5355 1 1.0265518397550171e+01 2.6347912885674407e-01 2.3657435357454645e+01 0 1 1
4846 1 7.7748187754681002e+00 5.9416678797928419e+00 1.3971923864223193e+01 0 0 1
3674 1 4.6275505375112838e+00 7.0335451262054471e+00 1.6599001118062951e+01 1 0 0
1769 1 4.8491333107419257e+00 5.0983806938102614e+00 1.4154526712684438e+01 0 0 0
94 1 1.0395059625695430e+01 2.2990421147891609e+00 1.4502749857070853e+01 0 0 1
288 1 7.4060157560881006e+00 7.9380740214482657e+00 1.5613093427097178e+01 0 0 0
1731 1 3.7224580756907693e+00 1.0165364534734737e+01 1.8230141863374950e+01 0 0 0
460 1 1.1391990623984304e+01 4.1189495521721629e+00 1.2842180822186622e+01 0 0 0
2998 1 1.4155534708778710e+00 1.2475564522040724e+01 2.2850002526029233e+01 0 0 1
2190 1 3.6640886281210312e+00 1.0578216495306979e+01 1.4911161195529802e+01 0 0 0
6335 1 8.2393900239079407e+00 1.1754812099872337e+01 1.5599653237573470e+01 1 0 1
255 1 1.0275916684406413e+01 6.4256921977691901e+00 1.3692820795216132e+01 0 1 0
1760 1 7.9017010542863462e+00 1.3577421269488495e+01 1.3230834448718671e+01 0 1 0
198 1 1.1644191804002778e+01 7.9901014810783293e+00 2.3787604647450479e+01 0 0 1
1962 1 8.6492231211395190e+00 2.5769605203520776e+00 2.3227373705109834e+01 0 1 0
3587 1 5.7042935603462275e-01 8.4007307714462627e+00 1.5966811760943385e+01 0 0 1
180 1 7.2587133026779371e+00 1.4846723382881970e+01 2.2333582315179104e+01 0 0 0
1841 1 6.1826866626365473e-01 1.4100293986617080e+01 1.5454336667315479e+01 0 1 1
175 1 1.1118264299102455e+01 1.0079176363202899e+01 1.3076525102245947e+01 0 0 0
4752 1 1.2067841259674767e+01 6.6302473769497885e+00 1.6004300844822048e+01 0 0 1
3622 1 8.8186192907757877e-01 2.0912650245436621e+00 2.0818965436116041e+01 1 1 0
5316 1 4.3686067131368143e+00 2.4322635958423047e+00 1.5455437551390670e+01 1 1 1
2153 1 2.5285612639083137e+00 2.3109082009841675e+00 1.7307703526265591e+01 0 1 0
1675 1 7.0376857471740877e+00 2.3920645216779857e+00 1.6865981210185463e+01 0 0 1
5371 1 6.2136202662759770e+00 4.9912045135172622e+00 1.7742291708501735e+01 1 1 0
5372 1 1.0880085777958968e+01 2.7788657089934978e+00 1.7294705339905544e+01 0 1 0
3654 1 2.0893166143135451e+00 7.2542561479177960e+00 1.8018972104819952e+01 0 0 0
3704 1 3.6089034004068949e+00 4.3723261058896590e+00 2.1057911757438376e+01 1 0 0
3482 1 3.6321138090606571e+00 1.7052208622146789e+00 1.9494473049423295e+01 1 0 0
5426 1 4.7942824287223420e+00 8.0390361971392661e+00 2.0001514955046556e+01 1 1 0
5549 1 5.9710622952256314e+00 5.5235288090002754e+00 2.0358561514371406e+01 1 1 0
3931 1 9.9285796201045855e+00 7.8583329984869730e+00 1.9495759257013212e+01 1 0 0
2096 1 9.4895541656088618e+00 3.4794220014395085e+00 2.0841436639255207e+01 1 0 0
5012 1 1.1024014657003130e+01 5.2676762764572702e+00 1.8277202871627946e+01 0 1 1
5538 1 1.1696362697083251e+00 5.8777764000684289e+00 2.1095227435055570e+01 1 0 0
3626 1 4.1012859817141961e-01 1.1003746553973460e+01 1.9037742039476967e+01 -1 0 0
443 1 5.7249391864164840e+00 1.1997227712507849e+01 1.6436624899495090e+01 0 0 0
3638 1 3.7175082362745240e+00 1.3971046827779587e+01 2.0439604074554847e+01 1 0 0
2968 1 5.2685178025295940e+00 1.2292298690405113e+01 1.9457644417098539e+01 0 0 1
1995 1 9.0237198162721146e+00 9.3300047585822146e+00 1.7236880046255099e+01 0 -1 0
1817 1 9.4814870212111160e+00 1.4262569357226415e+01 1.6418337917991050e+01 0 1 1
3875 1 3.5573490057033150e+00 1.4205780769005447e+01 1.4278175469746266e+01 0 0 1
1605 1 6.2546850410509514e-01 1.6177216634632352e+01 1.7231603011441941e+01 1 1 1
5577 1 6.9353316002498886e+00 1.0720012969119191e+01 2.3643466167835243e+01 0 0 0
3741 1 5.2516531715717674e-01 8.8123421358545571e+00 1.3089376872448666e+01 0 0 0
5377 1 5.1204602272915558e+00 1.4506189874607976e+01 1.6511078068237065e+01 1 0 0
360 1 3.5437030536627283e+00 1.5970572563899330e+01 1.8682620844655322e+01 0 0 0
458 1 8.7607118001235911e+00 1.5617903537188832e+01 1.8774500450423620e+01 0 1 0
132 1 1.1514625985374115e+01 1.5852032048949198e+01 1.8674664512329695e+01 0 0 0
3448 1 1.0141289769603572e+01 1.2243366632783779e+01 2.0817442480736027e+01 0 0 0
3930 1 8.9465484476499384e+00 1.8906879800329215e+00 1.8824031087409143e+01 0 1 0
1869 1 1.2217727526323541e+00 8.8381376248276950e+00 2.0249405808652362e+01 0 0 0
3412 1 3.1999735830680147e+00 8.0509213600051552e+00 1.3664406313626092e+01 1 0 1
3373 1 4.5095680840915238e+00 1.4188467534467078e+01 2.3310636030533558e+01 1 -1 0
102 1 1.0718966754556149e+01 1.2824606846502574e+01 2.3373867170001301e+01 0 0 0
6411 1 9.4124499330529132e-01 1.6137763950759255e-02 1.6649301477277543e+01 0 1 1
5478 1 1.5896195003931873e-01 1.5347246138225717e+01 2.0067457024046568e+01 1 1 0
3820 1 4.1032118417909942e+00 1.1483190009899353e+01 2.4049659188446899e+01 0 0 0
238 1 8.5179870797703785e+00 5.9713322288777331e+00 2.1106652377484473e+01 0 0 0
467 1 1.0876759893502079e+01 1.2890319985372411e+01 1.2967164137849069e+01 0 0 0
5505 1 9.2574418148778417e+00 9.6623945431015397e+00 2.1318598397968390e+01 1 0 0
93 1 7.7660189803248461e+00 1.3538173038290061e+01 2.0145849020907583e+01 0 0 0
3728 1 1.1666071054494427e+01 1.4527548087625590e+01 1.5081606078593300e+01 0 0 0
3404 1 6.6365479621951637e+00 9.8704746868332744e+00 1.3672932419685790e+01 1 0 1
3368 1 3.9589695487711691e+00 3.6783719827554431e+00 2.3555374391038121e+01 1 0 1
2074 1 4.7324631683919964e+00 1.2103998381231609e+01 1.2719389930296630e+01 0 1 0
3846 1 1.3675889193020907e+00 1.3006411865719103e+01 2.0096260054081924e+01 1 0 0
310 1 6.2580633665356453e+00 8.4184054041739242e-01 1.3502316309485700e+01 0 0 0
1800 1 1.1327053535405806e+01 9.2620532024910105e+00 1.5706333041932348e+01 0 0 0
5333 1 1.0354601477472782e+00 1.1250953365475512e+01 1.6277116450372827e+01 1 -1 0
3703 1 7.8806215388080778e+00 1.6126907832632341e+01 1.5211060502403756e+01 0 0 1
2187 1 7.2205935707295987e+00 6.4540191606229671e+00 2.3656755779723984e+01 1 1 1
1569 1 4.3927743551154350e+00 6.4298537861608454e+00 2.3889728358528718e+01 0 0 1
3492 1 3.1390914736614404e+00 9.3822850717054482e+00 2.2495653440928358e+01 0 1 0
138 1 3.3484222209080566e-01 1.0004165807046418e+01 2.3471827337728698e+01 0 0 0
2033 1 1.1987822541355529e+01 1.0600457016986738e+01 2.4166595042690190e+01 1 0 0
616 2 0.0000000000000000e+00 2.8417180249513345e+00 2.6818807006679052e+01 0 0 0
618 2 0.0000000000000000e+00 0.0000000000000000e+00 2.6818807006679052e+01 0 0 0
620 2 1.2305000000000001e+00 7.1042950623783474e-01 2.6818807006679052e+01 0 0 0
627 2 1.2305000000000001e+00 2.1312885187134998e+00 2.6818807006679052e+01 0 0 0
629 2 2.4610000000000003e+00 2.8417180249513345e+00 2.6818807006679052e+01 0 0 0
631 2 2.4610000000000003e+00 0.0000000000000000e+00 2.6818807006679052e+01 0 0 0
633 2 3.6915000000000004e+00 7.1042950623783474e-01 2.6818807006679052e+01 0 0 0
648 2 3.6914999999999996e+00 2.1312885187134998e+00 2.6818807006679052e+01 0 0 0
650 2 4.9220000000000006e+00 2.8417180249513332e+00 2.6818807006679052e+01 0 0 0
652 2 4.9220000000000006e+00 0.0000000000000000e+00 2.6818807006679052e+01 0 0 0
654 2 6.1524999999999999e+00 7.1042950623783407e-01 2.6818807006679052e+01 0 0 0
677 2 6.1524999999999999e+00 2.1312885187134989e+00 2.6818807006679052e+01 0 0 0
679 2 7.3829999999999991e+00 2.8417180249513345e+00 2.6818807006679052e+01 0 0 0
681 2 7.3829999999999991e+00 0.0000000000000000e+00 2.6818807006679052e+01 0 0 0
683 2 8.6134999999999984e+00 7.1042950623783407e-01 2.6818807006679052e+01 0 0 0
714 2 8.6134999999999984e+00 2.1312885187135002e+00 2.6818807006679052e+01 0 0 0
716 2 9.8440000000000012e+00 2.8417180249513332e+00 2.6818807006679052e+01 0 0 0
718 2 9.8440000000000012e+00 0.0000000000000000e+00 2.6818807006679052e+01 0 0 0
720 2 1.1074500000000002e+01 7.1042950623783330e-01 2.6818807006679052e+01 0 0 0
759 2 1.1074500000000002e+01 2.1312885187135002e+00 2.6818807006679052e+01 0 0 0
5656 1 4.9468634080750018e+00 1.3651367500027028e+01 3.5569903753656050e+01 0 0 0
621 2 0.0000000000000000e+00 7.1042950623783341e+00 2.6818807006679052e+01 0 0 0
623 2 0.0000000000000000e+00 4.2625770374269996e+00 2.6818807006679052e+01 0 0 0
625 2 1.2305000000000001e+00 4.9730065436648339e+00 2.6818807006679052e+01 0 0 0
640 2 1.2305000000000001e+00 6.3938655561404980e+00 2.6818807006679052e+01 0 0 0
642 2 2.4610000000000003e+00 7.1042950623783341e+00 2.6818807006679052e+01 0 0 0
644 2 2.4610000000000003e+00 4.2625770374269996e+00 2.6818807006679052e+01 0 0 0
646 2 3.6914999999999996e+00 4.9730065436648339e+00 2.6818807006679052e+01 0 0 0
669 2 3.6914999999999996e+00 6.3938655561404980e+00 2.6818807006679052e+01 0 0 0
671 2 4.9220000000000006e+00 7.1042950623783341e+00 2.6818807006679052e+01 0 0 0
673 2 4.9220000000000006e+00 4.2625770374269978e+00 2.6818807006679052e+01 0 0 0
675 2 6.1524999999999999e+00 4.9730065436648339e+00 2.6818807006679052e+01 0 0 0
706 2 6.1524999999999999e+00 6.3938655561404980e+00 2.6818807006679052e+01 0 0 0
708 2 7.3830000000000009e+00 7.1042950623783341e+00 2.6818807006679052e+01 0 0 0
710 2 7.3829999999999991e+00 4.2625770374269996e+00 2.6818807006679052e+01 0 0 0
712 2 8.6135000000000002e+00 4.9730065436648339e+00 2.6818807006679052e+01 0 0 0
751 2 8.6135000000000002e+00 6.3938655561404980e+00 2.6818807006679052e+01 0 0 0
753 2 9.8440000000000012e+00 7.1042950623783341e+00 2.6818807006679052e+01 0 0 0
755 2 9.8440000000000012e+00 4.2625770374270004e+00 2.6818807006679052e+01 0 0 0
757 2 1.1074500000000002e+01 4.9730065436648339e+00 2.6818807006679052e+01 0 0 0
798 2 1.1074500000000002e+01 6.3938655561404980e+00 2.6818807006679052e+01 0 0 0
634 2 0.0000000000000000e+00 1.1366872099805333e+01 2.6818807006679052e+01 0 0 0
636 2 0.0000000000000000e+00 8.5251540748539991e+00 2.6818807006679052e+01 0 0 0
638 2 1.2305000000000001e+00 9.2355835810918343e+00 2.6818807006679052e+01 0 0 0
661 2 1.2305000000000001e+00 1.0656442593567498e+01 2.6818807006679052e+01 0 0 0
663 2 2.4610000000000003e+00 1.1366872099805333e+01 2.6818807006679052e+01 0 0 0
665 2 2.4610000000000003e+00 8.5251540748539991e+00 2.6818807006679052e+01 0 0 0
667 2 3.6915000000000004e+00 9.2355835810918343e+00 2.6818807006679052e+01 0 0 0
698 2 3.6914999999999996e+00 1.0656442593567499e+01 2.6818807006679052e+01 0 0 0
700 2 4.9220000000000006e+00 1.1366872099805333e+01 2.6818807006679052e+01 0 0 0
702 2 4.9220000000000006e+00 8.5251540748539991e+00 2.6818807006679052e+01 0 0 0
704 2 6.1524999999999999e+00 9.2355835810918343e+00 2.6818807006679052e+01 0 0 0
743 2 6.1524999999999999e+00 1.0656442593567499e+01 2.6818807006679052e+01 0 0 0
745 2 7.3829999999999991e+00 1.1366872099805333e+01 2.6818807006679052e+01 0 0 0
747 2 7.3830000000000009e+00 8.5251540748539991e+00 2.6818807006679052e+01 0 0 0
1034 2 8.6135000000000002e+00 1.3498160618518835e+01 3.3243192993316697e+01 0 0 0
749 2 8.6134999999999984e+00 9.2355835810918343e+00 2.6818807006679052e+01 0 0 0
790 2 8.6134999999999984e+00 1.0656442593567498e+01 2.6818807006679052e+01 0 0 0
792 2 9.8440000000000012e+00 1.1366872099805333e+01 2.6818807006679052e+01 0 0 0
794 2 9.8440000000000012e+00 8.5251540748539956e+00 2.6818807006679052e+01 0 0 0
796 2 1.1074500000000002e+01 9.2355835810918343e+00 2.6818807006679052e+01 0 0 0
837 2 1.1074500000000002e+01 1.0656442593567498e+01 2.6818807006679052e+01 0 0 0
839 2 1.2304999999999998e+01 1.1366872099805333e+01 2.6818807006679052e+01 0 0 0
655 2 0.0000000000000000e+00 1.5629449137232333e+01 2.6818807006679052e+01 0 0 0
657 2 0.0000000000000000e+00 1.2787731112280996e+01 2.6818807006679052e+01 0 0 0
659 2 1.2305000000000001e+00 1.3498160618518829e+01 2.6818807006679052e+01 0 0 0
690 2 1.2305000000000001e+00 1.4919019630994494e+01 2.6818807006679052e+01 0 0 0
692 2 2.4610000000000003e+00 1.5629449137232328e+01 2.6818807006679052e+01 0 0 0
694 2 2.4610000000000003e+00 1.2787731112280996e+01 2.6818807006679052e+01 0 0 0
696 2 3.6915000000000004e+00 1.3498160618518829e+01 2.6818807006679052e+01 0 0 0
735 2 3.6915000000000004e+00 1.4919019630994494e+01 2.6818807006679052e+01 0 0 0
1056 2 9.8440000000000012e+00 1.5629449137232328e+01 3.3243192993316697e+01 0 0 0
1057 2 9.8440000000000012e+00 1.2787731112280996e+01 3.3243192993316697e+01 0 0 0
737 2 4.9220000000000006e+00 1.5629449137232333e+01 2.6818807006679052e+01 0 0 0
739 2 4.9220000000000006e+00 1.2787731112280996e+01 2.6818807006679052e+01 0 0 0
741 2 6.1524999999999990e+00 1.3498160618518829e+01 2.6818807006679052e+01 0 0 0
782 2 6.1524999999999990e+00 1.4919019630994494e+01 2.6818807006679052e+01 0 0 0
784 2 7.3829999999999991e+00 1.5629449137232333e+01 2.6818807006679052e+01 0 0 0
786 2 7.3829999999999991e+00 1.2787731112280996e+01 2.6818807006679052e+01 0 0 0
788 2 8.6135000000000002e+00 1.3498160618518835e+01 2.6818807006679052e+01 0 0 0
829 2 8.6135000000000002e+00 1.4919019630994494e+01 2.6818807006679052e+01 0 0 0
831 2 9.8440000000000012e+00 1.5629449137232328e+01 2.6818807006679052e+01 0 0 0
833 2 9.8440000000000012e+00 1.2787731112280996e+01 2.6818807006679052e+01 0 0 0
835 2 1.1074500000000002e+01 1.3498160618518829e+01 2.6818807006679052e+01 0 0 0
871 2 1.1074500000000002e+01 1.4919019630994494e+01 2.6818807006679052e+01 0 0 0
617 2 0.0000000000000000e+00 1.4208590124756650e+00 3.0030999999999509e+01 0 0 0
619 2 0.0000000000000000e+00 0.0000000000000000e+00 3.0030999999999509e+01 0 0 0
626 2 1.2305000000000001e+00 3.5521475311891644e+00 3.0030999999999509e+01 0 0 0
628 2 1.2305000000000001e+00 2.1312885187134998e+00 3.0030999999999509e+01 0 0 0
630 2 2.4610000000000003e+00 1.4208590124756650e+00 3.0030999999999509e+01 0 0 0
632 2 2.4610000000000003e+00 0.0000000000000000e+00 3.0030999999999509e+01 0 0 0
647 2 3.6914999999999996e+00 3.5521475311891644e+00 3.0030999999999509e+01 0 0 0
649 2 3.6914999999999996e+00 2.1312885187134998e+00 3.0030999999999509e+01 0 0 0
651 2 4.9220000000000006e+00 1.4208590124756650e+00 3.0030999999999509e+01 0 0 0
653 2 4.9220000000000006e+00 0.0000000000000000e+00 3.0030999999999509e+01 0 0 0
676 2 6.1524999999999999e+00 3.5521475311891644e+00 3.0030999999999509e+01 0 0 0
678 2 6.1524999999999999e+00 2.1312885187134989e+00 3.0030999999999509e+01 0 0 0
680 2 7.3829999999999991e+00 1.4208590124756659e+00 3.0030999999999509e+01 0 0 0
682 2 7.3829999999999991e+00 0.0000000000000000e+00 3.0030999999999509e+01 0 0 0
713 2 8.6134999999999984e+00 3.5521475311891657e+00 3.0030999999999509e+01 0 0 0
715 2 8.6134999999999984e+00 2.1312885187135002e+00 3.0030999999999509e+01 0 0 0
717 2 9.8440000000000012e+00 1.4208590124756659e+00 3.0030999999999509e+01 0 0 0
719 2 9.8440000000000012e+00 0.0000000000000000e+00 3.0030999999999509e+01 0 0 0
758 2 1.1074500000000002e+01 3.5521475311891644e+00 3.0030999999999509e+01 0 0 0
760 2 1.1074500000000002e+01 2.1312885187135002e+00 3.0030999999999509e+01 0 0 0
622 2 0.0000000000000000e+00 5.6834360499026637e+00 3.0030999999999509e+01 0 0 0
624 2 0.0000000000000000e+00 4.2625770374269996e+00 3.0030999999999509e+01 0 0 0
639 2 1.2305000000000001e+00 7.8147245686161639e+00 3.0030999999999509e+01 0 0 0
641 2 1.2305000000000001e+00 6.3938655561404980e+00 3.0030999999999509e+01 0 0 0
643 2 2.4610000000000003e+00 5.6834360499026637e+00 3.0030999999999509e+01 0 0 0
645 2 2.4610000000000003e+00 4.2625770374269996e+00 3.0030999999999509e+01 0 0 0
668 2 3.6914999999999996e+00 7.8147245686161639e+00 3.0030999999999509e+01 0 0 0
670 2 3.6914999999999996e+00 6.3938655561404980e+00 3.0030999999999509e+01 0 0 0
672 2 4.9220000000000006e+00 5.6834360499026637e+00 3.0030999999999509e+01 0 0 0
674 2 4.9220000000000006e+00 4.2625770374269978e+00 3.0030999999999509e+01 0 0 0
705 2 6.1524999999999999e+00 7.8147245686161639e+00 3.0030999999999509e+01 0 0 0
707 2 6.1524999999999999e+00 6.3938655561404980e+00 3.0030999999999509e+01 0 0 0
709 2 7.3829999999999991e+00 5.6834360499026637e+00 3.0030999999999509e+01 0 0 0
711 2 7.3829999999999991e+00 4.2625770374269996e+00 3.0030999999999509e+01 0 0 0
750 2 8.6135000000000002e+00 7.8147245686161639e+00 3.0030999999999509e+01 0 0 0
752 2 8.6135000000000002e+00 6.3938655561404980e+00 3.0030999999999509e+01 0 0 0
754 2 9.8440000000000012e+00 5.6834360499026637e+00 3.0030999999999509e+01 0 0 0
756 2 9.8440000000000012e+00 4.2625770374270004e+00 3.0030999999999509e+01 0 0 0
797 2 1.1074500000000002e+01 7.8147245686161639e+00 3.0030999999999509e+01 0 0 0
799 2 1.1074500000000002e+01 6.3938655561404980e+00 3.0030999999999509e+01 0 0 0
635 2 0.0000000000000000e+00 9.9460130873296642e+00 3.0030999999999509e+01 0 0 0
637 2 0.0000000000000000e+00 8.5251540748539991e+00 3.0030999999999509e+01 0 0 0
660 2 1.2305000000000001e+00 1.2077301606043163e+01 3.0030999999999509e+01 0 0 0
662 2 1.2305000000000001e+00 1.0656442593567498e+01 3.0030999999999509e+01 0 0 0
664 2 2.4610000000000003e+00 9.9460130873296642e+00 3.0030999999999509e+01 0 0 0
666 2 2.4610000000000003e+00 8.5251540748539991e+00 3.0030999999999509e+01 0 0 0
697 2 3.6914999999999996e+00 1.2077301606043163e+01 3.0030999999999509e+01 0 0 0
699 2 3.6914999999999996e+00 1.0656442593567499e+01 3.0030999999999509e+01 0 0 0
701 2 4.9220000000000006e+00 9.9460130873296642e+00 3.0030999999999509e+01 0 0 0
703 2 4.9220000000000006e+00 8.5251540748539991e+00 3.0030999999999509e+01 0 0 0
742 2 6.1524999999999999e+00 1.2077301606043163e+01 3.0030999999999509e+01 0 0 0
744 2 6.1524999999999999e+00 1.0656442593567499e+01 3.0030999999999509e+01 0 0 0
746 2 7.3830000000000009e+00 9.9460130873296642e+00 3.0030999999999509e+01 0 0 0
748 2 7.3830000000000009e+00 8.5251540748539991e+00 3.0030999999999509e+01 0 0 0
789 2 8.6135000000000002e+00 1.2077301606043163e+01 3.0030999999999509e+01 0 0 0
791 2 8.6134999999999984e+00 1.0656442593567498e+01 3.0030999999999509e+01 0 0 0
793 2 9.8440000000000012e+00 9.9460130873296642e+00 3.0030999999999509e+01 0 0 0
795 2 9.8440000000000012e+00 8.5251540748539956e+00 3.0030999999999509e+01 0 0 0
836 2 1.1074500000000002e+01 1.2077301606043163e+01 3.0030999999999509e+01 0 0 0
838 2 1.1074500000000002e+01 1.0656442593567498e+01 3.0030999999999509e+01 0 0 0
656 2 0.0000000000000000e+00 1.4208590124756663e+01 3.0030999999999509e+01 0 0 0
658 2 0.0000000000000000e+00 1.2787731112280996e+01 3.0030999999999509e+01 0 0 0
691 2 1.2305000000000001e+00 1.4919019630994494e+01 3.0030999999999509e+01 0 0 0
693 2 2.4610000000000003e+00 1.4208590124756663e+01 3.0030999999999509e+01 0 0 0
695 2 2.4610000000000003e+00 1.2787731112280996e+01 3.0030999999999509e+01 0 0 0
736 2 3.6915000000000004e+00 1.4919019630994494e+01 3.0030999999999509e+01 0 0 0
738 2 4.9220000000000006e+00 1.4208590124756663e+01 3.0030999999999509e+01 0 0 0
740 2 4.9220000000000006e+00 1.2787731112280996e+01 3.0030999999999509e+01 0 0 0
783 2 6.1524999999999990e+00 1.4919019630994494e+01 3.0030999999999509e+01 0 0 0
785 2 7.3830000000000009e+00 1.4208590124756663e+01 3.0030999999999509e+01 0 0 0
787 2 7.3829999999999991e+00 1.2787731112280996e+01 3.0030999999999509e+01 0 0 0
832 2 9.8440000000000012e+00 1.4208590124756663e+01 3.0030999999999509e+01 0 0 0
870 2 1.1074500000000002e+01 1.6339878643470161e+01 3.0030999999999509e+01 0 0 0
830 2 8.6135000000000002e+00 1.4919019630994494e+01 3.0030999999999509e+01 0 0 0
872 2 1.1074500000000002e+01 1.4919019630994494e+01 3.0030999999999509e+01 0 0 0
874 2 1.2304999999999998e+01 1.4208590124756658e+01 3.0030999999999509e+01 0 0 0
834 2 9.8440000000000012e+00 1.2787731112280996e+01 3.0030999999999509e+01 0 0 0
945 2 0.0000000000000000e+00 2.8417180249513345e+00 3.3243192993316697e+01 0 0 0
946 2 0.0000000000000000e+00 0.0000000000000000e+00 3.3243192993316697e+01 0 0 0
947 2 1.2305000000000001e+00 7.1042950623783474e-01 3.3243192993316697e+01 0 0 0
951 2 1.2305000000000001e+00 2.1312885187134998e+00 3.3243192993316697e+01 0 0 0
952 2 2.4610000000000003e+00 2.8417180249513345e+00 3.3243192993316697e+01 0 0 0
953 2 2.4610000000000003e+00 0.0000000000000000e+00 3.3243192993316697e+01 0 0 0
954 2 3.6915000000000004e+00 7.1042950623783474e-01 3.3243192993316697e+01 0 0 0
962 2 3.6914999999999996e+00 2.1312885187134998e+00 3.3243192993316697e+01 0 0 0
963 2 4.9220000000000006e+00 2.8417180249513332e+00 3.3243192993316697e+01 0 0 0
964 2 4.9220000000000006e+00 0.0000000000000000e+00 3.3243192993316697e+01 0 0 0
965 2 6.1524999999999999e+00 7.1042950623783407e-01 3.3243192993316697e+01 0 0 0
977 2 6.1524999999999999e+00 2.1312885187134989e+00 3.3243192993316697e+01 0 0 0
978 2 7.3829999999999991e+00 2.8417180249513345e+00 3.3243192993316697e+01 0 0 0
979 2 7.3829999999999991e+00 0.0000000000000000e+00 3.3243192993316697e+01 0 0 0
390 1 1.8729479807715435e+00 7.4536715522227555e+00 2.4388284793121343e+01 0 0 0
980 2 8.6134999999999984e+00 7.1042950623783407e-01 3.3243192993316697e+01 0 0 0
996 2 8.6134999999999984e+00 2.1312885187135002e+00 3.3243192993316697e+01 0 0 0
997 2 9.8440000000000012e+00 2.8417180249513332e+00 3.3243192993316697e+01 0 0 0
998 2 9.8440000000000012e+00 0.0000000000000000e+00 3.3243192993316697e+01 0 0 0
999 2 1.1074500000000002e+01 7.1042950623783330e-01 3.3243192993316697e+01 0 0 0
1019 2 1.1074500000000002e+01 2.1312885187135002e+00 3.3243192993316697e+01 0 0 0
948 2 0.0000000000000000e+00 7.1042950623783341e+00 3.3243192993316697e+01 0 0 0
949 2 0.0000000000000000e+00 4.2625770374269996e+00 3.3243192993316697e+01 0 0 0
950 2 1.2305000000000001e+00 4.9730065436648339e+00 3.3243192993316697e+01 0 0 0
958 2 1.2305000000000001e+00 6.3938655561404980e+00 3.3243192993316697e+01 0 0 0
959 2 2.4610000000000003e+00 7.1042950623783341e+00 3.3243192993316697e+01 0 0 0
960 2 2.4610000000000003e+00 4.2625770374269996e+00 3.3243192993316697e+01 0 0 0
961 2 3.6914999999999996e+00 4.9730065436648339e+00 3.3243192993316697e+01 0 0 0
973 2 3.6914999999999996e+00 6.3938655561404980e+00 3.3243192993316697e+01 0 0 0
1076 2 1.1074500000000002e+01 1.4919019630994494e+01 3.3243192993316697e+01 0 0 0
974 2 4.9220000000000006e+00 7.1042950623783341e+00 3.3243192993316697e+01 0 0 0
975 2 4.9220000000000006e+00 4.2625770374269978e+00 3.3243192993316697e+01 0 0 0
976 2 6.1524999999999999e+00 4.9730065436648339e+00 3.3243192993316697e+01 0 0 0
992 2 6.1524999999999999e+00 6.3938655561404980e+00 3.3243192993316697e+01 0 0 0
993 2 7.3830000000000009e+00 7.1042950623783341e+00 3.3243192993316697e+01 0 0 0
994 2 7.3829999999999991e+00 4.2625770374269996e+00 3.3243192993316697e+01 0 0 0
995 2 8.6135000000000002e+00 4.9730065436648339e+00 3.3243192993316697e+01 0 0 0
1015 2 8.6135000000000002e+00 6.3938655561404980e+00 3.3243192993316697e+01 0 0 0
1016 2 9.8440000000000012e+00 7.1042950623783341e+00 3.3243192993316697e+01 0 0 0
1017 2 9.8440000000000012e+00 4.2625770374270004e+00 3.3243192993316697e+01 0 0 0
1018 2 1.1074500000000002e+01 4.9730065436648339e+00 3.3243192993316697e+01 0 0 0
1039 2 1.1074500000000002e+01 6.3938655561404980e+00 3.3243192993316697e+01 0 0 0
955 2 0.0000000000000000e+00 1.1366872099805333e+01 3.3243192993316697e+01 0 0 0