LAMMPS data file via write_data, version 16 Mar 2018, timestep = 8000000

6328 atoms
2 atom types

0.0000000000000000e+00 4.9219999999999999e+01 xlo xhi
0.0000000000000000e+00 4.9019635930410494e+01 ylo yhi
2.3467256899727751e+00 5.7715274310029784e+01 zlo zhi

Masses

1 18.015
2 12.01

Atoms # atomic

1356 1 4.0917193493864472e+00 8.8880606279082275e-01 3.4933560561201409e+00 1 0 1
6105 1 5.1247399238260263e+00 7.9074773318906155e+00 2.9667972274366941e+00 2 1 0
5989 1 7.7827154329700656e+00 2.9622281192118129e+00 3.8491432379059147e+00 3 -1 1
5295 1 9.1285576483885524e+00 1.0761150238937660e+00 2.4600314899876636e+00 0 0 1
2862 1 1.0162317179138118e+00 9.8672465260087190e+00 2.7288874281900970e+00 0 2 1
135 1 1.1416936738125266e+01 1.5312241828752251e+00 3.4533053370090503e+00 -5 0 0
3662 1 4.1615353541223454e+00 5.4086509618790481e+00 3.7976794983582685e+00 -3 3 1
6134 1 5.2308074836953589e+00 3.1332050130365316e+00 2.5059217268869234e+00 1 2 1
2000 1 8.6103671741025778e+00 1.0007869359267799e+01 2.7333140273843570e+00 3 -3 0
5241 1 7.5824844864063747e+00 7.8085537008935324e+00 3.9507901462789619e+00 0 4 1
4600 1 1.1291235806500758e+01 5.8132439542308569e+00 3.5700214182854517e+00 -4 1 1
2942 1 1.1162769157622821e+01 5.8552999364257134e+00 1.3713297029887446e+01 2 0 1
1807 1 1.1498516432747454e+01 1.0246722593075528e+01 1.3703192310966950e+01 2 1 0
3717 1 3.3262203448837004e+00 1.0310989598727200e+01 1.3490266889925753e+01 3 0 1
302 1 3.7872426486144812e+00 1.0125248226057288e+01 3.7695742710673863e+00 2 2 0
4455 1 7.6189144207230008e-01 1.0251308237820844e+01 1.4809790571501786e+01 1 -4 1
1790 1 1.1137935607717708e+01 1.0506529256382306e+01 3.4515572380269859e+00 0 -3 1
3600 1 2.4694874437729983e+00 2.7809476650998066e+00 7.5065416481172011e+00 2 5 0
251 1 3.6676048306947493e+00 9.2589926953846624e-01 6.2329460607409679e+00 3 0 0
1329 1 3.9351607182382103e-01 3.3283796056892450e+00 3.6701396386926124e+00 2 4 1
422 1 7.6392756087685720e+00 2.9077271303165957e+00 6.4751860726025665e+00 -4 1 1
1889 1 6.1805806692974423e+00 9.6452735295304770e-01 7.3549772917973977e+00 -1 1 0
6316 1 1.1584557183944254e+01 1.1443812954757870e+00 6.2215292142049439e+00 -1 -2 1
1610 1 1.0299853293526834e+01 3.4548391806297793e+00 7.2933437052310550e+00 -2 -2 0
2138 1 3.9698043718794489e+00 4.9376507239039524e+00 6.6384778302272212e+00 -1 0 0
469 1 2.7481446669876402e+00 7.3496636844220617e+00 7.3863208086364001e+00 1 3 0
6212 1 8.7121191745936368e+00 1.0251540601460926e+01 1.4629070194789742e+01 0 -1 1
1617 1 6.6769463668847138e+00 5.4356653435422491e+00 7.2740565691648511e+00 -1 -2 0
1593 1 1.1553596570774626e+01 5.8268726535272455e+00 6.2259836360943179e+00 1 2 0
5227 1 3.5948313949886610e+00 9.8948232076068745e+00 6.5469126948358847e+00 -2 1 0
3457 1 7.4840021358949693e+00 7.9725589803108559e+00 6.6171559436424703e+00 2 0 0
178 1 6.2338022133555695e+00 1.0299605142084758e+01 7.2573536680307624e+00 -1 3 0
4566 1 1.0249045954175834e+01 7.9508948398257200e+00 7.2079646603717142e+00 2 -2 1
4584 1 1.1201531075543461e+01 1.0245556339119947e+01 6.1756054877731152e+00 4 2 1
3664 1 2.6585845747640469e+00 3.1092595516451591e+00 1.0422861005080973e+01 1 4 1
3423 1 3.8133701354561218e+00 6.6116759653589841e-01 1.1306940213361123e+01 0 2 0
2140 1 7.4753602893116087e+00 8.0961292353712562e+00 1.3711550685354119e+01 1 0 1
4591 1 6.2133307941127116e+00 1.1242692348175889e+00 9.9590259418808138e+00 -1 2 1
1986 1 7.5444119498439397e+00 3.4633875278334139e+00 1.1065431484780307e+01 -4 -1 1
3498 1 1.1309590488956543e+01 1.0786836362802512e+00 1.0924286922975622e+01 0 -1 0
1715 1 1.0141787548119529e+01 3.5040717279815987e+00 1.0148549824932882e+01 2 2 1
3295 1 3.6451057119414396e+00 5.5314179031526738e+00 1.1017283368997258e+01 1 -1 0
1944 1 2.2185910313442103e+00 7.6509609943317747e+00 1.0089506852688793e+01 -1 -1 0
315 1 6.1031357537749482e+00 5.6418922141204790e+00 1.0119697352390794e+01 3 -4 1
176 1 1.1241577849594220e+01 5.9649163844249316e+00 1.0962119536071507e+01 -2 3 0
5158 1 3.4786928833133617e+00 1.0205389326369232e+01 1.0861930272733746e+01 4 0 1
2097 1 4.7113075475895094e+00 8.2467771599525541e+00 1.4517113560363814e+01 1 -3 1
1346 1 7.4409051312012675e+00 7.8333159455610799e+00 1.0969862322865620e+01 2 1 1
5 1 6.1383985457649377e+00 9.9731824212648164e+00 9.8605023813884145e+00 0 1 0
4451 1 1.0009231055181592e+01 8.0520582425692986e+00 9.9779201886295787e+00 -2 3 1
1737 1 1.1280017990849551e+01 1.0084639975745722e+01 1.1006763625489377e+01 -2 0 1
2982 1 8.5415781816458247e-01 1.1473714006852382e+00 1.5057489976064405e+01 3 -2 1
1995 1 3.5936671770097770e+00 1.1025109446784809e+00 1.4084363425731553e+01 1 6 1
5020 1 7.3992937150044185e+00 3.5340943234513711e+00 1.3828990024753114e+01 -2 0 1
3547 1 4.6013213063418990e+00 3.5786852526879440e+00 1.4441916209707490e+01 1 0 1
3488 1 9.1185062565282866e+00 1.5263727632687709e+00 1.4693757605125418e+01 2 2 1
9 1 1.1539911444083673e+01 1.3941905880867085e+00 1.3564218274680478e+01 3 1 1
1289 1 6.4630359485164102e-01 5.9121176693680173e+00 1.4477412101955052e+01 -1 1 1
432 1 3.4082429229772275e+00 5.9812905009011992e+00 1.3456529448309411e+01 2 2 0
6229 1 8.6325447064120109e+00 5.6309968197566524e+00 1.4509618685047595e+01 -3 3 1
4794 1 3.8973316796600627e-02 7.3624537835834456e+00 6.5406059009403030e+00 0 1 0
2891 1 8.7075939014674955e+00 5.4774932101252105e+00 2.6650426395608391e+00 -2 4 1
3247 1 5.7111838529209535e-02 7.3754877462684512e+00 3.8804638320350033e+00 3 0 0
343 1 2.6944599581142370e-03 3.2786454485496175e+00 1.1081705674670548e+01 4 -2 0
3390 1 5.0895695809842127e+00 1.2179962064325826e+01 2.6132522555174882e+00 5 0 1
1437 1 7.3109084012503391e+00 1.2199245400361345e+01 1.1010555450803311e+01 0 0 0
3431 1 7.4458769317303561e+00 1.2215831880994298e+01 3.6409429487918326e+00 2 3 1
6000 1 2.2218158503495129e+00 1.2117055127340743e+01 7.2243275663379087e+00 -1 0 1
1390 1 1.6923558244297097e+00 5.5920473435303748e+00 2.3639396255419314e+00 2 -1 1
1757 1 1.4430675955501362e+00 1.0793881230133815e+00 2.6492916214325959e+00 4 1 0
1637 1 1.3203801362119310e+00 1.0887239988667146e+00 1.7696664251825204e+01 3 1 0
4578 1 2.7748065100126986e+00 3.1951134960646237e+00 1.8393335801078191e+01 2 3 0
3564 1 6.2473790822405517e+00 1.1880448185666950e+00 1.8640345201774519e+01 0 -2 0
6120 1 5.0808199163136845e+00 3.3879756638479477e+00 1.7172994808402095e+01 0 0 1
2108 1 8.8542253283321326e+00 1.6204966154599387e+00 1.7403472486180338e+01 -5 0 1
6267 1 1.0158218527207159e+01 3.6458419828538222e+00 1.8423504852621384e+01 0 -1 1
6179 1 9.5657883921157449e-01 5.3088272151089280e+00 1.7374482890588052e+01 -1 0 0
6198 1 2.2255503435369546e+00 7.9496281122131505e+00 1.7917980952566666e+01 -2 -2 1
1331 1 6.3242064115003069e+00 5.7515090509469671e+00 1.8374042010985434e+01 4 1 0
3250 1 4.6210437021701987e+00 7.9542841408621374e+00 1.7268773952707487e+01 2 -1 0
4782 1 8.7892050340202168e+00 5.7443238378030896e+00 1.7247241000549181e+01 -1 4 1
3291 1 1.0261278726123242e+01 7.8582808586613906e+00 1.8184667026839307e+01 1 2 1
6156 1 6.8471160621262250e-01 1.0036237923787979e+01 1.7313205831438196e+01 2 -1 1
183 1 6.2861929211694623e+00 1.0074639726596370e+01 1.8298368330764596e+01 -1 1 0
6281 1 9.1299933321680466e+00 1.0316234366448702e+01 1.7441636829161549e+01 -3 -3 1
726 2 8.6134999999999984e+00 1.0656442593567498e+01 2.6726873342610986e+01 0 0 0
5166 1 2.7014152293744265e+00 2.5156360847822170e+00 2.0960357373680381e+01 0 0 1
730 2 9.8440000000000012e+00 8.5251540748539956e+00 2.6726873342610986e+01 0 0 0
1557 1 5.6157046758524105e+00 2.5436346093740214e+00 2.1111398518611505e+01 1 2 0
732 2 1.1074500000000002e+01 9.2355835810918343e+00 2.6726873342610986e+01 0 0 0
1492 1 1.0917447734031636e+01 2.0277972339969246e+00 2.0919510685890124e+01 -4 1 1
685 2 8.6134999999999984e+00 9.2355835810918343e+00 2.6726873342610986e+01 0 0 0
2844 1 1.0327695378621358e+00 4.8745188728580420e+00 2.1118061892199446e+01 2 -3 1
264 1 2.3915634818009424e+00 7.4914103313078897e+00 2.0725512459624692e+01 -1 1 0
1789 1 6.7704490161163022e+00 5.0616457635397003e+00 2.0993872659061580e+01 2 1 0
5979 1 4.9872605536035337e+00 7.2197954495334216e+00 2.1349841414640405e+01 2 1 1
3583 1 9.4357663589704313e+00 4.8136118072987992e+00 2.1325869837662555e+01 4 -2 1
3307 1 1.0662915171051502e+01 7.6157925135859923e+00 2.0920631952394789e+01 4 1 0
6037 1 1.1072180853948097e+00 9.6992623235421966e+00 2.1458455147192833e+01 2 -1 1
3487 1 6.0641341163882068e+00 9.7838638924233603e+00 2.0900670740255549e+01 1 1 0
5071 1 8.7404749283789211e+00 1.0039046846280096e+01 2.1372090474859061e+01 0 1 0
2836 1 2.2467913098134411e+00 2.5746107051258211e+00 2.4162855413452831e+01 2 0 1
773 2 1.1074500000000002e+01 1.0656442593567498e+01 2.6726873342610986e+01 0 0 0
6269 1 5.1639314010703332e+00 2.3651884879225196e+00 2.3756389094924714e+01 0 5 1
728 2 9.8440000000000012e+00 1.1366872099805333e+01 2.6726873342610986e+01 0 0 0
3058 1 1.0747341032164604e+01 2.4163501936274465e+00 2.3825433201220335e+01 3 -2 0
1893 1 1.1299605950849465e+00 5.0417051170997471e+00 2.3985293225321218e+01 -2 -1 0
4410 1 2.3925136276810335e+00 7.4551324319601733e+00 2.3891156855127498e+01 2 5 0
3312 1 6.6015304578113936e+00 4.7350559491243081e+00 2.4014387550610966e+01 1 -3 0
5201 1 5.2590803667108057e+00 7.2616362315472101e+00 2.4049295422574414e+01 -1 -1 0
2801 1 9.2208101438247585e+00 4.7675367008301075e+00 2.4139911572196709e+01 1 1 0
4843 1 1.0439816757810847e+01 7.3908716264262733e+00 2.3787536934326972e+01 1 -2 0
1745 1 9.9478242025473096e-01 9.8844196296722195e+00 2.4214155077032920e+01 4 2 0
3145 1 6.1554871313401174e+00 9.7950367913099239e+00 2.4320250967363261e+01 -1 1 1
4943 1 8.9847388986031458e+00 9.9952493396357056e+00 2.3921956853799230e+01 3 0 0
775 2 1.2304999999999998e+01 1.1366872099805333e+01 2.6726873342610986e+01 0 0 0
552 2 0.0000000000000000e+00 2.8417180249513345e+00 2.6726873342610986e+01 0 0 0
554 2 0.0000000000000000e+00 0.0000000000000000e+00 2.6726873342610986e+01 0 0 0
556 2 1.2305000000000001e+00 7.1042950623783474e-01 2.6726873342610986e+01 0 0 0
563 2 1.2305000000000001e+00 2.1312885187134998e+00 2.6726873342610986e+01 0 0 0
565 2 2.4610000000000003e+00 2.8417180249513345e+00 2.6726873342610986e+01 0 0 0
567 2 2.4610000000000003e+00 0.0000000000000000e+00 2.6726873342610986e+01 0 0 0
569 2 3.6915000000000004e+00 7.1042950623783474e-01 2.6726873342610986e+01 0 0 0
584 2 3.6914999999999996e+00 2.1312885187134998e+00 2.6726873342610986e+01 0 0 0
586 2 4.9220000000000006e+00 2.8417180249513332e+00 2.6726873342610986e+01 0 0 0
588 2 4.9220000000000006e+00 0.0000000000000000e+00 2.6726873342610986e+01 0 0 0
590 2 6.1524999999999999e+00 7.1042950623783407e-01 2.6726873342610986e+01 0 0 0
613 2 6.1524999999999999e+00 2.1312885187134989e+00 2.6726873342610986e+01 0 0 0
615 2 7.3829999999999991e+00 2.8417180249513345e+00 2.6726873342610986e+01 0 0 0
617 2 7.3829999999999991e+00 0.0000000000000000e+00 2.6726873342610986e+01 0 0 0
619 2 8.6134999999999984e+00 7.1042950623783407e-01 2.6726873342610986e+01 0 0 0
650 2 8.6134999999999984e+00 2.1312885187135002e+00 2.6726873342610986e+01 0 0 0
652 2 9.8440000000000012e+00 2.8417180249513332e+00 2.6726873342610986e+01 0 0 0
654 2 9.8440000000000012e+00 0.0000000000000000e+00 2.6726873342610986e+01 0 0 0
656 2 1.1074500000000002e+01 7.1042950623783330e-01 2.6726873342610986e+01 0 0 0
695 2 1.1074500000000002e+01 2.1312885187135002e+00 2.6726873342610986e+01 0 0 0
559 2 0.0000000000000000e+00 4.2625770374269996e+00 2.6726873342610986e+01 0 0 0
561 2 1.2305000000000001e+00 4.9730065436648339e+00 2.6726873342610986e+01 0 0 0
576 2 1.2305000000000001e+00 6.3938655561404980e+00 2.6726873342610986e+01 0 0 0
580 2 2.4610000000000003e+00 4.2625770374269996e+00 2.6726873342610986e+01 0 0 0
582 2 3.6914999999999996e+00 4.9730065436648339e+00 2.6726873342610986e+01 0 0 0
605 2 3.6914999999999996e+00 6.3938655561404980e+00 2.6726873342610986e+01 0 0 0
557 2 0.0000000000000000e+00 7.1042950623783341e+00 2.6726873342610986e+01 0 0 0
578 2 2.4610000000000003e+00 7.1042950623783341e+00 2.6726873342610986e+01 0 0 0
609 2 4.9220000000000006e+00 4.2625770374269978e+00 2.6726873342610986e+01 0 0 0
611 2 6.1524999999999999e+00 4.9730065436648339e+00 2.6726873342610986e+01 0 0 0
642 2 6.1524999999999999e+00 6.3938655561404980e+00 2.6726873342610986e+01 0 0 0
646 2 7.3829999999999991e+00 4.2625770374269996e+00 2.6726873342610986e+01 0 0 0
607 2 4.9220000000000006e+00 7.1042950623783341e+00 2.6726873342610986e+01 0 0 0
644 2 7.3830000000000009e+00 7.1042950623783341e+00 2.6726873342610986e+01 0 0 0
648 2 8.6135000000000002e+00 4.9730065436648339e+00 2.6726873342610986e+01 0 0 0
687 2 8.6135000000000002e+00 6.3938655561404980e+00 2.6726873342610986e+01 0 0 0
691 2 9.8440000000000012e+00 4.2625770374270004e+00 2.6726873342610986e+01 0 0 0
693 2 1.1074500000000002e+01 4.9730065436648339e+00 2.6726873342610986e+01 0 0 0
734 2 1.1074500000000002e+01 6.3938655561404980e+00 2.6726873342610986e+01 0 0 0
689 2 9.8440000000000012e+00 7.1042950623783341e+00 2.6726873342610986e+01 0 0 0
603 2 3.6915000000000004e+00 9.2355835810918343e+00 2.6726873342610986e+01 0 0 0
597 2 1.2305000000000001e+00 1.0656442593567498e+01 2.6726873342610986e+01 0 0 0
570 2 0.0000000000000000e+00 1.1366872099805333e+01 2.6726873342610986e+01 0 0 0
599 2 2.4610000000000003e+00 1.1366872099805333e+01 2.6726873342610986e+01 0 0 0
634 2 3.6914999999999996e+00 1.0656442593567499e+01 2.6726873342610986e+01 0 0 0
574 2 1.2305000000000001e+00 9.2355835810918343e+00 2.6726873342610986e+01 0 0 0
572 2 0.0000000000000000e+00 8.5251540748539991e+00 2.6726873342610986e+01 0 0 0
601 2 2.4610000000000003e+00 8.5251540748539991e+00 2.6726873342610986e+01 0 0 0
638 2 4.9220000000000006e+00 8.5251540748539991e+00 2.6726873342610986e+01 0 0 0
640 2 6.1524999999999999e+00 9.2355835810918343e+00 2.6726873342610986e+01 0 0 0
679 2 6.1524999999999999e+00 1.0656442593567499e+01 2.6726873342610986e+01 0 0 0
681 2 7.3829999999999991e+00 1.1366872099805333e+01 2.6726873342610986e+01 0 0 0
636 2 4.9220000000000006e+00 1.1366872099805333e+01 2.6726873342610986e+01 0 0 0
683 2 7.3830000000000009e+00 8.5251540748539991e+00 2.6726873342610986e+01 0 0 0
1857 1 1.5527220297485138e+00 3.7085389520459429e-02 2.1168839677177392e+01 -2 3 0
168 1 1.8307166500905436e+00 1.2208912646189836e+01 2.0927510831675594e+01 2 0 1
1396 1 4.6106675260885490e+00 1.2028073189663118e+01 2.1658234850737536e+01 -1 -1 1
4927 1 4.5132834964213870e+00 1.2069366569800458e+01 1.7166663962384021e+01 -2 -1 0
2 1 1.0380688200477714e+01 1.2212448399171581e+01 2.1403875635285463e+01 2 2 0
4924 1 4.8321271705876407e+00 1.2207464338721945e+01 2.4279488605862348e+01 6 -2 1
1533 1 6.9223574944279331e+00 2.2949004118082428e-01 2.3741479727545070e+01 3 0 1
553 2 0.0000000000000000e+00 1.4208590124756650e+00 3.0031000000001342e+01 0 0 0
555 2 0.0000000000000000e+00 0.0000000000000000e+00 3.0031000000001342e+01 0 0 0
564 2 1.2305000000000001e+00 2.1312885187134998e+00 3.0031000000001342e+01 0 0 0
566 2 2.4610000000000003e+00 1.4208590124756650e+00 3.0031000000001342e+01 0 0 0
568 2 2.4610000000000003e+00 0.0000000000000000e+00 3.0031000000001342e+01 0 0 0
585 2 3.6914999999999996e+00 2.1312885187134998e+00 3.0031000000001342e+01 0 0 0
562 2 1.2305000000000001e+00 3.5521475311891644e+00 3.0031000000001342e+01 0 0 0
583 2 3.6914999999999996e+00 3.5521475311891644e+00 3.0031000000001342e+01 0 0 0
881 2 0.0000000000000000e+00 2.8417180249513345e+00 3.3335126657399442e+01 0 0 0
882 2 0.0000000000000000e+00 0.0000000000000000e+00 3.3335126657399442e+01 0 0 0
883 2 1.2305000000000001e+00 7.1042950623783474e-01 3.3335126657399442e+01 0 0 0
887 2 1.2305000000000001e+00 2.1312885187134998e+00 3.3335126657399442e+01 0 0 0
888 2 2.4610000000000003e+00 2.8417180249513345e+00 3.3335126657399442e+01 0 0 0
889 2 2.4610000000000003e+00 0.0000000000000000e+00 3.3335126657399442e+01 0 0 0
890 2 3.6915000000000004e+00 7.1042950623783474e-01 3.3335126657399442e+01 0 0 0
898 2 3.6914999999999996e+00 2.1312885187134998e+00 3.3335126657399442e+01 0 0 0
587 2 4.9220000000000006e+00 1.4208590124756650e+00 3.0031000000001342e+01 0 0 0
589 2 4.9220000000000006e+00 0.0000000000000000e+00 3.0031000000001342e+01 0 0 0
614 2 6.1524999999999999e+00 2.1312885187134989e+00 3.0031000000001342e+01 0 0 0
616 2 7.3829999999999991e+00 1.4208590124756659e+00 3.0031000000001342e+01 0 0 0
618 2 7.3829999999999991e+00 0.0000000000000000e+00 3.0031000000001342e+01 0 0 0
612 2 6.1524999999999999e+00 3.5521475311891644e+00 3.0031000000001342e+01 0 0 0
899 2 4.9220000000000006e+00 2.8417180249513332e+00 3.3335126657399442e+01 0 0 0
900 2 4.9220000000000006e+00 0.0000000000000000e+00 3.3335126657399442e+01 0 0 0
901 2 6.1524999999999999e+00 7.1042950623783407e-01 3.3335126657399442e+01 0 0 0
913 2 6.1524999999999999e+00 2.1312885187134989e+00 3.3335126657399442e+01 0 0 0
914 2 7.3829999999999991e+00 2.8417180249513345e+00 3.3335126657399442e+01 0 0 0
915 2 7.3829999999999991e+00 0.0000000000000000e+00 3.3335126657399442e+01 0 0 0
651 2 8.6134999999999984e+00 2.1312885187135002e+00 3.0031000000001342e+01 0 0 0
653 2 9.8440000000000012e+00 1.4208590124756659e+00 3.0031000000001342e+01 0 0 0
655 2 9.8440000000000012e+00 0.0000000000000000e+00 3.0031000000001342e+01 0 0 0
696 2 1.1074500000000002e+01 2.1312885187135002e+00 3.0031000000001342e+01 0 0 0
649 2 8.6134999999999984e+00 3.5521475311891657e+00 3.0031000000001342e+01 0 0 0
694 2 1.1074500000000002e+01 3.5521475311891644e+00 3.0031000000001342e+01 0 0 0
916 2 8.6134999999999984e+00 7.1042950623783407e-01 3.3335126657399442e+01 0 0 0
932 2 8.6134999999999984e+00 2.1312885187135002e+00 3.3335126657399442e+01 0 0 0
933 2 9.8440000000000012e+00 2.8417180249513332e+00 3.3335126657399442e+01 0 0 0
934 2 9.8440000000000012e+00 0.0000000000000000e+00 3.3335126657399442e+01 0 0 0
935 2 1.1074500000000002e+01 7.1042950623783330e-01 3.3335126657399442e+01 0 0 0
955 2 1.1074500000000002e+01 2.1312885187135002e+00 3.3335126657399442e+01 0 0 0
558 2 0.0000000000000000e+00 5.6834360499026637e+00 3.0031000000001342e+01 0 0 0
560 2 0.0000000000000000e+00 4.2625770374269996e+00 3.0031000000001342e+01 0 0 0
577 2 1.2305000000000001e+00 6.3938655561404980e+00 3.0031000000001342e+01 0 0 0
579 2 2.4610000000000003e+00 5.6834360499026637e+00 3.0031000000001342e+01 0 0 0
581 2 2.4610000000000003e+00 4.2625770374269996e+00 3.0031000000001342e+01 0 0 0
606 2 3.6914999999999996e+00 6.3938655561404980e+00 3.0031000000001342e+01 0 0 0
575 2 1.2305000000000001e+00 7.8147245686161639e+00 3.0031000000001342e+01 0 0 0
604 2 3.6914999999999996e+00 7.8147245686161639e+00 3.0031000000001342e+01 0 0 0
885 2 0.0000000000000000e+00 4.2625770374269996e+00 3.3335126657399442e+01 0 0 0
886 2 1.2305000000000001e+00 4.9730065436648339e+00 3.3335126657399442e+01 0 0 0
894 2 1.2305000000000001e+00 6.3938655561404980e+00 3.3335126657399442e+01 0 0 0
896 2 2.4610000000000003e+00 4.2625770374269996e+00 3.3335126657399442e+01 0 0 0
897 2 3.6914999999999996e+00 4.9730065436648339e+00 3.3335126657399442e+01 0 0 0
909 2 3.6914999999999996e+00 6.3938655561404980e+00 3.3335126657399442e+01 0 0 0
884 2 0.0000000000000000e+00 7.1042950623783341e+00 3.3335126657399442e+01 0 0 0
895 2 2.4610000000000003e+00 7.1042950623783341e+00 3.3335126657399442e+01 0 0 0
608 2 4.9220000000000006e+00 5.6834360499026637e+00 3.0031000000001342e+01 0 0 0
610 2 4.9220000000000006e+00 4.2625770374269978e+00 3.0031000000001342e+01 0 0 0
643 2 6.1524999999999999e+00 6.3938655561404980e+00 3.0031000000001342e+01 0 0 0
645 2 7.3829999999999991e+00 5.6834360499026637e+00 3.0031000000001342e+01 0 0 0
647 2 7.3829999999999991e+00 4.2625770374269996e+00 3.0031000000001342e+01 0 0 0
641 2 6.1524999999999999e+00 7.8147245686161639e+00 3.0031000000001342e+01 0 0 0
911 2 4.9220000000000006e+00 4.2625770374269978e+00 3.3335126657399442e+01 0 0 0
912 2 6.1524999999999999e+00 4.9730065436648339e+00 3.3335126657399442e+01 0 0 0
928 2 6.1524999999999999e+00 6.3938655561404980e+00 3.3335126657399442e+01 0 0 0
930 2 7.3829999999999991e+00 4.2625770374269996e+00 3.3335126657399442e+01 0 0 0
910 2 4.9220000000000006e+00 7.1042950623783341e+00 3.3335126657399442e+01 0 0 0
929 2 7.3830000000000009e+00 7.1042950623783341e+00 3.3335126657399442e+01 0 0 0
688 2 8.6135000000000002e+00 6.3938655561404980e+00 3.0031000000001342e+01 0 0 0
690 2 9.8440000000000012e+00 5.6834360499026637e+00 3.0031000000001342e+01 0 0 0
692 2 9.8440000000000012e+00 4.2625770374270004e+00 3.0031000000001342e+01 0 0 0
735 2 1.1074500000000002e+01 6.3938655561404980e+00 3.0031000000001342e+01 0 0 0
686 2 8.6135000000000002e+00 7.8147245686161639e+00 3.0031000000001342e+01 0 0 0
733 2 1.1074500000000002e+01 7.8147245686161639e+00 3.0031000000001342e+01 0 0 0
931 2 8.6135000000000002e+00 4.9730065436648339e+00 3.3335126657399442e+01 0 0 0
951 2 8.6135000000000002e+00 6.3938655561404980e+00 3.3335126657399442e+01 0 0 0
953 2 9.8440000000000012e+00 4.2625770374270004e+00 3.3335126657399442e+01 0 0 0
954 2 1.1074500000000002e+01 4.9730065436648339e+00 3.3335126657399442e+01 0 0 0
975 2 1.1074500000000002e+01 6.3938655561404980e+00 3.3335126657399442e+01 0 0 0
952 2 9.8440000000000012e+00 7.1042950623783341e+00 3.3335126657399442e+01 0 0 0
571 2 0.0000000000000000e+00 9.9460130873296642e+00 3.0031000000001342e+01 0 0 0
573 2 0.0000000000000000e+00 8.5251540748539991e+00 3.0031000000001342e+01 0 0 0
600 2 2.4610000000000003e+00 9.9460130873296642e+00 3.0031000000001342e+01 0 0 0
602 2 2.4610000000000003e+00 8.5251540748539991e+00 3.0031000000001342e+01 0 0 0
596 2 1.2305000000000001e+00 1.2077301606043163e+01 3.0031000000001342e+01 0 0 0
598 2 1.2305000000000001e+00 1.0656442593567498e+01 3.0031000000001342e+01 0 0 0
633 2 3.6914999999999996e+00 1.2077301606043163e+01 3.0031000000001342e+01 0 0 0
635 2 3.6914999999999996e+00 1.0656442593567499e+01 3.0031000000001342e+01 0 0 0
892 2 0.0000000000000000e+00 8.5251540748539991e+00 3.3335126657399442e+01 0 0 0
893 2 1.2305000000000001e+00 9.2355835810918343e+00 3.3335126657399442e+01 0 0 0
907 2 2.4610000000000003e+00 8.5251540748539991e+00 3.3335126657399442e+01 0 0 0
908 2 3.6915000000000004e+00 9.2355835810918343e+00 3.3335126657399442e+01 0 0 0
891 2 0.0000000000000000e+00 1.1366872099805333e+01 3.3335126657399442e+01 0 0 0
905 2 1.2305000000000001e+00 1.0656442593567498e+01 3.3335126657399442e+01 0 0 0
906 2 2.4610000000000003e+00 1.1366872099805333e+01 3.3335126657399442e+01 0 0 0
924 2 3.6914999999999996e+00 1.0656442593567499e+01 3.3335126657399442e+01 0 0 0
637 2 4.9220000000000006e+00 9.9460130873296642e+00 3.0031000000001342e+01 0 0 0
639 2 4.9220000000000006e+00 8.5251540748539991e+00 3.0031000000001342e+01 0 0 0
682 2 7.3830000000000009e+00 9.9460130873296642e+00 3.0031000000001342e+01 0 0 0
684 2 7.3830000000000009e+00 8.5251540748539991e+00 3.0031000000001342e+01 0 0 0
678 2 6.1524999999999999e+00 1.2077301606043163e+01 3.0031000000001342e+01 0 0 0
680 2 6.1524999999999999e+00 1.0656442593567499e+01 3.0031000000001342e+01 0 0 0
926 2 4.9220000000000006e+00 8.5251540748539991e+00 3.3335126657399442e+01 0 0 0
927 2 6.1524999999999999e+00 9.2355835810918343e+00 3.3335126657399442e+01 0 0 0
949 2 7.3830000000000009e+00 8.5251540748539991e+00 3.3335126657399442e+01 0 0 0
925 2 4.9220000000000006e+00 1.1366872099805333e+01 3.3335126657399442e+01 0 0 0
947 2 6.1524999999999999e+00 1.0656442593567499e+01 3.3335126657399442e+01 0 0 0
948 2 7.3829999999999991e+00 1.1366872099805333e+01 3.3335126657399442e+01 0 0 0
729 2 9.8440000000000012e+00 9.9460130873296642e+00 3.0031000000001342e+01 0 0 0
731 2 9.8440000000000012e+00 8.5251540748539956e+00 3.0031000000001342e+01 0 0 0
725 2 8.6135000000000002e+00 1.2077301606043163e+01 3.0031000000001342e+01 0 0 0
727 2 8.6134999999999984e+00 1.0656442593567498e+01 3.0031000000001342e+01 0 0 0
772 2 1.1074500000000002e+01 1.2077301606043163e+01 3.0031000000001342e+01 0 0 0
774 2 1.1074500000000002e+01 1.0656442593567498e+01 3.0031000000001342e+01 0 0 0
950 2 8.6134999999999984e+00 9.2355835810918343e+00 3.3335126657399442e+01 0 0 0
973 2 9.8440000000000012e+00 8.5251540748539956e+00 3.3335126657399442e+01 0 0 0
974 2 1.1074500000000002e+01 9.2355835810918343e+00 3.3335126657399442e+01 0 0 0
971 2 8.6134999999999984e+00 1.0656442593567498e+01 3.3335126657399442e+01 0 0 0
972 2 9.8440000000000012e+00 1.1366872099805333e+01 3.3335126657399442e+01 0 0 0
995 2 1.1074500000000002e+01 1.0656442593567498e+01 3.3335126657399442e+01 0 0 0
996 2 1.2304999999999998e+01 1.1366872099805333e+01 3.3335126657399442e+01 0 0 0
4697 1 2.3234821967896235e+00 3.4240008815308656e+00 3.6805174356663727e+01 0 -2 0
143 1 2.8681695402720235e+00 1.1840688966632062e+01 3.6262770980697724e+01 1 -4 -1
3474 1 3.5792937062461720e+00 1.3060300803708609e+00 3.5881760979152688e+01 0 -1 -1
1747 1 6.1994732770841861e+00 1.7136727979589212e+00 3.6513027421929280e+01 -1 -3 -1
4881 1 7.9235374102270013e+00 3.6208787075344757e+00 3.5790921480736912e+01 5 -3 -1
6290 1 1.0691645853134396e+01 2.5805692498737987e+00 3.6017599040473414e+01 -2 -3 0
5192 1 2.4608979798672119e+00 7.2530466434596752e+00 3.6444064894772922e+01 5 -1 -1
3542 1 1.1285549628846717e+01 5.9279385712079797e+00 4.2809635817946557e+01 2 -5 -1
103 1 4.1738977925637109e+00 5.3232059918730972e+00 3.5534614992125853e+01 4 -2 -1
1767 1 7.0259455814564795e+00 5.8782547704642383e+00 3.6131239090525355e+01 4 2 -1
163 1 8.8200401160667692e+00 8.0611719946758491e+00 3.6285160953466303e+01 0 2 0
3539 1 1.0439093413494229e+01 5.6972865010307530e+00 3.6514368240401467e+01 -2 0 -1
3286 1 2.8794553101085998e+00 1.1917918182354530e+01 3.9085722646772737e+01 0 -1 -1
5988 1 1.1275326024296817e-02 3.0172783018474387e+00 4.0855746505664527e+01 1 3 0
167 1 4.2491520521556838e+00 9.4539929271001935e+00 3.5581836600615475e+01 -1 -2 -1
3125 1 6.8361464513477666e+00 9.9745427622015868e+00 3.6633247012376700e+01 2 3 0
3414 1 1.1342564436070559e+01 5.7531896898340831e+00 3.9974890883364282e+01 2 1 -1
2964 1 3.8547404406405308e+00 1.0271380565668341e+01 4.2941011979691140e+01 -1 -2 0
5993 1 2.2666295342329517e+00 3.2955758291532717e+00 3.9577748282161963e+01 1 -1 0
1611 1 3.4951714867973780e+00 1.0787171353466321e+00 4.0338698274900494e+01 3 -1 -1
4501 1 6.0478861977964673e+00 1.0175643431104981e+00 3.9298878893262255e+01 2 0 0
5052 1 7.3787570853096360e+00 3.3222091344699125e+00 4.0046353079705398e+01 1 -2 -1
4912 1 9.8635661283626952e+00 3.5672840444150729e+00 3.8822862840855123e+01 1 0 0
3084 1 1.1334232772659824e+01 1.6612871279136225e+00 3.9988294782181711e+01 0 -1 -1
202 1 2.5691391575339826e+00 7.6194413532710152e+00 3.9490333890069607e+01 2 -1 -1
6320 1 3.8615988826376184e+00 5.3999601588787529e+00 4.0292057294566575e+01 2 5 -1
4773 1 8.1751147971607452e+00 1.2131360917474252e+01 4.0039682343956201e+01 1 0 0
368 1 7.8406925714680034e+00 7.4619895477804219e+00 4.0253826944661597e+01 -1 3 0
3254 1 6.3830968785999715e+00 5.7129897141061630e+00 3.8978286725568722e+01 -1 -3 -1
213 1 1.0127396234200081e+01 7.9316605452878841e+00 3.9169254226079090e+01 -2 -3 -1
1266 1 8.4694255412756849e+00 1.2119545267699483e+01 4.2819460047777696e+01 4 -2 0
2802 1 1.1187781047143293e-01 1.1971592995081821e+01 3.5833582106473827e+01 2 1 0
5164 1 6.7504860919407657e+00 1.0017148881810181e+01 3.9438210820202684e+01 -2 5 0
78 1 4.0989719982865660e+00 9.8215776358981781e+00 4.0217891375644442e+01 -1 0 0
4865 1 3.6846324621181670e+00 5.6410459438733422e+00 4.3068925746985911e+01 1 -2 -1
2002 1 1.1431161411640288e+01 9.9995082733421370e+00 4.0091186194244756e+01 -5 0 -1
1872 1 1.1735024776308393e+01 1.0274634642733421e+01 4.2885788500463860e+01 2 0 -1
4954 1 7.3541070190201747e+00 7.8590348849978779e+00 4.2991957195682048e+01 -2 2 -1
3505 1 1.6063151372610182e-01 1.1954715145788326e+01 4.2834696891139103e+01 0 4 -1
4851 1 4.0217514345095076e+00 1.0954200805492851e+00 4.2940870102518076e+01 1 1 -1
2808 1 7.4324805358698187e+00 3.6982196822545474e+00 4.2922363499893848e+01 -1 3 0
269 1 1.1220810259733080e+01 1.3311974133483488e+00 4.2930471474381264e+01 -2 3 -1
5043 1 3.2959598637339882e-01 1.1404838588730772e+01 4.0040308215553367e+01 -2 1 -1
1474 1 8.3153931146018518e+00 1.2185823074553896e+01 3.5748011341679273e+01 1 2 -1
5233 1 2.8935441431536901e-01 3.1159650874590183e+00 4.3549293770696167e+01 1 0 -1
5120 1 8.6594036224329844e+00 1.4632534045373324e+00 4.3871248765714952e+01 -1 0 -1
3176 1 1.4170539792926171e+00 8.9694241085614168e-01 4.7020426804839673e+01 -2 1 -1
4922 1 5.2411319374721197e+00 3.3022111527359228e+00 4.6785516161748575e+01 1 0 -1
1734 1 8.7473545898831340e+00 5.6043188763625595e+00 5.5313550178390912e+01 3 1 0
63 1 8.9280417272669546e+00 1.3617605276854610e+00 4.6816258162150746e+01 0 6 0
3436 1 1.2685858324183343e+00 5.3655252389682824e+00 4.6987035653029295e+01 0 -1 -1
2846 1 5.3843175432142880e+00 7.9033070068995119e+00 5.5370205592244190e+01 2 1 0
267 1 5.1898514418614905e+00 7.6841585609210830e+00 4.6747219240631921e+01 4 2 0
2842 1 8.8633262766006027e+00 5.8396972490536774e+00 4.6719490762744528e+01 0 1 0
1500 1 1.5173441308951914e+00 5.3712003104467394e+00 5.4694544525418976e+01 -5 0 0
4657 1 1.3380388948606876e+00 1.0051104762751322e+01 4.6829528825172972e+01 1 0 0
1602 1 1.6172883571144241e+00 7.8284751764308369e-01 4.4334279517228438e+01 -2 -3 -1
490 1 1.3780518327300328e+00 1.0047070080771658e+01 5.5371191229802932e+01 -2 1 0
5983 1 5.2053175408761811e+00 1.1855259658654148e+01 4.6675896556305474e+01 0 -2 0
4729 1 9.2093738277599329e+00 1.0034087117029339e+01 4.6726749221911447e+01 0 5 0
515 1 3.9712130775124743e+00 1.3916825555696317e+00 5.0563300274676521e+01 -2 -2 0
123 1 3.9718534432856618e+00 8.8969751476653802e-01 4.7781133078552486e+01 4 1 0
1263 1 8.9062607026407647e+00 1.0289984250515980e+01 5.5161748268201606e+01 2 0 0
3207 1 7.8151270676746298e+00 3.6446924251677268e+00 4.7784672407407371e+01 1 -3 0