LAMMPS data file via write_data, version 16 Mar 2018, timestep = 100000

6328 atoms
2 atom types

0.0000000000000000e+00 4.9219999999999999e+01 xlo xhi
0.0000000000000000e+00 4.9019635930410494e+01 ylo yhi
3.6889367038893361e+00 5.6373063296110374e+01 zlo zhi

Masses

1 18.015
2 12.01

Atoms # atomic

5093 1 2.4458351433035270e+00 3.4316335262406112e+00 7.4760077608538946e+00 1 0 1
4564 1 1.0395742611537730e+00 2.4228102215537453e+00 3.9952124553941339e+00 0 0 0
5296 1 2.3034400482774622e+00 9.0289219472499971e-01 6.1620598380040956e+00 0 0 1
197 1 6.0594689936372221e+00 2.7735720484727318e+00 4.5712408679188421e+00 1 0 0
1905 1 7.6902634017862725e+00 1.7005895510151214e+00 7.0548290395148934e+00 -1 0 0
4413 1 4.4435115853823302e+00 4.8561594815085624e-01 4.2091200526381165e+00 1 0 1
2981 1 9.6416488094625912e+00 4.0827516025475390e+00 7.2358499613911516e+00 1 2 1
5029 1 9.4837159470290846e+00 2.7152346319922054e+00 4.4442678467615631e+00 0 0 0
1685 1 3.6037331815595020e-01 5.1256643755682028e+00 7.0370301052263748e+00 2 0 0
5272 1 3.0947986036805086e+00 7.3394538689043820e+00 4.4669994466117897e+00 0 0 1
1598 1 1.1897979714691704e+00 7.7554953436131120e+00 7.9501107309790200e+00 0 -1 1
6003 1 4.5595450808652777e-01 7.4192020303611672e+00 4.6807426882052638e+00 1 1 0
244 1 6.8191605852674915e+00 4.8876081469232888e+00 7.1277086533293224e+00 1 0 1
1921 1 7.4569430575693829e+00 7.4752757264173226e+00 6.4342705363029848e+00 1 0 0
4824 1 4.1506907746140485e+00 4.8636413876153641e+00 5.8334497701146439e+00 0 0 0
4789 1 6.2278283585141185e+00 7.9584040965288478e+00 4.0004175674687259e+00 1 0 0
3265 1 1.0209013657192241e+01 7.0613100630816419e+00 7.7191449598353126e+00 1 0 1
3632 1 1.2259785842694900e+01 4.9035750874403874e+00 6.0914758482369677e+00 0 2 1
5225 1 2.4075039653882908e+00 9.7325807006891960e+00 5.9973850020910975e+00 0 -1 0
232 1 3.0224979290036251e+00 1.2140037935658956e+01 4.4690752484192018e+00 0 0 1
5981 1 5.5383563740995250e+00 1.0521415547716115e+01 5.4588550812452574e+00 -1 0 0
1539 1 9.3082949611750259e+00 9.9960385834729291e+00 7.0198390479164861e+00 1 1 1
4993 1 1.1594138616334446e+01 9.0834903621686358e+00 5.5021969675665598e+00 0 -1 0
4884 1 2.5111117105873277e+00 1.9628574586935563e+00 1.0231449753676634e+01 2 1 0
3572 1 6.4376059898731883e+00 1.0590246151515894e+00 9.4914285913636611e+00 0 1 1
6280 1 6.3973938011393958e+00 4.0510873743202929e+00 9.5821217071739557e+00 1 0 1
4828 1 1.0526633542313968e+01 7.2956652426397750e-01 9.2792253066582937e+00 1 0 0
1798 1 1.0646511861048216e+01 3.7744468226937422e+00 9.8986297641326502e+00 1 0 0
3361 1 1.0073494632453887e+01 1.7121737854716470e+00 1.1904181947594481e+01 0 0 0
5247 1 3.6949629979130121e+00 4.4227117911081217e+00 9.8956905390415795e+00 1 0 0
2119 1 3.3646299774220436e+00 7.3198602175949921e+00 9.8736247752666024e+00 0 1 1
1897 1 6.8126902674206100e+00 6.7554320304197120e+00 9.9970583336151009e+00 2 0 1
105 1 5.4774762558141648e+00 7.1141653808056216e+00 1.2326646682256131e+01 0 0 0
4470 1 8.4245035276584428e+00 4.2497584935539185e+00 1.1825510773285218e+01 0 0 1
499 1 9.5064945724913397e+00 7.6176860345251942e+00 1.0317907579433411e+01 0 0 0
3043 1 1.2303677670549604e+01 7.1637332107824001e+00 1.1304733416920200e+01 1 0 1
4734 1 3.1738989555474175e+00 9.2402551680664118e+00 1.1958899005110089e+01 0 0 1
6321 1 1.4268009388016623e-01 8.5300922410881714e+00 1.1572169458206686e+01 1 1 0
1673 1 5.0059973411218319e+00 1.1769424659973842e+01 8.4193548946594774e+00 1 0 0
3692 1 7.7097313948140185e+00 1.1041790871077037e+01 1.1591649852096950e+01 1 1 1
3238 1 5.6307653587808586e+00 8.8664283692351038e+00 8.3249391842210834e+00 1 0 0
4435 1 9.7619415607267683e+00 1.0614918727310394e+01 9.6190739023087719e+00 1 0 0
2833 1 1.2239679900199251e+01 1.1699150855184524e+01 9.3688075625100602e+00 1 1 0
279 1 1.6695107579193584e+00 2.5054877096485022e+00 1.3762432682301945e+01 0 0 1
5264 1 3.3548291683825204e+00 3.9789929691127774e+00 1.5901885656460429e+01 0 1 1
3223 1 3.7387248410482194e+00 6.8741793660811357e-01 1.2698134649461382e+01 0 0 1
241 1 8.2839050518212287e-01 1.8598538797919071e+00 1.6499197700741551e+01 1 -1 0
437 1 6.3916033821123799e+00 1.9301203895986105e+00 1.2486417861863551e+01 1 -1 0
3546 1 6.8733376217275719e+00 4.4847063437525375e-01 1.6802276680755057e+01 0 0 0
1833 1 9.3427522505606362e+00 3.7217451520187264e+00 1.5897295230322614e+01 1 0 0
1621 1 8.6771492166967974e+00 1.4456339010243719e+00 1.4627803213222272e+01 -1 0 0
4721 1 1.1306172739290073e+01 1.8558916299385683e-01 1.6738016780615972e+01 0 -1 1
6145 1 2.6275872679384737e+00 5.1025847778386453e+00 1.2687044168004975e+01 0 0 1
338 1 3.2739795805582963e+00 7.7950747749841440e+00 1.4409195712605600e+01 0 0 1
6004 1 5.6772826946165686e+00 4.7169806678875750e+00 1.3623893263013182e+01 1 1 0
1513 1 8.1412032642385359e+00 7.8797370968815246e+00 1.4547193824240384e+01 1 1 1
4766 1 7.3094811510544320e+00 5.4573399438630075e+00 1.5633382348891141e+01 0 1 1
326 1 9.8646431861755044e+00 6.3352028366869231e+00 1.2976112129467158e+01 1 0 1
4550 1 1.1373386161973706e+01 4.7247786634694267e+00 1.4549421173898132e+01 -1 2 1
4584 1 1.1489663095946664e+01 6.6280021563781384e+00 1.6768043696060388e+01 1 0 1
5284 1 7.1571268893555118e-01 8.3762005365610062e+00 1.4525842102620661e+01 1 1 1
3648 1 3.8977813078914796e+00 1.1845787976221153e+01 1.2722812852434712e+01 0 0 0
3231 1 1.9327465884331791e+00 1.0943416342620909e+01 1.5845432227519273e+01 0 -1 1
3196 1 6.2206621391337427e+00 9.4977903436923690e+00 1.3306571240940537e+01 1 1 0
6136 1 4.7068233058125504e+00 1.0269094117018204e+01 1.5600133186853187e+01 0 -1 1
370 1 9.5878338796162126e+00 8.9814515247344708e+00 1.6525223798031249e+01 0 0 0
3100 1 1.1301151925245138e+01 9.9036874613089569e+00 1.4929904979232898e+01 1 0 0
6109 1 9.5547477057465589e+00 1.1828238212658304e+01 1.3799736430560289e+01 0 1 1
276 1 4.0343407730948329e+00 1.4229119611035064e+00 1.7210964910301726e+01 0 0 0
486 1 1.3480477164728015e+00 7.1176846226390078e-01 2.0786177573959769e+01 1 0 0
5126 1 5.3727070256685607e+00 3.6263779918816721e+00 1.9014421820991799e+01 1 0 0
6217 1 7.2521551595090221e+00 2.6402074967455444e+00 2.0761599710890916e+01 0 -1 1
1837 1 1.0243842722552403e+01 3.8650232697992548e+00 1.8397757736138495e+01 1 1 0
3023 1 8.8440204683147474e+00 1.4253441997313896e+00 1.8899383848373908e+01 -1 0 1
1545 1 1.5591483743381063e+00 8.0190110524476985e+00 1.8207207522349563e+01 0 0 1
5049 1 2.8380339725633625e+00 5.0611189384238466e+00 1.9902770254011951e+01 1 -1 0
5078 1 7.9218700298136746e-01 7.6901225082010063e+00 2.1066084727297049e+01 1 1 1
4980 1 4.0087778713714567e-01 4.6040352033260117e+00 1.8026091750839328e+01 0 0 0
6255 1 3.5407909780452389e+00 6.2465257178575300e+00 1.7073572054811770e+01 1 0 1
1594 1 6.0981813601639798e+00 6.0507468485393821e+00 1.7899561161696163e+01 1 1 1
1473 1 8.2228628638704357e+00 7.9874826587045922e+00 1.9332106031589145e+01 0 1 1
373 1 1.0583165814406065e+01 6.6640138289372626e+00 1.9813510003886503e+01 1 0 0
159 1 2.6993772601598662e+00 1.0555619240718727e+01 1.8828107788727912e+01 0 0 0
258 1 4.6223704808580841e+00 9.7268772364352110e+00 2.1136188125016087e+01 0 0 0
2133 1 5.7949022982332563e+00 9.6287852512294574e+00 1.8293351109032521e+01 0 1 1
6058 1 1.1102226205469991e+01 1.0887951420196998e+01 1.9867291299218827e+01 1 0 1
285 1 8.5514627591741235e+00 1.1064723756456619e+01 1.7837921287236600e+01 -1 -1 0
3076 1 3.3214767261663702e+00 2.6175515518603016e+00 2.1642941423779330e+01 -1 1 0
4581 1 1.7138091938737854e+00 2.5202097380852306e+00 2.4298978407501309e+01 1 1 0
268 1 8.2134719974555692e-01 1.6963052419012126e-01 2.3605932817239175e+01 0 -1 0
6000 1 4.8466136596874332e+00 3.0818742870371207e+00 2.4265523957618278e+01 -1 0 1
1830 1 7.5216260864508353e+00 2.3880854825118178e+00 2.3890048739384099e+01 0 1 0
2933 1 5.0050620833508432e+00 2.6823216691631790e-02 2.4526252888886010e+01 0 0 1
3191 1 5.5429344436566792e+00 7.3997616332537619e-01 2.1634138463779159e+01 1 0 0
4904 1 1.1458144901310160e+01 2.8162138652769224e+00 2.1470203852176745e+01 -1 0 0
2009 1 1.0736964862349181e+01 1.5010598129038769e-01 2.1505198992233534e+01 0 -1 0
3454 1 1.0653848531270102e+01 2.6008018285192405e+00 2.4330890520215274e+01 1 1 0
117 1 3.4161351238507778e+00 7.1788661241178779e+00 2.1658996691495936e+01 0 0 1
4995 1 4.4159608591391364e-01 5.2212250951339261e+00 2.4289018909019958e+01 0 0 0
410 1 3.0693934844141206e+00 6.7971468990195048e+00 2.4130568515584891e+01 -1 -1 0
1800 1 3.2145424626393299e-01 4.6285933794115426e+00 2.1473529856735453e+01 1 0 0
60 1 6.3920679833135550e+00 6.2224163222495932e+00 2.1294302561841807e+01 0 1 1
1955 1 6.0345461780685010e+00 6.0701964429825468e+00 2.4349779794979987e+01 1 1 1
3401 1 9.1181640660116461e+00 4.6913446524292475e+00 2.1451667830663734e+01 1 0 1
1428 1 1.1733572149592012e+01 6.8890860501951865e+00 2.2107748446715227e+01 -1 0 1
223 1 9.0716100673261444e+00 4.9571762582705707e+00 2.4416133786267622e+01 1 0 1
3603 1 9.4791833726231314e+00 7.6721073158678808e+00 2.3645067973562366e+01 0 1 1
1464 1 1.4261625760955008e+00 1.0560790479409240e+01 2.1552216965569894e+01 0 1 1
3078 1 1.7219476220958236e+00 9.4092744239187986e+00 2.4101168287326367e+01 0 0 1
3512 1 5.5491841982702867e+00 8.9657723584628961e+00 2.4095418359226144e+01 1 0 0
3047 1 7.4397939613673927e+00 8.9178144716042080e+00 2.1960933188752392e+01 0 0 1
3296 1 4.1433479190534994e+00 1.1470525110353480e+01 2.4088223321971800e+01 1 0 0
3445 1 1.0926883765012221e+01 9.9370253329558444e+00 2.4348720084869509e+01 -1 -1 0
1769 1 8.7004889204329050e+00 1.1514023593440395e+01 2.1266139006893059e+01 0 -1 0
552 2 0.0000000000000000e+00 2.8417180249513345e+00 2.6887066640113229e+01 0 0 0
554 2 0.0000000000000000e+00 0.0000000000000000e+00 2.6887066640113229e+01 0 0 0
556 2 1.2305000000000001e+00 7.1042950623783474e-01 2.6887066640113229e+01 0 0 0
563 2 1.2305000000000001e+00 2.1312885187134998e+00 2.6887066640113229e+01 0 0 0
565 2 2.4610000000000003e+00 2.8417180249513345e+00 2.6887066640113229e+01 0 0 0
567 2 2.4610000000000003e+00 0.0000000000000000e+00 2.6887066640113229e+01 0 0 0
569 2 3.6915000000000004e+00 7.1042950623783474e-01 2.6887066640113229e+01 0 0 0
584 2 3.6914999999999996e+00 2.1312885187134998e+00 2.6887066640113229e+01 0 0 0
586 2 4.9220000000000006e+00 2.8417180249513332e+00 2.6887066640113229e+01 0 0 0
588 2 4.9220000000000006e+00 0.0000000000000000e+00 2.6887066640113229e+01 0 0 0
590 2 6.1524999999999999e+00 7.1042950623783407e-01 2.6887066640113229e+01 0 0 0
613 2 6.1524999999999999e+00 2.1312885187134989e+00 2.6887066640113229e+01 0 0 0
615 2 7.3829999999999991e+00 2.8417180249513345e+00 2.6887066640113229e+01 0 0 0
617 2 7.3829999999999991e+00 0.0000000000000000e+00 2.6887066640113229e+01 0 0 0
619 2 8.6134999999999984e+00 7.1042950623783407e-01 2.6887066640113229e+01 0 0 0
650 2 8.6134999999999984e+00 2.1312885187135002e+00 2.6887066640113229e+01 0 0 0
652 2 9.8440000000000012e+00 2.8417180249513332e+00 2.6887066640113229e+01 0 0 0
654 2 9.8440000000000012e+00 0.0000000000000000e+00 2.6887066640113229e+01 0 0 0
656 2 1.1074500000000002e+01 7.1042950623783330e-01 2.6887066640113229e+01 0 0 0
695 2 1.1074500000000002e+01 2.1312885187135002e+00 2.6887066640113229e+01 0 0 0
559 2 0.0000000000000000e+00 4.2625770374269996e+00 2.6887066640113229e+01 0 0 0
561 2 1.2305000000000001e+00 4.9730065436648339e+00 2.6887066640113229e+01 0 0 0
576 2 1.2305000000000001e+00 6.3938655561404980e+00 2.6887066640113229e+01 0 0 0
580 2 2.4610000000000003e+00 4.2625770374269996e+00 2.6887066640113229e+01 0 0 0
582 2 3.6914999999999996e+00 4.9730065436648339e+00 2.6887066640113229e+01 0 0 0
605 2 3.6914999999999996e+00 6.3938655561404980e+00 2.6887066640113229e+01 0 0 0
557 2 0.0000000000000000e+00 7.1042950623783341e+00 2.6887066640113229e+01 0 0 0
578 2 2.4610000000000003e+00 7.1042950623783341e+00 2.6887066640113229e+01 0 0 0
609 2 4.9220000000000006e+00 4.2625770374269978e+00 2.6887066640113229e+01 0 0 0
611 2 6.1524999999999999e+00 4.9730065436648339e+00 2.6887066640113229e+01 0 0 0
642 2 6.1524999999999999e+00 6.3938655561404980e+00 2.6887066640113229e+01 0 0 0
646 2 7.3829999999999991e+00 4.2625770374269996e+00 2.6887066640113229e+01 0 0 0
607 2 4.9220000000000006e+00 7.1042950623783341e+00 2.6887066640113229e+01 0 0 0
644 2 7.3830000000000009e+00 7.1042950623783341e+00 2.6887066640113229e+01 0 0 0
648 2 8.6135000000000002e+00 4.9730065436648339e+00 2.6887066640113229e+01 0 0 0
687 2 8.6135000000000002e+00 6.3938655561404980e+00 2.6887066640113229e+01 0 0 0
691 2 9.8440000000000012e+00 4.2625770374270004e+00 2.6887066640113229e+01 0 0 0
693 2 1.1074500000000002e+01 4.9730065436648339e+00 2.6887066640113229e+01 0 0 0
734 2 1.1074500000000002e+01 6.3938655561404980e+00 2.6887066640113229e+01 0 0 0
689 2 9.8440000000000012e+00 7.1042950623783341e+00 2.6887066640113229e+01 0 0 0
572 2 0.0000000000000000e+00 8.5251540748539991e+00 2.6887066640113229e+01 0 0 0
574 2 1.2305000000000001e+00 9.2355835810918343e+00 2.6887066640113229e+01 0 0 0
601 2 2.4610000000000003e+00 8.5251540748539991e+00 2.6887066640113229e+01 0 0 0
603 2 3.6915000000000004e+00 9.2355835810918343e+00 2.6887066640113229e+01 0 0 0
570 2 0.0000000000000000e+00 1.1366872099805333e+01 2.6887066640113229e+01 0 0 0
597 2 1.2305000000000001e+00 1.0656442593567498e+01 2.6887066640113229e+01 0 0 0
599 2 2.4610000000000003e+00 1.1366872099805333e+01 2.6887066640113229e+01 0 0 0
634 2 3.6914999999999996e+00 1.0656442593567499e+01 2.6887066640113229e+01 0 0 0
640 2 6.1524999999999999e+00 9.2355835810918343e+00 2.6887066640113229e+01 0 0 0
679 2 6.1524999999999999e+00 1.0656442593567499e+01 2.6887066640113229e+01 0 0 0
636 2 4.9220000000000006e+00 1.1366872099805333e+01 2.6887066640113229e+01 0 0 0
681 2 7.3829999999999991e+00 1.1366872099805333e+01 2.6887066640113229e+01 0 0 0
683 2 7.3830000000000009e+00 8.5251540748539991e+00 2.6887066640113229e+01 0 0 0
638 2 4.9220000000000006e+00 8.5251540748539991e+00 2.6887066640113229e+01 0 0 0
730 2 9.8440000000000012e+00 8.5251540748539956e+00 2.6887066640113229e+01 0 0 0
775 2 1.2304999999999998e+01 1.1366872099805333e+01 2.6887066640113229e+01 0 0 0
728 2 9.8440000000000012e+00 1.1366872099805333e+01 2.6887066640113229e+01 0 0 0
685 2 8.6134999999999984e+00 9.2355835810918343e+00 2.6887066640113229e+01 0 0 0
773 2 1.1074500000000002e+01 1.0656442593567498e+01 2.6887066640113229e+01 0 0 0
732 2 1.1074500000000002e+01 9.2355835810918343e+00 2.6887066640113229e+01 0 0 0
726 2 8.6134999999999984e+00 1.0656442593567498e+01 2.6887066640113229e+01 0 0 0
553 2 0.0000000000000000e+00 1.4208590124756650e+00 3.0030999999999906e+01 0 0 0
555 2 0.0000000000000000e+00 0.0000000000000000e+00 3.0030999999999906e+01 0 0 0
564 2 1.2305000000000001e+00 2.1312885187134998e+00 3.0030999999999906e+01 0 0 0
566 2 2.4610000000000003e+00 1.4208590124756650e+00 3.0030999999999906e+01 0 0 0
568 2 2.4610000000000003e+00 0.0000000000000000e+00 3.0030999999999906e+01 0 0 0
585 2 3.6914999999999996e+00 2.1312885187134998e+00 3.0030999999999906e+01 0 0 0
562 2 1.2305000000000001e+00 3.5521475311891644e+00 3.0030999999999906e+01 0 0 0
583 2 3.6914999999999996e+00 3.5521475311891644e+00 3.0030999999999906e+01 0 0 0
881 2 0.0000000000000000e+00 2.8417180249513345e+00 3.3174933359884456e+01 0 0 0
882 2 0.0000000000000000e+00 0.0000000000000000e+00 3.3174933359884456e+01 0 0 0
883 2 1.2305000000000001e+00 7.1042950623783474e-01 3.3174933359884456e+01 0 0 0
887 2 1.2305000000000001e+00 2.1312885187134998e+00 3.3174933359884456e+01 0 0 0
888 2 2.4610000000000003e+00 2.8417180249513345e+00 3.3174933359884456e+01 0 0 0
889 2 2.4610000000000003e+00 0.0000000000000000e+00 3.3174933359884456e+01 0 0 0
890 2 3.6915000000000004e+00 7.1042950623783474e-01 3.3174933359884456e+01 0 0 0
898 2 3.6914999999999996e+00 2.1312885187134998e+00 3.3174933359884456e+01 0 0 0
587 2 4.9220000000000006e+00 1.4208590124756650e+00 3.0030999999999906e+01 0 0 0
589 2 4.9220000000000006e+00 0.0000000000000000e+00 3.0030999999999906e+01 0 0 0
614 2 6.1524999999999999e+00 2.1312885187134989e+00 3.0030999999999906e+01 0 0 0
616 2 7.3829999999999991e+00 1.4208590124756659e+00 3.0030999999999906e+01 0 0 0
618 2 7.3829999999999991e+00 0.0000000000000000e+00 3.0030999999999906e+01 0 0 0
612 2 6.1524999999999999e+00 3.5521475311891644e+00 3.0030999999999906e+01 0 0 0
899 2 4.9220000000000006e+00 2.8417180249513332e+00 3.3174933359884456e+01 0 0 0
900 2 4.9220000000000006e+00 0.0000000000000000e+00 3.3174933359884456e+01 0 0 0
901 2 6.1524999999999999e+00 7.1042950623783407e-01 3.3174933359884456e+01 0 0 0
913 2 6.1524999999999999e+00 2.1312885187134989e+00 3.3174933359884456e+01 0 0 0
914 2 7.3829999999999991e+00 2.8417180249513345e+00 3.3174933359884456e+01 0 0 0
915 2 7.3829999999999991e+00 0.0000000000000000e+00 3.3174933359884456e+01 0 0 0
651 2 8.6134999999999984e+00 2.1312885187135002e+00 3.0030999999999906e+01 0 0 0
653 2 9.8440000000000012e+00 1.4208590124756659e+00 3.0030999999999906e+01 0 0 0
655 2 9.8440000000000012e+00 0.0000000000000000e+00 3.0030999999999906e+01 0 0 0
696 2 1.1074500000000002e+01 2.1312885187135002e+00 3.0030999999999906e+01 0 0 0
649 2 8.6134999999999984e+00 3.5521475311891657e+00 3.0030999999999906e+01 0 0 0
694 2 1.1074500000000002e+01 3.5521475311891644e+00 3.0030999999999906e+01 0 0 0
916 2 8.6134999999999984e+00 7.1042950623783407e-01 3.3174933359884456e+01 0 0 0
932 2 8.6134999999999984e+00 2.1312885187135002e+00 3.3174933359884456e+01 0 0 0
933 2 9.8440000000000012e+00 2.8417180249513332e+00 3.3174933359884456e+01 0 0 0
934 2 9.8440000000000012e+00 0.0000000000000000e+00 3.3174933359884456e+01 0 0 0
935 2 1.1074500000000002e+01 7.1042950623783330e-01 3.3174933359884456e+01 0 0 0
955 2 1.1074500000000002e+01 2.1312885187135002e+00 3.3174933359884456e+01 0 0 0
558 2 0.0000000000000000e+00 5.6834360499026637e+00 3.0030999999999906e+01 0 0 0
560 2 0.0000000000000000e+00 4.2625770374269996e+00 3.0030999999999906e+01 0 0 0
577 2 1.2305000000000001e+00 6.3938655561404980e+00 3.0030999999999906e+01 0 0 0
579 2 2.4610000000000003e+00 5.6834360499026637e+00 3.0030999999999906e+01 0 0 0
581 2 2.4610000000000003e+00 4.2625770374269996e+00 3.0030999999999906e+01 0 0 0
606 2 3.6914999999999996e+00 6.3938655561404980e+00 3.0030999999999906e+01 0 0 0
575 2 1.2305000000000001e+00 7.8147245686161639e+00 3.0030999999999906e+01 0 0 0
604 2 3.6914999999999996e+00 7.8147245686161639e+00 3.0030999999999906e+01 0 0 0
885 2 0.0000000000000000e+00 4.2625770374269996e+00 3.3174933359884456e+01 0 0 0
886 2 1.2305000000000001e+00 4.9730065436648339e+00 3.3174933359884456e+01 0 0 0
894 2 1.2305000000000001e+00 6.3938655561404980e+00 3.3174933359884456e+01 0 0 0
896 2 2.4610000000000003e+00 4.2625770374269996e+00 3.3174933359884456e+01 0 0 0
897 2 3.6914999999999996e+00 4.9730065436648339e+00 3.3174933359884456e+01 0 0 0
909 2 3.6914999999999996e+00 6.3938655561404980e+00 3.3174933359884456e+01 0 0 0
884 2 0.0000000000000000e+00 7.1042950623783341e+00 3.3174933359884456e+01 0 0 0
895 2 2.4610000000000003e+00 7.1042950623783341e+00 3.3174933359884456e+01 0 0 0
608 2 4.9220000000000006e+00 5.6834360499026637e+00 3.0030999999999906e+01 0 0 0
610 2 4.9220000000000006e+00 4.2625770374269978e+00 3.0030999999999906e+01 0 0 0
643 2 6.1524999999999999e+00 6.3938655561404980e+00 3.0030999999999906e+01 0 0 0
645 2 7.3829999999999991e+00 5.6834360499026637e+00 3.0030999999999906e+01 0 0 0
647 2 7.3829999999999991e+00 4.2625770374269996e+00 3.0030999999999906e+01 0 0 0
641 2 6.1524999999999999e+00 7.8147245686161639e+00 3.0030999999999906e+01 0 0 0
911 2 4.9220000000000006e+00 4.2625770374269978e+00 3.3174933359884456e+01 0 0 0
912 2 6.1524999999999999e+00 4.9730065436648339e+00 3.3174933359884456e+01 0 0 0
928 2 6.1524999999999999e+00 6.3938655561404980e+00 3.3174933359884456e+01 0 0 0
930 2 7.3829999999999991e+00 4.2625770374269996e+00 3.3174933359884456e+01 0 0 0
910 2 4.9220000000000006e+00 7.1042950623783341e+00 3.3174933359884456e+01 0 0 0
929 2 7.3830000000000009e+00 7.1042950623783341e+00 3.3174933359884456e+01 0 0 0
688 2 8.6135000000000002e+00 6.3938655561404980e+00 3.0030999999999906e+01 0 0 0
690 2 9.8440000000000012e+00 5.6834360499026637e+00 3.0030999999999906e+01 0 0 0
692 2 9.8440000000000012e+00 4.2625770374270004e+00 3.0030999999999906e+01 0 0 0
735 2 1.1074500000000002e+01 6.3938655561404980e+00 3.0030999999999906e+01 0 0 0
686 2 8.6135000000000002e+00 7.8147245686161639e+00 3.0030999999999906e+01 0 0 0
733 2 1.1074500000000002e+01 7.8147245686161639e+00 3.0030999999999906e+01 0 0 0
931 2 8.6135000000000002e+00 4.9730065436648339e+00 3.3174933359884456e+01 0 0 0
951 2 8.6135000000000002e+00 6.3938655561404980e+00 3.3174933359884456e+01 0 0 0
953 2 9.8440000000000012e+00 4.2625770374270004e+00 3.3174933359884456e+01 0 0 0
954 2 1.1074500000000002e+01 4.9730065436648339e+00 3.3174933359884456e+01 0 0 0
975 2 1.1074500000000002e+01 6.3938655561404980e+00 3.3174933359884456e+01 0 0 0
952 2 9.8440000000000012e+00 7.1042950623783341e+00 3.3174933359884456e+01 0 0 0
571 2 0.0000000000000000e+00 9.9460130873296642e+00 3.0030999999999906e+01 0 0 0
573 2 0.0000000000000000e+00 8.5251540748539991e+00 3.0030999999999906e+01 0 0 0
600 2 2.4610000000000003e+00 9.9460130873296642e+00 3.0030999999999906e+01 0 0 0
602 2 2.4610000000000003e+00 8.5251540748539991e+00 3.0030999999999906e+01 0 0 0
596 2 1.2305000000000001e+00 1.2077301606043163e+01 3.0030999999999906e+01 0 0 0
598 2 1.2305000000000001e+00 1.0656442593567498e+01 3.0030999999999906e+01 0 0 0
633 2 3.6914999999999996e+00 1.2077301606043163e+01 3.0030999999999906e+01 0 0 0
635 2 3.6914999999999996e+00 1.0656442593567499e+01 3.0030999999999906e+01 0 0 0
892 2 0.0000000000000000e+00 8.5251540748539991e+00 3.3174933359884456e+01 0 0 0
893 2 1.2305000000000001e+00 9.2355835810918343e+00 3.3174933359884456e+01 0 0 0
907 2 2.4610000000000003e+00 8.5251540748539991e+00 3.3174933359884456e+01 0 0 0
908 2 3.6915000000000004e+00 9.2355835810918343e+00 3.3174933359884456e+01 0 0 0
891 2 0.0000000000000000e+00 1.1366872099805333e+01 3.3174933359884456e+01 0 0 0
905 2 1.2305000000000001e+00 1.0656442593567498e+01 3.3174933359884456e+01 0 0 0
906 2 2.4610000000000003e+00 1.1366872099805333e+01 3.3174933359884456e+01 0 0 0
924 2 3.6914999999999996e+00 1.0656442593567499e+01 3.3174933359884456e+01 0 0 0
637 2 4.9220000000000006e+00 9.9460130873296642e+00 3.0030999999999906e+01 0 0 0
639 2 4.9220000000000006e+00 8.5251540748539991e+00 3.0030999999999906e+01 0 0 0
682 2 7.3830000000000009e+00 9.9460130873296642e+00 3.0030999999999906e+01 0 0 0
684 2 7.3830000000000009e+00 8.5251540748539991e+00 3.0030999999999906e+01 0 0 0
678 2 6.1524999999999999e+00 1.2077301606043163e+01 3.0030999999999906e+01 0 0 0
680 2 6.1524999999999999e+00 1.0656442593567499e+01 3.0030999999999906e+01 0 0 0
926 2 4.9220000000000006e+00 8.5251540748539991e+00 3.3174933359884456e+01 0 0 0
927 2 6.1524999999999999e+00 9.2355835810918343e+00 3.3174933359884456e+01 0 0 0
949 2 7.3830000000000009e+00 8.5251540748539991e+00 3.3174933359884456e+01 0 0 0
925 2 4.9220000000000006e+00 1.1366872099805333e+01 3.3174933359884456e+01 0 0 0
947 2 6.1524999999999999e+00 1.0656442593567499e+01 3.3174933359884456e+01 0 0 0
948 2 7.3829999999999991e+00 1.1366872099805333e+01 3.3174933359884456e+01 0 0 0
729 2 9.8440000000000012e+00 9.9460130873296642e+00 3.0030999999999906e+01 0 0 0
731 2 9.8440000000000012e+00 8.5251540748539956e+00 3.0030999999999906e+01 0 0 0
725 2 8.6135000000000002e+00 1.2077301606043163e+01 3.0030999999999906e+01 0 0 0
727 2 8.6134999999999984e+00 1.0656442593567498e+01 3.0030999999999906e+01 0 0 0
772 2 1.1074500000000002e+01 1.2077301606043163e+01 3.0030999999999906e+01 0 0 0
774 2 1.1074500000000002e+01 1.0656442593567498e+01 3.0030999999999906e+01 0 0 0
950 2 8.6134999999999984e+00 9.2355835810918343e+00 3.3174933359884456e+01 0 0 0
973 2 9.8440000000000012e+00 8.5251540748539956e+00 3.3174933359884456e+01 0 0 0
974 2 1.1074500000000002e+01 9.2355835810918343e+00 3.3174933359884456e+01 0 0 0
971 2 8.6134999999999984e+00 1.0656442593567498e+01 3.3174933359884456e+01 0 0 0
972 2 9.8440000000000012e+00 1.1366872099805333e+01 3.3174933359884456e+01 0 0 0
995 2 1.1074500000000002e+01 1.0656442593567498e+01 3.3174933359884456e+01 0 0 0
996 2 1.2304999999999998e+01 1.1366872099805333e+01 3.3174933359884456e+01 0 0 0
4628 1 1.9482746631329313e+00 3.8570004437993859e+00 3.6285461043161050e+01 1 1 0
2110 1 2.7172238452510968e+00 1.2539813670814686e+00 3.5606651810802859e+01 1 0 0
139 1 1.6670737905498492e+00 1.7678393553123462e+00 3.8777717930428039e+01 1 0 0
1715 1 1.7548936466888004e-01 3.7928306909838438e-01 3.6117024069651990e+01 1 0 0
6211 1 4.6961051795135891e+00 2.8695837043974914e+00 3.7598130634814837e+01 1 1 -1
4639 1 7.5418986284342511e+00 3.8024576498136304e+00 3.6556021189212913e+01 0 0 0
3711 1 7.8210812351906585e+00 2.8261193465621659e-01 3.8492995277678489e+01 1 1 0
4750 1 1.1089909848621557e+01 3.8272339597922977e-01 3.8673961959721368e+01 0 1 0
1677 1 1.1253286660469506e+01 1.2120410251181954e+00 3.5876763437883682e+01 0 -1 -1
4428 1 8.5616147681820181e+00 1.4923894104172970e+00 3.5773603543823441e+01 0 1 0
6024 1 2.9377846979293754e+00 7.1491211641246837e+00 3.5834079484088008e+01 0 1 -1
4563 1 3.5247740762383586e+00 7.1796434951090209e+00 3.8574550693696423e+01 0 2 0
1282 1 5.0514654546527593e+00 4.8871223336714502e+00 3.5575660205137275e+01 0 0 0
1412 1 6.8232740827335299e+00 7.0545320306871195e+00 3.6015145472647205e+01 -1 0 0
4439 1 6.3955978995372131e+00 7.2758651418175946e+00 3.8641460727480009e+01 1 0 0
3130 1 9.6371475408510747e+00 5.7813079043741595e+00 3.5766779628037881e+01 0 1 0
4705 1 1.0183635502776371e+01 6.8885203605407854e+00 3.8556275808441143e+01 0 0 0
242 1 1.2294557718019492e+01 5.6361955667703496e+00 3.6101284502242905e+01 0 0 -1
1366 1 1.0987706099310515e+00 9.1238089782235861e+00 3.7304291478487613e+01 0 0 -1
1822 1 3.9366343064150757e+00 1.1350151265641236e+01 3.7777508986109325e+01 0 0 -1
495 1 8.0237511933116590e-01 1.1386363294347136e+01 3.5746743643849385e+01 0 0 0
5116 1 7.2960640399191456e+00 1.0826444539552092e+01 3.6020391517341125e+01 0 0 -1
2008 1 4.7259481423929524e+00 9.3192448468557227e+00 3.5810343431339589e+01 0 0 -1
97 1 1.1534347628890552e+01 1.1047361832648109e+01 3.5603565697687216e+01 0 0 0
4585 1 9.3068548315578425e+00 9.0433988676766806e+00 3.6293360652972794e+01 1 1 0
6328 1 1.1008508983961169e+01 1.0895528959037152e+01 3.8395128602200330e+01 0 0 0
1426 1 3.2106438543968185e-01 2.8509916208800528e+00 4.1282051359584614e+01 -1 0 0
1355 1 7.0522193395611066e-01 5.8717816485212848e-02 4.2031408814360262e+01 0 1 0
1702 1 6.1505968353390736e+00 3.7960038497958752e+00 4.1004750637776809e+01 0 0 -1
1746 1 5.9175829001609177e+00 1.0144828199465163e+00 4.0202333948386553e+01 1 1 -1
4944 1 1.0214420518018004e+01 1.8735746091002337e+00 4.2383161481499727e+01 1 1 -1
85 1 9.3553762660765774e+00 2.5310759213716985e+00 3.9637365418451736e+01 1 0 -1
3476 1 2.1913514626686661e+00 4.7885219089898454e+00 3.9749773139004546e+01 2 0 0
3685 1 3.6690002887786561e+00 4.5303463433913347e+00 4.2027317837178089e+01 0 0 0
548 1 8.1203366619875226e+00 5.0888519670181465e+00 3.8972815406598471e+01 1 0 -1
4877 1 4.1329653295487168e+00 7.6407104197074442e+00 4.2361630451103096e+01 0 -1 -1
2892 1 1.1428985493188275e+01 5.0049148829923258e+00 4.0339303219981915e+01 0 1 0
3164 1 1.0550057736720333e+01 6.2997830897322329e+00 4.3114080777465091e+01 1 1 0
6075 1 4.5152755355528662e-01 8.5718418060523689e+00 4.0032031819579544e+01 0 0 0
166 1 3.3446004029212926e+00 9.4754880374790194e+00 4.0284193746426766e+01 2 0 -1
3271 1 1.6246444912436369e+00 1.1330930090724140e+01 4.1819506870757436e+01 1 1 0
1457 1 6.4499319890830362e+00 1.0350918742859019e+01 3.9033388688639292e+01 1 0 0
118 1 9.0753591923353945e+00 9.3017903241910940e+00 3.9925220720194858e+01 1 1 0
550 1 9.3665979601432348e+00 1.1923165634525187e+01 4.1782600908397072e+01 0 1 0
4632 1 8.8391323517410143e+00 8.4076879689556172e+00 4.2797879455277979e+01 1 2 0
4710 1 1.7022163513009978e+00 2.9349132486053127e+00 4.5721226645962190e+01 0 1 0
1314 1 2.2216929002361270e+00 4.4522585254193631e-01 4.4665892653759229e+01 0 0 0
4609 1 6.1868690865332807e+00 2.9037531722537588e+00 4.5310346731009361e+01 1 -1 -1
1514 1 4.9270613522556630e+00 6.8450851852345784e-01 4.4718555646058590e+01 1 2 0
4947 1 9.5831950621474196e+00 4.4304836627353938e-01 4.5431044136441230e+01 1 0 -1
19 1 9.9435566686610457e+00 3.7059448575388725e+00 4.4247073501183266e+01 1 0 -1
4680 1 4.0921849021012546e+00 4.5017844823682891e+00 4.5335178015234447e+01 1 -1 -1
5958 1 3.7235019089805284e+00 7.4360506291042148e+00 4.5708887376304119e+01 1 -1 -1
3404 1 5.7563165445994102e-01 4.5265085735885133e+00 4.3598029802381106e+01 2 0 -1
4553 1 6.1829607951971708e+00 5.2505742991040272e+00 4.7582442567446535e+01 0 0 -1
1417 1 6.5798808086026463e+00 7.3372054967460336e+00 4.3739586055798128e+01 0 0 0
1975 1 7.3742805200083090e+00 4.6057355992828750e+00 4.3472008996893024e+01 0 0 0
6093 1 8.8245712148238482e+00 4.2668880337640820e+00 4.7180829826578005e+01 0 1 0
3171 1 1.1303418212774716e+01 6.6067794253666294e+00 4.6208437228807526e+01 0 1 0
3660 1 2.4446928860508597e+00 1.1063826444776012e+01 4.5535589940084463e+01 0 1 0
6223 1 2.0296834209411867e+00 9.0267650106564137e+00 4.3876056150938808e+01 0 0 -1
3630 1 6.5597708592961927e+00 8.2732828199006541e+00 4.6600448732661960e+01 2 0 -1
1405 1 4.9096232165902514e+00 1.0580024928730881e+01 4.6707228385503811e+01 0 0 0
4468 1 9.5021077842412538e+00 8.9753172723716403e+00 4.6886196209380941e+01 0 1 0
4812 1 9.0554970700877728e+00 1.0891681677048574e+01 4.4518409168842368e+01 0 0 -1
5132 1 3.0023160128043829e+00 2.4348305073356391e+00 4.8531513641881986e+01 1 0 0
5130 1 2.3284924922483158e-01 2.4272019206346807e+00 4.9603164475683883e+01 1 0 -1
5318 1 7.5910264909519940e+00 2.9153490587221054e+00 4.9686478079265498e+01 0 1 -1