
# Create simulation box and atoms

read_data data.ML_graphite_1atm_240K
  orthogonal box = (0 0 3.74403) to (49.22 49.0196 56.318)
  4 by 4 by 4 MPI processor grid
  reading atoms ...
  6328 atoms
  reading velocities ...
  6328 velocities
group water type 1
3568 atoms in group water
group graphite type 2
2760 atoms in group graphite

# Define potential

pair_style sw
pair_coeff * * MLC_e.sw mW C


# Fix graphite atoms in place

fix 5 graphite setforce 0.0 0.0 0.0
velocity graphite set 0.0 0.0 0.0


# Equilibration of molecular water

# Add velocity/set timestep

velocity	    water create ${TEMP} ${SEED} rot yes dist gaussian
velocity	    water create 240 ${SEED} rot yes dist gaussian
velocity	    water create 240 15279 rot yes dist gaussian
timestep	    5.0

# Define output

compute			1 water msd
compute			3 water temp
thermo	    	50
thermo_style	custom step temp press vol etotal ke pe c_1[4] c_3

# Neighbor lists

neigh_modify    delay 0 every 1 check yes

# Set fixes

fix             1 water momentum 10 linear 1 1 1 rescale
fix             2 water nve
fix             3 water temp/csvr ${TEMP} ${TEMP} 500.0 ${SEED}
fix             3 water temp/csvr 240 ${TEMP} 500.0 ${SEED}
fix             3 water temp/csvr 240 240 500.0 ${SEED}
fix             3 water temp/csvr 240 240 500.0 15279
fix             4 water press/berendsen z ${PRES} ${PRES} 1000.0 modulus 20000
fix             4 water press/berendsen z 1 ${PRES} 1000.0 modulus 20000
fix             4 water press/berendsen z 1 1 1000.0 modulus 20000

# Run 0.5 ns equilibration

dump		    1 all atom 2000 ${DIR}/eq.${NAME}-${TEMP}.dump
dump		    1 all atom 2000 run_21/eq.${NAME}-${TEMP}.dump
dump		    1 all atom 2000 run_21/eq.het_freeze_21-${TEMP}.dump
dump		    1 all atom 2000 run_21/eq.het_freeze_21-240.dump

reset_timestep  0

run	            100000
Neighbor list info ...
  update every 1 steps, delay 0 steps, check yes
  max neighbors/atom: 2000, page size: 100000
  master list distance cutoff = 6.67472
  ghost atom cutoff = 6.67472
  binsize = 3.33736, bins = 15 15 16
  1 neighbor lists, perpetual/occasional/extra = 1 0 0
  (1) pair sw, perpetual
      attributes: full, newton on
      pair build: full/bin/atomonly
      stencil: full/bin/3d
      bin: standard
Per MPI rank memory allocation (min/avg/max) = 4.072 | 4.208 | 4.496 Mbytes
Step Temp Press Volume TotEng KinEng PotEng c_1[4] c_3 
       0    135.30583   -58.143592    126847.59   -33960.221    2551.8119   -36512.033            0          240 
      50    137.57651   -172.16275    126916.16   -33960.436     2594.636   -36555.072   0.52389668    244.02764 
     100    136.08041   -156.45666    126962.33   -33983.659    2566.4201   -36550.079   0.94762876    241.37391 
     150    135.73693    -149.0468     127020.6   -33984.237    2559.9422    -36544.18    1.2198987    240.76467 
     200    137.66213    -232.5426    127059.16   -33930.844    2596.2507   -36527.095    1.4711779    244.17951 
     250    139.96549   -300.41464    127118.42   -33924.314    2639.6911   -36564.006    1.6657269    248.26512 
     300    134.95753   -166.01702    127096.37   -33916.927    2545.2431    -36462.17     1.946641     239.3822 
     350    138.23765   -33.404189    127037.55   -33923.054    2607.1047   -36530.158    2.2396351    245.20034 
     400    139.34032    93.363799    127107.73   -33884.788    2627.9006   -36512.688    2.4668014     247.1562 
     450    138.44646    -258.2827     127193.9    -33904.65    2611.0427   -36515.693     2.692497    245.57071 
     500    140.67318   -87.119042    127205.15   -33906.097    2653.0378   -36559.135    2.9512138    249.52039 
     550    135.69996   -504.59142    127183.32   -33953.002     2559.245   -36512.247    3.1847029    240.69909 
     600    134.65418   -159.32636    127160.88   -33972.705     2539.522   -36512.227    3.3837218    238.84413 
     650    137.81013   -184.25466    127095.56   -34001.096     2599.042   -36600.138    3.5729288    244.44203 
     700    134.39227   -54.724683     127161.6   -33985.079    2534.5824   -36519.662    3.8995763    238.37955 
     750    137.14159   -320.25095    127145.53   -33977.339    2586.4334   -36563.773    4.1392682    243.25619 
     800    133.67528    -146.9612    127231.88   -34010.982    2521.0604   -36532.042    4.3549256     237.1078 
     850    134.28559   -283.47828    127234.88   -34009.444    2532.5706   -36542.015    4.6438237    238.19034 
     900    133.36969   -150.88018    127232.55   -33996.251     2515.297   -36511.548    4.8014383    236.56575 
     950    135.54025    9.9727969    127270.99   -34079.796    2556.2329   -36636.029    5.0057669     240.4158 
    1000    135.36923   -43.785078     127381.7   -34039.443    2553.0075   -36592.451    5.2239817    240.11245 
    1050    134.68227   -141.85396    127425.67   -34033.821    2540.0518   -36573.873    5.4745248    238.89395 
    1100    134.21686   -47.665616    127402.08   -34001.209    2531.2742   -36532.483    5.6908467    238.06842 
    1150    134.52485   -294.37379    127402.47   -33979.468    2537.0829   -36516.551     5.984561    238.61473 
    1200    135.97386    34.144662    127353.49   -33962.541    2564.4106   -36526.952    6.2826249    241.18492 
    1250     135.4507   -387.33678    127452.32   -33982.922    2554.5439   -36537.466    6.4647326    240.25695 
    1300    136.52441    -357.6464    127457.65   -33960.243    2574.7938   -36535.037    6.6270137    242.16146 
    1350    134.93584   -235.24035    127407.56   -33958.178     2544.834   -36503.012    6.8139428    239.34372 
    1400    135.64175   -195.81433    127351.78   -33984.517    2558.1471   -36542.664      6.97575    240.59583 
    1450    133.13869   -345.36473     127343.6   -33962.953    2510.9404   -36473.893    7.0780077      236.156 
    1500    134.25124   -113.71117    127287.93    -34009.47    2531.9226   -36541.393    7.2612908     238.1294 
    1550    133.29637   -229.53927    127231.52    -34058.01    2513.9143   -36571.925     7.542185     236.4357 
    1600    132.07999    27.022399    127249.49    -34055.36    2490.9738   -36546.334    7.8544248    234.27813 
    1650    135.97202    -211.6089    127278.83   -34047.239    2564.3759   -36611.614    7.9926214    241.18165 
    1700    133.84318   -403.55416    127314.15   -34063.033    2524.2269    -36587.26    8.2197763    237.40561 
    1750    132.76562   -203.63632    127333.41    -34091.02    2503.9045   -36594.924    8.5707143    235.49427 
    1800    135.07626    -274.2961    127160.14   -34022.727    2547.4823   -36570.209    8.8258672     239.5928 
    1850    134.82886    -324.6438    127095.67   -34034.356    2542.8163   -36577.172    9.0103519    239.15396 
    1900    134.29074   -142.35842    127086.45   -34045.865    2532.6676   -36578.533    9.1806588    238.19947 
    1950    133.96848   -229.91152    127129.73     -34002.8    2526.5901    -36529.39    9.3825848    237.62787 
    2000     135.2159   -404.51861    127127.67   -34007.385    2550.1158     -36557.5    9.6049954    239.84049 
    2050    137.96317   -360.24515    127042.24   -33990.658    2601.9282   -36592.586    9.8069309    244.71348 
    2100    135.13917   -664.85265    126978.49   -33979.128    2548.6686   -36527.797    9.9178642    239.70438 
    2150    134.28379   -478.50737    126891.86   -34036.302    2532.5366   -36568.839    10.176865    238.18715 
    2200    133.78966   -97.917165    126920.84   -34013.445    2523.2174   -36536.662    10.398605    237.31067 
    2250    136.25719   -155.09814    126938.87   -34012.141    2569.7541   -36581.895    10.731141    241.68748 
    2300    133.28989   -111.10047    126954.06   -34056.298    2513.7919    -36570.09    11.004279     236.4242 
    2350    135.98488   -313.08571    127019.75   -34077.043    2564.6184   -36641.661    11.279731    241.20447 
    2400    133.27924   -280.91042    126993.76    -34061.79    2513.5911   -36575.381    11.570763    236.40531 
    2450    134.56879   -209.06363    127009.49   -34020.466    2537.9116   -36558.377    11.694378    238.69267 
    2500    133.58028   -96.952994    127018.56    -34014.51    2519.2687   -36533.779     11.81493    236.93929 
    2550    136.54933   -191.05414     127078.1   -33987.571    2575.2638   -36562.835    12.087332    242.20567 
    2600    135.01688   -188.62472    127143.07   -34023.453    2546.3623   -36569.816    12.331956    239.48746 
    2650    134.64616    146.16036    127146.25   -34007.436    2539.3707   -36546.807    12.598253     238.8299 
    2700    135.59167   -245.89472    127157.16   -33993.769    2557.2027   -36550.972     12.94963    240.50702 
    2750    133.87053   -601.29624    127084.53   -34015.229    2524.7426   -36539.972    13.180959    237.45411 
    2800    136.66186    -221.7502    127080.54   -33971.182     2577.386   -36548.568     13.42847    242.40527 
    2850    135.67076   -54.103273    127173.65   -34001.487    2558.6942   -36560.181    13.680621    240.64729 
    2900    137.81893    -336.7751    127225.39   -33961.322    2599.2079    -36560.53    13.873661    244.45763 
    2950    131.97288   -378.27802    127206.79   -34010.301    2488.9537   -36499.255    14.036305    234.08814 
    3000    133.44566   -398.08106    127038.74     -34036.2    2516.7298    -36552.93    14.179816    236.70051 
    3050    135.01528   -158.03848    126992.04   -34055.138    2546.3322    -36601.47    14.492188    239.48464 
    3100    137.04083   -181.03519    127034.68   -34051.246    2584.5333   -36635.779     14.79837    243.07747 
    3150    137.99561   -121.84167    127051.39   -34022.071      2602.54   -36624.611    15.039631    244.77102 
    3200    135.30328    40.562211    127018.76   -34062.362    2551.7637   -36614.125    15.377919    239.99547 
    3250    135.18016   -91.036803    127115.93   -34066.825    2549.4417   -36616.266    15.769932    239.77708 
    3300    132.25672   -190.59157    127062.75   -34097.732    2494.3069   -36592.039    15.962818    234.59161 
    3350     135.9365   -402.12948    127049.77   -34091.008    2563.7061   -36654.714    16.159875    241.11866 
    3400     134.0077   -239.83213    127002.07   -34059.731    2527.3297   -36587.061    16.391771    237.69743 
    3450    131.74385   -219.87825    127035.51    -34098.59    2484.6343   -36583.224    16.668852     233.6819 
    3500     133.8235   -367.64354    127025.13   -34089.111    2523.8557   -36612.967    16.940126     237.3707 
    3550    136.78712   -134.55867    126977.21   -34021.783    2579.7483   -36601.531    17.282537    242.62744 
    3600    133.59204   -151.29642    126987.98   -34022.785    2519.4904   -36542.275    17.556323    236.96014 
    3650    136.81685   -206.65713     127008.2   -33995.899     2580.309   -36576.208    17.828625    242.68017 
    3700    133.11544   -291.34795    127055.94   -33981.322    2510.5019   -36491.824    18.078175    236.11476 
    3750    137.87718   -381.61376    127052.97   -33983.872    2600.3065   -36584.178    18.378781    244.56096 
    3800    135.54795    -309.0812    127217.21   -34022.082    2556.3782    -36578.46    18.651941    240.42947 
    3850    134.92698   -524.06561    127236.87   -34061.215    2544.6669   -36605.882    18.833216    239.32801 
    3900     135.8405   -293.38632     127160.4   -34003.042    2561.8955   -36564.937    19.035872    240.94837 
    3950    133.30448   -216.49229    127161.98   -34034.832    2514.0672   -36548.899    19.253737    236.45008 
    4000    136.13518   -376.46334    127123.65   -34031.423     2567.453   -36598.876     19.46184    241.47106 
    4050    131.42173   -212.66316    127063.93   -34066.596    2478.5592   -36545.155    19.578898    233.11053 
    4100    133.82875   -272.22603    127063.94   -34094.067    2523.9547   -36618.021    19.809857    237.38001 
    4150     135.3424    55.246155     127126.8   -34071.545    2552.5016   -36624.046     20.00885    240.06487 
    4200    138.70146   -40.840645     127241.2    -34027.38    2615.8521   -36643.232    20.181486    246.02303 
    4250    137.08251   -405.86402    127303.52   -34024.974    2585.3193   -36610.293    20.258874     243.1514 
    4300     134.9786   -296.67902    127377.89   -33997.443    2545.6405   -36543.084    20.524223    239.41958 
    4350    134.32002   -3.2987989     127381.9   -34024.134    2533.2198   -36557.354    20.865836     238.2514 
    4400    131.15102   -188.13975    127381.97   -34024.719    2473.4538   -36498.173    21.204898    232.63036 
    4450    134.47299   -144.18619    127417.93   -34065.685    2536.1048   -36601.789    21.469746    238.52274 
    4500    135.52108   -20.367972     127388.6   -34064.385    2555.8714   -36620.257    21.646978     240.3818 
    4550    134.26582   -219.13903    127465.12   -34102.758    2532.1976   -36634.956    21.930427    238.15527 
    4600    133.26927   -135.96306    127598.41   -34085.345    2513.4031   -36598.748     22.10826    236.38763 
    4650    134.93763   -129.35917    127587.64   -34079.793    2544.8678   -36624.661    22.273994     239.3469 
    4700    135.73273    39.441842    127753.94   -34092.071     2559.863   -36651.934    22.371394    240.75722 
    4750    134.01318   -121.28378    127878.44   -34052.452    2527.4329   -36579.885    22.658443    237.70714 
    4800    135.21397   -153.85909    127892.04   -34054.504    2550.0794   -36604.584    22.956666    239.83706 
    4850    136.26841   -59.451967    128018.28   -34049.812    2569.9656   -36619.778    23.116979    241.70738 
    4900    135.00702   -257.54026    127977.76   -34029.857    2546.1764   -36576.034    23.369202    239.46998 
    4950    137.96546   -182.04089    128003.06   -34032.302    2601.9713   -36634.273    23.581625    244.71753 
    5000    136.64942   -262.26502    128034.99   -34022.403    2577.1513   -36599.554    23.757532    242.38319 
    5050    135.37896   -214.06441    128039.36   -33999.789    2553.1911    -36552.98     23.86143    240.12972 
    5100     134.0968   -284.63975    127982.53   -34037.575      2529.01   -36566.585    23.970042    237.85546 
    5150    134.71462   -509.51764    127919.69   -34055.576    2540.6618   -36596.238    24.144498    238.95133 
    5200    135.39606   -199.74451    127823.33   -34070.327    2553.5136   -36623.841    24.192446    240.16005 
    5250    134.85292   -310.27241    127750.07   -34060.457    2543.2701   -36603.727    24.339382    239.19664 
    5300    136.30817    68.816276     127814.8   -34044.912    2570.7156   -36615.628    24.615961    241.77791 
    5350    133.77725   -191.94942    127890.79   -34005.743    2522.9835   -36528.727    24.722657    237.28867 
    5400     136.7543   -230.48476    127925.81   -34014.729    2579.1293   -36593.858    24.860531    242.56923 
    5450    135.64319   -277.54964    127937.56   -34028.216    2558.1742   -36586.391    25.159866    240.59838 
    5500    135.92912    -114.0161    127857.77   -34062.354    2563.5669   -36625.921    25.318697    241.10557 
    5550    134.23589   -417.99708    127813.07   -34060.639    2531.6332   -36592.272    25.400524    238.10218 
    5600    132.52031   -272.77501    127800.35   -34106.629     2499.278   -36605.907    25.582426    235.05915 
    5650    131.64643   -391.09312    127845.46   -34118.064    2482.7971   -36600.861     25.81358     233.5091 
    5700    133.23634   -186.31804     127915.6   -34115.401    2512.7821   -36628.183     26.01697    236.32922 
    5750    136.85357   -77.928184     127988.9   -34034.549    2581.0015    -36615.55    26.307796    242.74531 
    5800    138.42032    -228.1675    128126.42   -34041.087    2610.5497   -36651.637    26.643259    245.52435 
    5850    135.89162   -41.830578    128100.35   -34076.809    2562.8595   -36639.668    26.833429    241.03904 
    5900    133.65463    -272.5185    128107.62   -34127.922    2520.6709   -36648.593     27.04041    237.07116 
    5950    130.50756   -437.12696    128087.96   -34151.153    2461.3184   -36612.471    27.140412    231.48902 
    6000    133.46806   -521.68581    127973.55   -34160.938    2517.1523    -36678.09    27.388972    236.74024 
    6050    134.18477   -242.17292    127858.06   -34153.889     2530.669   -36684.558    27.487505     238.0115 
    6100    130.37914   -341.15087    127866.85   -34180.618    2458.8964   -36639.514     27.51726    231.26123 
    6150    134.27484    -411.1069    127863.17   -34202.526    2532.3679   -36734.894    27.650315    238.17128 
    6200    133.97049   -442.20656    127799.57    -34187.13    2526.6278   -36713.758    27.743515    237.63142 
    6250    134.24548   -453.05339    127714.55    -34142.17     2531.814   -36673.984    27.811884    238.11919 
    6300    134.77646   -258.59658    127677.34    -34075.03    2541.8281   -36616.858    27.905283    239.06102 
    6350    135.86719   -298.70118    127645.22   -34066.228    2562.3989   -36628.627    28.021945    240.99572 
    6400     136.0606   -38.215675    127681.72   -34020.332    2566.0464   -36586.378    28.297409    241.33877 
    6450    137.43474   -254.24348    127753.84   -33973.879    2591.9622   -36565.842    28.559778    243.77617 
    6500    135.65375   -122.94391    127750.37   -34010.329    2558.3735   -36568.703    28.825439    240.61712 
    6550    137.78896   -297.83925    127768.71   -34042.064    2598.6427   -36640.707    29.071506    244.40448 
    6600    137.03468   -405.04511    127760.85   -34024.835    2584.4172   -36609.253    29.124553    243.06656 
    6650     136.0983    -268.5866    127817.56   -34052.901    2566.7575   -36619.658     29.22744    241.40564 
    6700    134.93676   -192.99694    127835.88   -34032.416    2544.8514   -36577.267    29.420872    239.34536 
    6750    136.77386   -351.04701    127861.02   -34025.174    2579.4983   -36604.672     29.59599    242.60393 
    6800    133.33919    137.02494    127860.54   -34044.824    2514.7219   -36559.546    29.865758    236.51166 
    6850    135.30515   -281.69407    127854.17   -34036.049    2551.7989   -36587.848    30.049258    239.99878 
    6900    135.79651   -502.34567    127767.42   -34042.253    2561.0659   -36603.319    30.240329    240.87035 
    6950    135.74527   -141.61508    127809.11   -34065.144    2560.0994   -36625.244    30.556218    240.77945 
    7000    134.16194   -184.35884    127823.55    -34052.34    2530.2385   -36582.579    30.919245    237.97101 
    7050    136.16924   -204.72192    127872.81   -34023.022    2568.0954   -36591.117    31.125308    241.53148 
    7100    136.92829   -312.15393    127855.99   -33997.752    2582.4108   -36580.163    31.416389    242.87786 
    7150    139.18444   -432.19106    127855.95   -33983.317    2624.9608   -36608.278    31.704825    246.87972 
    7200    134.41514   -176.88864    127766.97   -33994.117    2535.0139    -36529.13    31.861463    238.42013 
    7250    134.87042    -305.5411    127701.58   -33964.661    2543.6003   -36508.262    32.116817    239.22769 
    7300    139.18115    -402.5746    127624.16   -33918.616    2624.8987   -36543.515    32.604152    246.87388 
    7350    138.46841   -127.52391    127704.26   -33980.886    2611.4568   -36592.343     32.93816    245.60965 
    7400    137.35256   -128.85089    127720.82   -33997.539    2590.4123   -36587.951     33.32363     243.6304 
    7450    136.41124    39.106468    127780.84   -33972.233    2572.6594   -36544.893      33.5714    241.96073 
    7500    139.56439   -268.24388    127771.65   -33934.014    2632.1265   -36566.141    33.709743    247.55365 
    7550    140.75047   -329.78999    127684.48   -33895.174    2654.4955    -36549.67    34.096287    249.65748 
    7600     136.2037   -247.91495    127664.17   -33920.826    2568.7453   -36489.571    34.325495     241.5926 
    7650    136.88862    -119.0115    127633.66   -33941.889    2581.6625   -36523.551    34.674311    242.80748 
    7700     135.8587   -393.16861    127651.66   -33962.854    2562.2387   -36525.093    35.035566    240.98065 
    7750    132.29106   -204.74478    127602.27   -34023.514    2494.9544   -36518.468    35.411164    234.65251 
    7800    135.02123   -700.53235    127540.52   -34055.981    2546.4443   -36602.425    35.792017    239.49518 
    7850    133.10314   -334.10398    127472.86    -34072.83    2510.2701     -36583.1    36.177778    236.09296 
    7900    131.48325     -336.928     127491.6   -34060.215    2479.7196   -36539.934     36.32173    233.21966 
    7950    133.24285   -414.09742    127488.07   -34063.203    2512.9048   -36576.108    36.489473    236.34076 
    8000    134.40103   -292.84633       127454   -34020.864    2534.7476   -36555.612    36.736751    238.39509 
    8050    133.74382   -333.87174    127456.97   -34007.481    2522.3529   -36529.834    37.032845    237.22936 
    8100    134.52268     53.30716    127566.04   -34028.214    2537.0419   -36565.256    37.138839    238.61087 
    8150    135.31864   -500.71514    127623.75   -34046.815    2552.0534   -36598.869    37.324471    240.02272 
    8200    136.17626   -318.43267    127541.76   -34011.438    2568.2277   -36579.666    37.403886    241.54392 
    8250    132.78486   -418.77508    127447.19   -34011.247    2504.2673   -36515.514     37.56385     235.5284 
    8300    135.77058    26.257724    127514.83   -34000.276    2560.5768   -36560.853    37.861508    240.82435 
    8350    138.25236    -192.1461    127574.07    -33984.23    2607.3821   -36591.613    38.206272    245.22642 
    8400    134.51618   -227.32706    127511.62    -34012.57    2536.9194   -36549.489    38.346984    238.59935 
    8450    136.46038   -217.87458    127525.47   -34045.285    2573.5862   -36618.872    38.625132    242.04789 
    8500    139.58401   -95.020856    127627.44   -33974.041    2632.4964   -36606.537    38.829915    247.58845 
    8550    138.05729   -157.31609    127731.29   -33960.673    2603.7033   -36564.376    39.035332    244.88043 
    8600    134.21877   -412.53229    127743.17   -33948.052    2531.3103   -36479.362    39.183493    238.07181 
    8650    136.29049   -108.12607    127733.35   -33969.852    2570.3821   -36540.234    39.474249    241.74655 
    8700    135.60203   -95.107249    127766.67   -33962.924     2557.398   -36520.322     39.61343    240.52538 
    8750    135.80322   -384.34457    127746.21   -33999.042    2561.1923   -36560.234    39.870619    240.88224 
    8800    136.72079    23.628246    127785.78   -33970.956    2578.4975   -36549.453    39.971217     242.5098 
    8850    138.55111   -320.12988    127811.59   -33939.916    2613.0164   -36552.932    40.184807    245.75634 
    8900    135.60542   -159.17315    127739.89   -33982.675    2557.4619   -36540.137    40.433908    240.53139 
    8950    139.24871   -216.78808    127768.25   -33981.005     2626.173   -36607.178    40.771299    246.99373 
    9000     137.1662   -264.29024    127755.31   -34017.108    2586.8976   -36604.006    41.068079    243.29984 
    9050    137.42641   -63.734071    127857.56   -34012.679    2591.8052   -36604.484    41.244261     243.7614 
    9100    133.21611   -460.17924    127884.34   -34040.244    2512.4006   -36552.644    41.466536    236.29333 
    9150    136.79039   -237.19086    127865.42   -34018.404      2579.81   -36598.214     41.66114    242.63325 
    9200    135.16329   -267.29254    127887.19   -33995.505    2549.1235   -36544.629    41.828963    239.74716 
    9250    136.62171   -59.264719    127873.94   -34021.779    2576.6289   -36598.408    42.041545    242.33406 
    9300    133.50338    -286.5754    127961.41   -34069.729    2517.8183   -36587.548    42.252293    236.80288 
    9350    135.87057   -493.63442    127894.75   -34048.202    2562.4627   -36610.665    42.341311    241.00172 
    9400    134.42391   -524.65486    127827.27   -34042.969    2535.1792   -36578.149    42.413307    238.43568 
    9450    137.48242    -310.8281    127776.19   -34044.251    2592.8615   -36637.113    42.638424    243.86075 
    9500    135.03154   -352.91666    127731.92   -34054.518    2546.6389   -36601.156    42.642409    239.51347 
    9550    135.10998   -369.47646    127672.71   -34070.699    2548.1183   -36618.817    42.829414    239.65261 
    9600    136.42188   -219.44309    127650.61   -34022.761      2572.86   -36595.621    43.137069     241.9796 
    9650    138.02068   -173.10676    127623.36   -34048.267    2603.0127    -36651.28    43.442995    244.81548 
    9700    133.10808   -139.84881    127472.41   -34073.069    2510.3632   -36583.432    43.679584    236.10172 
    9750    134.42093   -277.84044    127422.78   -34043.232    2535.1229   -36578.355    43.957618    238.43039 
    9800    134.27012     -326.606    127342.16    -34026.48    2532.2788   -36558.759    44.317427     238.1629 
    9850    132.13549   -223.81329    127296.37   -34037.317    2492.0205   -36529.337    44.239581    234.37657 
    9900    135.69746    -332.2848    127222.88   -33985.768    2559.1979   -36544.966    44.483813    240.69466 
    9950    136.64741   -264.74848    127178.63   -33957.465    2577.1134   -36534.578    44.701281    242.37963 
   10000    137.21087   -461.13419    127231.03   -33966.016    2587.7401   -36553.756    44.764767    243.37908 
   10050    135.68812   -297.38324    127160.24   -34015.449    2559.0216    -36574.47    44.834297    240.67808 
   10100    134.17511     102.8659    127266.16   -34005.958    2530.4869   -36536.445    45.109355    237.99437 
   10150    134.42294      4.66901    127330.41   -34021.861    2535.1609   -36557.022    45.548777    238.43396 
   10200    133.71467   -158.97489    127326.99   -34020.461    2521.8031   -36542.264    45.788817    237.17765 
   10250    134.57551   -293.94387    127346.68   -34018.751    2538.0384   -36556.789    45.936831    238.70459 
   10300    135.57964   -321.88648       127307    -34045.54    2556.9757   -36602.516     46.09556    240.48566 
   10350    133.09402   -283.95661    127239.21   -34047.092    2510.0979    -36557.19    46.378466    236.07677 
   10400    134.29939   -142.56085     127240.7   -34035.745    2532.8307   -36568.576    46.510194    238.21481 
   10450    134.37541   -189.18789    127280.51   -34004.394    2534.2645   -36538.658    46.637436    238.34966 
   10500     129.4005   -363.83512    127271.51   -34072.313    2440.4398   -36512.753    46.813213    229.52536 
   10550    134.27037   -354.26451    127230.08   -34028.059    2532.2836   -36560.343    47.040709    238.16335 
   10600     134.1109   -240.75743    127278.69    -33984.23     2529.276   -36513.506    47.366873    237.88049 
   10650    136.08387   -275.47737    127318.24   -33968.074    2566.4852   -36534.559    47.294971    241.38004 
   10700    134.04092   -350.36253    127318.54   -33965.281    2527.9561   -36493.237    47.243111    237.75635 
   10750    136.50848   -641.52249    127294.15   -33945.922    2574.4933   -36520.415    47.568986    242.13321 
   10800    137.92059   -372.55612    127295.99    -33934.35    2601.1251   -36535.475    48.042581    244.63795 
   10850    135.24535   -595.53807    127336.05   -33943.556    2550.6712   -36494.227    48.302619    239.89272 
   10900    135.51148    -598.2131    127314.28   -33957.102    2555.6903   -36512.792    48.576237    240.36477 
   10950    137.46966   -322.81715    127309.94   -33905.578    2592.6207   -36498.199    48.778326    243.83811 
   11000    135.91059   -490.77214    127320.92   -33902.608    2563.2174   -36465.826    48.834452     241.0727 
   11050    138.06635   -25.211033    127253.94   -33916.614     2603.874   -36520.488    49.028896    244.89649 
   11100    138.02449   -96.711554    127316.46   -33929.544    2603.0846   -36532.628    49.020544    244.82224 
   11150    139.29516   -437.90144    127292.14   -33930.062    2627.0489   -36557.111    49.271477     247.0761 
   11200     135.7647   -257.20868    127176.45   -33968.083    2560.4659   -36528.548    49.567003    240.81392 
   11250    138.00084   -332.76981     127068.3   -33982.287    2602.6386   -36584.926    49.779179     244.7803 
   11300    133.89171   -380.49302    126973.83   -34004.947    2525.1422   -36530.089    50.143235    237.49169 
   11350    135.25912   -251.33348    126996.59   -33985.834    2550.9308   -36536.765    50.302069    239.91714 
   11400    134.93905   -295.60642    126930.79   -33963.367    2544.8946   -36508.261    50.670595    239.34942 
   11450    136.08744   -467.18025     126883.4   -33945.149    2566.5526   -36511.702    51.017549    241.38638 
   11500    137.00071   -216.42204    126865.66   -33940.385    2583.7765   -36524.161    51.369519     243.0063 
   11550    135.99637   -237.96029    126856.39   -33957.192    2564.8351   -36522.028    51.677825    241.22485 
   11600    136.28302    42.676155    126910.76   -33947.541    2570.2413   -36517.782    51.947072     241.7333 
   11650    136.76354   -149.59118    126997.91   -33963.632    2579.3037   -36542.935    52.130498    242.58563 
   11700    134.68211   -161.59112    127088.56   -33985.853    2540.0487   -36525.902     52.42667    238.89367 
   11750    135.77159   -238.99587    127097.15   -33975.429     2560.596   -36536.025    52.723526    240.82615 
   11800    133.46079   -486.30094     127045.1   -33984.442    2517.0152   -36501.457    53.070259    236.72735 
   11850    132.40453   -214.43591    127048.69   -34004.355    2497.0945    -36501.45    53.108794    234.85379 
   11900    138.11447   -244.83098    127013.85   -33966.706    2604.7815   -36571.487    53.411997    244.98184 
   11950    137.30415   -156.13017    127062.25   -33955.507    2589.4994   -36545.006     54.00188    243.54454 
   12000    134.43578   -116.61695    127104.57   -33957.635    2535.4031   -36493.039    54.293345    238.45674 
   12050    137.86277   -303.25529    127278.75   -33961.792    2600.0346   -36561.827    54.484229    244.53539 
   12100    136.49858   -47.094229    127295.58   -33986.666    2574.3065   -36560.973     54.48769    242.11564 
   12150    132.52987   -62.444991    127352.65   -34050.433    2499.4585   -36549.891    54.549043    235.07612 
   12200    133.42426   -290.67193    127330.49    -34095.37    2516.3262   -36611.696    54.653612    236.66254 
   12250    131.69463   -305.99509    127358.96    -34129.28    2483.7061   -36612.986    54.787853     233.5946 
   12300    134.60339   -24.729683    127410.32   -34061.517    2538.5641   -36600.081     54.75827    238.75403 
   12350    135.76333   -199.09095    127499.98   -34064.708    2560.4402   -36625.148    55.048995     240.8115 
   12400    133.10711   -301.14093    127559.98   -34093.858    2510.3448   -36604.203    55.481066    236.09999 
   12450    136.15555   -260.43837    127494.85   -34057.866    2567.8372   -36625.703    55.569103     241.5072 
   12500    133.43346   -384.35979    127509.02   -34055.215    2516.4998   -36571.715    55.748492    236.67887 
   12550    134.93568   -146.71536    127489.95   -34032.692     2544.831   -36577.523    55.934568    239.34345 
   12600    133.55665   -377.85758    127444.74   -34058.594     2518.823   -36577.417    56.156313    236.89737 
   12650    133.27228   -60.973888    127470.19   -34066.901    2513.4599   -36580.361    56.215545    236.39297 
   12700    132.84793   -185.88331    127468.72   -34026.186    2505.4568   -36531.643       56.483    235.64027 
   12750    132.90176    -229.2441    127495.88    -34030.72     2506.472   -36537.192    56.484321    235.73575 
   12800    135.62918   -399.28604    127498.39   -33973.164    2557.9101   -36531.074    56.648081    240.57355 
   12850    135.87054   -300.13673    127495.74   -33954.927     2562.462   -36517.389    56.834619    241.00165 
   12900    139.09077   -524.98659     127560.5   -33959.646    2623.1942    -36582.84    57.370979    246.71357 
   12950     135.3376   -24.221277    127558.82    -33990.11     2552.411   -36542.521    57.700549    240.05635 
   13000    133.77624    -358.3515     127603.5   -34023.512    2522.9643   -36546.476    57.846873    237.28687 
   13050    133.40828    43.401353    127664.31   -34049.989    2516.0248   -36566.013    58.002051    236.63419 
   13100    134.55005   -265.57629    127673.12   -34034.559    2537.5582   -36572.117    58.393878    238.65943 
   13150    134.77417   -209.22885    127704.32   -34051.758    2541.7849   -36593.543    58.792719    239.05696 
   13200    132.38904    -317.5215    127711.16    -34006.28    2496.8024   -36503.083    58.946025    234.82632 
   13250    133.83075   -508.85766    127739.11   -34000.498    2523.9924    -36524.49    59.175174    237.38356 
   13300     136.7211   -287.71385    127721.56   -33948.723    2578.5033   -36527.226    59.510987    242.51035 
   13350    136.54006   -583.27529     127695.9   -33932.223    2575.0889   -36507.312    59.867373    242.18923 
   13400    135.66593   -279.26423    127626.14   -34041.002    2558.6032   -36599.605    59.937917    240.63873 
   13450    134.35138   -410.70223    127522.18   -34023.722    2533.8112   -36557.533    60.142772    238.30702 
   13500    134.03431   -291.91194    127410.92   -34014.715    2527.8314   -36542.546    60.186002    237.74462 
   13550    135.37958   -475.79972    127300.98   -34017.541    2553.2026   -36570.744    60.256761     240.1308 
   13600    134.72112   -185.64281    127244.96   -34023.221    2540.7845   -36564.006     60.44513    238.96287 
   13650    136.81898     -463.181    127264.64   -33964.148    2580.3492   -36544.497    60.672102    242.68396 
   13700    133.12483     -264.238     127329.4   -33991.294    2510.6791   -36501.973    60.948317    236.13143 
   13750    137.12604   -170.78346    127371.37   -33980.276    2586.1403   -36566.416    60.987612    243.22861 
   13800    134.87771   -345.05067    127298.76   -33972.646    2543.7377   -36516.384    61.115956    239.24061 
   13850    134.39297   -374.24509       127266   -33991.967    2534.5956   -36526.562    61.426341    238.38079 
   13900    139.18768   -402.70327    127281.25    -34011.88     2625.022   -36636.902    61.678426    246.88547 
   13950    135.89785    -287.8466    127294.48   -34025.772    2562.9771   -36588.749    61.830884     241.0501 
   14000    137.25835   -335.07361    127208.15    -33971.52    2588.6356   -36560.155    61.970311     243.4633 
   14050    135.83084    -38.47188    127300.07   -34018.454    2561.7132   -36580.167    62.257053    240.93123 
   14100     136.8284    -186.8235    127306.25   -34005.272    2580.5268   -36585.799     62.21573    242.70066 
   14150    135.64739   -97.075658    127316.79   -34007.354    2558.2535   -36565.608    62.417622    240.60584 
   14200    136.47383   -198.43907    127332.91   -34004.518    2573.8397   -36578.357    62.620185    242.07174 
   14250    138.58619    24.401591    127292.59   -34034.508    2613.6781   -36648.186    62.552134    245.81857 
   14300    136.63588   -321.00873    127320.08   -34036.294     2576.896    -36613.19    62.643444    242.35918 
   14350    133.35329   -226.57094     127365.5   -34043.939    2514.9877   -36558.927     62.82679    236.53666 
   14400    138.19286   -259.17032    127334.15   -34048.415    2606.2599   -36654.675    63.020545    245.12088 
   14450      132.494   -256.01904    127334.36     -34049.1    2498.7819   -36547.882    63.017388    235.01249 
   14500    137.25488   -275.20044    127346.88   -33984.481    2588.5701   -36573.051    63.264153    243.45714 
   14550    135.71311   -72.414144    127424.29   -33976.772     2559.493   -36536.265    63.608994    240.72241 
   14600    137.04782   -227.41456    127455.69   -33960.734    2584.6651     -36545.4    63.661862    243.08988 
   14650    137.59617   -128.37012     127543.1   -33903.467    2595.0067   -36498.474     63.79926    244.06251 
   14700    137.61449   -91.581371    127555.01   -33876.668    2595.3522   -36472.021    64.197131      244.095 
   14750    134.66213   -134.21333    127653.87   -33913.223    2539.6719   -36452.895    64.718756    238.85823 
   14800    133.93016   -309.86236    127659.98   -33964.459    2525.8673   -36490.327     64.99795     237.5599 
   14850    134.65867   -305.35166    127613.38   -34002.755    2539.6067   -36542.362    65.107122     238.8521 
   14900    138.25703   -119.50609    127544.29   -33953.059    2607.4703   -36560.529    65.332371    245.23472 
   14950    138.10999   -359.02234     127507.6    -34018.95    2604.6972   -36623.647    65.687166    244.97391 
   15000    135.71051   -321.75169    127490.03   -33966.273    2559.4438   -36525.717    66.128181    240.71779 
   15050    135.89327   -246.25973    127489.69   -33953.782    2562.8908   -36516.673    66.391258    241.04198 
   15100    139.88623   -223.70924    127554.34   -33926.208    2638.1962   -36564.404    66.741473    248.12452 
   15150    136.77395   -579.62554     127523.9   -33974.409       2579.5   -36553.909    66.880322    242.60409 
   15200    133.33272   -285.49018    127420.94   -33979.284    2514.5999   -36493.884    67.166429    236.50018 
   15250    135.87849   -77.981211    127373.33   -33958.103     2562.612   -36520.715    67.430167    241.01576 
   15300    135.82671   -464.58833    127430.79   -33990.373    2561.6353   -36552.008    67.678832    240.92391 
   15350    135.87414   -407.65702    127352.52   -33971.697      2562.53   -36534.227    67.818528    241.00805 
   15400    132.89925   -346.99327    127344.98   -33986.381    2506.4248   -36492.805    67.862361    235.73131 
   15450    134.83915   -203.08076    127426.42   -34035.965    2543.0104   -36578.975     68.08218    239.17222 
   15500    132.78947   -232.62185    127417.86   -34053.102    2504.3543   -36557.456    68.291376    235.53657 
   15550    133.46949   -261.58084    127400.57   -34043.449    2517.1793   -36560.628     68.58927    236.74278 
   15600    134.76391   -38.016126     127517.5   -34031.866    2541.5914   -36573.457     68.92279    239.03876 
   15650    135.19137   -232.45894    127643.84   -34018.062    2549.6531   -36567.715     69.13827    239.79697 
   15700    132.74245   -534.84472    127624.41   -34006.149    2503.4676   -36509.617    69.180453    235.45318 
   15750    136.53741   -361.59294    127658.24   -34048.502    2575.0389   -36623.541     69.30365    242.18452 
   15800    131.70642   -77.139533    127629.11   -34068.956    2483.9284   -36552.884    69.460049     233.6155 
   15850    135.24922   -5.5246327    127696.51   -34024.212    2550.7442   -36574.957     69.64639    239.89958 
   15900    133.49618    -293.9167     127766.1   -34056.961    2517.6826   -36574.643    69.765124    236.79012 
   15950    133.34671    21.649151    127833.74   -34081.453    2514.8635   -36596.317     70.00462    236.52498 
   16000    133.45961   -289.20676    127887.06   -34060.809     2516.993   -36577.802     70.12623    236.72525 
   16050    135.82218   -23.138561    127968.16    -34048.54    2561.5499    -36610.09    70.369494    240.91587 
   16100    136.07522    -81.37662    127978.78   -34079.527    2566.3221   -36645.849    70.804648     241.3647 
   16150    136.88924   -182.58279    128074.96    -34095.66    2581.6743   -36677.334    71.074135    242.80859 
   16200    130.88041    -189.3959     128065.7   -34116.954    2468.3502   -36585.304    71.262878    232.15037 
   16250    135.19601   -452.38725    128163.92   -34087.737    2549.7406   -36637.477    71.678756     239.8052 
   16300    134.12681   -491.63546    128149.05     -34087.8    2529.5761   -36617.376    71.837673     237.9087 
   16350    137.37921   -461.11402    128110.94   -34008.421     2590.915   -36599.336    71.908192    243.67768 
   16400    137.04918   -445.59337    128071.63   -34006.143    2584.6907   -36590.833    72.089568    243.09228 
   16450    133.96746   -405.30364    127938.56   -34030.768    2526.5707   -36557.339    72.259677    237.62605 
   16500    135.48567   -353.85097    127857.37   -34072.917    2555.2035   -36628.121    72.112688    240.31899 
   16550    135.43604   -239.46015    127932.23   -34040.664    2554.2675   -36594.931    72.378719    240.23096 
   16600    132.86352     30.20766    127991.81   -34064.797    2505.7508   -36570.548    72.492467    235.66792 
   16650     139.1848   -178.88051    127986.33   -34068.469    2624.9676   -36693.437    72.588605    246.88036 
   16700    133.75327   -116.56587    128083.69   -34118.087    2522.5312   -36640.619    72.908436    237.24613 
   16750    134.16642   -378.28993    128108.03   -34115.061     2530.323   -36645.384    72.999538    237.97896 
   16800     133.1061   -294.86296     128162.3   -34145.125    2510.3259   -36655.451    73.275697    236.09821 
   16850    132.79349   -18.911535    128162.65   -34182.318    2504.4301   -36686.748    73.431301     235.5437 
   16900    134.45061    42.440186    128170.38   -34108.369    2535.6828   -36644.051    73.683063    238.48305 
   16950    131.92567   -343.36125    128210.21   -34141.383    2488.0634   -36629.446    73.997723    234.00441 
   17000    135.11208   -359.10173    128156.84   -34100.141    2548.1578   -36648.299    74.175686    239.65633 
   17050    137.32616   -225.67044    128057.03   -34108.068    2589.9144   -36697.982    74.422437    243.58357 
   17100    135.87645   -218.49292    128007.65   -34127.367    2562.5735   -36689.941    74.549361    241.01214 
   17150    134.61784   -19.288793    128074.22   -34115.878    2538.8367   -36654.715    74.703708    238.77968 
   17200    134.36469   -373.98072     128164.7   -34139.981    2534.0623   -36674.043    74.763935    238.33064 
   17250    135.05903     -123.607    128164.79   -34167.564    2547.1573   -36714.721    74.945495    239.56223 
   17300    137.06188    -157.4778       128202   -34115.243    2584.9302   -36700.173    75.173508     243.1148 
   17350    135.05214   -213.56181    128245.89     -34068.9    2547.0273   -36615.927     75.17021    239.55001 
   17400    134.74615   -353.09785    128283.49   -34085.638    2541.2565   -36626.895    75.055836    239.00726 
   17450    136.28045   -22.671113    128359.92   -34078.692    2570.1928   -36648.885    75.034184    241.72874 
   17500    136.53813   -67.040154    128405.08    -34059.41    2575.0524   -36634.463    75.198414    242.18579 
   17550    137.70555    -151.7677    128416.78    -34042.44    2597.0695    -36639.51    75.136133    244.25652 
   17600    136.01489   -464.13649    128366.99   -34065.152    2565.1845   -36630.336    75.293823     241.2577 
   17650    137.99886   -354.71642    128264.41   -34031.225    2602.6013   -36633.827     75.34803    244.77679 
   17700    138.32105   -271.40201    128166.66   -34029.449    2608.6776   -36638.126    75.746059    245.34827 
   17750    137.25923   -17.141812    128157.12   -34038.695    2588.6521   -36627.347    76.271484    243.46485 
   17800    136.53743   -26.507119    128232.12   -34030.123    2575.0394   -36605.162    76.474875    242.18457 
   17850     134.6488   -343.36783    128309.67   -34095.618    2539.4205   -36635.038    76.610691    238.83458 
   17900    133.83927   -271.00518    128272.33   -34100.834    2524.1531   -36624.987    76.682151    237.39867 
   17950     133.3648   -229.51699    128319.17   -34162.323    2515.2049   -36677.528    76.731307    236.55708 
   18000     132.9957   -502.78854    128279.07   -34155.685    2508.2438   -36663.929    76.920432    235.90239 
   18050    133.01471   -183.74267    128244.25   -34163.052    2508.6023   -36671.654    77.206051     235.9361 
   18100    133.67001   -221.81604    128246.51   -34114.136    2520.9609   -36635.096    77.414329    237.09844 
   18150    134.52028   -470.68388    128225.84   -34106.248    2536.9967   -36643.245    77.588607    238.60662 
   18200    135.22382   -111.75515    128229.79   -34066.595    2550.2651    -36616.86    77.702586    239.85452 
   18250    133.82358   -381.86292     128244.3   -34148.656    2523.8573   -36672.513    77.816594    237.37085 
   18300    133.42271   -343.90326    128386.07   -34162.121     2516.297   -36678.418    77.887565     236.6598 
   18350    135.32429   -507.13452    128365.61   -34128.461      2552.16   -36680.621    78.074129    240.03274 
   18400    133.75798   -318.70925    128325.93   -34122.081    2522.6199   -36644.701     78.09353    237.25448 
   18450    136.03197   -344.71481    128388.38    -34056.49    2565.5066   -36621.996    78.294326      241.288 
   18500    132.80684   -386.52598    128347.52   -34081.522     2504.682   -36586.204    78.201714     235.5674 
   18550    137.75886   -308.82652    128343.44   -34100.629    2598.0749   -36698.704    78.241533    244.35108 
   18600    136.38431   -305.19341     128402.1    -34052.61    2572.1515   -36624.762    78.311698    241.91296 
   18650    136.85559   -188.70062    128436.87   -34077.351    2581.0396    -36658.39    78.357071    242.74889 
   18700    135.76334   -215.61663    128583.93   -34114.697    2560.4404   -36675.138     78.84981    240.81152 
   18750    134.68278   -479.69316    128546.59   -34104.583    2540.0614   -36644.645    79.101359    238.89486 
   18800    133.39515   -362.58651     128463.9   -34163.442    2515.7772   -36679.219    79.329463    236.61091 
   18850    135.40695   -92.895632    128447.66   -34166.994    2553.7189   -36720.713    79.632576    240.17936 
   18900    133.99659   -606.74014     128474.8   -34188.561    2527.1202   -36715.681    79.957375    237.67772 
   18950    135.46518   -523.94828     128394.9   -34138.879    2554.8171   -36693.696    79.997613    240.28265 
   19000    135.20212   -523.20308    128312.02   -34183.638    2549.8558   -36733.494     80.24114    239.81603 
   19050    134.11451   -96.177331    128393.61   -34226.095    2529.3441    -36755.44    80.390948    237.88689 
   19100    134.03799   -390.35502    128384.47   -34220.253    2527.9009   -36748.154    80.483192    237.75115 
   19150    135.50299   -281.14481     128304.2   -34164.182    2555.5302   -36719.712    80.831357    240.34971 
   19200    137.35664   -386.00412    128333.62   -34137.558    2590.4893   -36728.048    80.941179    243.63765 
   19250    133.80745   -402.48436    128267.36   -34177.731    2523.5531   -36701.284    81.325227    237.34224 
   19300    135.21614   -332.59339    128250.44    -34184.38    2550.1203     -36734.5    81.314167    239.84091 
   19350    134.52478   -346.73098    128232.84   -34208.882    2537.0816   -36745.964    81.486605    238.61461 
   19400    138.94534   -247.71024    128201.77   -34169.511    2620.4514   -36789.963     81.60793    246.45561 
   19450    138.08026   -424.65805    128153.36   -34167.107    2604.1364   -36771.243    81.818102    244.92116 
   19500    135.19447   -283.51723     128236.7    -34189.28    2549.7116   -36738.991    82.078452    239.80247 
   19550    134.86958   -516.79164    128268.42   -34201.159    2543.5844   -36744.743    82.159374     239.2262 
   19600    136.04348   -451.72629    128276.12   -34174.549    2565.7237   -36740.273    82.097809    241.30842 
   19650    137.56608   -202.78526    128289.31   -34158.478    2594.4392   -36752.917    82.307497    244.00913 
   19700    135.07209   -260.09147    128285.41   -34136.771    2547.4036   -36684.175    82.557032    239.58539 
   19750    136.66052   -79.592546     128286.8   -34128.261    2577.3608   -36705.622     82.54971     242.4029 
   19800    137.20896    -368.4448    128270.59    -34160.55     2587.704   -36748.254    82.720954    243.37569 
   19850    134.84801   -173.72503    128159.92   -34160.701    2543.1775   -36703.879    82.758296    239.18793 
   19900    131.95108   -454.18918    128023.09   -34161.312    2488.5426   -36649.854     82.86391    234.04947 
   19950    136.52169   -171.89984    128063.84   -34127.266    2574.7424   -36702.009    82.993833    242.15663 
   20000    136.40689   -343.00824    128012.75   -34126.835    2572.5774   -36699.413    83.139815    241.95302 
   20050     134.2949   -438.83452    127979.42   -34139.971    2532.7461   -36672.717    83.297612    238.20685 
   20100    135.74914   -278.65635    128051.69   -34189.876    2560.1725   -36750.048    83.453816    240.78632 
   20150    135.43519   -117.63034    128099.21   -34133.531    2554.2515   -36687.782    83.649206    240.22945 
   20200    134.39868   -93.070426    128098.42   -34164.575    2534.7033   -36699.279    83.754224    238.39093 
   20250    134.64744   -235.23419    128099.96     -34131.6    2539.3949   -36670.995    84.053282    238.83217 
   20300    134.24464   -249.87485    128100.63   -34130.435    2531.7983   -36662.233    84.107029    238.11771 
   20350     137.4686   -355.77852     127983.8   -34152.132    2592.6008   -36744.733    84.500499    243.83624 
   20400    134.85033   -69.768413    127988.54    -34172.73    2543.2212   -36715.951     85.14355    239.19204 
   20450    133.98255   -264.58175    128021.63   -34154.319    2526.8553   -36681.174    85.638469    237.65281 
   20500    134.74667   -232.00968    128023.29   -34185.858    2541.2663   -36727.124    85.857056    239.00818 
   20550    133.13106    -6.174083    128077.97   -34155.109    2510.7966   -36665.906    86.248007    236.14248 
   20600    135.25131   -342.16701    128168.35   -34210.975    2550.7836   -36761.758    86.610198    239.90329 
   20650    131.11598   -324.33564    128135.54   -34223.975     2472.793   -36696.768    87.038826    232.56821 
   20700    130.72729   -523.94369    128130.82   -34200.891    2465.4624   -36666.353    87.217037    231.87876 
   20750    134.92353   -299.65684    128066.76   -34147.168    2544.6017   -36691.769    87.642072    239.32188 
   20800    129.96397   -518.77654    128070.38   -34222.128    2451.0666   -36673.194    88.044265    230.52482 
   20850    136.09083      -175.02    128038.42   -34137.834    2566.6165   -36704.451     87.86413    241.39239 
   20900    135.31853   -71.454368    128044.03    -34145.74    2552.0513   -36697.792    87.917172    240.02252 
   20950     134.8068    -568.2729    128015.06   -34155.433    2542.4003   -36697.833    88.127978    239.11483 
   21000    133.89911   -259.60273    127954.59   -34115.715    2525.2817   -36640.997    88.333104    237.50481 
   21050    133.03301   -288.78616    127889.61   -34193.129    2508.9475   -36702.076    88.385401    235.96857 
   21100    132.72813   -300.52588    127833.39   -34176.566    2503.1975   -36679.764    88.546902    235.42778 
   21150    134.62906   -153.41086    127832.23   -34204.597    2539.0482   -36743.646    88.565379    238.79957 
   21200    133.27039   -136.39096    127924.85   -34199.409    2513.4243   -36712.834    88.719689    236.38962 
   21250    133.32517   -74.826483    127976.55   -34189.073    2514.4574    -36703.53    88.613739    236.48678 
   21300    135.54417   -413.76236    128010.78    -34168.63    2556.3068   -36724.936    88.694627    240.42275 
   21350    133.47877   -156.34942    127994.07   -34148.098    2517.3542   -36665.452    88.811885    236.75923 
   21400    133.10467   -199.44098    127966.11   -34104.997     2510.299   -36615.296    89.042651    236.09568 
   21450    135.04059    13.735507    127875.27   -34092.352    2546.8095   -36639.161    89.343321    239.52953 
   21500    134.93073   -320.49378    127900.68   -34103.206    2544.7376   -36647.944    89.693318    239.33466 
   21550    135.79563   -296.11454    127865.37   -34121.585    2561.0492   -36682.635      89.7592    240.86878 
   21600    134.94232    -126.8537     127892.5   -34089.781    2544.9561   -36634.737    89.859183    239.35521 
   21650    136.58814   -69.152519    127995.29   -34059.657    2575.9957   -36635.653    89.996736    242.27451 
   21700    137.40903   -213.66214    128101.54   -34041.183    2591.4773   -36632.661    90.150396    243.73057 
   21750    138.22838   -397.67449    128164.24   -34053.523      2606.93   -36660.453     90.16037     245.1839 
   21800    136.71952   -96.660117    128212.66   -34076.849    2578.4734   -36655.323     90.44561    242.50754 
   21850    134.92573   -314.84121    128204.82   -34063.968    2544.6433   -36608.611    90.635466    239.32579 
   21900    134.51414   -338.88732     128110.4   -34033.825    2536.8808   -36570.706    90.639555    238.59572 
   21950    135.57106   -454.32467    128067.16   -34028.213     2556.814   -36585.027    90.736155    240.47046 
   22000    137.12349   -101.86397    127977.47   -34009.699    2586.0922   -36595.792    91.033593    243.22409 
   22050    135.69314   -222.04404    127941.68   -33996.265    2559.1163   -36555.381    91.234351    240.68699 
   22100    136.72683   -346.93973    127830.95   -33964.777    2578.6114   -36543.388     91.30248    242.52052 
   22150    138.50296   -103.62713    127812.14    -33942.12    2612.1084   -36554.229    91.411583    245.67093 
   22200    137.35471   -143.29718    127754.21   -33960.737    2590.4528   -36551.189     91.70309    243.63422 
   22250    137.60193   -287.71244    127724.95   -33974.986    2595.1153   -36570.101    92.095585    244.07272 
   22300    137.01589   -219.64969    127647.98   -33967.834    2584.0629   -36551.897    92.028499    243.03324 
   22350    136.62017   -339.12777    127730.73   -33988.697    2576.5997   -36565.296    92.233209    242.33132 
   22400    140.79965    -96.50389    127758.93   -33983.305     2655.423   -36638.728    92.437478    249.74472 
   22450    139.25682   -213.92675    127688.89   -33945.101    2626.3259   -36571.427    92.776166    247.00811 
   22500     133.6541   -419.00846    127565.92   -34037.766    2520.6608   -36558.426    92.940732    237.07022 
   22550     135.9736   -320.07878    127500.74    -34032.13    2564.4057   -36596.535    93.131211    241.18446 
   22600    135.06327   -324.22037    127531.63   -34033.123    2547.2372    -36580.36    93.318051    239.56975 
   22650     134.6785   -72.370699    127518.03   -34050.742    2539.9806   -36590.723    93.638868    238.88726 
   22700    136.47203   -170.49269    127609.97   -34031.488    2573.8059   -36605.294    93.805347    242.06856 
   22750    136.75555   -338.04764    127682.69   -34033.753     2579.153   -36612.906    93.939705    242.57146 
   22800     135.1099   -192.00655    127737.41   -33996.112    2548.1167   -36544.229    94.158095    239.65247 
   22850    136.88512   -558.72567    127772.41   -33979.762    2581.5967   -36561.359    94.526509    242.80129 
   22900    139.29331   -143.24225    127762.55   -34009.214    2627.0141   -36636.228    94.507317    247.07283 
   22950    136.63268   -488.25996    127786.68   -34053.627    2576.8357   -36630.463    94.718807    242.35351 
   23000    135.09529   -585.23597    127689.33   -34046.962     2547.841   -36594.803    95.041226    239.62654 
   23050     133.4477   -271.39611    127643.91   -34092.795    2516.7682   -36609.563    95.474328    236.70412 
   23100    133.76978   -248.88732    127692.41   -34141.377    2522.8425   -36664.219    95.766269     237.2754 
   23150     130.7769   -90.525186    127712.56   -34107.772    2466.3981   -36574.171    95.990493    231.96677 
   23200    136.63398   -145.11687    127762.11   -34152.603    2576.8601   -36729.463    96.180539    242.35581 
   23250    133.64613   -114.63352    127784.86   -34126.809    2520.5106   -36647.319    96.959871    237.05609 
   23300    131.01316   -21.567789    127708.42   -34124.605    2470.8539   -36595.459    97.194189    232.38583 
   23350    133.95471   -32.142953    127771.55   -34127.664    2526.3302   -36653.994    97.473017    237.60343 
   23400     135.1532   -3.3417127    127864.59    -34073.69    2548.9333   -36622.623     97.68844    239.72927 
   23450    130.89164   -377.16783    127867.77   -34091.826     2468.562   -36560.388    98.062574    232.17028 
   23500    135.87121   -134.21502    127907.04   -34119.212    2562.4747   -36681.687    98.052376    241.00285 
   23550    132.97032   -310.11278    127947.59   -34075.809    2507.7651   -36583.574     98.31877    235.85736 
   23600    132.86799   -262.64372    127879.64   -34119.594    2505.8352   -36625.429    98.639752    235.67586 
   23650    132.98789    -377.0751    127808.42   -34108.653    2508.0965   -36616.749    98.706799    235.88854 
   23700    131.64471    -10.32395    127823.56   -34115.664    2482.7647   -36598.429    98.967069    233.50606 
   23750    136.46453    75.197425    127912.75   -34079.146    2573.6644   -36652.811    99.269375    242.05525 
   23800    138.87234   -238.60941    127973.34   -34028.635    2619.0748    -36647.71     99.43966    246.32613 
   23850    135.82924    97.106355    128035.05   -34081.843    2561.6832   -36643.527    99.820165    240.92841 
   23900    135.46083    -198.0217    128013.05   -34117.844    2554.7351   -36672.579    100.04329    240.27493 
   23950    136.82858   -167.36399    127977.64   -34088.353    2580.5303   -36668.883    100.21255    242.70099 
   24000    138.36366   -470.76971    127925.92   -34076.019    2609.4812     -36685.5    100.82805    245.42384 
   24050    135.73843   -370.37631    127870.49   -34080.099    2559.9706   -36640.069    101.16314    240.76733 
   24100    135.90742   -542.27579    127816.96   -34087.473    2563.1575   -36650.631    101.20848    241.06707 
   24150    135.07823   -251.51322    127796.21   -34091.281    2547.5193     -36638.8     101.2564    239.59628 
   24200     133.4706   -493.13321    127771.56   -34105.086    2517.2002   -36622.286    101.48965    236.74474 
   24250    138.73422   -283.50187     127750.1   -34095.815    2616.4699   -36712.285     101.8956    246.08114 
   24300    133.52915   -245.36011    127751.88   -34108.036    2518.3044   -36626.341    102.30699    236.84859 
   24350    135.00381   -336.16981    127710.26   -34094.404    2546.1158    -36640.52    102.56062    239.46428 
   24400    135.33531   -47.769943    127733.93   -34060.634    2552.3677   -36613.001    102.71057    240.05228 
   24450    135.12201   -421.51441    127851.41   -34044.946     2548.345   -36593.291    103.07938    239.67394 
   24500    133.96058   -185.52155    127842.02    -34113.46    2526.4411   -36639.901    103.18605    237.61385 
   24550    136.72301   -371.43056    127687.69   -34108.237    2578.5393   -36686.776    103.29292    242.51374 
   24600    134.56442   -51.971906    127679.23   -34076.685    2537.8291   -36614.515    103.42924    238.68491 
   24650    138.44507   -83.635748    127736.04   -34080.148    2611.0167   -36691.164    103.64434    245.56826 
   24700    135.16091   -525.63051    127699.58   -34074.785    2549.0787   -36623.864    103.83191    239.74294 
   24750    138.08021   -147.43088    127622.81   -34079.637    2604.1354   -36683.773    104.12187    244.92107 
   24800    134.84862   -147.06001    127691.99   -34048.043    2543.1891   -36591.232    104.18139    239.18902 
   24850    136.08005   -388.47436    127708.56   -34051.321    2566.4134   -36617.735    104.33079    241.37328 
   24900    133.09847   -275.16722    127699.94   -34066.775    2510.1819   -36576.957    104.29327    236.08467 
   24950    137.42505   -232.31836    127665.13   -34006.574    2591.7794   -36598.354    104.44882    243.75898 
   25000    136.59697   -329.72643    127624.92   -34021.244    2576.1623   -36597.407    104.58761    242.29017 
   25050    136.89697    60.918834    127617.33   -34057.276      2581.82   -36639.096    104.72895    242.82229 
   25100    137.43682   -4.2432377    127588.42    -34017.35    2592.0015   -36609.352    105.16308    243.77986 
   25150    136.49398   -169.11704    127564.33   -34032.544    2574.2199   -36606.764    105.07468     242.1075 
   25200    136.35668   -251.46048    127477.64     -34018.1    2571.6305    -36589.73    105.01576    241.86396 
   25250    135.63408   -159.75364    127446.87   -34009.421    2558.0026   -36567.424    105.21219    240.58224 
   25300    136.54024   -158.60811    127440.08   -34033.933    2575.0923   -36609.025    105.23612    242.18954 
   25350    135.48261   -323.87146    127417.86   -34055.948    2555.1459   -36611.094    105.57373    240.31356 
   25400    135.64563   -350.43588     127387.7   -34065.009    2558.2204   -36623.229    105.74142    240.60272 
   25450    138.66264   -314.52705    127396.49   -34011.149    2615.1199   -36626.269    106.04593    245.95418 
   25500    133.21717   -327.98065    127398.34   -34018.236    2512.4205   -36530.656    106.22891    236.29521 
   25550    134.88252   -5.5191234     127457.6   -34003.833    2543.8284   -36547.661    106.28013    239.24915 
   25600    136.61933   -308.70553    127452.98   -34000.419    2576.5839   -36577.003    106.40332    242.32983 
   25650    133.24861   -345.12381    127476.28   -33989.745    2513.0134   -36502.758    106.65557    236.35097 
   25700     137.8058   -190.78201    127485.18   -34020.068    2598.9602   -36619.029    106.72082    244.43434 
   25750    133.33403   -353.49073    127481.69   -34067.904    2514.6245   -36582.529    107.22161    236.50249 
   25800     134.1794   -327.51477    127500.71   -34075.583    2530.5678   -36606.151    107.40479    238.00198 
   25850    135.20721   -272.31399    127418.15   -34052.497     2549.952   -36602.449    107.52421    239.82507 
   25900    134.78744   -383.33842    127420.12   -34033.983    2542.0352   -36576.018    107.36759     239.0805 
   25950    130.02565   -199.93624    127340.31   -34091.844    2452.2299   -36544.073    107.73933    230.63423 
   26000    133.65783   -323.76849    127290.92   -34103.898    2520.7313   -36624.629    108.06324    237.07685 
   26050    134.03716    -367.4929    127276.57   -34083.761    2527.8852   -36611.646    108.24053    237.74968 
   26100    135.60979   -180.43257     127229.7   -34118.099    2557.5443   -36675.643    108.47337    240.53914 
   26150    130.53353   -268.07878    127211.61   -34109.354    2461.8082   -36571.162    108.38292    231.53509 
   26200    134.41518   -260.01343    127255.83    -34097.76    2535.0145   -36632.774    108.47043    238.42019 
   26250    135.22235   -354.30178    127227.43   -34117.921    2550.2374   -36668.159    108.61819    239.85192 
   26300    135.73564   -339.10956    127179.66    -34056.41    2559.9179   -36616.328    108.85619    240.76238 
   26350    133.88018   -3.6622859    127153.28   -34040.121    2524.9246   -36565.045    108.99657    237.47123 
   26400     136.3248   -53.934156    127187.94   -34002.872    2571.0291   -36573.901    109.19884     241.8074 
   26450    134.79188    86.753199    127221.07   -34025.352    2542.1189   -36567.471    109.59102    239.08837 
   26500    135.76009   -126.29373    127345.21   -34012.305     2560.379   -36572.684    109.73878    240.80574 
   26550    136.60884   -102.17628    127441.91   -33996.308    2576.3861   -36572.694    109.56727    242.31122 
   26600    135.26514    -438.3177    127454.16   -33966.883    2551.0444   -36517.927    109.92608    239.92782 
   26650    134.55781      41.2673    127476.44   -33949.462    2537.7045   -36487.167    109.99746    238.67319 
   26700    136.24952   -239.28972     127568.9   -34018.149    2569.6094   -36587.758    110.28948    241.67387 
   26750    135.70137   -116.87406     127586.9   -34019.331    2559.2715   -36578.603    110.46961    240.70158 
   26800    136.48394   -272.22053       127692   -34017.483    2574.0305   -36591.513    110.60468    242.08968 
   26850     136.0823   -67.671767    127738.05   -34008.774    2566.4557    -36575.23    110.83884    241.37727 
   26900    134.55101   -250.98134    127782.49   -34028.508    2537.5762   -36566.084    110.88421    238.66112 
   26950    135.60375   -341.53814    127827.96    -34033.52    2557.4305   -36590.951    111.16686    240.52844 
   27000    136.64829   -150.34989    127839.16   -34037.776    2577.1302   -36614.906    111.54226    242.38121 
   27050    135.03072   -390.36187    127806.44   -34122.444    2546.6233   -36669.067    111.69565    239.51201 
   27100    134.96828   -180.89588    127726.18   -34088.798    2545.4457   -36634.244    111.96644    239.40126 
   27150    135.54526   -260.37298     127804.1   -34086.845    2556.3275   -36643.172    111.97829     240.4247 
   27200    135.61883   -332.46694    127810.29   -34120.796    2557.7149   -36678.511    112.35609    240.55518 
   27250    134.70048   -440.25278    127819.77   -34118.435    2540.3953   -36658.831     112.6293    238.92626 
   27300    134.69113   -582.11469     127760.4   -34102.984    2540.2189   -36643.203    112.72002    238.90967 
   27350    136.65939   -434.49134    127689.89   -34084.118    2577.3393   -36661.458    112.85335    242.40088 
   27400    135.59882   -200.25162    127657.54   -34092.673    2557.3375    -36650.01    112.84789    240.51969 
   27450    135.46886   -163.74671    127659.26    -34153.98    2554.8865   -36708.866    112.54199    240.28917 
   27500    132.76741   -236.37773    127727.07   -34126.396    2503.9383   -36630.334    112.91292    235.49745 
   27550    133.55067   -393.18909    127672.34   -34129.295    2518.7103   -36648.005    113.14983    236.88677 
   27600    132.41117   -281.00889    127627.74   -34077.356    2497.2197   -36574.575    113.21596    234.86556 
   27650    134.92343   -383.12907    127622.97   -34104.799    2544.5999   -36649.399    113.41133    239.32171 
   27700    134.60888    -99.94287    127671.08   -34037.364    2538.6676   -36576.032    113.46709    238.76377 
   27750    137.05341   -89.685335    127702.88   -34074.223    2584.7705   -36658.994    113.73385    243.09978 
   27800    131.45595   -282.69711    127655.54   -34127.636    2479.2047   -36606.841     113.9278    233.17124 
   27850    132.95332   -214.15022    127641.78    -34066.35    2507.4444   -36573.794    114.10698    235.82721 
   27900    133.24222   -458.50409    127554.16   -34071.301     2512.893   -36584.194    114.39988    236.33965 
   27950    135.51359   -351.46821    127477.16   -34076.009    2555.7301   -36631.739    114.62066    240.36851 
   28000    136.45306   -115.55965    127476.73   -34044.166    2573.4482   -36617.614    114.88416    242.03491 
   28050    139.28753    -251.6556    127419.66   -34038.194     2626.905   -36665.099    115.17588    247.06257 
   28100    135.69953   -162.51713    127409.51   -34017.334    2559.2369   -36576.571     115.2668    240.69833 
   28150    137.96216    18.980434    127348.05   -33937.141    2601.9091    -36539.05    115.41486    244.71169 
   28200    135.20694   -171.78465    127410.02   -33960.574    2549.9468    -36510.52    115.73893    239.82459 
   28250    136.24143   -222.69003    127444.91   -33958.464    2569.4569   -36527.921    116.09628    241.65953 
   28300    137.25566   -44.770776    127428.77   -33982.234    2588.5848   -36570.818    116.22478    243.45853 
   28350    134.96159   -266.88147    127447.67   -33959.088    2545.3196   -36504.408    116.22023     239.3894 
   28400     134.4368   -295.99452    127478.49   -33927.049    2535.4223   -36462.471    116.24402    238.45855 
   28450    136.38644   -336.83949    127450.56   -33943.829    2572.1917    -36516.02    115.95378    241.91674 
   28500    134.48145   -56.847279    127411.61   -33992.446    2536.2644    -36528.71     115.9379    238.53774 
   28550    141.12862   -189.61943    127422.28   -33969.143    2661.6272    -36630.77    116.42209    250.32822 
   28600    138.42666   -85.717516    127555.33   -33948.596    2610.6694   -36559.265     116.8555     245.5356 
   28650    135.55872   -55.676444    127605.72   -33960.036    2556.5812   -36516.617    116.96221    240.44856 
   28700    135.12553    114.11993    127683.71   -33951.002    2548.4114   -36499.413    117.29649    239.68018 
   28750    135.62351    50.883699    127698.99   -34002.084    2557.8032   -36559.887    117.54964    240.56349 
   28800    138.54208      -176.68    127676.91   -33937.183    2612.8461    -36550.03    117.60731    245.74032 
   28850    134.76414   -187.49457    127571.49    -33962.48    2541.5958   -36504.075    118.43211    239.03917 
   28900     137.9588   -223.97895    127496.01   -33948.692    2601.8457   -36550.537    118.82128    244.70572 
   28950    135.57033    -236.7297     127510.9   -33984.054    2556.8002   -36540.854    119.14787    240.46916 
   29000    136.03901   -213.31712    127454.03   -33984.106    2565.6393   -36549.746    119.27347    241.30048 
   29050    135.06665   -275.82846    127484.04   -34038.385     2547.301   -36585.686    119.28789    239.57575 
   29100    134.86851   -309.97455    127507.21   -34044.009    2543.5642   -36587.574    119.42143     239.2243 
   29150    133.17383   -56.838077    127500.37   -34023.835    2511.6032   -36535.438    119.65816    236.21834 
   29200    136.06934   -403.83881    127518.54   -34011.896    2566.2112   -36578.108     120.1346    241.35427 
   29250    135.51457    -132.8972    127535.82   -33984.508    2555.7486   -36540.256    120.22018    240.37025 
   29300    135.89221   -158.44998    127636.62    -34003.87    2562.8707   -36566.741    120.46427     241.0401 
   29350     137.1844     -317.059    127703.58   -33972.607    2587.2408   -36559.848    120.74429    243.33212 
   29400    136.20582   -189.64112    127750.45    -33962.74    2568.7854   -36531.526    121.07154    241.59637 
   29450    135.83877   -346.49001    127780.41   -33950.781    2561.8629   -36512.643    121.25597     240.9453 
   29500    136.15678   -415.09303    127759.89   -33928.868    2567.8604   -36496.728    121.19699    241.50937 
   29550    137.10395   -574.99562    127773.41   -33899.589    2585.7235   -36485.313    121.28887    243.18942 
   29600    133.95052   -352.28973    127750.83   -33937.711    2526.2512   -36463.963    121.52521      237.596 
   29650    134.22367    -40.01133    127738.05   -33927.669    2531.4027   -36459.071    121.46963     238.0805 
   29700    135.30436   -305.56427    127701.89   -33966.472    2551.7842   -36518.256     121.8525    239.99739 
   29750    135.10781   -423.68735    127774.94   -33966.505    2548.0773   -36514.582    121.87979    239.64876 
   29800    136.71892    -343.3963    127703.74   -33930.146    2578.4622   -36508.608    121.96625    242.50648 
   29850    135.91854   -192.60421    127734.93   -33916.811    2563.3673   -36480.178    122.26111     241.0868 
   29900    135.70493   -457.43114     127772.7   -33902.427    2559.3387   -36461.765    122.57756     240.7079 
   29950     138.7049   -580.75672    127710.84   -33916.714    2615.9169   -36532.631    122.82263    246.02913 
   30000    138.89259    14.230826     127729.9    -33907.37    2619.4567   -36526.826    123.04614    246.36205 
   30050    137.55292   -445.20467    127718.06   -33902.162     2594.191   -36496.353    123.24634     243.9858 
   30100    137.58606   -216.56783    127685.37   -33892.316    2594.8159   -36487.132    123.41336    244.04457 
   30150    136.59544   -179.81802     127764.3   -33877.427    2576.1333    -36453.56    123.96056    242.28745 
   30200    137.87785   -340.60912    127779.31   -33865.989    2600.3191   -36466.308    124.22027    244.56214 
   30250    139.06607   -286.25149    127793.54   -33889.469    2622.7283   -36512.197     124.6703    246.66975 
   30300    140.64798   -37.464472    127862.81   -33861.998    2652.5625   -36514.561    124.98189    249.47568 
   30350    137.88706   -307.28557    127814.65   -33936.838    2600.4927   -36537.331    124.70797    244.57847 
   30400    135.34067   -243.77856    127872.32   -34000.417    2552.4689   -36552.886    125.03383    240.06179 
   30450    138.19248   -344.68165    127821.29   -34007.205    2606.2529   -36613.458    125.37919    245.12022 
   30500    135.00923   -577.29622    127726.15       -34022     2546.218   -36568.218    125.44977    239.47389 
   30550    135.77946   -335.37421    127694.48   -33988.734    2560.7444   -36549.479     125.8562    240.84011 
   30600    136.64195   -368.24822    127691.91   -33974.622    2577.0105   -36551.633    125.97533    242.36995 
   30650     132.3852   -137.74396    127622.78   -34029.919      2496.73   -36526.649    126.10842     234.8195 
   30700    135.30106   -239.61937    127553.35   -34030.899    2551.7219   -36582.621    126.32458    239.99154 
   30750    136.09737   -468.08205    127483.54   -34000.062      2566.74   -36566.802    126.54227      241.404 
   30800    135.84328   -460.02456    127485.17   -34010.849    2561.9478   -36572.797    126.99157     240.9533 
   30850    135.08521    -421.1048    127419.93    -34018.97    2547.6511   -36566.621    127.45149    239.60868 
   30900    135.29972   -242.55314    127438.54   -34025.766    2551.6966   -36577.462    127.84824    239.98916 
   30950    134.14991   -308.45654    127453.58   -34061.238    2530.0117   -36591.249    128.04931    237.94968 
   31000    131.30831   -151.04409    127504.22   -34064.895    2476.4203   -36541.315     128.0263    232.90937 
   31050    134.59652   -128.06844     127470.1   -34067.835    2538.4345   -36606.269    128.20701    238.74184 
   31100    133.77759   -306.65709    127346.85   -34088.838    2522.9899   -36611.828    128.42322    237.28927 
   31150    135.35334    -115.2555    127460.17   -34044.775    2552.7078   -36597.482    128.60647    240.08426 
   31200    134.00343   -346.58294    127475.56   -34065.585    2527.2492   -36592.835    128.73019    237.68986 
   31250    133.81559   -392.50115    127386.06   -34119.946    2523.7066   -36643.652    128.98055    237.35667 
   31300    132.19192   -450.33794    127288.66   -34140.554    2493.0848   -36633.639    129.32722    234.47667 
   31350    129.73843   -434.07274    127258.01   -34129.963     2446.813   -36576.776    129.81488    230.12477 
   31400    133.86264   -171.28691    127278.07   -34172.441    2524.5938   -36697.035    129.95678    237.44012 
   31450    135.93045   -194.28922    127405.78   -34099.647     2563.592   -36663.239    130.12976    241.10793 
   31500    134.52248   -359.75658    127468.52   -34146.237    2537.0382   -36683.275     130.6291    238.61053 
   31550    134.83653    45.962326    127524.61   -34078.575     2542.961   -36621.536    130.73817    239.16757 
   31600    136.65691   -304.44571    127594.28   -34041.212    2577.2926   -36618.505    130.93235    242.39648 
   31650    133.94353     -214.226    127561.21   -34022.898    2526.1194   -36549.017    130.99818    237.58361 
   31700    134.48046   -237.67552    127639.85   -33994.399    2536.2457   -36530.645    131.26421    238.53599 
   31750    134.27096   -388.33785    127590.29   -34015.002    2532.2946   -36547.297    131.28332    238.16439 
   31800     134.8487   -303.07132     127591.4   -34006.735    2543.1905   -36549.926    131.15872    239.18915 
   31850    139.98734   -551.20624    127513.01   -34000.982    2640.1033   -36641.086    131.49493    248.30388 
   31900    135.85708    -387.0579    127431.15   -34061.373    2562.2082   -36623.581    131.58689    240.97779 
   31950    135.32809   -137.16539    127419.42    -34048.55    2552.2316   -36600.781    131.61363    240.03948 
   32000    137.23617   -192.70408    127443.85    -34034.19    2588.2173   -36622.407    131.83932    243.42396 
   32050    136.62571   -178.80113    127461.21   -33996.793    2576.7042   -36573.497    131.77715    242.34114 
   32100    138.04344   -267.19174    127525.21    -33982.12    2603.4421   -36585.562    131.93673    244.85586 
   32150    133.59558   -203.06146    127499.36   -34003.852    2519.5572   -36523.409    131.66896    236.96643 
   32200    136.47111   -95.398837    127411.57   -33988.952    2573.7884    -36562.74    131.85039    242.06691 
   32250    138.72221   -197.38913    127450.73   -33987.177    2616.2433    -36603.42     132.0649    246.05983 
   32300    139.64687   -312.18747    127513.52   -33981.285     2633.682   -36614.967    132.13153    247.69996 
   32350    134.02093   -34.184915    127534.84   -34002.904    2527.5792   -36530.483    132.39986     237.7209 
   32400    135.56375   -37.881616     127594.7   -34055.779     2556.676   -36612.455    132.67584    240.45748 
   32450    135.11305   -239.65132    127683.47   -34023.864    2548.1761    -36572.04     132.5214    239.65806 
   32500    135.05229    36.404721    127806.73    -34075.92    2547.0303    -36622.95    132.70169    239.55029 
   32550    136.04666   -70.443094    127894.84    -34053.61    2565.7835   -36619.394    132.91756    241.31405 
   32600     135.7403   -420.02668    127987.08   -34072.604    2560.0057    -36632.61    133.27518    240.77064 
   32650    135.68076   -343.27024    127899.01   -34085.937    2558.8828   -36644.819    133.65277    240.66503 
   32700    131.10829    -145.1785    127833.61   -34101.697     2472.648   -36574.345    133.79114    232.55457 
   32750    133.11273   -209.16629    127808.13   -34087.455    2510.4509   -36597.906    134.15678    236.10997 
   32800    133.82448   -565.95792    127736.36   -34096.806    2523.8741   -36620.681    134.18613    237.37243 
   32850    134.68398   -159.80964    127725.14    -34100.29    2540.0839   -36640.374    134.23692    238.89698 
   32900    131.18006   -440.92858    127666.16   -34143.883    2474.0016   -36617.884    134.56541    232.68188 
   32950     134.2019   -171.94294    127614.15   -34081.762    2530.9922   -36612.754    134.95916    238.04189 
   33000    132.75321   -331.22984    127566.03   -34115.094    2503.6704   -36618.764    135.19643    235.47226 
   33050    132.76349   -169.43646     127447.8   -34089.176    2503.8644    -36593.04    135.41896     235.4905 
   33100     133.8785   -288.84883    127410.03   -34102.766    2524.8929   -36627.659    135.60721    237.46825 
   33150    137.72392   -203.33193    127375.01   -34017.806    2597.4159   -36615.222    135.66054     244.2891 
   33200    134.62977   -383.68604    127310.59   -34057.602    2539.0617   -36596.664    135.99412    238.80083 
   33250    137.57252   -304.37847    127348.56    -34010.16    2594.5606   -36604.721    136.47348    244.02055 
   33300    133.20047   -292.54431    127319.94   -34045.889    2512.1057   -36557.995    136.53327     236.2656 
   33350    132.47944    10.416258    127368.07    -34051.94    2498.5073   -36550.448    137.08371    234.98666 
   33400    136.36393   -232.16957    127411.68   -34016.491    2571.7672   -36588.258    137.39191    241.87682 
   33450    135.05566   -513.79403    127358.81   -34026.535    2547.0938   -36573.629     137.5608    239.55626 
   33500     137.5934   -87.073422    127400.16   -34008.751    2594.9545   -36603.706    137.68754     244.0576 
   33550    133.45909    56.385236    127433.59   -34010.711    2516.9831   -36527.694    138.01894    236.72432 
   33600    133.81122   -289.22537     127556.7   -33991.309     2523.624   -36514.933    138.22072    237.34891 
   33650    136.93681   -352.78371    127502.64   -34023.944    2582.5714   -36606.516    138.33852    242.89296 
   33700    133.36662   -147.91043    127521.26   -34035.499    2515.2392   -36550.738    138.90018    236.56031 
   33750    135.32274   -268.55757    127496.72   -34001.513    2552.1308   -36553.644    139.35519    240.02999 
   33800    132.74913   -550.39396     127503.4    -34058.49    2503.5935   -36562.083    139.17182    235.46502 
   33850    132.83278   -72.847483    127414.28   -34090.872    2505.1712   -36596.043    139.00552     235.6134 
   33900    133.86633   -131.00366    127411.27   -34114.187    2524.6634    -36638.85    139.16919    237.44666 
   33950    133.07142   -213.77388    127438.85   -34137.033    2509.6718   -36646.705    139.39818    236.03669 
[...]
   92000    140.48078    3.2525843    127171.76    -33853.87    2649.4093   -36503.279    368.71736    249.17912 
   92050     139.0189   -190.61016    127221.55   -33814.851    2621.8387    -36436.69    369.22708    246.58609 
   92100    135.93594   -322.91653    127254.11   -33842.649    2563.6955   -36406.344    368.96404    241.11766 
   92150    138.26924   -59.262846    127274.88   -33861.681    2607.7006   -36469.381    369.02311    245.25638 
   92200    136.12464   -425.61652    127347.87   -33874.769    2567.2543   -36442.023    369.86766    241.45237 
   92250    138.04495   -247.06716     127417.5   -33902.654    2603.4705   -36506.125    370.12745    244.85853 
   92300     135.2926   -199.79557    127424.53   -33911.269    2551.5624   -36462.832    370.38719    239.97653 
   92350    136.82269   -234.81302    127498.27   -33943.543    2580.4191   -36523.962     370.7266    242.69053 
   92400    138.69939   -405.06596    127440.75   -33970.087    2615.8129     -36585.9     370.5973    246.01935 
   92450    137.57972    -357.8213    127465.82   -33919.841    2594.6964   -36514.537    371.37727    244.03332 
   92500    137.38066   -188.46335    127456.84   -33972.387    2590.9422   -36563.329    371.02816    243.68024 
   92550    138.60099   -310.79536    127484.54   -33955.413    2613.9572    -36569.37     371.3562    245.84482 
   92600    137.55608   -248.09086    127409.07   -33911.782    2594.2507   -36506.032    371.93402     243.9914 
   92650    136.04771    -433.9792    127447.96   -33937.641    2565.8033   -36503.445    372.15692    241.31591 
   92700    136.58952   -374.67963    127304.84   -33959.188    2576.0217    -36535.21    372.31215    242.27696 
   92750    132.94694   -485.91641    127317.56   -33983.936     2507.324    -36491.26    372.28121    235.81588 
   92800    136.23357   -346.88621    127343.26   -34015.818    2569.3086   -36585.126    372.32951    241.64558 
   92850    132.75812   -382.67745    127367.59    -34039.69    2503.7631   -36543.453    372.65418    235.48098 
   92900    136.21765   -150.13253    127438.64   -33995.376    2569.0084   -36564.384    372.98459    241.61735 
   92950    133.23476   -322.14429    127469.79   -34044.783    2512.7522   -36557.536    372.91635    236.32641 
   93000    135.73448   -128.83167     127567.8   -34048.511     2559.896   -36608.408      373.234    240.76032 
   93050    132.91647   -38.282794    127652.15   -34074.648    2506.7495   -36581.398    373.18792    235.76185 
   93100    134.35073   -528.30437    127695.28   -34073.273    2533.7989   -36607.072    373.10289    238.30587 
   93150     134.1713   -219.88274    127671.36   -34030.365    2530.4151    -36560.78    373.28218    237.98762 
   93200    134.08631   -500.66059    127697.63    -34071.59    2528.8122   -36600.402    374.07958    237.83686 
   93250    130.75774   -420.69457    127672.37   -34116.994    2466.0367   -36583.031    374.81066    231.93278 
   93300     130.6797   -146.12754    127633.77   -34130.386     2464.565   -36594.951    375.10754    231.79436 
   93350    134.33014   -361.71469     127633.4   -34093.294    2533.4107   -36626.705    375.14662    238.26935 
   93400     136.4968   -255.85896    127616.04   -34065.852    2574.2731   -36640.125    375.06659     242.1125 
   93450     134.3597   -634.78916    127566.46   -34033.921    2533.9682   -36567.889    375.15154    238.32179 
   93500    135.29019   -79.408941    127549.23   -34025.673    2551.5169    -36577.19    375.32622    239.97226 
   93550    136.39271    186.45739    127549.72   -33974.448    2572.3099   -36546.758      375.111    241.92786 
   93600    132.11309   -465.72135    127511.62   -33988.279     2491.598   -36479.877    375.08769    234.33684 
   93650      137.015   -372.05553    127395.15   -33955.995    2584.0461   -36540.041     375.2788    243.03166 
   93700    136.98214   -21.564398    127411.94   -33986.308    2583.4263   -36569.735    375.52837    242.97336 
   93750    136.77158   -122.72249    127535.55   -33982.649    2579.4553   -36562.104    375.81372    242.59989 
   93800    138.25111   -238.26188    127450.82   -33966.545    2607.3586   -36573.904    375.51889    245.22421 
   93850     135.2593   -83.963143    127477.42   -33972.733    2550.9343   -36523.667    375.89881    239.91747 
   93900    134.24577   -235.35967     127539.7   -33993.108    2531.8195   -36524.927    376.40378     238.1197 
   93950    136.40251    -81.46916    127591.18   -33956.391    2572.4948   -36528.886    376.73162    241.94525 
   94000    136.05252   -233.63209    127655.92    -33990.84    2565.8942   -36556.734    377.09765    241.32445 
   94050    136.52353   -102.71455    127594.06   -33968.767    2574.7771   -36543.544    377.05689     242.1599 
   94100     134.2634   -317.73207    127577.96   -33985.642    2532.1521   -36517.794    377.54523    238.15098 
   94150    138.20202     -157.046    127521.91   -34022.426    2606.4327   -36628.859    378.00842    245.13714 
   94200    134.83336   -277.04424     127492.3   -34023.313    2542.9012   -36566.214    377.89516    239.16194 
   94250    136.07596    -233.9335     127454.2   -34040.162    2566.3361   -36606.498    378.35793    241.36602 
   94300    130.96908    -307.3097    127487.92   -34058.351    2470.0226   -36528.374    378.10123    232.30765 
   94350     134.3242   -312.43791    127476.95    -34049.79    2533.2988   -36583.089     377.9286    238.25883 
   94400     137.9581   -169.21509     127527.5   -34024.805    2601.8326   -36626.637     378.1506    244.70449 
   94450    136.64057   -431.92316    127644.02   -34025.458    2576.9845   -36602.443    378.14291    242.36751 
   94500     138.9003   -238.63448    127679.62   -33987.199    2619.6021   -36606.801     378.4096    246.37573 
   94550     136.0155   -144.32922    127796.11   -33944.871    2565.1959   -36510.067    378.56758    241.25878 
   94600    136.09663   -134.52947    127751.63    -33958.38    2566.7259   -36525.106    378.68678    241.40268 
   94650    135.69162   -249.31509    127777.86   -33980.439    2559.0877   -36539.527    378.87937     240.6843 
   94700    136.25326   -151.93167    127801.29   -33959.575    2569.6799   -36529.255    378.90398     241.6805 
   94750    134.92539   -539.00106    127841.36   -33969.324    2544.6369   -36513.961    378.99709    239.32519 
   94800    134.53183   -292.16327    127746.28   -33972.276    2537.2145    -36509.49    379.01796    238.62711 
   94850    136.86474   -194.63524     127755.2   -34001.076    2581.2122   -36582.288    379.24886    242.76513 
   94900    136.09635   -293.34573    127755.51   -34048.436    2566.7207   -36615.157    379.86442    241.40219 
   94950     133.3516   -373.85891    127740.93    -34033.91    2514.9558   -36548.866    380.36286    236.53366 
   95000    137.34929   -391.59049    127769.78    -33974.11    2590.3507   -36564.461    380.89035    243.62461 
   95050    137.32524   -67.384276    127671.72   -33998.573    2589.8972    -36588.47    381.29489    243.58195 
   95100    133.70878   -242.86594     127643.7   -34035.901    2521.6921   -36557.593    381.47356    237.16721 
   95150    136.82002   -127.14905    127586.01   -34029.914    2580.3688   -36610.283      381.617     242.6858 
   95200    134.12325   -365.49727    127625.13   -34059.003    2529.5088   -36588.512    381.94008    237.90238 
   95250    134.99786   -121.60969    127669.55   -34054.914    2546.0036   -36600.918    382.39171    239.45373 
   95300    137.75105   -112.52115    127720.06   -34088.467    2597.9276   -36686.394     382.4722    244.33722 
   95350    134.51404   -297.09268     127749.4   -34042.585     2536.879   -36579.464    382.79083    238.59556 
   95400    133.71365   -349.96253    127693.71   -34029.396    2521.7839    -36551.18     383.0713    237.17585 
   95450    135.05168   -354.33472    127772.51   -34038.477    2547.0187   -36585.495    383.33235     239.5492 
   95500    135.10555   -412.27902    127793.44    -34046.26    2548.0346   -36594.294    383.67177    239.64475 
   95550    134.74781      -575.66     127748.6   -34043.208    2541.2878   -36584.496    384.11367     239.0102 
   95600    134.52129   -326.54573    127610.87   -34041.062    2537.0157   -36578.078    384.35991    238.60841 
   95650     134.1411    -234.6024    127554.68   -34060.752    2529.8455   -36590.598    384.47269    237.93405 
   95700    135.01813   -186.63561    127599.51   -34008.613     2546.386   -36554.999    384.69179    239.48969 
   95750    135.43879   -354.65516    127632.43   -33989.134    2554.3194   -36543.453    385.24048    240.23583 
   95800    134.43179   -180.14847    127641.79   -33976.195    2535.3278   -36511.523     385.6589    238.44966 
   95850    131.56137   -167.89806    127662.71   -33985.326    2481.1929   -36466.519    385.68488    233.35823 
   95900    135.88779   -544.71055    127627.85    -33980.24    2562.7874   -36543.027    386.00221    241.03226 
   95950    135.65351   -121.92525    127653.07   -34027.107    2558.3689   -36585.476     386.0861     240.6167 
   96000    134.87106   -411.61109    127579.57   -34058.673    2543.6123   -36602.285    386.14928    239.22882 
   96050    134.44183   -514.95407    127637.55   -34065.813    2535.5172   -36601.331    386.12352    238.46747 
   96100    134.62869   -515.43596    127549.14   -34022.764    2539.0413   -36561.805    385.87603    238.79892 
   96150    135.23178   -498.85553    127546.56   -34031.677    2550.4152   -36582.092    386.06825    239.86864 
   96200    131.54555    -160.6936    127539.24   -34005.439    2480.8946   -36486.333    386.20429    233.33017 
   96250    133.93642   -148.37956    127537.02   -34037.248    2525.9854   -36563.234    386.32672      237.571 
   96300    133.80038    -139.5268    127482.98   -34058.038    2523.4197   -36581.458    386.05738    237.32969 
   96350     133.2908   -351.95623       127538   -34051.069    2513.8092   -36564.878     387.0142    236.42582 
   96400     134.7597   -318.63534     127593.3   -34012.679     2541.512   -36554.191    387.40903    239.03129 
   96450    132.63537   -452.16067    127534.46   -34045.945     2501.448   -36547.393    387.74826    235.26324 
   96500    133.89909    -185.6467    127535.27   -34044.571    2525.2814   -36569.852    387.84026    237.50479 
   96550    133.93592   -231.70927    127533.57   -34000.864    2525.9758   -36526.839    387.48762     237.5701 
   96600    134.99212   -165.82891    127639.73   -33968.386    2545.8954   -36514.282    387.34898    239.44355 
   96650    136.75047   -462.19955    127605.49   -34021.886    2579.0571   -36600.943    386.81129    242.56243 
   96700     137.4443   -246.02894    127478.41   -33978.084    2592.1425   -36570.226    386.69038    243.79313 
   96750    132.55505   -20.052839     127393.8    -33991.74    2499.9333   -36491.673    387.15371    235.12078 
   96800    134.46888   -19.097781       127376   -34035.077    2536.0273   -36571.104    387.03977    238.51545 
   96850    134.96483   -254.27109    127291.59   -34099.632    2545.3807   -36645.012    386.98354    239.39515 
   96900    132.25927   -158.04147       127382   -34152.013     2494.355   -36646.368    387.42722    234.59614 
   96950    133.50811   -71.866155    127401.21   -34139.655    2517.9075   -36657.563    387.74411    236.81127 
   97000    133.16805    -252.4663     127428.7   -34146.311    2511.4941   -36657.805    388.03196    236.20808 
   97050    131.50359   -326.46528    127441.48   -34160.059    2480.1031   -36640.162     388.3389    233.25573 
   97100     131.2781   -473.04327    127496.46   -34168.899    2475.8506   -36644.749    388.67318    232.85578 
   97150    133.21771   -337.47928    127491.86   -34125.123    2512.4307   -36637.554    388.56468    236.29617 
   97200    133.00174   -208.16021    127516.86   -34128.155    2508.3577   -36636.512    388.89248     235.9131 
   97250    133.74786   -123.23569    127641.52   -34111.939    2522.4291   -36634.369    388.72086    237.23653 
   97300    132.69004   -397.48143    127675.65   -34135.076    2502.4791   -36637.555    389.19138    235.36021 
   97350    132.68354   -480.84935    127542.46   -34127.465    2502.3565   -36629.821    389.13206    235.34868 
   97400    135.93203    -231.6429    127524.06   -34083.672    2563.6217   -36647.294    389.66881    241.11072 
   97450    134.58942   -434.76527    127588.05   -34112.087    2538.3006   -36650.388    389.74935    238.72926 
   97500    136.60084   -340.96534    127577.76    -34088.85    2576.2353   -36665.086    389.76148    242.29704 
   97550    133.27856   -303.06003    127554.69   -34075.668    2513.5784   -36589.246    389.73333    236.40411 
   97600    135.73722   -208.14807    127546.69   -34084.686    2559.9476   -36644.634    389.65498    240.76517 
   97650    134.89415   -98.679487    127605.73   -34097.094    2544.0476   -36641.142    390.05628    239.26977 
   97700    135.86996   -81.884303    127649.99   -34091.586    2562.4512   -36654.037    389.92062    241.00063 
   97750    135.53142   -225.98934    127749.89   -34097.257    2556.0664   -36653.324    389.94566    240.40014 
   97800    135.56504   -275.23644    127683.61   -34081.165    2556.7004   -36637.865    390.04473    240.45977 
   97850    133.61537   -40.398906    127671.78   -34112.921    2519.9304   -36632.852    389.80478    237.00153 
   97900    136.19783   -252.49874    127804.22   -34115.803    2568.6345   -36684.438    389.79776    241.58218 
   97950    136.15799   -340.38659     127762.8   -34086.564    2567.8833   -36654.447    389.72262    241.51153 
   98000    132.14203   -565.13796     127714.6   -34080.228    2492.1439   -36572.371    390.06609    234.38818 
   98050      135.626   -583.66485     127682.2   -34084.791      2557.85   -36642.641    389.91883     240.5679 
   98100    135.54599   -552.63135    127685.38   -34112.386    2556.3411   -36668.727    390.20348    240.42598 
   98150    136.43071   -324.86191    127659.03   -34116.149    2573.0267   -36689.175    390.90325    241.99527 
   98200    133.12389   -326.14088    127700.21    -34107.04    2510.6614   -36617.701    391.22071    236.12976 
   98250    133.31968   -205.69653    127676.19    -34106.49    2514.3538   -36620.844    391.45157    236.47704 
   98300    130.99181   -360.66006    127733.61   -34114.118    2470.4512   -36584.569    391.28694    232.34796 
   98350    131.94132   -272.55463    127702.62   -34117.235    2488.3585   -36605.594    390.70977    234.03216 
   98400    135.16794   -293.65751    127729.23   -34074.933    2549.2112   -36624.144     391.2384    239.75541 
   98450    133.00565   -456.93488     127674.3   -34076.773    2508.4314   -36585.205    391.59385    235.92003 
   98500    136.51841   -150.23267    127723.38   -34096.139    2574.6806   -36670.819    392.34976    242.15082 
   98550    135.81132   -90.869627    127814.56   -34083.561    2561.3451   -36644.906     392.4351    240.89661 
   98600    134.21259   -313.49229    127867.77   -34059.039    2531.1938   -36590.233    392.83706    238.06085 
   98650    133.33716   -241.68353    127877.95   -34108.526    2514.6835   -36623.209    393.04215    236.50805 
   98700    136.15375   -173.84076    127842.57   -34083.792    2567.8033   -36651.595    392.96961    241.50401 
   98750    135.99518    48.593689    127851.53   -34093.209    2564.8127   -36658.022    392.99809    241.22274 
   98800    136.60361   -394.34388    127842.61   -34047.973    2576.2874   -36624.261    393.37683    242.30195 
   98850    133.69869   -59.989832    127866.78   -34047.863    2521.5018   -36569.365    394.10477    237.14932 
   98900    135.05138   -444.88219    127847.64   -34047.832     2547.013   -36594.845    394.05071    239.54866 
   98950    134.62699   -351.78419    127737.72   -34055.279    2539.0091   -36594.288    394.65272    238.79589 
   99000     135.1318   -330.75728    127670.04   -34094.645    2548.5296   -36643.175    394.84545     239.6913 
   99050    135.39216   -105.79027    127635.33   -34110.234      2553.44   -36663.674    394.65178    240.15312 
   99100    133.05028   -540.10887    127678.28   -34130.159    2509.2732   -36639.432    394.56226     235.9992 
   99150    135.82448   -333.60987    127583.75   -34118.205    2561.5934   -36679.798    394.83677    240.91996 
   99200    134.93537   -220.93143    127570.47   -34141.783    2544.8251   -36686.608    395.32396    239.34289 
   99250    133.06331   -167.53114    127549.33   -34154.802    2509.5188   -36664.321     395.1592     236.0223 
   99300    135.27987    24.918125    127602.61   -34110.013    2551.3223   -36661.335    395.10358    239.95395 
   99350     134.0418   -349.95028     127619.6   -34168.634    2527.9728   -36696.607    395.86115    237.75791 
   99400    132.05524   -221.72133     127596.5   -34167.924    2490.5071   -36658.431    396.21702    234.23424 
   99450    134.86469   -306.91917    127560.39   -34102.689     2543.492   -36646.181    396.11875    239.21751 
   99500    134.30156   -522.61954    127563.24   -34046.535    2532.8717   -36579.407    396.54119    238.21866 
   99550    137.10567   -292.20781    127505.29   -34063.448    2585.7561   -36649.204    397.19428    243.19249 
   99600    133.89084   -212.16273    127452.48   -34034.547    2525.1257   -36559.673    397.38719    237.49014 
   99650    136.88553   -371.41186    127414.01   -34031.844    2581.6043   -36613.448    397.78656      242.802 
   99700    136.19417   -91.845461    127398.61   -33975.611    2568.5655   -36544.177    397.25245    241.57569 
   99750    136.19281   -408.43998    127345.98   -34000.055      2568.54   -36568.595    397.41169    241.57329 
   99800    137.07724   -537.65725    127267.51    -33967.04    2585.2199    -36552.26    397.86786    243.14205 
   99850     141.6816   -324.60135    127161.73   -33887.068    2672.0562   -36559.125    397.98406    251.30907 
   99900    141.76028   -131.81216    127085.37   -33871.621    2673.5401   -36545.161    398.14806    251.44864 
   99950    140.48037   -119.86913    127109.56   -33874.878    2649.4015   -36524.279    397.64549    249.17838 
  100000    139.08532   -9.2827885    127113.44   -33924.174    2623.0914   -36547.265    397.51977     246.7039 
Loop time of 89.7604 on 64 procs for 100000 steps with 6328 atoms

Performance: 481.281 ns/day, 0.050 hours/ns, 1114.077 timesteps/s
100.0% CPU use with 64 MPI tasks x no OpenMP threads

MPI task timing breakdown:
Section |  min time  |  avg time  |  max time  |%varavg| %total
---------------------------------------------------------------
Pair    | 18.013     | 39.792     | 65.489     | 337.1 | 44.33
Neigh   | 0.89505    | 1.9001     | 3.6233     |  78.2 |  2.12
Comm    | 14.627     | 39.616     | 64.018     | 322.6 | 44.14
Output  | 0.13212    | 0.13391    | 0.14726    |   0.5 |  0.15
Modify  | 4.7773     | 7.6218     | 13.745     | 119.7 |  8.49
Other   |            | 0.6968     |            |       |  0.78

Nlocal:    98.875 ave 169 max 59 min
Histogram: 28 4 0 7 9 0 0 0 5 11
Nghost:    766.719 ave 1070 max 490 min
Histogram: 32 0 0 0 0 0 0 0 12 20
Neighs:    0 ave 0 max 0 min
Histogram: 64 0 0 0 0 0 0 0 0 0
FullNghs:  8120.25 ave 18554 max 2332 min
Histogram: 32 0 0 1 15 0 0 0 1 15

Total # of neighbors = 519696
Ave neighs/atom = 82.1264
Neighbor list builds = 5992
Dangerous builds = 0

write_data		${DIR}/data.eq-${NAME}-${TEMP}
write_data		run_21/data.eq-${NAME}-${TEMP}
write_data		run_21/data.eq-het_freeze_21-${TEMP}
write_data		run_21/data.eq-het_freeze_21-240
undump          1

reset_timestep  0

unfix           2
unfix           3
unfix           4


################################################
#######         Run Simulation         #########
################################################

log				${DIR}/log.run_${NAME}
log				run_21/log.run_${NAME}
log				run_21/log.run_het_freeze_21
