LAMMPS data file via write_data, version 16 Mar 2018, timestep = 8000000

4065 atoms
2 atom types

0.0000000000000000e+00 4.9219999999999999e+01 xlo xhi
0.0000000000000000e+00 4.9019635930410494e+01 ylo yhi
1.0663193067609065e+00 2.6774512939521607e+01 zlo zhi

Masses

1 18.015
2 12.01

Atoms # atomic

83 2 0.0000000000000000e+00 2.8417180249513345e+00 2.6148592476914025e+00 0 0 0
85 2 0.0000000000000000e+00 0.0000000000000000e+00 2.6148592476914025e+00 0 0 0
87 2 1.2305000000000001e+00 7.1042950623783474e-01 2.6148592476914025e+00 0 0 0
94 2 1.2305000000000001e+00 2.1312885187134998e+00 2.6148592476914025e+00 0 0 0
90 2 0.0000000000000000e+00 4.2625770374269996e+00 2.6148592476914025e+00 0 0 0
92 2 1.2305000000000001e+00 4.9730065436648339e+00 2.6148592476914025e+00 0 0 0
107 2 1.2305000000000001e+00 6.3938655561404980e+00 2.6148592476914025e+00 0 0 0
88 2 0.0000000000000000e+00 7.1042950623783341e+00 2.6148592476914025e+00 0 0 0
103 2 0.0000000000000000e+00 8.5251540748539991e+00 2.6148592476914025e+00 0 0 0
105 2 1.2305000000000001e+00 9.2355835810918343e+00 2.6148592476914025e+00 0 0 0
101 2 0.0000000000000000e+00 1.1366872099805333e+01 2.6148592476914025e+00 0 0 0
124 2 0.0000000000000000e+00 1.2787731112280996e+01 2.6148592476914025e+00 0 0 0
126 2 1.2305000000000001e+00 1.3498160618518829e+01 2.6148592476914025e+00 0 0 0
128 2 1.2305000000000001e+00 1.0656442593567498e+01 2.6148592476914025e+00 0 0 0
122 2 0.0000000000000000e+00 1.5629449137232333e+01 2.6148592476914025e+00 0 0 0
153 2 0.0000000000000000e+00 1.7050308149707998e+01 2.6148592476914025e+00 0 0 0
157 2 1.2305000000000001e+00 1.4919019630994494e+01 2.6148592476914025e+00 0 0 0
151 2 0.0000000000000000e+00 1.9892026174659328e+01 2.6148592476914025e+00 0 0 0
155 2 1.2305000000000001e+00 1.7760737655945832e+01 2.6148592476914025e+00 0 0 0
194 2 1.2305000000000001e+00 1.9181596668421495e+01 2.6148592476914025e+00 0 0 0
188 2 0.0000000000000000e+00 2.4154603212086325e+01 2.6148592476914025e+00 0 0 0
190 2 0.0000000000000000e+00 2.1312885187134999e+01 2.6148592476914025e+00 0 0 0
192 2 1.2304999999999993e+00 2.2023314693372832e+01 2.6148592476914025e+00 0 0 0
233 2 1.2304999999999993e+00 2.3444173705848499e+01 2.6148592476914025e+00 0 0 0
84 2 0.0000000000000000e+00 1.4208590124756650e+00 5.7119391295545379e+00 0 0 0
86 2 0.0000000000000000e+00 0.0000000000000000e+00 5.7119391295545379e+00 0 0 0
95 2 1.2305000000000001e+00 2.1312885187134998e+00 5.7119391295545379e+00 0 0 0
89 2 0.0000000000000000e+00 5.6834360499026637e+00 5.7119391295545379e+00 0 0 0
91 2 0.0000000000000000e+00 4.2625770374269996e+00 5.7119391295545379e+00 0 0 0
93 2 1.2305000000000001e+00 3.5521475311891644e+00 5.7119391295545379e+00 0 0 0
108 2 1.2305000000000001e+00 6.3938655561404980e+00 5.7119391295545379e+00 0 0 0
102 2 0.0000000000000000e+00 9.9460130873296642e+00 5.7119391295545379e+00 0 0 0
104 2 0.0000000000000000e+00 8.5251540748539991e+00 5.7119391295545379e+00 0 0 0
106 2 1.2305000000000001e+00 7.8147245686161639e+00 5.7119391295545379e+00 0 0 0
125 2 0.0000000000000000e+00 1.2787731112280996e+01 5.7119391295545379e+00 0 0 0
127 2 1.2305000000000001e+00 1.2077301606043163e+01 5.7119391295545379e+00 0 0 0
129 2 1.2305000000000001e+00 1.0656442593567498e+01 5.7119391295545379e+00 0 0 0
123 2 0.0000000000000000e+00 1.4208590124756663e+01 5.7119391295545379e+00 0 0 0
154 2 0.0000000000000000e+00 1.7050308149707998e+01 5.7119391295545379e+00 0 0 0
156 2 1.2305000000000001e+00 1.6339878643470165e+01 5.7119391295545379e+00 0 0 0
158 2 1.2305000000000001e+00 1.4919019630994494e+01 5.7119391295545379e+00 0 0 0
152 2 0.0000000000000000e+00 1.8471167162183658e+01 5.7119391295545379e+00 0 0 0
193 2 1.2305000000000001e+00 2.0602455680897162e+01 5.7119391295545379e+00 0 0 0
195 2 1.2305000000000001e+00 1.9181596668421495e+01 5.7119391295545379e+00 0 0 0
189 2 0.0000000000000000e+00 2.2733744199610655e+01 5.7119391295545379e+00 0 0 0
191 2 0.0000000000000000e+00 2.1312885187134999e+01 5.7119391295545379e+00 0 0 0
234 2 1.2304999999999993e+00 2.3444173705848499e+01 5.7119391295545379e+00 0 0 0
412 2 0.0000000000000000e+00 2.8417180249513345e+00 8.8090190114180462e+00 0 0 0
413 2 0.0000000000000000e+00 0.0000000000000000e+00 8.8090190114180462e+00 0 0 0
414 2 1.2305000000000001e+00 7.1042950623783474e-01 8.8090190114180462e+00 0 0 0
418 2 1.2305000000000001e+00 2.1312885187134998e+00 8.8090190114180462e+00 0 0 0
3844 1 9.9329062331041362e-01 1.4584266359538469e+00 1.1309606208784896e+01 -2 1 0
416 2 0.0000000000000000e+00 4.2625770374269996e+00 8.8090190114180462e+00 0 0 0
417 2 1.2305000000000001e+00 4.9730065436648339e+00 8.8090190114180462e+00 0 0 0
425 2 1.2305000000000001e+00 6.3938655561404980e+00 8.8090190114180462e+00 0 0 0
914 1 4.7407057049058371e-01 8.8981818379172744e+00 2.5652509791822826e+01 2 2 0
415 2 0.0000000000000000e+00 7.1042950623783341e+00 8.8090190114180462e+00 0 0 0
423 2 0.0000000000000000e+00 8.5251540748539991e+00 8.8090190114180462e+00 0 0 0
424 2 1.2305000000000001e+00 9.2355835810918343e+00 8.8090190114180462e+00 0 0 0
422 2 0.0000000000000000e+00 1.1366872099805333e+01 8.8090190114180462e+00 0 0 0
434 2 0.0000000000000000e+00 1.2787731112280996e+01 8.8090190114180462e+00 0 0 0
435 2 1.2305000000000001e+00 1.3498160618518829e+01 8.8090190114180462e+00 0 0 0
436 2 1.2305000000000001e+00 1.0656442593567498e+01 8.8090190114180462e+00 0 0 0
2002 1 1.0283016193462093e+00 1.1913777692931106e+01 1.2245247496077486e+01 0 -3 0
433 2 0.0000000000000000e+00 1.5629449137232333e+01 8.8090190114180462e+00 0 0 0
449 2 0.0000000000000000e+00 1.7050308149707998e+01 8.8090190114180462e+00 0 0 0
451 2 1.2305000000000001e+00 1.4919019630994494e+01 8.8090190114180462e+00 0 0 0
3097 1 1.3976536010454415e+00 1.7666456924201945e+01 1.1117073298275436e+01 -2 2 0
450 2 1.2305000000000001e+00 1.7760737655945832e+01 8.8090190114180462e+00 0 0 0
470 2 1.2305000000000001e+00 1.9181596668421495e+01 8.8090190114180462e+00 0 0 0
448 2 0.0000000000000000e+00 1.9892026174659328e+01 8.8090190114180462e+00 0 0 0
2858 1 1.1726996974368058e+00 2.0108480451819347e+01 1.2139781383180287e+01 1 0 0
490 2 1.2304999999999993e+00 2.3444173705848499e+01 8.8090190114180462e+00 0 0 0
469 2 1.2304999999999993e+00 2.2023314693372832e+01 8.8090190114180462e+00 0 0 0
468 2 0.0000000000000000e+00 2.1312885187134999e+01 8.8090190114180462e+00 0 0 0
467 2 0.0000000000000000e+00 2.4154603212086325e+01 8.8090190114180462e+00 0 0 0
3860 1 1.1903955322381072e+00 1.1988505550504576e+00 1.5909331037502044e+01 2 1 0
3812 1 9.4853130001457509e-01 3.9306692670217167e+00 1.2070585935978634e+01 0 0 0
2945 1 9.0635645819960775e-01 3.7375750861069825e+00 1.4764960808737730e+01 0 1 0
3908 1 1.0308837853253514e+00 9.0129549576702246e+00 1.5663632921712885e+01 -1 -2 1
1834 1 1.1404898329365565e+00 1.1852867900722460e+01 1.5024684364203766e+01 2 0 0
1796 1 1.0633887180956039e+00 1.7219122122736845e+01 1.5837942151489948e+01 1 0 -1
3028 1 1.1007982078621694e+00 2.0026680404952057e+01 1.4904470857670223e+01 -1 -2 0
2916 1 3.3481304338580770e-01 3.6076123950690335e+00 2.5297734335276697e+01 3 0 0
894 1 1.0599777570183568e+00 3.1986108340326465e+00 1.9562435867557280e+01 1 0 0
1939 1 7.8987032229038046e-01 9.1252401947894715e+00 1.8378103645997907e+01 4 1 0
838 1 9.2194381015965587e-01 1.1509958694834999e+01 1.9508327600690592e+01 0 0 1
72 1 1.2284393416396171e+00 1.7443729219727764e+01 1.8497406638580316e+01 1 1 -1
2063 1 1.2330601485312285e+00 2.0074813819247169e+01 1.9506927814824206e+01 1 2 1
4007 1 1.2032846272832329e+00 7.7385621167309493e-01 2.2968138478261320e+01 1 0 0
867 1 7.8216962344281593e-01 3.3984194137136461e+00 2.2177192146723883e+01 2 1 1
1962 1 1.1030939297862947e+00 8.8947546866775991e+00 2.3006321890191202e+01 -2 -2 0
3824 1 9.0394681764544949e-01 1.1520682821821989e+01 2.2180247356851165e+01 -2 0 -1
2056 1 1.2532114041338445e+00 1.7372901308155097e+01 2.2807572370351856e+01 -1 0 0
3143 1 1.0003750880165980e+00 2.0111819752330788e+01 2.2199921591205882e+01 -1 0 1
1831 1 9.2701764849675561e-01 1.7565593427066009e+01 2.5569478768260161e+01 -1 -2 1
2073 1 8.4219646814901683e-01 2.0438955802037537e+01 2.6079745651057991e+01 2 -1 0
1847 1 1.0353885551892767e+00 8.0032175586682275e-01 1.8568086516526755e+01 -1 1 0
1789 1 7.9527121353466146e-01 1.1758695682861976e+01 2.5752410646116033e+01 3 2 0
1119 1 1.1089345264478958e+00 9.4583494440690608e+00 1.1578612810469785e+01 -1 2 0
923 1 3.5913615369757612e-01 1.0276536826822025e+00 2.5464720510816054e+01 1 1 0
1130 2 0.0000000000000000e+00 2.5575462224561992e+01 2.6148592476914025e+00 0 0 0
1132 2 1.2305000000000001e+00 2.6285891730799833e+01 2.6148592476914025e+00 0 0 0
1140 2 1.2305000000000010e+00 2.7706750743275496e+01 2.6148592476914025e+00 0 0 0
1128 2 0.0000000000000000e+00 2.8417180249513333e+01 2.6148592476914025e+00 0 0 0
1136 2 0.0000000000000000e+00 2.9838039261988989e+01 2.6148592476914025e+00 0 0 0
1138 2 1.2304999999999993e+00 3.0548468768226829e+01 2.6148592476914025e+00 0 0 0
1134 2 0.0000000000000000e+00 3.2679757286940330e+01 2.6148592476914025e+00 0 0 0
1150 2 0.0000000000000000e+00 3.4100616299415996e+01 2.6148592476914025e+00 0 0 0
1152 2 1.2305000000000010e+00 3.4811045805653833e+01 2.6148592476914025e+00 0 0 0
1154 2 1.2304999999999993e+00 3.1969327780702493e+01 2.6148592476914025e+00 0 0 0
1148 2 0.0000000000000000e+00 3.6942334324367337e+01 2.6148592476914025e+00 0 0 0
1172 2 0.0000000000000000e+00 3.8363193336842990e+01 2.6148592476914025e+00 0 0 0
1176 2 1.2304999999999993e+00 3.6231904818129486e+01 2.6148592476914025e+00 0 0 0
1170 2 0.0000000000000000e+00 4.1204911361794323e+01 2.6148592476914025e+00 0 0 0
1174 2 1.2305000000000010e+00 3.9073622843080841e+01 2.6148592476914025e+00 0 0 0
1206 2 1.2305000000000010e+00 4.0494481855556494e+01 2.6148592476914025e+00 0 0 0
1200 2 0.0000000000000000e+00 4.5467488399221331e+01 2.6148592476914025e+00 0 0 0
1202 2 0.0000000000000000e+00 4.2625770374269997e+01 2.6148592476914025e+00 0 0 0
1204 2 1.2304999999999993e+00 4.3336199880507827e+01 2.6148592476914025e+00 0 0 0
1243 2 1.2304999999999993e+00 4.4757058892983494e+01 2.6148592476914025e+00 0 0 0
1239 2 0.0000000000000000e+00 4.6888347411696998e+01 2.6148592476914025e+00 0 0 0
1241 2 1.2305000000000010e+00 4.7598776917934813e+01 2.6148592476914025e+00 0 0 0
1129 2 0.0000000000000000e+00 2.6996321237037659e+01 5.7119391295545379e+00 0 0 0
1131 2 0.0000000000000000e+00 2.5575462224561992e+01 5.7119391295545379e+00 0 0 0
1133 2 1.2305000000000001e+00 2.4865032718324155e+01 5.7119391295545379e+00 0 0 0
1141 2 1.2305000000000010e+00 2.7706750743275496e+01 5.7119391295545379e+00 0 0 0
1135 2 0.0000000000000000e+00 3.1258898274464656e+01 5.7119391295545379e+00 0 0 0
1137 2 0.0000000000000000e+00 2.9838039261988989e+01 5.7119391295545379e+00 0 0 0
1139 2 1.2304999999999993e+00 2.9127609755751163e+01 5.7119391295545379e+00 0 0 0
1151 2 0.0000000000000000e+00 3.4100616299415996e+01 5.7119391295545379e+00 0 0 0
1153 2 1.2304999999999993e+00 3.3390186793178160e+01 5.7119391295545379e+00 0 0 0
1155 2 1.2304999999999993e+00 3.1969327780702493e+01 5.7119391295545379e+00 0 0 0
1149 2 0.0000000000000000e+00 3.5521475311891649e+01 5.7119391295545379e+00 0 0 0
1173 2 0.0000000000000000e+00 3.8363193336842990e+01 5.7119391295545379e+00 0 0 0
1175 2 1.2304999999999993e+00 3.7652763830605153e+01 5.7119391295545379e+00 0 0 0
1177 2 1.2304999999999993e+00 3.6231904818129486e+01 5.7119391295545379e+00 0 0 0
1171 2 0.0000000000000000e+00 3.9784052349318657e+01 5.7119391295545379e+00 0 0 0
1205 2 1.2305000000000010e+00 4.1915340868032160e+01 5.7119391295545379e+00 0 0 0
1207 2 1.2305000000000010e+00 4.0494481855556494e+01 5.7119391295545379e+00 0 0 0
1201 2 0.0000000000000000e+00 4.4046629386745657e+01 5.7119391295545379e+00 0 0 0
1203 2 0.0000000000000000e+00 4.2625770374269997e+01 5.7119391295545379e+00 0 0 0
1244 2 1.2304999999999993e+00 4.4757058892983494e+01 5.7119391295545379e+00 0 0 0
1238 2 0.0000000000000000e+00 4.8309206424172650e+01 5.7119391295545379e+00 0 0 0
1240 2 0.0000000000000000e+00 4.6888347411696998e+01 5.7119391295545379e+00 0 0 0
1242 2 1.2304999999999993e+00 4.6177917905459147e+01 5.7119391295545379e+00 0 0 0
1444 2 0.0000000000000000e+00 2.5575462224561992e+01 8.8090190114180462e+00 0 0 0
1445 2 1.2305000000000001e+00 2.6285891730799833e+01 8.8090190114180462e+00 0 0 0
1449 2 1.2305000000000010e+00 2.7706750743275496e+01 8.8090190114180462e+00 0 0 0
2878 1 1.1283481867345999e+00 2.5133260428909875e+01 1.1440001199923721e+01 -2 -3 1
1443 2 0.0000000000000000e+00 2.8417180249513333e+01 8.8090190114180462e+00 0 0 0
1447 2 0.0000000000000000e+00 2.9838039261988989e+01 8.8090190114180462e+00 0 0 0
1448 2 1.2304999999999993e+00 3.0548468768226829e+01 8.8090190114180462e+00 0 0 0
2873 1 1.4040133626402336e+00 2.7974849735179614e+01 1.1860608740814207e+01 1 -2 0
1446 2 0.0000000000000000e+00 3.2679757286940330e+01 8.8090190114180462e+00 0 0 0
1454 2 0.0000000000000000e+00 3.4100616299415996e+01 8.8090190114180462e+00 0 0 0
1455 2 1.2305000000000010e+00 3.4811045805653833e+01 8.8090190114180462e+00 0 0 0
1456 2 1.2304999999999993e+00 3.1969327780702493e+01 8.8090190114180462e+00 0 0 0
3987 1 9.0608693271891516e-01 2.8291982996648755e+01 1.9299208350922292e+01 0 -1 1
1453 2 0.0000000000000000e+00 3.6942334324367337e+01 8.8090190114180462e+00 0 0 0
1465 2 0.0000000000000000e+00 3.8363193336842990e+01 8.8090190114180462e+00 0 0 0
1467 2 1.2304999999999993e+00 3.6231904818129486e+01 8.8090190114180462e+00 0 0 0
3017 1 1.2441555310001049e+00 3.6749639531524195e+01 1.1739664197351255e+01 2 -1 -1
1464 2 0.0000000000000000e+00 4.1204911361794323e+01 8.8090190114180462e+00 0 0 0
1466 2 1.2305000000000010e+00 3.9073622843080841e+01 8.8090190114180462e+00 0 0 0
1482 2 1.2305000000000010e+00 4.0494481855556494e+01 8.8090190114180462e+00 0 0 0
1802 1 2.1063929277302082e-01 2.8582479512057823e+01 2.5550412943338625e+01 2 1 0
855 1 1.2021011821133962e+00 3.3458121541510579e+01 1.5406788182888585e+01 -1 2 0
1481 2 1.2304999999999993e+00 4.3336199880507827e+01 8.8090190114180462e+00 0 0 0
1500 2 1.2304999999999993e+00 4.4757058892983494e+01 8.8090190114180462e+00 0 0 0
1480 2 0.0000000000000000e+00 4.2625770374269997e+01 8.8090190114180462e+00 0 0 0
1479 2 0.0000000000000000e+00 4.5467488399221331e+01 8.8090190114180462e+00 0 0 0
1499 2 1.2305000000000010e+00 4.7598776917934813e+01 8.8090190114180462e+00 0 0 0
1498 2 0.0000000000000000e+00 4.6888347411696998e+01 8.8090190114180462e+00 0 0 0
3067 1 1.1234011557259400e+00 2.5396320852456835e+01 1.5542098358726941e+01 2 -1 0
2023 1 1.0644550250190910e+00 2.8040005195827234e+01 1.4672314264493544e+01 -1 0 1
1950 1 1.2685741205783183e+00 3.6028167149839852e+01 1.4545428148179493e+01 2 -1 -1
1876 1 1.1261438968055755e+00 4.1552289838286029e+01 1.5058506318753805e+01 2 -2 0
963 1 1.2492164385551821e+00 4.4525962312168247e+01 1.4677882304967765e+01 -2 -3 0
44 1 1.3333862327759451e+00 2.5760116126547217e+01 1.8338894861419242e+01 0 0 0
822 1 9.3837001142690155e-02 2.5828659501120551e+01 2.5628837028028194e+01 5 -1 1
1858 1 9.8077236493868447e-01 3.4030491790283527e+01 1.1483906803233019e+01 -1 -2 -1
2097 1 9.5362564527492599e-01 3.3521912052889988e+01 1.8119390614295192e+01 1 -1 0
3922 1 9.0020511659707148e-01 3.6108400764513270e+01 1.8851040847967301e+01 -2 1 0
3065 1 1.0627987996071888e+00 4.1538025932617032e+01 1.7839506966152726e+01 0 0 -1
2035 1 1.3702717782148803e+00 4.4242765092203982e+01 1.8643200256039098e+01 -1 -1 0
2007 1 1.0686147267164701e+00 2.5568048724003248e+01 2.2857088283806622e+01 2 1 0
3919 1 1.0264713280912252e+00 2.8388483548992031e+01 2.2060476180702459e+01 -2 2 0
1954 1 1.0732494532690695e+00 3.3518496892006510e+01 2.2816619596377926e+01 -1 0 0
782 1 1.4260148244629312e+00 3.6308803833929034e+01 2.1828003328444446e+01 -1 -1 1
886 1 1.1281350769101686e+00 4.1745885847871058e+01 2.2753560256572289e+01 0 0 -1
982 1 1.2434828935831830e+00 4.4295459630503615e+01 2.1779640865532443e+01 2 -3 -1
1842 1 1.2166550696013807e-01 3.4410880438036642e+01 2.5368892976794502e+01 1 -1 0
3084 1 1.1103103324857837e+00 4.4706955518308732e+01 1.1873518986956926e+01 0 1 1
3964 1 1.6574326090711049e+00 4.1883081176793759e+01 1.1660218374342032e+01 2 -3 0
96 2 2.4610000000000003e+00 2.8417180249513345e+00 2.6148592476914025e+00 0 0 0
98 2 2.4610000000000003e+00 0.0000000000000000e+00 2.6148592476914025e+00 0 0 0
111 2 2.4610000000000003e+00 4.2625770374269996e+00 2.6148592476914025e+00 0 0 0
109 2 2.4610000000000003e+00 7.1042950623783341e+00 2.6148592476914025e+00 0 0 0
132 2 2.4610000000000003e+00 8.5251540748539991e+00 2.6148592476914025e+00 0 0 0
130 2 2.4610000000000003e+00 1.1366872099805333e+01 2.6148592476914025e+00 0 0 0
161 2 2.4610000000000003e+00 1.2787731112280996e+01 2.6148592476914025e+00 0 0 0
159 2 2.4610000000000003e+00 1.5629449137232328e+01 2.6148592476914025e+00 0 0 0
198 2 2.4610000000000003e+00 1.7050308149707998e+01 2.6148592476914025e+00 0 0 0
196 2 2.4610000000000003e+00 1.9892026174659328e+01 2.6148592476914025e+00 0 0 0
235 2 2.4610000000000003e+00 2.4154603212086325e+01 2.6148592476914025e+00 0 0 0
237 2 2.4610000000000003e+00 2.1312885187134995e+01 2.6148592476914025e+00 0 0 0
97 2 2.4610000000000003e+00 1.4208590124756650e+00 5.7119391295545379e+00 0 0 0
99 2 2.4610000000000003e+00 0.0000000000000000e+00 5.7119391295545379e+00 0 0 0
110 2 2.4610000000000003e+00 5.6834360499026637e+00 5.7119391295545379e+00 0 0 0
112 2 2.4610000000000003e+00 4.2625770374269996e+00 5.7119391295545379e+00 0 0 0
131 2 2.4610000000000003e+00 9.9460130873296642e+00 5.7119391295545379e+00 0 0 0
133 2 2.4610000000000003e+00 8.5251540748539991e+00 5.7119391295545379e+00 0 0 0
162 2 2.4610000000000003e+00 1.2787731112280996e+01 5.7119391295545379e+00 0 0 0
160 2 2.4610000000000003e+00 1.4208590124756663e+01 5.7119391295545379e+00 0 0 0
199 2 2.4610000000000003e+00 1.7050308149707998e+01 5.7119391295545379e+00 0 0 0
197 2 2.4610000000000003e+00 1.8471167162183658e+01 5.7119391295545379e+00 0 0 0
236 2 2.4610000000000003e+00 2.2733744199610655e+01 5.7119391295545379e+00 0 0 0
238 2 2.4610000000000003e+00 2.1312885187134995e+01 5.7119391295545379e+00 0 0 0
419 2 2.4610000000000003e+00 2.8417180249513345e+00 8.8090190114180462e+00 0 0 0
420 2 2.4610000000000003e+00 0.0000000000000000e+00 8.8090190114180462e+00 0 0 0
427 2 2.4610000000000003e+00 4.2625770374269996e+00 8.8090190114180462e+00 0 0 0
939 1 3.3927485015104266e+00 5.0897773986767554e+00 1.1235188750257604e+01 1 0 0
426 2 2.4610000000000003e+00 7.1042950623783341e+00 8.8090190114180462e+00 0 0 0
438 2 2.4610000000000003e+00 8.5251540748539991e+00 8.8090190114180462e+00 0 0 0
1786 1 3.0689224307077505e+00 1.3359195399030334e+01 1.8466385268336804e+01 1 0 0
437 2 2.4610000000000003e+00 1.1366872099805333e+01 8.8090190114180462e+00 0 0 0
453 2 2.4610000000000003e+00 1.2787731112280996e+01 8.8090190114180462e+00 0 0 0
1999 1 3.2185964294108564e+00 1.6042323317251203e+01 2.5771084694327314e+01 0 -3 0
452 2 2.4610000000000003e+00 1.5629449137232328e+01 8.8090190114180462e+00 0 0 0
472 2 2.4610000000000003e+00 1.7050308149707998e+01 8.8090190114180462e+00 0 0 0
3109 1 2.9432326732568628e+00 7.5515843990150859e+00 1.9136247601799742e+01 -2 0 1
471 2 2.4610000000000003e+00 1.9892026174659328e+01 8.8090190114180462e+00 0 0 0
491 2 2.4610000000000003e+00 2.4154603212086325e+01 8.8090190114180462e+00 0 0 0
492 2 2.4610000000000003e+00 2.1312885187134995e+01 8.8090190114180462e+00 0 0 0
3800 1 3.0138547906710280e+00 4.8467847673974624e+00 2.2800075380764255e+01 -1 0 1
1871 1 3.0007932719672921e+00 7.4767960916805807e+00 2.2014971221721602e+01 2 1 0
2951 1 3.0455805647539549e+00 1.3236284165403919e+01 2.5572642346902565e+01 2 3 0
2845 1 3.1617429892108784e+00 1.3252991269816954e+01 2.2820294608971203e+01 0 2 0
2862 1 3.3501116338959065e+00 1.3344793121405086e+01 1.1112398605614402e+01 0 -1 0
1825 1 3.2820528198607652e+00 1.5874188777761201e+01 2.1904758891373636e+01 1 -2 -1
1803 1 2.9741319181447876e+00 4.8055630020547815e+00 2.5485893982769593e+01 1 -4 1
901 1 3.0146046809708569e+00 7.6241268649960139e+00 2.5733022516388765e+01 0 0 0
4039 1 3.2990296636822087e+00 7.8111376623042439e+00 1.4618842573645757e+01 0 -1 0
1086 1 3.1776536495490579e+00 5.1674543961140706e+00 1.5693026511536507e+01 0 1 1
3962 1 3.1395085659914579e+00 1.5852645515018773e+01 1.9168911270483157e+01 2 1 0
1002 1 3.2280952321212979e+00 7.7685939964349835e+00 1.1865021818648463e+01 0 3 -1
2884 1 2.6584261972638243e+00 2.4333134765017704e+01 2.5520570379283086e+01 1 -1 0
1075 1 3.3227008870307233e+00 2.1337877551556570e+01 2.3118518111795140e+01 0 1 0
3981 1 3.2692180561276833e+00 1.5672432606679985e+01 1.4560871163112287e+01 0 4 -1
2942 1 3.2708200152145470e+00 2.1725622887798295e+01 2.5640359884425127e+01 3 -1 0
3068 1 2.9918295680372773e+00 4.9610142506583976e+00 1.8395125787073905e+01 1 2 1
856 1 3.3358494255387803e+00 1.3289187232042503e+01 1.5752123693156719e+01 1 -1 1
1103 1 3.1729054433995376e+00 2.1634168148444324e+01 1.5870914211594270e+01 -1 0 1
1068 1 3.3764260623037776e+00 2.1534526761403768e+01 1.1365509410336225e+01 1 4 0
1144 2 2.4610000000000003e+00 2.5575462224561992e+01 2.6148592476914025e+00 0 0 0
1142 2 2.4610000000000003e+00 2.8417180249513326e+01 2.6148592476914025e+00 0 0 0
1158 2 2.4610000000000003e+00 2.9838039261988989e+01 2.6148592476914025e+00 0 0 0
1156 2 2.4610000000000003e+00 3.2679757286940337e+01 2.6148592476914025e+00 0 0 0
1180 2 2.4609999999999985e+00 3.4100616299415996e+01 2.6148592476914025e+00 0 0 0
1178 2 2.4610000000000021e+00 3.6942334324367337e+01 2.6148592476914025e+00 0 0 0
1210 2 2.4610000000000003e+00 3.8363193336842990e+01 2.6148592476914025e+00 0 0 0
1208 2 2.4610000000000003e+00 4.1204911361794323e+01 2.6148592476914025e+00 0 0 0
1245 2 2.4610000000000003e+00 4.5467488399221331e+01 2.6148592476914025e+00 0 0 0
1247 2 2.4610000000000003e+00 4.2625770374269997e+01 2.6148592476914025e+00 0 0 0
1284 2 2.4609999999999985e+00 4.6888347411696998e+01 2.6148592476914025e+00 0 0 0
1143 2 2.4610000000000003e+00 2.6996321237037659e+01 5.7119391295545379e+00 0 0 0
1145 2 2.4610000000000003e+00 2.5575462224561992e+01 5.7119391295545379e+00 0 0 0
1157 2 2.4609999999999985e+00 3.1258898274464656e+01 5.7119391295545379e+00 0 0 0
1159 2 2.4610000000000003e+00 2.9838039261988989e+01 5.7119391295545379e+00 0 0 0
1181 2 2.4609999999999985e+00 3.4100616299415996e+01 5.7119391295545379e+00 0 0 0
1179 2 2.4609999999999985e+00 3.5521475311891663e+01 5.7119391295545379e+00 0 0 0
1211 2 2.4610000000000003e+00 3.8363193336842990e+01 5.7119391295545379e+00 0 0 0
1209 2 2.4610000000000003e+00 3.9784052349318657e+01 5.7119391295545379e+00 0 0 0
1246 2 2.4610000000000003e+00 4.4046629386745657e+01 5.7119391295545379e+00 0 0 0
1248 2 2.4610000000000003e+00 4.2625770374269997e+01 5.7119391295545379e+00 0 0 0
1283 2 2.4609999999999985e+00 4.8309206424172650e+01 5.7119391295545379e+00 0 0 0
1285 2 2.4609999999999985e+00 4.6888347411696998e+01 5.7119391295545379e+00 0 0 0
1451 2 2.4610000000000003e+00 2.5575462224561992e+01 8.8090190114180462e+00 0 0 0
1450 2 2.4610000000000003e+00 2.8417180249513326e+01 8.8090190114180462e+00 0 0 0
1458 2 2.4610000000000003e+00 2.9838039261988989e+01 8.8090190114180462e+00 0 0 0
1457 2 2.4610000000000003e+00 3.2679757286940337e+01 8.8090190114180462e+00 0 0 0
1469 2 2.4609999999999985e+00 3.4100616299415996e+01 8.8090190114180462e+00 0 0 0
3900 1 2.9690236850933922e+00 4.8645804915302648e+01 2.5847879108134229e+01 2 3 0
1468 2 2.4610000000000021e+00 3.6942334324367337e+01 8.8090190114180462e+00 0 0 0
1484 2 2.4610000000000003e+00 3.8363193336842990e+01 8.8090190114180462e+00 0 0 0
1483 2 2.4610000000000003e+00 4.1204911361794323e+01 8.8090190114180462e+00 0 0 0
1502 2 2.4610000000000003e+00 4.2625770374269997e+01 8.8090190114180462e+00 0 0 0
1501 2 2.4610000000000003e+00 4.5467488399221331e+01 8.8090190114180462e+00 0 0 0
1520 2 2.4609999999999985e+00 4.6888347411696998e+01 8.8090190114180462e+00 0 0 0
1993 1 3.2293289937627523e+00 3.2324784377627765e+01 1.1942937156875294e+01 -1 0 -1
871 1 3.3068123921209938e+00 4.0095785297773602e+01 1.3839782288317496e+01 -2 1 -1
3889 1 2.5513564524703374e+00 3.2812097127299964e+01 2.5610413804108081e+01 -1 0 -1
959 1 2.6100532664699401e+00 2.9944275537127375e+01 2.5643952722430555e+01 2 -2 -1
893 1 2.0969183975214150e+00 3.8607813637836216e+01 2.5693269359866196e+01 1 -2 0
796 1 2.4783459929948886e+00 4.5929795918667701e+01 2.5269683547385306e+01 0 2 0
994 1 2.2823578916057050e+00 4.1533198903299692e+01 2.5487416711120034e+01 -2 -1 0
1007 1 2.9892359641095467e+00 4.6268374301789137e+01 1.1032619084044246e+01 1 0 1
2988 1 3.2911903360922992e+00 4.0262440028426553e+01 2.1804783675781021e+01 2 -1 0
1932 1 3.1491379586957131e+00 4.8865750461398434e+01 1.1954328951013050e+01 2 -4 -1
2083 1 3.1643362924692249e+00 3.2261975097160452e+01 1.9072386471202265e+01 5 1 0
1000 1 3.2381436594914641e+00 4.0320552092456403e+01 1.8909897025416871e+01 -1 -3 -1
3048 1 3.2972818072237389e+00 4.6076286112908839e+01 1.5505805369537189e+01 3 -1 0
2907 1 3.2022358337135666e+00 4.8683388032676696e+01 1.4871310744888820e+01 -1 1 0
3138 1 3.3917654501029864e+00 3.7563710662933993e+01 2.3090543307705413e+01 2 -1 1
870 1 3.3590982601450419e+00 3.8251501004597216e+01 1.1562779921910716e+01 0 0 0
945 1 3.3347181223915103e+00 3.2177373510305259e+01 1.4627765932362868e+01 0 -1 -1
16 1 3.1863475249311008e+00 4.8316020793650907e+01 2.1668298743606695e+01 0 0 1
100 2 3.6915000000000004e+00 7.1042950623783474e-01 2.6148592476914025e+00 0 0 0
115 2 3.6914999999999996e+00 2.1312885187134998e+00 2.6148592476914025e+00 0 0 0
117 2 4.9220000000000006e+00 2.8417180249513332e+00 2.6148592476914025e+00 0 0 0
119 2 4.9220000000000006e+00 0.0000000000000000e+00 2.6148592476914025e+00 0 0 0
113 2 3.6914999999999996e+00 4.9730065436648339e+00 2.6148592476914025e+00 0 0 0
136 2 3.6914999999999996e+00 6.3938655561404980e+00 2.6148592476914025e+00 0 0 0
140 2 4.9220000000000006e+00 4.2625770374269978e+00 2.6148592476914025e+00 0 0 0
134 2 3.6915000000000004e+00 9.2355835810918343e+00 2.6148592476914025e+00 0 0 0
138 2 4.9220000000000006e+00 7.1042950623783341e+00 2.6148592476914025e+00 0 0 0
169 2 4.9220000000000006e+00 8.5251540748539991e+00 2.6148592476914025e+00 0 0 0
163 2 3.6915000000000004e+00 1.3498160618518829e+01 2.6148592476914025e+00 0 0 0
165 2 3.6914999999999996e+00 1.0656442593567499e+01 2.6148592476914025e+00 0 0 0
167 2 4.9220000000000006e+00 1.1366872099805333e+01 2.6148592476914025e+00 0 0 0
206 2 4.9220000000000006e+00 1.2787731112280996e+01 2.6148592476914025e+00 0 0 0
202 2 3.6915000000000004e+00 1.4919019630994494e+01 2.6148592476914025e+00 0 0 0
204 2 4.9220000000000006e+00 1.5629449137232333e+01 2.6148592476914025e+00 0 0 0
245 2 4.9220000000000006e+00 1.7050308149707998e+01 2.6148592476914025e+00 0 0 0
200 2 3.6914999999999996e+00 1.7760737655945832e+01 2.6148592476914025e+00 0 0 0
241 2 3.6914999999999996e+00 1.9181596668421495e+01 2.6148592476914025e+00 0 0 0
243 2 4.9220000000000006e+00 1.9892026174659328e+01 2.6148592476914025e+00 0 0 0
239 2 3.6914999999999996e+00 2.2023314693372832e+01 2.6148592476914025e+00 0 0 0
280 2 3.6915000000000004e+00 2.3444173705848499e+01 2.6148592476914025e+00 0 0 0
282 2 4.9220000000000006e+00 2.4154603212086325e+01 2.6148592476914025e+00 0 0 0
284 2 4.9220000000000006e+00 2.1312885187134995e+01 2.6148592476914025e+00 0 0 0
116 2 3.6914999999999996e+00 2.1312885187134998e+00 5.7119391295545379e+00 0 0 0
118 2 4.9220000000000006e+00 1.4208590124756650e+00 5.7119391295545379e+00 0 0 0
120 2 4.9220000000000006e+00 0.0000000000000000e+00 5.7119391295545379e+00 0 0 0
114 2 3.6914999999999996e+00 3.5521475311891644e+00 5.7119391295545379e+00 0 0 0
137 2 3.6914999999999996e+00 6.3938655561404980e+00 5.7119391295545379e+00 0 0 0
139 2 4.9220000000000006e+00 5.6834360499026637e+00 5.7119391295545379e+00 0 0 0
141 2 4.9220000000000006e+00 4.2625770374269978e+00 5.7119391295545379e+00 0 0 0
135 2 3.6914999999999996e+00 7.8147245686161639e+00 5.7119391295545379e+00 0 0 0
168 2 4.9220000000000006e+00 9.9460130873296642e+00 5.7119391295545379e+00 0 0 0
170 2 4.9220000000000006e+00 8.5251540748539991e+00 5.7119391295545379e+00 0 0 0
164 2 3.6914999999999996e+00 1.2077301606043163e+01 5.7119391295545379e+00 0 0 0
166 2 3.6914999999999996e+00 1.0656442593567499e+01 5.7119391295545379e+00 0 0 0
207 2 4.9220000000000006e+00 1.2787731112280996e+01 5.7119391295545379e+00 0 0 0
201 2 3.6915000000000004e+00 1.6339878643470165e+01 5.7119391295545379e+00 0 0 0
203 2 3.6915000000000004e+00 1.4919019630994494e+01 5.7119391295545379e+00 0 0 0
205 2 4.9220000000000006e+00 1.4208590124756663e+01 5.7119391295545379e+00 0 0 0
246 2 4.9220000000000006e+00 1.7050308149707998e+01 5.7119391295545379e+00 0 0 0
240 2 3.6915000000000004e+00 2.0602455680897162e+01 5.7119391295545379e+00 0 0 0
242 2 3.6914999999999996e+00 1.9181596668421495e+01 5.7119391295545379e+00 0 0 0
244 2 4.9220000000000006e+00 1.8471167162183658e+01 5.7119391295545379e+00 0 0 0
281 2 3.6915000000000004e+00 2.3444173705848499e+01 5.7119391295545379e+00 0 0 0
283 2 4.9220000000000006e+00 2.2733744199610655e+01 5.7119391295545379e+00 0 0 0
285 2 4.9220000000000006e+00 2.1312885187134995e+01 5.7119391295545379e+00 0 0 0
421 2 3.6915000000000004e+00 7.1042950623783474e-01 8.8090190114180462e+00 0 0 0
429 2 3.6914999999999996e+00 2.1312885187134998e+00 8.8090190114180462e+00 0 0 0
430 2 4.9220000000000006e+00 2.8417180249513332e+00 8.8090190114180462e+00 0 0 0
431 2 4.9220000000000006e+00 0.0000000000000000e+00 8.8090190114180462e+00 0 0 0
428 2 3.6914999999999996e+00 4.9730065436648339e+00 8.8090190114180462e+00 0 0 0
440 2 3.6914999999999996e+00 6.3938655561404980e+00 8.8090190114180462e+00 0 0 0
442 2 4.9220000000000006e+00 4.2625770374269978e+00 8.8090190114180462e+00 0 0 0
439 2 3.6915000000000004e+00 9.2355835810918343e+00 8.8090190114180462e+00 0 0 0