LAMMPS data file via write_data, version 16 Mar 2018, timestep = 100000

4065 atoms
2 atom types

0.0000000000000000e+00 4.9219999999999999e+01 xlo xhi
0.0000000000000000e+00 4.9019635930410494e+01 ylo yhi
1.9166522670476951e+00 2.5924179979236822e+01 zlo zhi

Masses

1 18.015
2 12.01

Atoms # atomic

83 2 0.0000000000000000e+00 2.8417180249513345e+00 3.3627521399678484e+00 0 0 0
85 2 0.0000000000000000e+00 0.0000000000000000e+00 3.3627521399678484e+00 0 0 0
87 2 1.2305000000000001e+00 7.1042950623783474e-01 3.3627521399678484e+00 0 0 0
94 2 1.2305000000000001e+00 2.1312885187134998e+00 3.3627521399678484e+00 0 0 0
90 2 0.0000000000000000e+00 4.2625770374269996e+00 3.3627521399678484e+00 0 0 0
92 2 1.2305000000000001e+00 4.9730065436648339e+00 3.3627521399678484e+00 0 0 0
107 2 1.2305000000000001e+00 6.3938655561404980e+00 3.3627521399678484e+00 0 0 0
88 2 0.0000000000000000e+00 7.1042950623783341e+00 3.3627521399678484e+00 0 0 0
103 2 0.0000000000000000e+00 8.5251540748539991e+00 3.3627521399678484e+00 0 0 0
105 2 1.2305000000000001e+00 9.2355835810918343e+00 3.3627521399678484e+00 0 0 0
101 2 0.0000000000000000e+00 1.1366872099805333e+01 3.3627521399678484e+00 0 0 0
124 2 0.0000000000000000e+00 1.2787731112280996e+01 3.3627521399678484e+00 0 0 0
126 2 1.2305000000000001e+00 1.3498160618518829e+01 3.3627521399678484e+00 0 0 0
128 2 1.2305000000000001e+00 1.0656442593567498e+01 3.3627521399678484e+00 0 0 0
122 2 0.0000000000000000e+00 1.5629449137232333e+01 3.3627521399678484e+00 0 0 0
153 2 0.0000000000000000e+00 1.7050308149707998e+01 3.3627521399678484e+00 0 0 0
157 2 1.2305000000000001e+00 1.4919019630994494e+01 3.3627521399678484e+00 0 0 0
151 2 0.0000000000000000e+00 1.9892026174659328e+01 3.3627521399678484e+00 0 0 0
155 2 1.2305000000000001e+00 1.7760737655945832e+01 3.3627521399678484e+00 0 0 0
194 2 1.2305000000000001e+00 1.9181596668421495e+01 3.3627521399678484e+00 0 0 0
188 2 0.0000000000000000e+00 2.4154603212086325e+01 3.3627521399678484e+00 0 0 0
190 2 0.0000000000000000e+00 2.1312885187134999e+01 3.3627521399678484e+00 0 0 0
192 2 1.2304999999999993e+00 2.2023314693372832e+01 3.3627521399678484e+00 0 0 0
233 2 1.2304999999999993e+00 2.3444173705848499e+01 3.3627521399678484e+00 0 0 0
84 2 0.0000000000000000e+00 1.4208590124756650e+00 6.2549518858081452e+00 0 0 0
86 2 0.0000000000000000e+00 0.0000000000000000e+00 6.2549518858081452e+00 0 0 0
95 2 1.2305000000000001e+00 2.1312885187134998e+00 6.2549518858081452e+00 0 0 0
89 2 0.0000000000000000e+00 5.6834360499026637e+00 6.2549518858081452e+00 0 0 0
91 2 0.0000000000000000e+00 4.2625770374269996e+00 6.2549518858081452e+00 0 0 0
93 2 1.2305000000000001e+00 3.5521475311891644e+00 6.2549518858081452e+00 0 0 0
108 2 1.2305000000000001e+00 6.3938655561404980e+00 6.2549518858081452e+00 0 0 0
102 2 0.0000000000000000e+00 9.9460130873296642e+00 6.2549518858081452e+00 0 0 0
104 2 0.0000000000000000e+00 8.5251540748539991e+00 6.2549518858081452e+00 0 0 0
106 2 1.2305000000000001e+00 7.8147245686161639e+00 6.2549518858081452e+00 0 0 0
125 2 0.0000000000000000e+00 1.2787731112280996e+01 6.2549518858081452e+00 0 0 0
127 2 1.2305000000000001e+00 1.2077301606043163e+01 6.2549518858081452e+00 0 0 0
129 2 1.2305000000000001e+00 1.0656442593567498e+01 6.2549518858081452e+00 0 0 0
123 2 0.0000000000000000e+00 1.4208590124756663e+01 6.2549518858081452e+00 0 0 0
154 2 0.0000000000000000e+00 1.7050308149707998e+01 6.2549518858081452e+00 0 0 0
156 2 1.2305000000000001e+00 1.6339878643470165e+01 6.2549518858081452e+00 0 0 0
158 2 1.2305000000000001e+00 1.4919019630994494e+01 6.2549518858081452e+00 0 0 0
152 2 0.0000000000000000e+00 1.8471167162183658e+01 6.2549518858081452e+00 0 0 0
193 2 1.2305000000000001e+00 2.0602455680897162e+01 6.2549518858081452e+00 0 0 0
195 2 1.2305000000000001e+00 1.9181596668421495e+01 6.2549518858081452e+00 0 0 0
189 2 0.0000000000000000e+00 2.2733744199610655e+01 6.2549518858081452e+00 0 0 0
191 2 0.0000000000000000e+00 2.1312885187134999e+01 6.2549518858081452e+00 0 0 0
234 2 1.2304999999999993e+00 2.3444173705848499e+01 6.2549518858081452e+00 0 0 0
412 2 0.0000000000000000e+00 2.8417180249513345e+00 9.1471516316474535e+00 0 0 0
413 2 0.0000000000000000e+00 0.0000000000000000e+00 9.1471516316474535e+00 0 0 0
414 2 1.2305000000000001e+00 7.1042950623783474e-01 9.1471516316474535e+00 0 0 0
418 2 1.2305000000000001e+00 2.1312885187134998e+00 9.1471516316474535e+00 0 0 0
416 2 0.0000000000000000e+00 4.2625770374269996e+00 9.1471516316474535e+00 0 0 0
417 2 1.2305000000000001e+00 4.9730065436648339e+00 9.1471516316474535e+00 0 0 0
425 2 1.2305000000000001e+00 6.3938655561404980e+00 9.1471516316474535e+00 0 0 0
2956 1 8.4283145648107993e-01 1.8667248188504352e+01 1.1993059771806895e+01 0 1 -1
415 2 0.0000000000000000e+00 7.1042950623783341e+00 9.1471516316474535e+00 0 0 0
423 2 0.0000000000000000e+00 8.5251540748539991e+00 9.1471516316474535e+00 0 0 0
424 2 1.2305000000000001e+00 9.2355835810918343e+00 9.1471516316474535e+00 0 0 0
422 2 0.0000000000000000e+00 1.1366872099805333e+01 9.1471516316474535e+00 0 0 0
434 2 0.0000000000000000e+00 1.2787731112280996e+01 9.1471516316474535e+00 0 0 0
435 2 1.2305000000000001e+00 1.3498160618518829e+01 9.1471516316474535e+00 0 0 0
436 2 1.2305000000000001e+00 1.0656442593567498e+01 9.1471516316474535e+00 0 0 0
3835 1 7.1397643009435896e-01 2.0648357307203018e+01 2.2036707926220412e+01 -1 -1 0
2909 1 4.4267716059024959e-01 9.2267850064654731e+00 1.4353064095281443e+01 0 0 1
433 2 0.0000000000000000e+00 1.5629449137232333e+01 9.1471516316474535e+00 0 0 0
449 2 0.0000000000000000e+00 1.7050308149707998e+01 9.1471516316474535e+00 0 0 0
451 2 1.2305000000000001e+00 1.4919019630994494e+01 9.1471516316474535e+00 0 0 0
448 2 0.0000000000000000e+00 1.9892026174659328e+01 9.1471516316474535e+00 0 0 0
450 2 1.2305000000000001e+00 1.7760737655945832e+01 9.1471516316474535e+00 0 0 0
470 2 1.2305000000000001e+00 1.9181596668421495e+01 9.1471516316474535e+00 0 0 0
467 2 0.0000000000000000e+00 2.4154603212086325e+01 9.1471516316474535e+00 0 0 0
468 2 0.0000000000000000e+00 2.1312885187134999e+01 9.1471516316474535e+00 0 0 0
469 2 1.2304999999999993e+00 2.2023314693372832e+01 9.1471516316474535e+00 0 0 0
490 2 1.2304999999999993e+00 2.3444173705848499e+01 9.1471516316474535e+00 0 0 0
2996 1 6.1480199812912717e-01 6.0888259063633114e+00 1.8092839373652957e+01 1 1 0
1122 1 4.7510173253705301e-01 2.0214411111244637e+01 2.4944885611059810e+01 0 0 0
1076 1 7.2017789108782104e-01 2.2655140180318757e+01 1.8375820265390121e+01 0 -1 0
831 1 1.0488454639048226e+00 1.0059899525088710e+01 1.7151533138356712e+01 0 0 0
3998 1 1.3050614265761002e+00 6.6223752759809438e+00 1.4019238878478594e+01 1 0 0
821 1 3.1745266291001450e-01 1.2799566833612516e+01 1.7061251943524432e+01 0 0 1
2944 1 8.4942060107305584e-01 1.4247849388458036e+01 2.4517882341557332e+01 0 0 1
847 1 1.2246738082597203e-01 3.7997747257391992e+00 1.6327273171661922e+01 1 1 0
1054 1 1.2377089574834605e+00 1.4228663472486321e+01 1.4641789230527342e+01 -1 1 0
1082 1 3.2456472202474052e-01 2.1545704097856131e+01 1.5874757157639083e+01 1 1 0
1877 1 2.5180281771344432e-01 1.7618394952589298e+01 1.8531718833465355e+01 -1 -1 0
3884 1 1.0272594644063366e+00 5.3185742134236360e+00 2.0616537757202533e+01 0 0 0
3807 1 9.5703184923083950e-01 1.4483653750806548e+01 2.1628295988961796e+01 1 1 0
4052 1 7.3660956913686804e-01 1.7178925701838761e+01 2.4493896097571728e+01 0 0 -1
2930 1 1.1585239159886160e+00 1.2866793074987063e+01 1.2179809624191462e+01 0 1 0
865 1 1.8504677963032670e-01 3.5512353732313917e+00 1.1566703615607270e+01 1 0 0
1006 1 1.2650945398927446e-01 2.3877635395715416e+01 1.4400332024210039e+01 1 1 0
3870 1 3.3101441787943497e-01 1.7471692197576687e+01 2.1516665417135943e+01 1 0 1
877 1 1.4113098484601507e+00 1.0105470609948714e+01 1.1622614777638599e+01 0 0 0
1905 1 1.3417695138303258e+00 1.2814647743721794e+00 1.5488536612807797e+01 2 1 0
1962 1 1.6673888671408019e+00 1.7136649289837587e+00 2.1984700309971963e+01 -1 -1 0
1946 1 9.6286860350210252e-02 1.9181622144847941e+00 2.4634835185377110e+01 0 0 1
3041 1 1.5375066596385929e+00 1.2161404699860418e+01 1.9794265948891265e+01 0 1 -1
1130 2 0.0000000000000000e+00 2.5575462224561992e+01 3.3627521399678484e+00 0 0 0
1132 2 1.2305000000000001e+00 2.6285891730799833e+01 3.3627521399678484e+00 0 0 0
1140 2 1.2305000000000010e+00 2.7706750743275496e+01 3.3627521399678484e+00 0 0 0
1128 2 0.0000000000000000e+00 2.8417180249513333e+01 3.3627521399678484e+00 0 0 0
1136 2 0.0000000000000000e+00 2.9838039261988989e+01 3.3627521399678484e+00 0 0 0
1138 2 1.2304999999999993e+00 3.0548468768226829e+01 3.3627521399678484e+00 0 0 0
1134 2 0.0000000000000000e+00 3.2679757286940330e+01 3.3627521399678484e+00 0 0 0
1150 2 0.0000000000000000e+00 3.4100616299415996e+01 3.3627521399678484e+00 0 0 0
1152 2 1.2305000000000010e+00 3.4811045805653833e+01 3.3627521399678484e+00 0 0 0
1154 2 1.2304999999999993e+00 3.1969327780702493e+01 3.3627521399678484e+00 0 0 0
1148 2 0.0000000000000000e+00 3.6942334324367337e+01 3.3627521399678484e+00 0 0 0
1172 2 0.0000000000000000e+00 3.8363193336842990e+01 3.3627521399678484e+00 0 0 0
1176 2 1.2304999999999993e+00 3.6231904818129486e+01 3.3627521399678484e+00 0 0 0
1170 2 0.0000000000000000e+00 4.1204911361794323e+01 3.3627521399678484e+00 0 0 0
1174 2 1.2305000000000010e+00 3.9073622843080841e+01 3.3627521399678484e+00 0 0 0
1206 2 1.2305000000000010e+00 4.0494481855556494e+01 3.3627521399678484e+00 0 0 0
1200 2 0.0000000000000000e+00 4.5467488399221331e+01 3.3627521399678484e+00 0 0 0
1202 2 0.0000000000000000e+00 4.2625770374269997e+01 3.3627521399678484e+00 0 0 0
1204 2 1.2304999999999993e+00 4.3336199880507827e+01 3.3627521399678484e+00 0 0 0
1243 2 1.2304999999999993e+00 4.4757058892983494e+01 3.3627521399678484e+00 0 0 0
1239 2 0.0000000000000000e+00 4.6888347411696998e+01 3.3627521399678484e+00 0 0 0
1241 2 1.2305000000000010e+00 4.7598776917934813e+01 3.3627521399678484e+00 0 0 0
1129 2 0.0000000000000000e+00 2.6996321237037659e+01 6.2549518858081452e+00 0 0 0
1131 2 0.0000000000000000e+00 2.5575462224561992e+01 6.2549518858081452e+00 0 0 0
1133 2 1.2305000000000001e+00 2.4865032718324155e+01 6.2549518858081452e+00 0 0 0
1141 2 1.2305000000000010e+00 2.7706750743275496e+01 6.2549518858081452e+00 0 0 0
1135 2 0.0000000000000000e+00 3.1258898274464656e+01 6.2549518858081452e+00 0 0 0
1137 2 0.0000000000000000e+00 2.9838039261988989e+01 6.2549518858081452e+00 0 0 0
1139 2 1.2304999999999993e+00 2.9127609755751163e+01 6.2549518858081452e+00 0 0 0
1151 2 0.0000000000000000e+00 3.4100616299415996e+01 6.2549518858081452e+00 0 0 0
1153 2 1.2304999999999993e+00 3.3390186793178160e+01 6.2549518858081452e+00 0 0 0
1155 2 1.2304999999999993e+00 3.1969327780702493e+01 6.2549518858081452e+00 0 0 0
1149 2 0.0000000000000000e+00 3.5521475311891649e+01 6.2549518858081452e+00 0 0 0
1173 2 0.0000000000000000e+00 3.8363193336842990e+01 6.2549518858081452e+00 0 0 0
1175 2 1.2304999999999993e+00 3.7652763830605153e+01 6.2549518858081452e+00 0 0 0
1177 2 1.2304999999999993e+00 3.6231904818129486e+01 6.2549518858081452e+00 0 0 0
1171 2 0.0000000000000000e+00 3.9784052349318657e+01 6.2549518858081452e+00 0 0 0
1205 2 1.2305000000000010e+00 4.1915340868032160e+01 6.2549518858081452e+00 0 0 0
1207 2 1.2305000000000010e+00 4.0494481855556494e+01 6.2549518858081452e+00 0 0 0
1201 2 0.0000000000000000e+00 4.4046629386745657e+01 6.2549518858081452e+00 0 0 0
1203 2 0.0000000000000000e+00 4.2625770374269997e+01 6.2549518858081452e+00 0 0 0
1244 2 1.2304999999999993e+00 4.4757058892983494e+01 6.2549518858081452e+00 0 0 0
1238 2 0.0000000000000000e+00 4.8309206424172650e+01 6.2549518858081452e+00 0 0 0
1240 2 0.0000000000000000e+00 4.6888347411696998e+01 6.2549518858081452e+00 0 0 0
1242 2 1.2304999999999993e+00 4.6177917905459147e+01 6.2549518858081452e+00 0 0 0
1444 2 0.0000000000000000e+00 2.5575462224561992e+01 9.1471516316474535e+00 0 0 0
1445 2 1.2305000000000001e+00 2.6285891730799833e+01 9.1471516316474535e+00 0 0 0
1449 2 1.2305000000000010e+00 2.7706750743275496e+01 9.1471516316474535e+00 0 0 0
3004 1 6.9414577969143043e-01 4.3004807994139689e+01 1.1908503616609243e+01 2 -1 1
1443 2 0.0000000000000000e+00 2.8417180249513333e+01 9.1471516316474535e+00 0 0 0
1447 2 0.0000000000000000e+00 2.9838039261988989e+01 9.1471516316474535e+00 0 0 0
1448 2 1.2304999999999993e+00 3.0548468768226829e+01 9.1471516316474535e+00 0 0 0
1924 1 7.6259731374658002e-01 3.5982910908862962e+01 1.1476936613574736e+01 0 -1 1
1446 2 0.0000000000000000e+00 3.2679757286940330e+01 9.1471516316474535e+00 0 0 0
1454 2 0.0000000000000000e+00 3.4100616299415996e+01 9.1471516316474535e+00 0 0 0
1455 2 1.2305000000000010e+00 3.4811045805653833e+01 9.1471516316474535e+00 0 0 0
1456 2 1.2304999999999993e+00 3.1969327780702493e+01 9.1471516316474535e+00 0 0 0
1453 2 0.0000000000000000e+00 3.6942334324367337e+01 9.1471516316474535e+00 0 0 0
1465 2 0.0000000000000000e+00 3.8363193336842990e+01 9.1471516316474535e+00 0 0 0
1467 2 1.2304999999999993e+00 3.6231904818129486e+01 9.1471516316474535e+00 0 0 0
1464 2 0.0000000000000000e+00 4.1204911361794323e+01 9.1471516316474535e+00 0 0 0
1466 2 1.2305000000000010e+00 3.9073622843080841e+01 9.1471516316474535e+00 0 0 0
1482 2 1.2305000000000010e+00 4.0494481855556494e+01 9.1471516316474535e+00 0 0 0
3926 1 1.1605708670258243e+00 2.9243806052383100e+01 1.4738701051245734e+01 1 0 0
1479 2 0.0000000000000000e+00 4.5467488399221331e+01 9.1471516316474535e+00 0 0 0
1480 2 0.0000000000000000e+00 4.2625770374269997e+01 9.1471516316474535e+00 0 0 0
1481 2 1.2304999999999993e+00 4.3336199880507827e+01 9.1471516316474535e+00 0 0 0
1500 2 1.2304999999999993e+00 4.4757058892983494e+01 9.1471516316474535e+00 0 0 0
1092 1 1.3121001796184792e+00 2.5204041712956794e+01 2.2674754668541276e+01 0 0 -1
1498 2 0.0000000000000000e+00 4.6888347411696998e+01 9.1471516316474535e+00 0 0 0
1499 2 1.2305000000000010e+00 4.7598776917934813e+01 9.1471516316474535e+00 0 0 0
1968 1 3.7604632030741503e-01 2.9855770116786022e+01 1.9261421935090222e+01 0 0 -1
3135 1 1.1429530818698348e+00 2.6618305768625529e+01 1.1625955242281163e+01 -1 0 1
61 1 1.0693018714581077e+00 3.9683285234832120e+01 1.6050213859801239e+01 1 0 -1
937 1 1.4598378978180770e+00 4.7942604563166263e+01 2.1765434068753024e+01 0 0 0
3133 1 9.8709276280656577e-01 4.0195399452544997e+01 1.1681592311275807e+01 1 1 0
800 1 1.2847751594707391e-01 3.5909573105181828e+01 2.4555546682457670e+01 1 0 0
2073 1 1.3657592386682511e+00 3.1418229843956759e+01 1.6411973746966094e+01 1 -1 0
2869 1 9.4424590689631382e-01 3.7064953493386270e+01 1.8685898311366525e+01 1 0 0
2876 1 6.5954121732262083e-01 4.2917290700449882e+01 1.4994287461818560e+01 1 0 0
3034 1 1.0281399606086430e+00 4.8287185220188412e+01 2.5001825805705778e+01 1 -1 1
4008 1 1.0747327980489116e+00 3.6563186657095663e+01 2.1928500038359950e+01 -1 0 0
3143 1 1.3217422838738844e+00 4.3811500744738787e+01 2.4475282741212993e+01 1 0 1
3950 1 1.3913994947603914e+00 3.5557972342006359e+01 1.4071319926247643e+01 1 -2 0
855 1 5.9494671481072370e-01 4.6756529532341538e+01 1.2282391675285332e+01 0 -1 0
999 1 1.2332719769098499e+00 4.7701647286798362e+01 1.9027600119620999e+01 1 -1 0
2896 1 1.3367726110424905e+00 2.9395017306555992e+01 2.1968652821710219e+01 1 0 -1
1910 1 1.2290736504792965e+00 2.5244076132558128e+01 1.7892525639767562e+01 0 -1 0
994 1 1.6781863934543904e+00 4.7211818478461048e+01 1.4802593544654917e+01 0 -1 0
988 1 1.5125500275308454e+00 2.7198998064992228e+01 2.4944719371817882e+01 1 0 0
96 2 2.4610000000000003e+00 2.8417180249513345e+00 3.3627521399678484e+00 0 0 0
98 2 2.4610000000000003e+00 0.0000000000000000e+00 3.3627521399678484e+00 0 0 0
111 2 2.4610000000000003e+00 4.2625770374269996e+00 3.3627521399678484e+00 0 0 0
109 2 2.4610000000000003e+00 7.1042950623783341e+00 3.3627521399678484e+00 0 0 0
132 2 2.4610000000000003e+00 8.5251540748539991e+00 3.3627521399678484e+00 0 0 0
130 2 2.4610000000000003e+00 1.1366872099805333e+01 3.3627521399678484e+00 0 0 0
161 2 2.4610000000000003e+00 1.2787731112280996e+01 3.3627521399678484e+00 0 0 0
159 2 2.4610000000000003e+00 1.5629449137232328e+01 3.3627521399678484e+00 0 0 0
198 2 2.4610000000000003e+00 1.7050308149707998e+01 3.3627521399678484e+00 0 0 0
196 2 2.4610000000000003e+00 1.9892026174659328e+01 3.3627521399678484e+00 0 0 0
235 2 2.4610000000000003e+00 2.4154603212086325e+01 3.3627521399678484e+00 0 0 0
237 2 2.4610000000000003e+00 2.1312885187134995e+01 3.3627521399678484e+00 0 0 0
97 2 2.4610000000000003e+00 1.4208590124756650e+00 6.2549518858081452e+00 0 0 0
99 2 2.4610000000000003e+00 0.0000000000000000e+00 6.2549518858081452e+00 0 0 0
110 2 2.4610000000000003e+00 5.6834360499026637e+00 6.2549518858081452e+00 0 0 0
112 2 2.4610000000000003e+00 4.2625770374269996e+00 6.2549518858081452e+00 0 0 0
131 2 2.4610000000000003e+00 9.9460130873296642e+00 6.2549518858081452e+00 0 0 0
133 2 2.4610000000000003e+00 8.5251540748539991e+00 6.2549518858081452e+00 0 0 0
162 2 2.4610000000000003e+00 1.2787731112280996e+01 6.2549518858081452e+00 0 0 0
160 2 2.4610000000000003e+00 1.4208590124756663e+01 6.2549518858081452e+00 0 0 0
199 2 2.4610000000000003e+00 1.7050308149707998e+01 6.2549518858081452e+00 0 0 0
197 2 2.4610000000000003e+00 1.8471167162183658e+01 6.2549518858081452e+00 0 0 0
236 2 2.4610000000000003e+00 2.2733744199610655e+01 6.2549518858081452e+00 0 0 0
238 2 2.4610000000000003e+00 2.1312885187134995e+01 6.2549518858081452e+00 0 0 0
419 2 2.4610000000000003e+00 2.8417180249513345e+00 9.1471516316474535e+00 0 0 0
420 2 2.4610000000000003e+00 0.0000000000000000e+00 9.1471516316474535e+00 0 0 0
21 1 2.8692262825248034e+00 7.3151406307257805e+00 2.1861827156284580e+01 1 0 0
427 2 2.4610000000000003e+00 4.2625770374269996e+00 9.1471516316474535e+00 0 0 0
426 2 2.4610000000000003e+00 7.1042950623783341e+00 9.1471516316474535e+00 0 0 0
438 2 2.4610000000000003e+00 8.5251540748539991e+00 9.1471516316474535e+00 0 0 0
1023 1 3.0394345237534948e+00 2.2005899319293704e+01 1.9828466437142165e+01 0 0 -1
437 2 2.4610000000000003e+00 1.1366872099805333e+01 9.1471516316474535e+00 0 0 0
453 2 2.4610000000000003e+00 1.2787731112280996e+01 9.1471516316474535e+00 0 0 0
452 2 2.4610000000000003e+00 1.5629449137232328e+01 9.1471516316474535e+00 0 0 0
472 2 2.4610000000000003e+00 1.7050308149707998e+01 9.1471516316474535e+00 0 0 0
471 2 2.4610000000000003e+00 1.9892026174659328e+01 9.1471516316474535e+00 0 0 0
2906 1 2.2339481073952121e+00 2.3416410695995317e+01 1.1485911733653365e+01 1 -1 0
491 2 2.4610000000000003e+00 2.4154603212086325e+01 9.1471516316474535e+00 0 0 0
492 2 2.4610000000000003e+00 2.1312885187134995e+01 9.1471516316474535e+00 0 0 0
1886 1 3.3265716815980264e+00 1.4079208880687833e+01 1.1218793503342186e+01 -1 -1 1
946 1 2.8602703907933118e+00 2.0790847308860481e+01 1.2171740672964679e+01 0 0 -1
3829 1 1.7429730175696145e+00 6.8741544047944130e+00 2.4576382179518621e+01 0 1 0
3097 1 2.3668149079284295e+00 1.8432760320535877e+01 1.6425476022787628e+01 0 1 0
63 1 2.2945899880800913e+00 1.0121006350793490e+01 2.1901850913099761e+01 -1 0 0
2904 1 1.9972450034343274e+00 6.2547628105411031e+00 1.1602343677977940e+01 0 0 -1
2923 1 3.0805455792722087e+00 1.6194666145957658e+01 1.5033877163154649e+01 1 0 1
943 1 2.4297313142650823e+00 2.2745530973627950e+01 2.2632625538246291e+01 0 0 0
3839 1 2.1910875372107670e+00 1.1352545544282526e+01 2.4621950666362665e+01 0 1 0
28 1 3.0602528738452146e+00 2.3894881954472755e+01 1.6007477800351243e+01 0 0 0
1951 1 2.7716025003745384e+00 7.7260122792896642e+00 1.6614638874806062e+01 0 -1 -1
3864 1 2.7563199262413081e+00 1.9243968499520740e+01 2.0459276502482545e+01 2 0 0
1816 1 3.2308625032123350e+00 3.4169060085039522e+00 1.9544199621505594e+01 0 1 1
2900 1 2.1902592659783013e+00 4.2618640533531156e-02 1.1778325751056444e+01 -1 -1 0
3907 1 2.5582438967952341e+00 2.6997056311413297e+00 1.2882229060998505e+01 0 2 0
1989 1 2.9937419716416551e+00 4.7510064509371590e+00 1.5048646053207946e+01 0 1 -1
957 1 3.1359127829337354e+00 2.1314480119723147e+01 2.4901880917974605e+01 0 0 0
3876 1 2.8792102106151947e+00 1.6667455630042149e+01 1.2285690780185783e+01 0 -1 0
1852 1 2.2881251628606094e+00 1.1103961570247309e+00 1.8178781782106189e+01 1 1 0
2120 1 1.8234494573188664e+00 1.5407023694196623e+01 1.9122741219856444e+01 1 1 1
1937 1 3.0387211454235179e+00 2.1019681991508300e+01 1.5011891630223626e+01 1 1 0
3878 1 2.7935462889356191e+00 1.1585889467759475e+01 1.4959568428874904e+01 1 0 0
1100 1 1.8191910519853558e+00 3.9673608271298568e+00 2.4820450833309341e+01 1 0 0
1144 2 2.4610000000000003e+00 2.5575462224561992e+01 3.3627521399678484e+00 0 0 0
1142 2 2.4610000000000003e+00 2.8417180249513326e+01 3.3627521399678484e+00 0 0 0
1158 2 2.4610000000000003e+00 2.9838039261988989e+01 3.3627521399678484e+00 0 0 0
1156 2 2.4610000000000003e+00 3.2679757286940337e+01 3.3627521399678484e+00 0 0 0
1180 2 2.4609999999999985e+00 3.4100616299415996e+01 3.3627521399678484e+00 0 0 0
1178 2 2.4610000000000021e+00 3.6942334324367337e+01 3.3627521399678484e+00 0 0 0
1210 2 2.4610000000000003e+00 3.8363193336842990e+01 3.3627521399678484e+00 0 0 0
1208 2 2.4610000000000003e+00 4.1204911361794323e+01 3.3627521399678484e+00 0 0 0
1245 2 2.4610000000000003e+00 4.5467488399221331e+01 3.3627521399678484e+00 0 0 0
1247 2 2.4610000000000003e+00 4.2625770374269997e+01 3.3627521399678484e+00 0 0 0
1284 2 2.4609999999999985e+00 4.6888347411696998e+01 3.3627521399678484e+00 0 0 0
1143 2 2.4610000000000003e+00 2.6996321237037659e+01 6.2549518858081452e+00 0 0 0
1145 2 2.4610000000000003e+00 2.5575462224561992e+01 6.2549518858081452e+00 0 0 0
1157 2 2.4609999999999985e+00 3.1258898274464656e+01 6.2549518858081452e+00 0 0 0
1159 2 2.4610000000000003e+00 2.9838039261988989e+01 6.2549518858081452e+00 0 0 0
1181 2 2.4609999999999985e+00 3.4100616299415996e+01 6.2549518858081452e+00 0 0 0
1179 2 2.4609999999999985e+00 3.5521475311891663e+01 6.2549518858081452e+00 0 0 0
1211 2 2.4610000000000003e+00 3.8363193336842990e+01 6.2549518858081452e+00 0 0 0
1209 2 2.4610000000000003e+00 3.9784052349318657e+01 6.2549518858081452e+00 0 0 0
1246 2 2.4610000000000003e+00 4.4046629386745657e+01 6.2549518858081452e+00 0 0 0
1248 2 2.4610000000000003e+00 4.2625770374269997e+01 6.2549518858081452e+00 0 0 0
1283 2 2.4609999999999985e+00 4.8309206424172650e+01 6.2549518858081452e+00 0 0 0
1285 2 2.4609999999999985e+00 4.6888347411696998e+01 6.2549518858081452e+00 0 0 0
1451 2 2.4610000000000003e+00 2.5575462224561992e+01 9.1471516316474535e+00 0 0 0
1450 2 2.4610000000000003e+00 2.8417180249513326e+01 9.1471516316474535e+00 0 0 0
1458 2 2.4610000000000003e+00 2.9838039261988989e+01 9.1471516316474535e+00 0 0 0
1027 1 3.1821940501067516e+00 4.5742712620486529e+01 1.8790365179287683e+01 0 -2 -1
1457 2 2.4610000000000003e+00 3.2679757286940337e+01 9.1471516316474535e+00 0 0 0
1469 2 2.4609999999999985e+00 3.4100616299415996e+01 9.1471516316474535e+00 0 0 0
3108 1 2.2669100223726968e+00 2.9101805265026613e+01 1.2037423886336359e+01 0 1 0
1468 2 2.4610000000000021e+00 3.6942334324367337e+01 9.1471516316474535e+00 0 0 0
1484 2 2.4610000000000003e+00 3.8363193336842990e+01 9.1471516316474535e+00 0 0 0
2991 1 1.7760325266175259e+00 4.1856612011048213e+01 2.2374001129466205e+01 1 0 1
1483 2 2.4610000000000003e+00 4.1204911361794323e+01 9.1471516316474535e+00 0 0 0
1501 2 2.4610000000000003e+00 4.5467488399221331e+01 9.1471516316474535e+00 0 0 0
1502 2 2.4610000000000003e+00 4.2625770374269997e+01 9.1471516316474535e+00 0 0 0
1872 1 2.8387029191605047e+00 4.5047905264023107e+01 1.1725326976312489e+01 0 0 -1
1520 2 2.4609999999999985e+00 4.6888347411696998e+01 9.1471516316474535e+00 0 0 0
3837 1 2.7405853347888312e+00 3.0971055378715295e+01 2.4670355459299113e+01 1 1 0
3975 1 2.2555237421786596e+00 3.8943715546795126e+01 2.0454385011136619e+01 1 1 -1
948 1 2.4155449399998172e+00 4.4785812998760647e+01 1.6094494566374259e+01 1 0 0
1855 1 3.2771906453907969e+00 2.7268365100936013e+01 2.1758118976059784e+01 0 0 0
3902 1 2.5850227966089663e+00 4.0981044352509429e+01 1.8407865198631448e+01 1 -1 0
1961 1 2.2221660156735430e+00 2.5822410982841777e+01 1.4156635281307960e+01 1 0 0
3849 1 2.7534040319265802e+00 3.9960925930931957e+01 2.4398757024860558e+01 1 0 -1
900 1 2.3666469104607684e+00 3.7265283685729550e+01 1.6180722668498888e+01 0 0 1
3820 1 2.8908868014640334e+00 3.5516790869457147e+01 2.5096137040266978e+01 0 0 1
3927 1 2.7263333699820507e+00 3.3183153707514421e+01 1.4717436504463080e+01 1 1 0
1004 1 2.7020024782765608e+00 3.3805448708887567e+01 2.1438449694098221e+01 0 -1 0
3009 1 2.2063652294532727e+00 4.3067269630106153e+01 1.9894016356769836e+01 0 1 0
2967 1 2.4441649241954857e+00 3.2057746783657343e+01 1.1787559554728325e+01 1 -1 -1
861 1 3.3778172493160485e+00 3.1196083374197254e+01 2.1593972192204095e+01 0 -1 0
2933 1 3.1524191133193629e+00 4.0952908231535183e+01 1.4570304900181421e+01 1 0 0
3088 1 1.7141587635720354e+00 3.4406175935691927e+01 1.8858143002137062e+01 0 0 0
100 2 3.6915000000000004e+00 7.1042950623783474e-01 3.3627521399678484e+00 0 0 0
115 2 3.6914999999999996e+00 2.1312885187134998e+00 3.3627521399678484e+00 0 0 0
117 2 4.9220000000000006e+00 2.8417180249513332e+00 3.3627521399678484e+00 0 0 0
119 2 4.9220000000000006e+00 0.0000000000000000e+00 3.3627521399678484e+00 0 0 0
113 2 3.6914999999999996e+00 4.9730065436648339e+00 3.3627521399678484e+00 0 0 0
136 2 3.6914999999999996e+00 6.3938655561404980e+00 3.3627521399678484e+00 0 0 0
140 2 4.9220000000000006e+00 4.2625770374269978e+00 3.3627521399678484e+00 0 0 0
134 2 3.6915000000000004e+00 9.2355835810918343e+00 3.3627521399678484e+00 0 0 0
138 2 4.9220000000000006e+00 7.1042950623783341e+00 3.3627521399678484e+00 0 0 0
169 2 4.9220000000000006e+00 8.5251540748539991e+00 3.3627521399678484e+00 0 0 0
163 2 3.6915000000000004e+00 1.3498160618518829e+01 3.3627521399678484e+00 0 0 0
165 2 3.6914999999999996e+00 1.0656442593567499e+01 3.3627521399678484e+00 0 0 0
167 2 4.9220000000000006e+00 1.1366872099805333e+01 3.3627521399678484e+00 0 0 0
206 2 4.9220000000000006e+00 1.2787731112280996e+01 3.3627521399678484e+00 0 0 0
202 2 3.6915000000000004e+00 1.4919019630994494e+01 3.3627521399678484e+00 0 0 0
204 2 4.9220000000000006e+00 1.5629449137232333e+01 3.3627521399678484e+00 0 0 0
245 2 4.9220000000000006e+00 1.7050308149707998e+01 3.3627521399678484e+00 0 0 0
200 2 3.6914999999999996e+00 1.7760737655945832e+01 3.3627521399678484e+00 0 0 0
241 2 3.6914999999999996e+00 1.9181596668421495e+01 3.3627521399678484e+00 0 0 0
243 2 4.9220000000000006e+00 1.9892026174659328e+01 3.3627521399678484e+00 0 0 0
239 2 3.6914999999999996e+00 2.2023314693372832e+01 3.3627521399678484e+00 0 0 0
280 2 3.6915000000000004e+00 2.3444173705848499e+01 3.3627521399678484e+00 0 0 0
282 2 4.9220000000000006e+00 2.4154603212086325e+01 3.3627521399678484e+00 0 0 0
284 2 4.9220000000000006e+00 2.1312885187134995e+01 3.3627521399678484e+00 0 0 0
116 2 3.6914999999999996e+00 2.1312885187134998e+00 6.2549518858081452e+00 0 0 0
118 2 4.9220000000000006e+00 1.4208590124756650e+00 6.2549518858081452e+00 0 0 0
120 2 4.9220000000000006e+00 0.0000000000000000e+00 6.2549518858081452e+00 0 0 0
114 2 3.6914999999999996e+00 3.5521475311891644e+00 6.2549518858081452e+00 0 0 0
137 2 3.6914999999999996e+00 6.3938655561404980e+00 6.2549518858081452e+00 0 0 0
139 2 4.9220000000000006e+00 5.6834360499026637e+00 6.2549518858081452e+00 0 0 0
141 2 4.9220000000000006e+00 4.2625770374269978e+00 6.2549518858081452e+00 0 0 0
135 2 3.6914999999999996e+00 7.8147245686161639e+00 6.2549518858081452e+00 0 0 0
168 2 4.9220000000000006e+00 9.9460130873296642e+00 6.2549518858081452e+00 0 0 0
170 2 4.9220000000000006e+00 8.5251540748539991e+00 6.2549518858081452e+00 0 0 0
164 2 3.6914999999999996e+00 1.2077301606043163e+01 6.2549518858081452e+00 0 0 0
166 2 3.6914999999999996e+00 1.0656442593567499e+01 6.2549518858081452e+00 0 0 0
207 2 4.9220000000000006e+00 1.2787731112280996e+01 6.2549518858081452e+00 0 0 0
201 2 3.6915000000000004e+00 1.6339878643470165e+01 6.2549518858081452e+00 0 0 0
203 2 3.6915000000000004e+00 1.4919019630994494e+01 6.2549518858081452e+00 0 0 0
205 2 4.9220000000000006e+00 1.4208590124756663e+01 6.2549518858081452e+00 0 0 0
246 2 4.9220000000000006e+00 1.7050308149707998e+01 6.2549518858081452e+00 0 0 0
240 2 3.6915000000000004e+00 2.0602455680897162e+01 6.2549518858081452e+00 0 0 0
242 2 3.6914999999999996e+00 1.9181596668421495e+01 6.2549518858081452e+00 0 0 0
244 2 4.9220000000000006e+00 1.8471167162183658e+01 6.2549518858081452e+00 0 0 0
281 2 3.6915000000000004e+00 2.3444173705848499e+01 6.2549518858081452e+00 0 0 0
283 2 4.9220000000000006e+00 2.2733744199610655e+01 6.2549518858081452e+00 0 0 0
285 2 4.9220000000000006e+00 2.1312885187134995e+01 6.2549518858081452e+00 0 0 0
421 2 3.6915000000000004e+00 7.1042950623783474e-01 9.1471516316474535e+00 0 0 0
429 2 3.6914999999999996e+00 2.1312885187134998e+00 9.1471516316474535e+00 0 0 0
430 2 4.9220000000000006e+00 2.8417180249513332e+00 9.1471516316474535e+00 0 0 0
431 2 4.9220000000000006e+00 0.0000000000000000e+00 9.1471516316474535e+00 0 0 0
2060 1 3.9450188093301022e+00 9.1825312659878637e+00 2.4770152283128546e+01 0 0 1
428 2 3.6914999999999996e+00 4.9730065436648339e+00 9.1471516316474535e+00 0 0 0
440 2 3.6914999999999996e+00 6.3938655561404980e+00 9.1471516316474535e+00 0 0 0
442 2 4.9220000000000006e+00 4.2625770374269978e+00 9.1471516316474535e+00 0 0 0
1861 1 3.8617836812815929e+00 1.3840215188854623e+01 2.4279613507222383e+01 0 0 0
439 2 3.6915000000000004e+00 9.2355835810918343e+00 9.1471516316474535e+00 0 0 0
441 2 4.9220000000000006e+00 7.1042950623783341e+00 9.1471516316474535e+00 0 0 0
457 2 4.9220000000000006e+00 8.5251540748539991e+00 9.1471516316474535e+00 0 0 0
454 2 3.6915000000000004e+00 1.3498160618518829e+01 9.1471516316474535e+00 0 0 0
455 2 3.6914999999999996e+00 1.0656442593567499e+01 9.1471516316474535e+00 0 0 0