LAMMPS data file via write_data, version 16 Mar 2018, timestep = 100000

4545 atoms
2 atom types

0.0000000000000000e+00 4.9219999999999999e+01 xlo xhi
0.0000000000000000e+00 4.9019635930410494e+01 ylo yhi
1.7345476032317251e+00 3.1900792183290569e+01 zlo zhi

Masses

1 18.015
2 12.01

Atoms # atomic

91 2 0.0000000000000000e+00 2.8417180249513345e+00 3.2385845025716877e+00 0 0 0
93 2 0.0000000000000000e+00 0.0000000000000000e+00 3.2385845025716877e+00 0 0 0
95 2 1.2305000000000001e+00 7.1042950623783474e-01 3.2385845025716877e+00 0 0 0
102 2 1.2305000000000001e+00 2.1312885187134998e+00 3.2385845025716877e+00 0 0 0
104 2 2.4610000000000003e+00 2.8417180249513345e+00 3.2385845025716877e+00 0 0 0
106 2 2.4610000000000003e+00 0.0000000000000000e+00 3.2385845025716877e+00 0 0 0
108 2 3.6915000000000004e+00 7.1042950623783474e-01 3.2385845025716877e+00 0 0 0
123 2 3.6914999999999996e+00 2.1312885187134998e+00 3.2385845025716877e+00 0 0 0
125 2 4.9220000000000006e+00 2.8417180249513332e+00 3.2385845025716877e+00 0 0 0
127 2 4.9220000000000006e+00 0.0000000000000000e+00 3.2385845025716877e+00 0 0 0
98 2 0.0000000000000000e+00 4.2625770374269996e+00 3.2385845025716877e+00 0 0 0
100 2 1.2305000000000001e+00 4.9730065436648339e+00 3.2385845025716877e+00 0 0 0
115 2 1.2305000000000001e+00 6.3938655561404980e+00 3.2385845025716877e+00 0 0 0
119 2 2.4610000000000003e+00 4.2625770374269996e+00 3.2385845025716877e+00 0 0 0
121 2 3.6914999999999996e+00 4.9730065436648339e+00 3.2385845025716877e+00 0 0 0
144 2 3.6914999999999996e+00 6.3938655561404980e+00 3.2385845025716877e+00 0 0 0
148 2 4.9220000000000006e+00 4.2625770374269978e+00 3.2385845025716877e+00 0 0 0
96 2 0.0000000000000000e+00 7.1042950623783341e+00 3.2385845025716877e+00 0 0 0
117 2 2.4610000000000003e+00 7.1042950623783341e+00 3.2385845025716877e+00 0 0 0
146 2 4.9220000000000006e+00 7.1042950623783341e+00 3.2385845025716877e+00 0 0 0
111 2 0.0000000000000000e+00 8.5251540748539991e+00 3.2385845025716877e+00 0 0 0
113 2 1.2305000000000001e+00 9.2355835810918343e+00 3.2385845025716877e+00 0 0 0
140 2 2.4610000000000003e+00 8.5251540748539991e+00 3.2385845025716877e+00 0 0 0
142 2 3.6915000000000004e+00 9.2355835810918343e+00 3.2385845025716877e+00 0 0 0
177 2 4.9220000000000006e+00 8.5251540748539991e+00 3.2385845025716877e+00 0 0 0
109 2 0.0000000000000000e+00 1.1366872099805333e+01 3.2385845025716877e+00 0 0 0
136 2 1.2305000000000001e+00 1.0656442593567498e+01 3.2385845025716877e+00 0 0 0
138 2 2.4610000000000003e+00 1.1366872099805333e+01 3.2385845025716877e+00 0 0 0
173 2 3.6914999999999996e+00 1.0656442593567499e+01 3.2385845025716877e+00 0 0 0
175 2 4.9220000000000006e+00 1.1366872099805333e+01 3.2385845025716877e+00 0 0 0
92 2 0.0000000000000000e+00 1.4208590124756650e+00 6.2466583012510295e+00 0 0 0
94 2 0.0000000000000000e+00 0.0000000000000000e+00 6.2466583012510295e+00 0 0 0
103 2 1.2305000000000001e+00 2.1312885187134998e+00 6.2466583012510295e+00 0 0 0
105 2 2.4610000000000003e+00 1.4208590124756650e+00 6.2466583012510295e+00 0 0 0
107 2 2.4610000000000003e+00 0.0000000000000000e+00 6.2466583012510295e+00 0 0 0
124 2 3.6914999999999996e+00 2.1312885187134998e+00 6.2466583012510295e+00 0 0 0
420 2 0.0000000000000000e+00 2.8417180249513345e+00 9.2547320999306280e+00 0 0 0
421 2 0.0000000000000000e+00 0.0000000000000000e+00 9.2547320999306280e+00 0 0 0
422 2 1.2305000000000001e+00 7.1042950623783474e-01 9.2547320999306280e+00 0 0 0
426 2 1.2305000000000001e+00 2.1312885187134998e+00 9.2547320999306280e+00 0 0 0
427 2 2.4610000000000003e+00 2.8417180249513345e+00 9.2547320999306280e+00 0 0 0
428 2 2.4610000000000003e+00 0.0000000000000000e+00 9.2547320999306280e+00 0 0 0
429 2 3.6915000000000004e+00 7.1042950623783474e-01 9.2547320999306280e+00 0 0 0
437 2 3.6914999999999996e+00 2.1312885187134998e+00 9.2547320999306280e+00 0 0 0
126 2 4.9220000000000006e+00 1.4208590124756650e+00 6.2466583012510295e+00 0 0 0
128 2 4.9220000000000006e+00 0.0000000000000000e+00 6.2466583012510295e+00 0 0 0
438 2 4.9220000000000006e+00 2.8417180249513332e+00 9.2547320999306280e+00 0 0 0
439 2 4.9220000000000006e+00 0.0000000000000000e+00 9.2547320999306280e+00 0 0 0
101 2 1.2305000000000001e+00 3.5521475311891644e+00 6.2466583012510295e+00 0 0 0
122 2 3.6914999999999996e+00 3.5521475311891644e+00 6.2466583012510295e+00 0 0 0
97 2 0.0000000000000000e+00 5.6834360499026637e+00 6.2466583012510295e+00 0 0 0
99 2 0.0000000000000000e+00 4.2625770374269996e+00 6.2466583012510295e+00 0 0 0
116 2 1.2305000000000001e+00 6.3938655561404980e+00 6.2466583012510295e+00 0 0 0
118 2 2.4610000000000003e+00 5.6834360499026637e+00 6.2466583012510295e+00 0 0 0
120 2 2.4610000000000003e+00 4.2625770374269996e+00 6.2466583012510295e+00 0 0 0
145 2 3.6914999999999996e+00 6.3938655561404980e+00 6.2466583012510295e+00 0 0 0
424 2 0.0000000000000000e+00 4.2625770374269996e+00 9.2547320999306280e+00 0 0 0
425 2 1.2305000000000001e+00 4.9730065436648339e+00 9.2547320999306280e+00 0 0 0
433 2 1.2305000000000001e+00 6.3938655561404980e+00 9.2547320999306280e+00 0 0 0
435 2 2.4610000000000003e+00 4.2625770374269996e+00 9.2547320999306280e+00 0 0 0
436 2 3.6914999999999996e+00 4.9730065436648339e+00 9.2547320999306280e+00 0 0 0
448 2 3.6914999999999996e+00 6.3938655561404980e+00 9.2547320999306280e+00 0 0 0
147 2 4.9220000000000006e+00 5.6834360499026637e+00 6.2466583012510295e+00 0 0 0
149 2 4.9220000000000006e+00 4.2625770374269978e+00 6.2466583012510295e+00 0 0 0
450 2 4.9220000000000006e+00 4.2625770374269978e+00 9.2547320999306280e+00 0 0 0
114 2 1.2305000000000001e+00 7.8147245686161639e+00 6.2466583012510295e+00 0 0 0
143 2 3.6914999999999996e+00 7.8147245686161639e+00 6.2466583012510295e+00 0 0 0
423 2 0.0000000000000000e+00 7.1042950623783341e+00 9.2547320999306280e+00 0 0 0
434 2 2.4610000000000003e+00 7.1042950623783341e+00 9.2547320999306280e+00 0 0 0
449 2 4.9220000000000006e+00 7.1042950623783341e+00 9.2547320999306280e+00 0 0 0
110 2 0.0000000000000000e+00 9.9460130873296642e+00 6.2466583012510295e+00 0 0 0
112 2 0.0000000000000000e+00 8.5251540748539991e+00 6.2466583012510295e+00 0 0 0
139 2 2.4610000000000003e+00 9.9460130873296642e+00 6.2466583012510295e+00 0 0 0
141 2 2.4610000000000003e+00 8.5251540748539991e+00 6.2466583012510295e+00 0 0 0
431 2 0.0000000000000000e+00 8.5251540748539991e+00 9.2547320999306280e+00 0 0 0
432 2 1.2305000000000001e+00 9.2355835810918343e+00 9.2547320999306280e+00 0 0 0
446 2 2.4610000000000003e+00 8.5251540748539991e+00 9.2547320999306280e+00 0 0 0
447 2 3.6915000000000004e+00 9.2355835810918343e+00 9.2547320999306280e+00 0 0 0
176 2 4.9220000000000006e+00 9.9460130873296642e+00 6.2466583012510295e+00 0 0 0
178 2 4.9220000000000006e+00 8.5251540748539991e+00 6.2466583012510295e+00 0 0 0
465 2 4.9220000000000006e+00 8.5251540748539991e+00 9.2547320999306280e+00 0 0 0
135 2 1.2305000000000001e+00 1.2077301606043163e+01 6.2466583012510295e+00 0 0 0
137 2 1.2305000000000001e+00 1.0656442593567498e+01 6.2466583012510295e+00 0 0 0
172 2 3.6914999999999996e+00 1.2077301606043163e+01 6.2466583012510295e+00 0 0 0
174 2 3.6914999999999996e+00 1.0656442593567499e+01 6.2466583012510295e+00 0 0 0
430 2 0.0000000000000000e+00 1.1366872099805333e+01 9.2547320999306280e+00 0 0 0
444 2 1.2305000000000001e+00 1.0656442593567498e+01 9.2547320999306280e+00 0 0 0
445 2 2.4610000000000003e+00 1.1366872099805333e+01 9.2547320999306280e+00 0 0 0
463 2 3.6914999999999996e+00 1.0656442593567499e+01 9.2547320999306280e+00 0 0 0
464 2 4.9220000000000006e+00 1.1366872099805333e+01 9.2547320999306280e+00 0 0 0
3742 1 5.2696877605879839e+00 9.1132061217913907e-01 1.2053646512367848e+01 1 1 0
3721 1 5.8573665466396649e+00 8.6168862115331066e+00 1.1599968084943495e+01 0 0 -1
677 1 2.8829312934820241e+00 2.1810454601050484e+00 1.2046835700062289e+01 0 1 -1
3850 1 2.0475838656232939e+00 4.7157993092803823e+00 1.1531392244290370e+01 1 0 0
784 1 4.4112478883989752e+00 6.0069132796258176e+00 1.1847354513596631e+01 0 1 0
826 1 4.5425124982505185e+00 1.0931470579959701e+01 1.1968075834900336e+01 1 0 0
743 1 1.6597369706054059e+00 1.0108708522475389e+01 1.1696519140736310e+01 0 1 -1
2954 1 1.0294486211452099e+00 1.1939269610069719e-01 1.2340809630559374e+01 0 1 0
698 1 2.8671826069583695e+00 2.5428319799024588e+00 1.4616980469343215e+01 0 1 -1
1574 1 2.1762456966826278e+00 9.3588261595252895e+00 1.4378542916938573e+01 -1 1 0
4380 1 4.0561761065083504e+00 5.6417868938812799e+00 1.6353917359175838e+01 0 -1 1
1619 1 4.5320841256445759e+00 7.6520330691362535e+00 1.4287214242524504e+01 0 0 -1
603 1 4.8999593693920662e+00 1.1615330642094417e+01 1.5330706588712356e+01 1 0 -1
63 1 1.7744701987130842e+00 1.1616789442929639e+01 1.5997574033776596e+01 2 0 0
2346 1 3.3629482732009297e-01 7.7786672048024412e+00 1.5879304738784356e+01 1 1 0
4531 1 5.7941556567841026e+00 4.3905793598509648e+00 1.4190413750135189e+01 0 1 1
4367 1 1.4758175569711811e+00 3.6998849588949128e+00 2.1759918064523426e+01 0 0 0
3822 1 2.4495085480315684e+00 4.7676706927013139e+00 1.9376725982320480e+01 1 1 -1
3702 1 3.5092436495817689e+00 2.9721781531170444e+00 1.7416610454722615e+01 1 1 0
4472 1 5.7416488904701311e+00 4.9630106630714943e+00 2.3440323561728082e+01 1 -1 0
4439 1 3.9789802425475957e+00 3.6349502312396531e-01 1.8306471753214971e+01 1 0 0
679 1 2.5457873810517362e+00 7.5640501058620391e+00 1.8177415867187765e+01 0 1 1
840 1 4.0130955831097097e+00 8.1832215857273372e-01 2.4310059941384420e+01 0 0 0
2981 1 1.9636709551926999e+00 1.1002521964529828e+01 1.9917033559405802e+01 1 0 0
1371 1 1.3229224095214520e-01 1.0526376431688227e+01 2.3457759944824957e+01 0 0 1
4515 1 6.0121503959996856e+00 7.7050475577196131e-01 2.0269886447943591e+01 0 1 0
2257 1 9.5620002770636714e-01 3.5651439905915844e-01 1.8947210184954812e+01 1 1 0
45 1 8.6266116374512558e-01 1.1631374973708215e+00 2.1789085641086309e+01 0 -1 1
2991 1 2.8191908853382865e+00 7.5372092106624571e+00 2.3755508332868480e+01 1 0 -1
9 1 2.4673940260896862e-01 3.1136842425162401e+00 1.8342452675562427e+01 0 0 1
4533 1 3.7371437535965870e+00 6.0149786287672873e+00 2.1742971866319333e+01 0 -1 0
4513 1 8.4822108859527079e-01 8.6433017555049787e+00 2.1785770069952751e+01 0 1 0
3087 1 3.9133253521426710e+00 8.7034138210838758e+00 2.0450526329115725e+01 0 1 0
588 1 5.9497507082799066e+00 2.0119186590978191e+00 2.2713381664691898e+01 2 1 0
652 1 6.1384499470097040e+00 3.1927053882830294e+00 1.8925940103735883e+01 -1 1 0
859 1 1.3291005604580406e+00 4.8758828322074717e+00 2.4145771719310432e+01 1 1 0
877 1 4.6967931632552054e+00 9.6409043673860921e+00 2.4731413310473972e+01 1 2 0
730 1 1.8274142098788690e+00 2.3453851249878688e+00 2.7723908783806738e+01 0 0 1
3784 1 3.7046150448659643e+00 8.9994867677004446e+00 3.1061971585538121e+01 1 1 0
2854 1 5.1817237462185259e+00 3.1538257317146856e-01 2.6819886391239042e+01 -1 -1 -1
590 1 2.3590020915654626e+00 6.6894527134261139e+00 3.0096329484981812e+01 0 1 0
2289 1 8.0358636614638868e-01 1.0663664061468676e+01 2.9496687074523184e+01 1 -1 -1
32 1 3.8031787630957363e+00 4.2619045323045981e+00 2.8199537771821849e+01 1 0 0
654 1 2.1599161823821147e+00 7.3164072647635114e+00 2.7541010546762891e+01 0 1 0
2849 1 3.1531917749434499e+00 4.2671954987644742e+00 3.1002497799546880e+01 -1 1 0
637 1 2.2695689663799929e+00 2.4493775759250673e+00 2.5031081690684555e+01 1 0 0
2383 1 2.9678698509131327e+00 9.9266683750440254e+00 2.6911585425613477e+01 0 -1 0
2982 1 2.8884868430442872e+00 1.1808354042108229e+01 3.0945333249542369e+01 -1 1 0
767 1 3.9467462564318563e+00 5.9889544168567017e+00 2.5745092400134542e+01 2 1 0
864 1 1.2229915254972521e+00 2.2888598428253819e+00 3.0703632849672971e+01 1 -1 1
4375 1 5.2669228018087599e+00 2.3455829602034135e+00 3.0657242899936250e+01 1 0 0
3757 1 5.7407318037640991e+00 1.0261662987211652e+01 2.7852075773175617e+01 1 0 -1
1375 1 2.4093396642786288e-01 5.5669896106023498e-01 2.4369035609439223e+01 0 1 0
2907 1 5.9990386824715776e+00 2.6323111303063333e+00 2.8116804832725336e+01 0 1 0
132 2 0.0000000000000000e+00 1.2787731112280996e+01 3.2385845025716877e+00 0 0 0
134 2 1.2305000000000001e+00 1.3498160618518829e+01 3.2385845025716877e+00 0 0 0
169 2 2.4610000000000003e+00 1.2787731112280996e+01 3.2385845025716877e+00 0 0 0
171 2 3.6915000000000004e+00 1.3498160618518829e+01 3.2385845025716877e+00 0 0 0
214 2 4.9220000000000006e+00 1.2787731112280996e+01 3.2385845025716877e+00 0 0 0
216 2 6.1524999999999990e+00 1.3498160618518829e+01 3.2385845025716877e+00 0 0 0
130 2 0.0000000000000000e+00 1.5629449137232333e+01 3.2385845025716877e+00 0 0 0
165 2 1.2305000000000001e+00 1.4919019630994494e+01 3.2385845025716877e+00 0 0 0
167 2 2.4610000000000003e+00 1.5629449137232328e+01 3.2385845025716877e+00 0 0 0
210 2 3.6915000000000004e+00 1.4919019630994494e+01 3.2385845025716877e+00 0 0 0
212 2 4.9220000000000006e+00 1.5629449137232333e+01 3.2385845025716877e+00 0 0 0
257 2 6.1524999999999990e+00 1.4919019630994494e+01 3.2385845025716877e+00 0 0 0
161 2 0.0000000000000000e+00 1.7050308149707998e+01 3.2385845025716877e+00 0 0 0
206 2 2.4610000000000003e+00 1.7050308149707998e+01 3.2385845025716877e+00 0 0 0
253 2 4.9220000000000006e+00 1.7050308149707998e+01 3.2385845025716877e+00 0 0 0
159 2 0.0000000000000000e+00 1.9892026174659328e+01 3.2385845025716877e+00 0 0 0
163 2 1.2305000000000001e+00 1.7760737655945832e+01 3.2385845025716877e+00 0 0 0
202 2 1.2305000000000001e+00 1.9181596668421495e+01 3.2385845025716877e+00 0 0 0
204 2 2.4610000000000003e+00 1.9892026174659328e+01 3.2385845025716877e+00 0 0 0
208 2 3.6914999999999996e+00 1.7760737655945832e+01 3.2385845025716877e+00 0 0 0
249 2 3.6914999999999996e+00 1.9181596668421495e+01 3.2385845025716877e+00 0 0 0
251 2 4.9220000000000006e+00 1.9892026174659328e+01 3.2385845025716877e+00 0 0 0
196 2 0.0000000000000000e+00 2.4154603212086325e+01 3.2385845025716877e+00 0 0 0
198 2 0.0000000000000000e+00 2.1312885187134999e+01 3.2385845025716877e+00 0 0 0
200 2 1.2304999999999993e+00 2.2023314693372832e+01 3.2385845025716877e+00 0 0 0
241 2 1.2304999999999993e+00 2.3444173705848499e+01 3.2385845025716877e+00 0 0 0
243 2 2.4610000000000003e+00 2.4154603212086325e+01 3.2385845025716877e+00 0 0 0
245 2 2.4610000000000003e+00 2.1312885187134995e+01 3.2385845025716877e+00 0 0 0
247 2 3.6914999999999996e+00 2.2023314693372832e+01 3.2385845025716877e+00 0 0 0
288 2 3.6915000000000004e+00 2.3444173705848499e+01 3.2385845025716877e+00 0 0 0
290 2 4.9220000000000006e+00 2.4154603212086325e+01 3.2385845025716877e+00 0 0 0
292 2 4.9220000000000006e+00 2.1312885187134995e+01 3.2385845025716877e+00 0 0 0
294 2 6.1524999999999990e+00 2.2023314693372832e+01 3.2385845025716877e+00 0 0 0
133 2 0.0000000000000000e+00 1.2787731112280996e+01 6.2466583012510295e+00 0 0 0
170 2 2.4610000000000003e+00 1.2787731112280996e+01 6.2466583012510295e+00 0 0 0
442 2 0.0000000000000000e+00 1.2787731112280996e+01 9.2547320999306280e+00 0 0 0
443 2 1.2305000000000001e+00 1.3498160618518829e+01 9.2547320999306280e+00 0 0 0
461 2 2.4610000000000003e+00 1.2787731112280996e+01 9.2547320999306280e+00 0 0 0
462 2 3.6915000000000004e+00 1.3498160618518829e+01 9.2547320999306280e+00 0 0 0
215 2 4.9220000000000006e+00 1.2787731112280996e+01 6.2466583012510295e+00 0 0 0
484 2 4.9220000000000006e+00 1.2787731112280996e+01 9.2547320999306280e+00 0 0 0
485 2 6.1524999999999990e+00 1.3498160618518829e+01 9.2547320999306280e+00 0 0 0
131 2 0.0000000000000000e+00 1.4208590124756663e+01 6.2466583012510295e+00 0 0 0
166 2 1.2305000000000001e+00 1.4919019630994494e+01 6.2466583012510295e+00 0 0 0
168 2 2.4610000000000003e+00 1.4208590124756663e+01 6.2466583012510295e+00 0 0 0
211 2 3.6915000000000004e+00 1.4919019630994494e+01 6.2466583012510295e+00 0 0 0
441 2 0.0000000000000000e+00 1.5629449137232333e+01 9.2547320999306280e+00 0 0 0
459 2 1.2305000000000001e+00 1.4919019630994494e+01 9.2547320999306280e+00 0 0 0
460 2 2.4610000000000003e+00 1.5629449137232328e+01 9.2547320999306280e+00 0 0 0
482 2 3.6915000000000004e+00 1.4919019630994494e+01 9.2547320999306280e+00 0 0 0
213 2 4.9220000000000006e+00 1.4208590124756663e+01 6.2466583012510295e+00 0 0 0
258 2 6.1524999999999990e+00 1.4919019630994494e+01 6.2466583012510295e+00 0 0 0
483 2 4.9220000000000006e+00 1.5629449137232333e+01 9.2547320999306280e+00 0 0 0
506 2 6.1524999999999990e+00 1.4919019630994494e+01 9.2547320999306280e+00 0 0 0
162 2 0.0000000000000000e+00 1.7050308149707998e+01 6.2466583012510295e+00 0 0 0
164 2 1.2305000000000001e+00 1.6339878643470165e+01 6.2466583012510295e+00 0 0 0
207 2 2.4610000000000003e+00 1.7050308149707998e+01 6.2466583012510295e+00 0 0 0
209 2 3.6915000000000004e+00 1.6339878643470165e+01 6.2466583012510295e+00 0 0 0
457 2 0.0000000000000000e+00 1.7050308149707998e+01 9.2547320999306280e+00 0 0 0
480 2 2.4610000000000003e+00 1.7050308149707998e+01 9.2547320999306280e+00 0 0 0
254 2 4.9220000000000006e+00 1.7050308149707998e+01 6.2466583012510295e+00 0 0 0
504 2 4.9220000000000006e+00 1.7050308149707998e+01 9.2547320999306280e+00 0 0 0
160 2 0.0000000000000000e+00 1.8471167162183658e+01 6.2466583012510295e+00 0 0 0
203 2 1.2305000000000001e+00 1.9181596668421495e+01 6.2466583012510295e+00 0 0 0
205 2 2.4610000000000003e+00 1.8471167162183658e+01 6.2466583012510295e+00 0 0 0
250 2 3.6914999999999996e+00 1.9181596668421495e+01 6.2466583012510295e+00 0 0 0
456 2 0.0000000000000000e+00 1.9892026174659328e+01 9.2547320999306280e+00 0 0 0
458 2 1.2305000000000001e+00 1.7760737655945832e+01 9.2547320999306280e+00 0 0 0
478 2 1.2305000000000001e+00 1.9181596668421495e+01 9.2547320999306280e+00 0 0 0
479 2 2.4610000000000003e+00 1.9892026174659328e+01 9.2547320999306280e+00 0 0 0
481 2 3.6914999999999996e+00 1.7760737655945832e+01 9.2547320999306280e+00 0 0 0
502 2 3.6914999999999996e+00 1.9181596668421495e+01 9.2547320999306280e+00 0 0 0
252 2 4.9220000000000006e+00 1.8471167162183658e+01 6.2466583012510295e+00 0 0 0
503 2 4.9220000000000006e+00 1.9892026174659328e+01 9.2547320999306280e+00 0 0 0
201 2 1.2305000000000001e+00 2.0602455680897162e+01 6.2466583012510295e+00 0 0 0
248 2 3.6915000000000004e+00 2.0602455680897162e+01 6.2466583012510295e+00 0 0 0
197 2 0.0000000000000000e+00 2.2733744199610655e+01 6.2466583012510295e+00 0 0 0
199 2 0.0000000000000000e+00 2.1312885187134999e+01 6.2466583012510295e+00 0 0 0
242 2 1.2304999999999993e+00 2.3444173705848499e+01 6.2466583012510295e+00 0 0 0
244 2 2.4610000000000003e+00 2.2733744199610655e+01 6.2466583012510295e+00 0 0 0
246 2 2.4610000000000003e+00 2.1312885187134995e+01 6.2466583012510295e+00 0 0 0
289 2 3.6915000000000004e+00 2.3444173705848499e+01 6.2466583012510295e+00 0 0 0
475 2 0.0000000000000000e+00 2.4154603212086325e+01 9.2547320999306280e+00 0 0 0
476 2 0.0000000000000000e+00 2.1312885187134999e+01 9.2547320999306280e+00 0 0 0
477 2 1.2304999999999993e+00 2.2023314693372832e+01 9.2547320999306280e+00 0 0 0
498 2 1.2304999999999993e+00 2.3444173705848499e+01 9.2547320999306280e+00 0 0 0
499 2 2.4610000000000003e+00 2.4154603212086325e+01 9.2547320999306280e+00 0 0 0
500 2 2.4610000000000003e+00 2.1312885187134995e+01 9.2547320999306280e+00 0 0 0
501 2 3.6914999999999996e+00 2.2023314693372832e+01 9.2547320999306280e+00 0 0 0
522 2 3.6915000000000004e+00 2.3444173705848499e+01 9.2547320999306280e+00 0 0 0
291 2 4.9220000000000006e+00 2.2733744199610655e+01 6.2466583012510295e+00 0 0 0
293 2 4.9220000000000006e+00 2.1312885187134995e+01 6.2466583012510295e+00 0 0 0
523 2 4.9220000000000006e+00 2.4154603212086325e+01 9.2547320999306280e+00 0 0 0
524 2 4.9220000000000006e+00 2.1312885187134995e+01 9.2547320999306280e+00 0 0 0
525 2 6.1524999999999990e+00 2.2023314693372832e+01 9.2547320999306280e+00 0 0 0
3665 1 3.6872857535062615e+00 1.4169752621813277e+01 1.2501290315535016e+01 1 1 -1
672 1 1.4159209086270437e+00 1.3046839459160676e+01 1.1745929316984489e+01 1 1 0
836 1 4.3228645225426232e-01 1.7148871082277182e+01 1.1774494942053600e+01 2 0 0
3672 1 4.6561238284333575e+00 2.3927605047122537e+01 1.4860573465281259e+01 0 0 -1
1558 1 3.3266428651995281e+00 1.6920217986749059e+01 1.2081195175306245e+01 0 1 0
3849 1 4.1467653954330173e+00 2.0454988241583678e+01 1.2058284107520663e+01 0 0 1
4331 1 1.3194745072094305e+00 2.0047611221545342e+01 1.2072290213618134e+01 0 1 0
3107 1 9.2105595150046804e-01 2.0449230424845709e+01 1.4783864765098850e+01 0 1 -1
4523 1 5.9644123754332448e+00 1.8069127618654875e+01 1.1848292734096125e+01 0 0 0
2888 1 4.9230403710588648e+00 1.7626384369603002e+01 1.4631451319334600e+01 1 1 0
1512 1 3.0588655613777629e+00 1.4387642766522102e+01 1.5113670536212435e+01 1 1 -2
763 1 4.8984828825376860e+00 2.1022395633295659e+01 1.4652434939590822e+01 1 0 0
2972 1 1.5151507221582545e+00 2.3421605107562531e+01 1.4178463947492455e+01 0 -1 -1
2274 1 5.7808344649056549e+00 1.5579382213341971e+01 1.6145767332938242e+01 0 0 -1
2950 1 3.0478091320696228e+00 1.9368376342116736e+01 1.6143524937718588e+01 1 0 -1
2847 1 3.0126662545465244e-01 1.4880911781137900e+01 1.5148384368362700e+01 1 1 0
4481 1 4.4771849867883633e+00 2.3368827800099744e+01 1.1510585538311210e+01 0 0 0
790 1 1.8817984273636204e+00 2.4507750727984291e+01 1.1781621185504173e+01 1 0 0
805 1 4.0789030975144271e+00 1.5518472592552730e+01 1.8602609643147584e+01 0 0 0
4368 1 4.2644289088015501e+00 2.4362280669946070e+01 1.7550383563942439e+01 -1 1 0
2179 1 1.5798150363025800e+00 1.3335569955365665e+01 2.1370585484535614e+01 1 1 0
662 1 3.4783647491540304e+00 1.7419996117679471e+01 2.2284585083727503e+01 0 1 0
2855 1 4.8382300532799372e-01 2.1197356894512843e+01 2.0975423257729602e+01 1 -1 0
1439 1 3.2918821866429511e+00 1.9886518779147913e+01 1.8846135508644519e+01 1 0 -1
1630 1 3.8979615377214123e+00 1.2628811333376262e+01 1.8376783719682855e+01 1 1 0
4404 1 1.1078038151036753e+00 1.8577498044598766e+01 2.1399851616118170e+01 1 -1 -1
4387 1 4.0416633170697187e+00 2.3574138081265758e+01 2.3673626833677169e+01 1 1 0
2391 1 4.8741080497583553e+00 2.2663615928601466e+01 1.9360913327721715e+01 0 0 0
2916 1 5.7616622560831630e+00 1.2885510412343089e+01 2.0880998517341105e+01 0 0 0
2310 1 8.1932881375226030e-01 2.0667347422175268e+01 1.8193155645062756e+01 0 0 -1
3717 1 3.8438709512617604e+00 1.4760481364890577e+01 2.1712349496797557e+01 0 1 -1
4357 1 2.3499514843071685e+00 2.3119344786492121e+01 2.0970105965229866e+01 1 0 0
3763 1 2.5823639486892364e-01 1.7255117292403629e+01 1.9386968760261261e+01 -1 0 -1
3103 1 5.4875795392741029e+00 1.7762856872892606e+01 2.0134942169213836e+01 1 0 1
1503 1 5.7424594299445415e+00 1.8317056638875755e+01 2.3928091567790805e+01 1 1 -1
3010 1 1.7828571203351866e+00 1.6725083659645076e+01 1.7201085979494501e+01 1 1 0
4385 1 6.1269821704731227e+00 2.2109012402447092e+01 2.4107437807585907e+01 1 0 -1
3113 1 2.2955220439267947e+00 1.2730155019324497e+01 2.7008366595117945e+01 -1 0 0
855 1 4.8185976142488833e+00 1.3943423076704610e+01 3.0402510390619689e+01 0 0 0
4493 1 5.8565195298839097e+00 1.7268017793391166e+01 3.0910024917954797e+01 0 0 0
3737 1 3.3314276864336585e+00 1.8323521160260249e+01 2.6918923773390489e+01 0 0 0
735 1 3.7156956630108073e+00 2.1104419483187566e+01 2.7727449824171320e+01 0 -1 0
3877 1 1.7827263926694876e+00 1.7946997845320833e+01 2.4907248216103486e+01 0 0 0
629 1 1.6793919789401657e+00 1.3271228374837452e+01 2.4441144036653505e+01 1 0 -1
3788 1 4.9779330715400061e+00 2.4018743283288572e+01 2.8213876388282639e+01 1 0 0
1622 1 5.8794691380596731e-01 1.6659697944097275e+01 2.7868092803197172e+01 1 1 1
3635 1 2.5325999106317920e+00 2.3252156609213909e+01 2.6087320601958211e+01 0 0 1
2947 1 5.3755721259556024e+00 1.6712136608076463e+01 2.6749301258225184e+01 0 1 0
823 1 2.0485175032628127e+00 1.5034869419839445e+01 3.0961713495164194e+01 1 1 0
2934 1 3.2965880246279582e+00 1.7352816344132979e+01 2.9733477751312432e+01 1 1 0
3011 1 5.0410273814582798e+00 1.3570278859350143e+01 2.7576309438170210e+01 -2 1 0
3056 1 4.2182378195740977e+00 2.0878631291525505e+01 3.0515303051102489e+01 0 0 -2
582 1 2.0840166431757061e+00 1.9461980673914841e+01 3.1193031199457259e+01 0 0 0
621 1 3.0523577185536577e+00 2.3297112487952461e+01 3.0917940116644623e+01 1 0 0
2276 1 5.4354751684187237e+00 2.4434832300697245e+01 3.0918809737904567e+01 -1 0 0
2963 1 3.8458877893058507e-01 2.2092654963832771e+01 2.7087221710558289e+01 1 -1 -1
3123 1 3.1828289214071809e-01 1.5555590891049158e+01 2.5055792849319001e+01 1 -1 1
3051 1 1.8231583435637266e-01 1.3690422729610038e+01 2.8355398421319968e+01 1 1 0
1653 1 5.8398972710105195e+00 2.0418697159333846e+01 2.6188009077281020e+01 1 1 0
4414 1 5.4933547171358943e-01 2.1459880332795905e+01 2.9618293752524604e+01 0 1 -1
1570 1 4.6101887720207761e+00 1.3664602680371310e+01 2.4368851201084215e+01 0 1 0
752 1 1.4959242716820143e-02 1.7165729958621043e+01 3.1028956726309566e+01 0 1 -1
891 2 0.0000000000000000e+00 2.5575462224561992e+01 3.2385845025716877e+00 0 0 0
893 2 1.2305000000000001e+00 2.6285891730799833e+01 3.2385845025716877e+00 0 0 0
901 2 1.2305000000000010e+00 2.7706750743275496e+01 3.2385845025716877e+00 0 0 0
905 2 2.4610000000000003e+00 2.5575462224561992e+01 3.2385845025716877e+00 0 0 0
907 2 3.6914999999999991e+00 2.6285891730799833e+01 3.2385845025716877e+00 0 0 0
923 2 3.6914999999999996e+00 2.7706750743275496e+01 3.2385845025716877e+00 0 0 0
927 2 4.9220000000000006e+00 2.5575462224561992e+01 3.2385845025716877e+00 0 0 0
953 2 6.1524999999999990e+00 2.7706750743275496e+01 3.2385845025716877e+00 0 0 0
889 2 0.0000000000000000e+00 2.8417180249513333e+01 3.2385845025716877e+00 0 0 0
903 2 2.4610000000000003e+00 2.8417180249513326e+01 3.2385845025716877e+00 0 0 0
925 2 4.9220000000000006e+00 2.8417180249513336e+01 3.2385845025716877e+00 0 0 0
897 2 0.0000000000000000e+00 2.9838039261988989e+01 3.2385845025716877e+00 0 0 0
899 2 1.2304999999999993e+00 3.0548468768226829e+01 3.2385845025716877e+00 0 0 0
919 2 2.4610000000000003e+00 2.9838039261988989e+01 3.2385845025716877e+00 0 0 0
921 2 3.6915000000000004e+00 3.0548468768226829e+01 3.2385845025716877e+00 0 0 0
949 2 4.9220000000000006e+00 2.9838039261988989e+01 3.2385845025716877e+00 0 0 0
895 2 0.0000000000000000e+00 3.2679757286940330e+01 3.2385845025716877e+00 0 0 0
915 2 1.2304999999999993e+00 3.1969327780702493e+01 3.2385845025716877e+00 0 0 0
945 2 3.6914999999999996e+00 3.1969327780702493e+01 3.2385845025716877e+00 0 0 0
911 2 0.0000000000000000e+00 3.4100616299415996e+01 3.2385845025716877e+00 0 0 0
913 2 1.2305000000000010e+00 3.4811045805653833e+01 3.2385845025716877e+00 0 0 0
917 2 2.4610000000000003e+00 3.2679757286940337e+01 3.2385845025716877e+00 0 0 0
941 2 2.4609999999999985e+00 3.4100616299415996e+01 3.2385845025716877e+00 0 0 0
943 2 3.6915000000000018e+00 3.4811045805653833e+01 3.2385845025716877e+00 0 0 0
947 2 4.9220000000000015e+00 3.2679757286940337e+01 3.2385845025716877e+00 0 0 0
979 2 4.9220000000000006e+00 3.4100616299415996e+01 3.2385845025716877e+00 0 0 0
937 2 1.2304999999999993e+00 3.6231904818129486e+01 3.2385845025716877e+00 0 0 0
975 2 3.6914999999999996e+00 3.6231904818129486e+01 3.2385845025716877e+00 0 0 0
890 2 0.0000000000000000e+00 2.6996321237037659e+01 6.2466583012510295e+00 0 0 0
892 2 0.0000000000000000e+00 2.5575462224561992e+01 6.2466583012510295e+00 0 0 0
894 2 1.2305000000000001e+00 2.4865032718324155e+01 6.2466583012510295e+00 0 0 0
902 2 1.2305000000000010e+00 2.7706750743275496e+01 6.2466583012510295e+00 0 0 0
904 2 2.4610000000000003e+00 2.6996321237037659e+01 6.2466583012510295e+00 0 0 0
906 2 2.4610000000000003e+00 2.5575462224561992e+01 6.2466583012510295e+00 0 0 0
908 2 3.6914999999999996e+00 2.4865032718324166e+01 6.2466583012510295e+00 0 0 0
924 2 3.6914999999999996e+00 2.7706750743275496e+01 6.2466583012510295e+00 0 0 0
1205 2 0.0000000000000000e+00 2.5575462224561992e+01 9.2547320999306280e+00 0 0 0
1206 2 1.2305000000000001e+00 2.6285891730799833e+01 9.2547320999306280e+00 0 0 0
1210 2 1.2305000000000010e+00 2.7706750743275496e+01 9.2547320999306280e+00 0 0 0
1212 2 2.4610000000000003e+00 2.5575462224561992e+01 9.2547320999306280e+00 0 0 0
1213 2 3.6914999999999991e+00 2.6285891730799833e+01 9.2547320999306280e+00 0 0 0
1221 2 3.6914999999999996e+00 2.7706750743275496e+01 9.2547320999306280e+00 0 0 0
926 2 4.9220000000000006e+00 2.6996321237037659e+01 6.2466583012510295e+00 0 0 0
928 2 4.9220000000000006e+00 2.5575462224561992e+01 6.2466583012510295e+00 0 0 0
930 2 6.1524999999999990e+00 2.4865032718324155e+01 6.2466583012510295e+00 0 0 0
954 2 6.1524999999999990e+00 2.7706750743275496e+01 6.2466583012510295e+00 0 0 0
1223 2 4.9220000000000006e+00 2.5575462224561992e+01 9.2547320999306280e+00 0 0 0
1236 2 6.1524999999999990e+00 2.7706750743275496e+01 9.2547320999306280e+00 0 0 0
1204 2 0.0000000000000000e+00 2.8417180249513333e+01 9.2547320999306280e+00 0 0 0
1211 2 2.4610000000000003e+00 2.8417180249513326e+01 9.2547320999306280e+00 0 0 0
1222 2 4.9220000000000006e+00 2.8417180249513336e+01 9.2547320999306280e+00 0 0 0
896 2 0.0000000000000000e+00 3.1258898274464656e+01 6.2466583012510295e+00 0 0 0
898 2 0.0000000000000000e+00 2.9838039261988989e+01 6.2466583012510295e+00 0 0 0
900 2 1.2304999999999993e+00 2.9127609755751163e+01 6.2466583012510295e+00 0 0 0
918 2 2.4609999999999985e+00 3.1258898274464656e+01 6.2466583012510295e+00 0 0 0
920 2 2.4610000000000003e+00 2.9838039261988989e+01 6.2466583012510295e+00 0 0 0
922 2 3.6914999999999991e+00 2.9127609755751152e+01 6.2466583012510295e+00 0 0 0
1208 2 0.0000000000000000e+00 2.9838039261988989e+01 9.2547320999306280e+00 0 0 0
1209 2 1.2304999999999993e+00 3.0548468768226829e+01 9.2547320999306280e+00 0 0 0
1219 2 2.4610000000000003e+00 2.9838039261988989e+01 9.2547320999306280e+00 0 0 0
1220 2 3.6915000000000004e+00 3.0548468768226829e+01 9.2547320999306280e+00 0 0 0
948 2 4.9219999999999979e+00 3.1258898274464656e+01 6.2466583012510295e+00 0 0 0
950 2 4.9220000000000006e+00 2.9838039261988989e+01 6.2466583012510295e+00 0 0 0