LAMMPS data file via write_data, version 16 Mar 2018, timestep = 8000000

4545 atoms
2 atom types

0.0000000000000000e+00 4.9219999999999999e+01 xlo xhi
0.0000000000000000e+00 4.9019635930410494e+01 ylo yhi
6.8368318965672614e-01 3.2951656596855671e+01 zlo zhi

Masses

1 18.015
2 12.01

Atoms # atomic

91 2 0.0000000000000000e+00 2.8417180249513345e+00 2.2925086615371209e+00 0 0 0
93 2 0.0000000000000000e+00 0.0000000000000000e+00 2.2925086615371209e+00 0 0 0
95 2 1.2305000000000001e+00 7.1042950623783474e-01 2.2925086615371209e+00 0 0 0
102 2 1.2305000000000001e+00 2.1312885187134998e+00 2.2925086615371209e+00 0 0 0
104 2 2.4610000000000003e+00 2.8417180249513345e+00 2.2925086615371209e+00 0 0 0
106 2 2.4610000000000003e+00 0.0000000000000000e+00 2.2925086615371209e+00 0 0 0
108 2 3.6915000000000004e+00 7.1042950623783474e-01 2.2925086615371209e+00 0 0 0
123 2 3.6914999999999996e+00 2.1312885187134998e+00 2.2925086615371209e+00 0 0 0
125 2 4.9220000000000006e+00 2.8417180249513332e+00 2.2925086615371209e+00 0 0 0
127 2 4.9220000000000006e+00 0.0000000000000000e+00 2.2925086615371209e+00 0 0 0
98 2 0.0000000000000000e+00 4.2625770374269996e+00 2.2925086615371209e+00 0 0 0
100 2 1.2305000000000001e+00 4.9730065436648339e+00 2.2925086615371209e+00 0 0 0
115 2 1.2305000000000001e+00 6.3938655561404980e+00 2.2925086615371209e+00 0 0 0
119 2 2.4610000000000003e+00 4.2625770374269996e+00 2.2925086615371209e+00 0 0 0
121 2 3.6914999999999996e+00 4.9730065436648339e+00 2.2925086615371209e+00 0 0 0
144 2 3.6914999999999996e+00 6.3938655561404980e+00 2.2925086615371209e+00 0 0 0
148 2 4.9220000000000006e+00 4.2625770374269978e+00 2.2925086615371209e+00 0 0 0
96 2 0.0000000000000000e+00 7.1042950623783341e+00 2.2925086615371209e+00 0 0 0
117 2 2.4610000000000003e+00 7.1042950623783341e+00 2.2925086615371209e+00 0 0 0
146 2 4.9220000000000006e+00 7.1042950623783341e+00 2.2925086615371209e+00 0 0 0
111 2 0.0000000000000000e+00 8.5251540748539991e+00 2.2925086615371209e+00 0 0 0
113 2 1.2305000000000001e+00 9.2355835810918343e+00 2.2925086615371209e+00 0 0 0
140 2 2.4610000000000003e+00 8.5251540748539991e+00 2.2925086615371209e+00 0 0 0
142 2 3.6915000000000004e+00 9.2355835810918343e+00 2.2925086615371209e+00 0 0 0
177 2 4.9220000000000006e+00 8.5251540748539991e+00 2.2925086615371209e+00 0 0 0
109 2 0.0000000000000000e+00 1.1366872099805333e+01 2.2925086615371209e+00 0 0 0
136 2 1.2305000000000001e+00 1.0656442593567498e+01 2.2925086615371209e+00 0 0 0
138 2 2.4610000000000003e+00 1.1366872099805333e+01 2.2925086615371209e+00 0 0 0
173 2 3.6914999999999996e+00 1.0656442593567499e+01 2.2925086615371209e+00 0 0 0
175 2 4.9220000000000006e+00 1.1366872099805333e+01 2.2925086615371209e+00 0 0 0
92 2 0.0000000000000000e+00 1.4208590124756650e+00 5.5101596052955237e+00 0 0 0
94 2 0.0000000000000000e+00 0.0000000000000000e+00 5.5101596052955237e+00 0 0 0
103 2 1.2305000000000001e+00 2.1312885187134998e+00 5.5101596052955237e+00 0 0 0
105 2 2.4610000000000003e+00 1.4208590124756650e+00 5.5101596052955237e+00 0 0 0
107 2 2.4610000000000003e+00 0.0000000000000000e+00 5.5101596052955237e+00 0 0 0
124 2 3.6914999999999996e+00 2.1312885187134998e+00 5.5101596052955237e+00 0 0 0
420 2 0.0000000000000000e+00 2.8417180249513345e+00 8.7278105490508313e+00 0 0 0
421 2 0.0000000000000000e+00 0.0000000000000000e+00 8.7278105490508313e+00 0 0 0
422 2 1.2305000000000001e+00 7.1042950623783474e-01 8.7278105490508313e+00 0 0 0
426 2 1.2305000000000001e+00 2.1312885187134998e+00 8.7278105490508313e+00 0 0 0
427 2 2.4610000000000003e+00 2.8417180249513345e+00 8.7278105490508313e+00 0 0 0
428 2 2.4610000000000003e+00 0.0000000000000000e+00 8.7278105490508313e+00 0 0 0
429 2 3.6915000000000004e+00 7.1042950623783474e-01 8.7278105490508313e+00 0 0 0
437 2 3.6914999999999996e+00 2.1312885187134998e+00 8.7278105490508313e+00 0 0 0
126 2 4.9220000000000006e+00 1.4208590124756650e+00 5.5101596052955237e+00 0 0 0
128 2 4.9220000000000006e+00 0.0000000000000000e+00 5.5101596052955237e+00 0 0 0
438 2 4.9220000000000006e+00 2.8417180249513332e+00 8.7278105490508313e+00 0 0 0
439 2 4.9220000000000006e+00 0.0000000000000000e+00 8.7278105490508313e+00 0 0 0
101 2 1.2305000000000001e+00 3.5521475311891644e+00 5.5101596052955237e+00 0 0 0
122 2 3.6914999999999996e+00 3.5521475311891644e+00 5.5101596052955237e+00 0 0 0
97 2 0.0000000000000000e+00 5.6834360499026637e+00 5.5101596052955237e+00 0 0 0
99 2 0.0000000000000000e+00 4.2625770374269996e+00 5.5101596052955237e+00 0 0 0
116 2 1.2305000000000001e+00 6.3938655561404980e+00 5.5101596052955237e+00 0 0 0
118 2 2.4610000000000003e+00 5.6834360499026637e+00 5.5101596052955237e+00 0 0 0
120 2 2.4610000000000003e+00 4.2625770374269996e+00 5.5101596052955237e+00 0 0 0
145 2 3.6914999999999996e+00 6.3938655561404980e+00 5.5101596052955237e+00 0 0 0
424 2 0.0000000000000000e+00 4.2625770374269996e+00 8.7278105490508313e+00 0 0 0
425 2 1.2305000000000001e+00 4.9730065436648339e+00 8.7278105490508313e+00 0 0 0
433 2 1.2305000000000001e+00 6.3938655561404980e+00 8.7278105490508313e+00 0 0 0
435 2 2.4610000000000003e+00 4.2625770374269996e+00 8.7278105490508313e+00 0 0 0
436 2 3.6914999999999996e+00 4.9730065436648339e+00 8.7278105490508313e+00 0 0 0
448 2 3.6914999999999996e+00 6.3938655561404980e+00 8.7278105490508313e+00 0 0 0
147 2 4.9220000000000006e+00 5.6834360499026637e+00 5.5101596052955237e+00 0 0 0
149 2 4.9220000000000006e+00 4.2625770374269978e+00 5.5101596052955237e+00 0 0 0
450 2 4.9220000000000006e+00 4.2625770374269978e+00 8.7278105490508313e+00 0 0 0
114 2 1.2305000000000001e+00 7.8147245686161639e+00 5.5101596052955237e+00 0 0 0
143 2 3.6914999999999996e+00 7.8147245686161639e+00 5.5101596052955237e+00 0 0 0
423 2 0.0000000000000000e+00 7.1042950623783341e+00 8.7278105490508313e+00 0 0 0
434 2 2.4610000000000003e+00 7.1042950623783341e+00 8.7278105490508313e+00 0 0 0
449 2 4.9220000000000006e+00 7.1042950623783341e+00 8.7278105490508313e+00 0 0 0
110 2 0.0000000000000000e+00 9.9460130873296642e+00 5.5101596052955237e+00 0 0 0
112 2 0.0000000000000000e+00 8.5251540748539991e+00 5.5101596052955237e+00 0 0 0
139 2 2.4610000000000003e+00 9.9460130873296642e+00 5.5101596052955237e+00 0 0 0
141 2 2.4610000000000003e+00 8.5251540748539991e+00 5.5101596052955237e+00 0 0 0
431 2 0.0000000000000000e+00 8.5251540748539991e+00 8.7278105490508313e+00 0 0 0
432 2 1.2305000000000001e+00 9.2355835810918343e+00 8.7278105490508313e+00 0 0 0
446 2 2.4610000000000003e+00 8.5251540748539991e+00 8.7278105490508313e+00 0 0 0
447 2 3.6915000000000004e+00 9.2355835810918343e+00 8.7278105490508313e+00 0 0 0
176 2 4.9220000000000006e+00 9.9460130873296642e+00 5.5101596052955237e+00 0 0 0
178 2 4.9220000000000006e+00 8.5251540748539991e+00 5.5101596052955237e+00 0 0 0
465 2 4.9220000000000006e+00 8.5251540748539991e+00 8.7278105490508313e+00 0 0 0
135 2 1.2305000000000001e+00 1.2077301606043163e+01 5.5101596052955237e+00 0 0 0
137 2 1.2305000000000001e+00 1.0656442593567498e+01 5.5101596052955237e+00 0 0 0
172 2 3.6914999999999996e+00 1.2077301606043163e+01 5.5101596052955237e+00 0 0 0
174 2 3.6914999999999996e+00 1.0656442593567499e+01 5.5101596052955237e+00 0 0 0
430 2 0.0000000000000000e+00 1.1366872099805333e+01 8.7278105490508313e+00 0 0 0
444 2 1.2305000000000001e+00 1.0656442593567498e+01 8.7278105490508313e+00 0 0 0
445 2 2.4610000000000003e+00 1.1366872099805333e+01 8.7278105490508313e+00 0 0 0
463 2 3.6914999999999996e+00 1.0656442593567499e+01 8.7278105490508313e+00 0 0 0
464 2 4.9220000000000006e+00 1.1366872099805333e+01 8.7278105490508313e+00 0 0 0
3699 1 2.3218394963159210e+00 2.8307652490540889e+00 1.1135391269992638e+01 1 2 0
4513 1 2.3330526892915375e+00 2.5424156664326125e-01 1.1458159567873128e+01 -1 0 0
1605 1 4.4175153954152773e+00 4.5071312656001190e+00 1.1611370536040699e+01 -5 2 0
1479 1 4.4282317692030890e+00 7.2130394091035654e+00 1.1186886738239046e+01 4 1 0
4332 1 4.3597852986041570e+00 1.0631677244226916e+01 1.5027069658849172e+01 2 0 1
2337 1 2.2387846486433087e+00 8.8064292553817136e+00 1.1396110645171966e+01 3 -1 0
4518 1 2.4867169417092514e+00 1.1699611918677085e+01 1.1399238271852633e+01 1 3 0
2905 1 2.1194026335152931e+00 4.0416616857925663e-01 1.4273768604188454e+01 2 -1 0
2206 1 4.0137838667894092e+00 2.1884912841300914e+00 1.5201464846146878e+01 -2 1 0
1352 1 2.2001822696002220e+00 9.1656659770052720e+00 1.4312567770303781e+01 2 2 0
47 1 2.1990246154476152e+00 6.4923543594225581e+00 1.5354710528050440e+01 -1 -5 -1
4437 1 4.0087312540633944e+00 4.8779228310743878e+00 1.4270050067865160e+01 -1 -1 -1
2375 1 2.7045132620962781e-01 4.8856856394028743e+00 1.1892348472701698e+01 -1 -1 1
2858 1 4.4773893148023820e+00 2.1774952995942609e+00 1.8062260930267211e+01 0 1 0
2873 1 2.3216742956173744e+00 7.1619862075298679e-01 1.8995941656569268e+01 -1 2 0
2399 1 2.2880208693119903e+00 8.9636948588454697e+00 2.1569439785149683e+01 1 -3 0
3617 1 2.3450029257922149e+00 6.2566660015559705e+00 1.8018699358678077e+01 -1 5 0
3038 1 4.4452012391113938e+00 4.9659353928499614e+00 1.9062797574024383e+01 0 -5 0
1563 1 2.1460494814200466e+00 8.7855374848548955e+00 1.8950397040728912e+01 0 0 0
1484 1 4.3788844411010244e+00 1.0515599399702110e+01 1.7959906467404760e+01 -3 -5 0
776 1 2.1097917735822502e+00 1.1368869861134154e+01 2.2577335550848115e+01 -2 3 -1
3068 1 2.5320362468421465e+00 3.6461535462981951e+00 2.2584072664443955e+01 0 0 0
1646 1 2.3446847250991460e+00 8.3586353007178571e-01 2.1773172474877832e+01 0 6 0
4473 1 4.5253718298662298e+00 5.2316662643081253e+00 2.1734947087516332e+01 -1 1 0
792 1 4.4293503998498771e+00 7.8608898150261517e+00 2.2559239647436005e+01 1 -6 0
2137 1 6.3641125142696930e-02 4.7181248081212592e+00 1.8856666162191239e+01 0 2 0
748 1 3.8871609349180619e-01 4.7606361379821687e+00 2.1503671219219001e+01 -4 1 0
2964 1 1.1712179429785695e-01 7.4500090413161484e+00 2.2393176664562795e+01 -5 -3 0
27 1 4.0737307686866373e+00 2.1792518592993195e+00 2.6121402309397563e+01 -2 -1 1
3000 1 4.3413053275825293e+00 2.4853556672919752e+00 2.8763344813056545e+01 1 1 -1
3062 1 3.6247681750108245e+00 4.7564707375683293e+00 3.1943260780847659e+01 5 -2 -1
2212 1 1.5506857913560224e+00 1.4077654510004396e+00 2.8953580426959700e+01 -2 2 -1
2169 1 2.2012256268933630e+00 1.1414995317894130e+01 2.5229578404832115e+01 -1 1 1
4474 1 2.2736847938726927e+00 6.1881899134149894e+00 2.6128190124151029e+01 -2 -2 0
749 1 3.6336941387803101e+00 5.0143956438043826e+00 2.9235219445700530e+01 -1 2 0
875 1 3.4181494366982341e+00 1.0384157166407926e+01 2.9103172060277636e+01 7 4 0
3786 1 4.4781216212915851e+00 1.0211947848512006e+01 2.6338121079353883e+01 3 -1 0
605 1 9.4005479013618420e-01 9.4077589556569983e+00 2.8728565051592891e+01 2 2 0
725 1 1.3846611243305276e+00 6.5905750904926972e+00 3.2038212518146160e+01 -1 1 0
1600 1 3.4447175732487860e+00 1.0326496284609988e+01 3.1970649379276828e+01 -1 -4 0
2857 1 3.8448110431491029e+00 1.8701772605250091e+00 3.1878626779017292e+01 7 -1 -1
4500 1 1.2664340291911087e+00 1.0593991643515297e+00 3.1756414294861703e+01 4 0 0
710 1 8.7676844252432118e-01 9.1409792438126498e+00 3.1750054601055623e+01 2 1 0
2894 1 1.2851024885939961e+00 6.5878005379368672e+00 2.8733769656060122e+01 1 6 0
2123 1 4.4501579905027402e+00 7.7807842158496010e+00 2.5197602597419223e+01 0 -1 0
3717 1 1.9841730806595774e+00 3.4044795281088391e+00 2.5323041739708177e+01 0 2 -1
1474 1 6.0232185877760527e+00 6.2132136660081523e+00 2.8913931573227643e+01 -1 1 0
1570 1 5.9055431939413738e+00 8.6395347561551272e+00 3.2221614948961097e+01 4 0 0
1645 1 5.7450101736677341e+00 8.9295717380218562e+00 2.9217408888066480e+01 -2 -1 0
2886 1 9.7122650470952546e-02 9.9516584431803885e+00 2.6208244491494519e+01 -2 2 0
87 1 3.8392207110859999e-04 7.3894050565461837e+00 2.4989904317071083e+01 5 0 1
132 2 0.0000000000000000e+00 1.2787731112280996e+01 2.2925086615371209e+00 0 0 0
134 2 1.2305000000000001e+00 1.3498160618518829e+01 2.2925086615371209e+00 0 0 0
169 2 2.4610000000000003e+00 1.2787731112280996e+01 2.2925086615371209e+00 0 0 0
171 2 3.6915000000000004e+00 1.3498160618518829e+01 2.2925086615371209e+00 0 0 0
214 2 4.9220000000000006e+00 1.2787731112280996e+01 2.2925086615371209e+00 0 0 0
216 2 6.1524999999999990e+00 1.3498160618518829e+01 2.2925086615371209e+00 0 0 0
130 2 0.0000000000000000e+00 1.5629449137232333e+01 2.2925086615371209e+00 0 0 0
165 2 1.2305000000000001e+00 1.4919019630994494e+01 2.2925086615371209e+00 0 0 0
167 2 2.4610000000000003e+00 1.5629449137232328e+01 2.2925086615371209e+00 0 0 0
210 2 3.6915000000000004e+00 1.4919019630994494e+01 2.2925086615371209e+00 0 0 0
212 2 4.9220000000000006e+00 1.5629449137232333e+01 2.2925086615371209e+00 0 0 0
257 2 6.1524999999999990e+00 1.4919019630994494e+01 2.2925086615371209e+00 0 0 0
161 2 0.0000000000000000e+00 1.7050308149707998e+01 2.2925086615371209e+00 0 0 0
206 2 2.4610000000000003e+00 1.7050308149707998e+01 2.2925086615371209e+00 0 0 0
253 2 4.9220000000000006e+00 1.7050308149707998e+01 2.2925086615371209e+00 0 0 0
159 2 0.0000000000000000e+00 1.9892026174659328e+01 2.2925086615371209e+00 0 0 0
163 2 1.2305000000000001e+00 1.7760737655945832e+01 2.2925086615371209e+00 0 0 0
202 2 1.2305000000000001e+00 1.9181596668421495e+01 2.2925086615371209e+00 0 0 0
204 2 2.4610000000000003e+00 1.9892026174659328e+01 2.2925086615371209e+00 0 0 0
208 2 3.6914999999999996e+00 1.7760737655945832e+01 2.2925086615371209e+00 0 0 0
249 2 3.6914999999999996e+00 1.9181596668421495e+01 2.2925086615371209e+00 0 0 0
251 2 4.9220000000000006e+00 1.9892026174659328e+01 2.2925086615371209e+00 0 0 0
196 2 0.0000000000000000e+00 2.4154603212086325e+01 2.2925086615371209e+00 0 0 0
198 2 0.0000000000000000e+00 2.1312885187134999e+01 2.2925086615371209e+00 0 0 0
200 2 1.2304999999999993e+00 2.2023314693372832e+01 2.2925086615371209e+00 0 0 0
241 2 1.2304999999999993e+00 2.3444173705848499e+01 2.2925086615371209e+00 0 0 0
243 2 2.4610000000000003e+00 2.4154603212086325e+01 2.2925086615371209e+00 0 0 0
245 2 2.4610000000000003e+00 2.1312885187134995e+01 2.2925086615371209e+00 0 0 0
247 2 3.6914999999999996e+00 2.2023314693372832e+01 2.2925086615371209e+00 0 0 0
288 2 3.6915000000000004e+00 2.3444173705848499e+01 2.2925086615371209e+00 0 0 0
290 2 4.9220000000000006e+00 2.4154603212086325e+01 2.2925086615371209e+00 0 0 0
292 2 4.9220000000000006e+00 2.1312885187134995e+01 2.2925086615371209e+00 0 0 0
294 2 6.1524999999999990e+00 2.2023314693372832e+01 2.2925086615371209e+00 0 0 0
133 2 0.0000000000000000e+00 1.2787731112280996e+01 5.5101596052955237e+00 0 0 0
170 2 2.4610000000000003e+00 1.2787731112280996e+01 5.5101596052955237e+00 0 0 0
442 2 0.0000000000000000e+00 1.2787731112280996e+01 8.7278105490508313e+00 0 0 0
443 2 1.2305000000000001e+00 1.3498160618518829e+01 8.7278105490508313e+00 0 0 0
461 2 2.4610000000000003e+00 1.2787731112280996e+01 8.7278105490508313e+00 0 0 0
462 2 3.6915000000000004e+00 1.3498160618518829e+01 8.7278105490508313e+00 0 0 0
215 2 4.9220000000000006e+00 1.2787731112280996e+01 5.5101596052955237e+00 0 0 0
484 2 4.9220000000000006e+00 1.2787731112280996e+01 8.7278105490508313e+00 0 0 0
485 2 6.1524999999999990e+00 1.3498160618518829e+01 8.7278105490508313e+00 0 0 0
131 2 0.0000000000000000e+00 1.4208590124756663e+01 5.5101596052955237e+00 0 0 0
166 2 1.2305000000000001e+00 1.4919019630994494e+01 5.5101596052955237e+00 0 0 0
168 2 2.4610000000000003e+00 1.4208590124756663e+01 5.5101596052955237e+00 0 0 0
211 2 3.6915000000000004e+00 1.4919019630994494e+01 5.5101596052955237e+00 0 0 0
441 2 0.0000000000000000e+00 1.5629449137232333e+01 8.7278105490508313e+00 0 0 0
459 2 1.2305000000000001e+00 1.4919019630994494e+01 8.7278105490508313e+00 0 0 0
460 2 2.4610000000000003e+00 1.5629449137232328e+01 8.7278105490508313e+00 0 0 0
482 2 3.6915000000000004e+00 1.4919019630994494e+01 8.7278105490508313e+00 0 0 0
213 2 4.9220000000000006e+00 1.4208590124756663e+01 5.5101596052955237e+00 0 0 0
258 2 6.1524999999999990e+00 1.4919019630994494e+01 5.5101596052955237e+00 0 0 0
483 2 4.9220000000000006e+00 1.5629449137232333e+01 8.7278105490508313e+00 0 0 0
506 2 6.1524999999999990e+00 1.4919019630994494e+01 8.7278105490508313e+00 0 0 0
162 2 0.0000000000000000e+00 1.7050308149707998e+01 5.5101596052955237e+00 0 0 0
164 2 1.2305000000000001e+00 1.6339878643470165e+01 5.5101596052955237e+00 0 0 0
207 2 2.4610000000000003e+00 1.7050308149707998e+01 5.5101596052955237e+00 0 0 0
209 2 3.6915000000000004e+00 1.6339878643470165e+01 5.5101596052955237e+00 0 0 0
457 2 0.0000000000000000e+00 1.7050308149707998e+01 8.7278105490508313e+00 0 0 0
480 2 2.4610000000000003e+00 1.7050308149707998e+01 8.7278105490508313e+00 0 0 0
254 2 4.9220000000000006e+00 1.7050308149707998e+01 5.5101596052955237e+00 0 0 0
504 2 4.9220000000000006e+00 1.7050308149707998e+01 8.7278105490508313e+00 0 0 0
160 2 0.0000000000000000e+00 1.8471167162183658e+01 5.5101596052955237e+00 0 0 0
203 2 1.2305000000000001e+00 1.9181596668421495e+01 5.5101596052955237e+00 0 0 0
205 2 2.4610000000000003e+00 1.8471167162183658e+01 5.5101596052955237e+00 0 0 0
250 2 3.6914999999999996e+00 1.9181596668421495e+01 5.5101596052955237e+00 0 0 0
456 2 0.0000000000000000e+00 1.9892026174659328e+01 8.7278105490508313e+00 0 0 0
458 2 1.2305000000000001e+00 1.7760737655945832e+01 8.7278105490508313e+00 0 0 0
478 2 1.2305000000000001e+00 1.9181596668421495e+01 8.7278105490508313e+00 0 0 0
479 2 2.4610000000000003e+00 1.9892026174659328e+01 8.7278105490508313e+00 0 0 0
481 2 3.6914999999999996e+00 1.7760737655945832e+01 8.7278105490508313e+00 0 0 0
502 2 3.6914999999999996e+00 1.9181596668421495e+01 8.7278105490508313e+00 0 0 0
252 2 4.9220000000000006e+00 1.8471167162183658e+01 5.5101596052955237e+00 0 0 0
503 2 4.9220000000000006e+00 1.9892026174659328e+01 8.7278105490508313e+00 0 0 0
201 2 1.2305000000000001e+00 2.0602455680897162e+01 5.5101596052955237e+00 0 0 0
248 2 3.6915000000000004e+00 2.0602455680897162e+01 5.5101596052955237e+00 0 0 0
197 2 0.0000000000000000e+00 2.2733744199610655e+01 5.5101596052955237e+00 0 0 0
199 2 0.0000000000000000e+00 2.1312885187134999e+01 5.5101596052955237e+00 0 0 0
242 2 1.2304999999999993e+00 2.3444173705848499e+01 5.5101596052955237e+00 0 0 0
244 2 2.4610000000000003e+00 2.2733744199610655e+01 5.5101596052955237e+00 0 0 0
246 2 2.4610000000000003e+00 2.1312885187134995e+01 5.5101596052955237e+00 0 0 0
289 2 3.6915000000000004e+00 2.3444173705848499e+01 5.5101596052955237e+00 0 0 0
475 2 0.0000000000000000e+00 2.4154603212086325e+01 8.7278105490508313e+00 0 0 0
476 2 0.0000000000000000e+00 2.1312885187134999e+01 8.7278105490508313e+00 0 0 0
477 2 1.2304999999999993e+00 2.2023314693372832e+01 8.7278105490508313e+00 0 0 0
498 2 1.2304999999999993e+00 2.3444173705848499e+01 8.7278105490508313e+00 0 0 0
499 2 2.4610000000000003e+00 2.4154603212086325e+01 8.7278105490508313e+00 0 0 0
500 2 2.4610000000000003e+00 2.1312885187134995e+01 8.7278105490508313e+00 0 0 0
501 2 3.6914999999999996e+00 2.2023314693372832e+01 8.7278105490508313e+00 0 0 0
522 2 3.6915000000000004e+00 2.3444173705848499e+01 8.7278105490508313e+00 0 0 0
291 2 4.9220000000000006e+00 2.2733744199610655e+01 5.5101596052955237e+00 0 0 0
293 2 4.9220000000000006e+00 2.1312885187134995e+01 5.5101596052955237e+00 0 0 0
523 2 4.9220000000000006e+00 2.4154603212086325e+01 8.7278105490508313e+00 0 0 0
524 2 4.9220000000000006e+00 2.1312885187134995e+01 8.7278105490508313e+00 0 0 0
525 2 6.1524999999999990e+00 2.2023314693372832e+01 8.7278105490508313e+00 0 0 0
1450 1 4.7453254208087055e+00 1.3067950636916951e+01 1.1694587654491560e+01 4 1 0
2918 1 4.8839912598729081e+00 1.5911175130606157e+01 1.0946559664924205e+01 -3 1 0
812 1 4.2501391628921130e+00 2.1081057234551711e+01 1.4270057890997093e+01 1 -2 1
3637 1 2.4501497872985949e+00 1.7230896273410206e+01 1.1598796591196445e+01 1 0 0
2282 1 2.2841779750846860e+00 1.9855659613243748e+01 1.1234998492254409e+01 -5 3 0
2940 1 4.6962569712673217e+00 2.1496907134583743e+01 1.1517411460576692e+01 2 -1 0
2159 1 4.4614103559418146e+00 1.8477593633975648e+01 1.5151835758234807e+01 0 3 1
3654 1 1.8459573993014955e+00 2.2361024618084301e+01 1.5315156609217166e+01 0 -1 0
1477 1 2.1473338752440889e+00 1.7289603394256105e+01 1.4383961481873845e+01 1 1 -1
2374 1 4.4805439365175586e+00 1.3432134052179231e+01 1.4392515728535733e+01 1 3 -1
2368 1 1.9850907111482994e+00 1.4818452780975125e+01 1.5164966511149027e+01 2 1 0
3780 1 4.7718909749479206e+00 2.4364501842712119e+01 1.1304762347849209e+01 -2 -1 -1
1627 1 9.9462959296099510e-02 1.3113203939602895e+01 1.4317764731742445e+01 3 2 0
2845 1 1.9881292769440817e-01 2.3876388900725164e+01 1.0884475308202370e+01 0 3 0
2956 1 8.2527376949804568e-02 1.3328577221804469e+01 1.1754275722329046e+01 -3 1 0
3143 1 6.0761907868560179e-02 1.6027394531304598e+01 1.1115480406330546e+01 -1 0 0
1462 1 2.3481570815104016e+00 1.4634601379060305e+01 1.7812440039716193e+01 0 1 0
625 1 4.5019432571701374e+00 1.3200633078396329e+01 1.8775927671132663e+01 -1 0 0
3629 1 4.8838156023918842e+00 2.1016851025341225e+01 2.1489773762225088e+01 4 -1 1
1476 1 2.2660722633424220e+00 1.7151554358081782e+01 1.8774121570958002e+01 1 2 0
2196 1 4.7038638562959827e+00 1.8420811052610709e+01 1.7940235907131996e+01 2 -3 0
3663 1 4.3765720926189289e+00 2.3750793913566856e+01 2.2378862564657609e+01 1 -3 0
3848 1 4.3144540063393206e+00 2.0975090011801552e+01 1.8898593469395419e+01 -2 -2 0
1473 1 1.9621545582016835e+00 2.2416885398038669e+01 1.8135492558347543e+01 4 -1 0
3758 1 4.4179529039150216e+00 1.5681286537217328e+01 2.2514851697828622e+01 2 5 0
3094 1 4.2887489234752314e+00 1.3115362654452975e+01 2.1401041220419373e+01 1 3 0
788 1 2.3571274875480897e+00 1.7144170551079238e+01 2.1605591716897180e+01 4 0 0
54 1 2.5166789938037710e+00 1.9984380215410596e+01 2.2568804724024215e+01 1 -1 -1
2294 1 1.1711277900722133e-01 2.1040455353457393e+01 2.1611492596612482e+01 -3 4 -1
698 1 2.3393876052322291e-01 2.3643152375473484e+01 2.2458454371696895e+01 -1 3 -1
4463 1 1.2175975081770939e-01 1.3078764447583554e+01 1.8706984150604438e+01 1 2 0
18 1 1.7629142845725387e-01 1.5577825606888130e+01 2.2709379137692540e+01 0 0 -1
577 1 1.3236610021012278e-02 1.8220700726430007e+01 1.7854442277229985e+01 -1 -1 -1
1370 1 1.4181342885629217e-01 1.2993682949182423e+01 2.1408762510876585e+01 -3 2 -1
876 1 1.9482524314777492e+00 1.3978885724049315e+01 2.6308040687627788e+01 -1 3 0
712 1 9.8344182220045584e-01 1.4792016541888238e+01 2.8953579671296186e+01 -2 -3 0
2367 1 4.0803050147333240e+00 1.5670210001544996e+01 2.5175433367983704e+01 1 3 0
2862 1 3.5667096278826786e+00 2.1377987199374090e+01 3.1824000342338152e+01 -2 -2 0
611 1 4.3425819219332604e+00 1.8288925603489247e+01 2.6101881119253772e+01 -1 1 0
1581 1 3.4117782875604030e+00 1.8708909024015345e+01 2.8950641356243601e+01 4 -1 1
2946 1 1.0221925539470467e+00 1.7599512194397928e+01 2.9174401197559035e+01 1 -1 0
2976 1 3.8610188676987844e+00 2.1671379771364339e+01 2.8758768113059435e+01 -2 4 0
768 1 1.4878919441076284e+00 2.3182885075086791e+01 2.9099784331580000e+01 3 1 0
2965 1 2.4873069277109496e+00 2.2038187186311919e+01 2.6217161809706496e+01 1 0 0
4445 1 2.0226573889294199e+00 1.9420526242203525e+01 2.5110977795877531e+01 4 2 0
2128 1 3.7319248998125856e+00 1.3333807678797896e+01 2.9190104179119984e+01 0 -1 0
642 1 8.6341600510315242e-01 1.4782373810516942e+01 3.1980629644285330e+01 -1 0 -1
3809 1 3.1446402924136692e+00 1.3161682275311207e+01 3.1959619357160221e+01 0 2 0
4436 1 3.4468178117482320e+00 1.8592109327017113e+01 3.2002050157390130e+01 -1 0 -1
72 1 8.1082824940812437e-01 1.7467183641998716e+01 3.2235065013541728e+01 3 1 0
840 1 1.0643964515348328e+00 2.3116962672510084e+01 3.1854166190686978e+01 -2 -1 0
2938 1 5.9331251222819521e+00 1.7490047879434531e+01 2.9343752269932999e+01 -3 -1 0
3096 1 4.3615740877048390e+00 2.3607844598005624e+01 2.5330616666550966e+01 -2 1 0
3796 1 5.7660075575628724e+00 1.7068312867646942e+01 3.2030995383963216e+01 0 -1 -1
652 1 6.0511300848251919e+00 2.3004850587632387e+01 3.1663464246911936e+01 0 3 0
842 1 4.7777600610905500e-03 2.3241832476284646e+01 2.5227006359964310e+01 3 -3 0
781 1 5.9978797202476963e+00 1.4865074437648325e+01 2.8850896943161828e+01 -2 0 -1
4539 1 5.9891823009002430e+00 1.4372637045410459e+01 3.2222358434858023e+01 -2 2 0
1429 1 1.1299396059008870e-02 1.8117838845136887e+01 2.6426397039742351e+01 1 -2 -1
891 2 0.0000000000000000e+00 2.5575462224561992e+01 2.2925086615371209e+00 0 0 0
893 2 1.2305000000000001e+00 2.6285891730799833e+01 2.2925086615371209e+00 0 0 0
901 2 1.2305000000000010e+00 2.7706750743275496e+01 2.2925086615371209e+00 0 0 0
905 2 2.4610000000000003e+00 2.5575462224561992e+01 2.2925086615371209e+00 0 0 0
907 2 3.6914999999999991e+00 2.6285891730799833e+01 2.2925086615371209e+00 0 0 0
923 2 3.6914999999999996e+00 2.7706750743275496e+01 2.2925086615371209e+00 0 0 0
927 2 4.9220000000000006e+00 2.5575462224561992e+01 2.2925086615371209e+00 0 0 0
953 2 6.1524999999999990e+00 2.7706750743275496e+01 2.2925086615371209e+00 0 0 0
889 2 0.0000000000000000e+00 2.8417180249513333e+01 2.2925086615371209e+00 0 0 0
903 2 2.4610000000000003e+00 2.8417180249513326e+01 2.2925086615371209e+00 0 0 0
925 2 4.9220000000000006e+00 2.8417180249513336e+01 2.2925086615371209e+00 0 0 0
897 2 0.0000000000000000e+00 2.9838039261988989e+01 2.2925086615371209e+00 0 0 0
899 2 1.2304999999999993e+00 3.0548468768226829e+01 2.2925086615371209e+00 0 0 0
919 2 2.4610000000000003e+00 2.9838039261988989e+01 2.2925086615371209e+00 0 0 0
921 2 3.6915000000000004e+00 3.0548468768226829e+01 2.2925086615371209e+00 0 0 0
949 2 4.9220000000000006e+00 2.9838039261988989e+01 2.2925086615371209e+00 0 0 0
895 2 0.0000000000000000e+00 3.2679757286940330e+01 2.2925086615371209e+00 0 0 0
915 2 1.2304999999999993e+00 3.1969327780702493e+01 2.2925086615371209e+00 0 0 0
945 2 3.6914999999999996e+00 3.1969327780702493e+01 2.2925086615371209e+00 0 0 0
911 2 0.0000000000000000e+00 3.4100616299415996e+01 2.2925086615371209e+00 0 0 0
913 2 1.2305000000000010e+00 3.4811045805653833e+01 2.2925086615371209e+00 0 0 0
917 2 2.4610000000000003e+00 3.2679757286940337e+01 2.2925086615371209e+00 0 0 0
941 2 2.4609999999999985e+00 3.4100616299415996e+01 2.2925086615371209e+00 0 0 0
943 2 3.6915000000000018e+00 3.4811045805653833e+01 2.2925086615371209e+00 0 0 0
947 2 4.9220000000000015e+00 3.2679757286940337e+01 2.2925086615371209e+00 0 0 0
979 2 4.9220000000000006e+00 3.4100616299415996e+01 2.2925086615371209e+00 0 0 0
937 2 1.2304999999999993e+00 3.6231904818129486e+01 2.2925086615371209e+00 0 0 0
975 2 3.6914999999999996e+00 3.6231904818129486e+01 2.2925086615371209e+00 0 0 0
890 2 0.0000000000000000e+00 2.6996321237037659e+01 5.5101596052955237e+00 0 0 0
892 2 0.0000000000000000e+00 2.5575462224561992e+01 5.5101596052955237e+00 0 0 0
894 2 1.2305000000000001e+00 2.4865032718324155e+01 5.5101596052955237e+00 0 0 0
902 2 1.2305000000000010e+00 2.7706750743275496e+01 5.5101596052955237e+00 0 0 0
904 2 2.4610000000000003e+00 2.6996321237037659e+01 5.5101596052955237e+00 0 0 0
906 2 2.4610000000000003e+00 2.5575462224561992e+01 5.5101596052955237e+00 0 0 0
908 2 3.6914999999999996e+00 2.4865032718324166e+01 5.5101596052955237e+00 0 0 0
924 2 3.6914999999999996e+00 2.7706750743275496e+01 5.5101596052955237e+00 0 0 0
1205 2 0.0000000000000000e+00 2.5575462224561992e+01 8.7278105490508313e+00 0 0 0
1206 2 1.2305000000000001e+00 2.6285891730799833e+01 8.7278105490508313e+00 0 0 0
1210 2 1.2305000000000010e+00 2.7706750743275496e+01 8.7278105490508313e+00 0 0 0
1212 2 2.4610000000000003e+00 2.5575462224561992e+01 8.7278105490508313e+00 0 0 0
1213 2 3.6914999999999991e+00 2.6285891730799833e+01 8.7278105490508313e+00 0 0 0
1221 2 3.6914999999999996e+00 2.7706750743275496e+01 8.7278105490508313e+00 0 0 0
926 2 4.9220000000000006e+00 2.6996321237037659e+01 5.5101596052955237e+00 0 0 0
928 2 4.9220000000000006e+00 2.5575462224561992e+01 5.5101596052955237e+00 0 0 0
930 2 6.1524999999999990e+00 2.4865032718324155e+01 5.5101596052955237e+00 0 0 0
954 2 6.1524999999999990e+00 2.7706750743275496e+01 5.5101596052955237e+00 0 0 0
1223 2 4.9220000000000006e+00 2.5575462224561992e+01 8.7278105490508313e+00 0 0 0
1236 2 6.1524999999999990e+00 2.7706750743275496e+01 8.7278105490508313e+00 0 0 0
1204 2 0.0000000000000000e+00 2.8417180249513333e+01 8.7278105490508313e+00 0 0 0
1211 2 2.4610000000000003e+00 2.8417180249513326e+01 8.7278105490508313e+00 0 0 0
1222 2 4.9220000000000006e+00 2.8417180249513336e+01 8.7278105490508313e+00 0 0 0
896 2 0.0000000000000000e+00 3.1258898274464656e+01 5.5101596052955237e+00 0 0 0
898 2 0.0000000000000000e+00 2.9838039261988989e+01 5.5101596052955237e+00 0 0 0
900 2 1.2304999999999993e+00 2.9127609755751163e+01 5.5101596052955237e+00 0 0 0
918 2 2.4609999999999985e+00 3.1258898274464656e+01 5.5101596052955237e+00 0 0 0
920 2 2.4610000000000003e+00 2.9838039261988989e+01 5.5101596052955237e+00 0 0 0
922 2 3.6914999999999991e+00 2.9127609755751152e+01 5.5101596052955237e+00 0 0 0
1208 2 0.0000000000000000e+00 2.9838039261988989e+01 8.7278105490508313e+00 0 0 0
1209 2 1.2304999999999993e+00 3.0548468768226829e+01 8.7278105490508313e+00 0 0 0
1219 2 2.4610000000000003e+00 2.9838039261988989e+01 8.7278105490508313e+00 0 0 0
1220 2 3.6915000000000004e+00 3.0548468768226829e+01 8.7278105490508313e+00 0 0 0
948 2 4.9219999999999979e+00 3.1258898274464656e+01 5.5101596052955237e+00 0 0 0
950 2 4.9220000000000006e+00 2.9838039261988989e+01 5.5101596052955237e+00 0 0 0
952 2 6.1524999999999981e+00 2.9127609755751152e+01 5.5101596052955237e+00 0 0 0
1234 2 4.9220000000000006e+00 2.9838039261988989e+01 8.7278105490508313e+00 0 0 0
916 2 1.2304999999999993e+00 3.1969327780702493e+01 5.5101596052955237e+00 0 0 0
946 2 3.6914999999999996e+00 3.1969327780702493e+01 5.5101596052955237e+00 0 0 0
1207 2 0.0000000000000000e+00 3.2679757286940330e+01 8.7278105490508313e+00 0 0 0
1217 2 1.2304999999999993e+00 3.1969327780702493e+01 8.7278105490508313e+00 0 0 0