
# Create simulation box and atoms

read_data data.ML_graphite_1atm_240K
  orthogonal box = (0 0 1.76685) to (49.22 49.0196 31.8685)
  8 by 4 by 4 MPI processor grid
  reading atoms ...
  4545 atoms
  reading velocities ...
  4545 velocities
group water type 1
1785 atoms in group water
group graphite type 2
2760 atoms in group graphite

# Define potential

pair_style sw
pair_coeff * * MLC_e.sw mW C


# Fix graphite atoms in place

fix 5 graphite setforce 0.0 0.0 0.0
velocity graphite set 0.0 0.0 0.0


# Equilibration of molecular water

# Add velocity/set timestep

velocity	    water create ${TEMP} ${SEED} rot yes dist gaussian
velocity	    water create 240 ${SEED} rot yes dist gaussian
velocity	    water create 240 19577 rot yes dist gaussian
timestep	    5.0

# Define output

compute			1 water msd
compute			3 water temp
thermo	    	50
thermo_style	custom step temp press vol etotal ke pe c_1[4] c_3

# Neighbor lists

neigh_modify    delay 0 every 1 check yes

# Set fixes

fix             1 water momentum 10 linear 1 1 1 rescale
fix             2 water nve
fix             3 water temp/csvr ${TEMP} ${TEMP} 500.0 ${SEED}
fix             3 water temp/csvr 240 ${TEMP} 500.0 ${SEED}
fix             3 water temp/csvr 240 240 500.0 ${SEED}
fix             3 water temp/csvr 240 240 500.0 19577
fix             4 water press/berendsen z ${PRES} ${PRES} 1000.0 modulus 20000
fix             4 water press/berendsen z 1 ${PRES} 1000.0 modulus 20000
fix             4 water press/berendsen z 1 1 1000.0 modulus 20000

# Run 0.5 ns equilibration

dump		    1 all atom 2000 ${DIR}/eq.${NAME}-${TEMP}.dump
dump		    1 all atom 2000 run_19/eq.${NAME}-${TEMP}.dump
dump		    1 all atom 2000 run_19/eq.het_freeze_19-${TEMP}.dump
dump		    1 all atom 2000 run_19/eq.het_freeze_19-240.dump

reset_timestep  0

run	            100000
Neighbor list info ...
  update every 1 steps, delay 0 steps, check yes
  max neighbors/atom: 2000, page size: 100000
  master list distance cutoff = 6.67472
  ghost atom cutoff = 6.67472
  binsize = 3.33736, bins = 15 15 10
  1 neighbor lists, perpetual/occasional/extra = 1 0 0
  (1) pair sw, perpetual
      attributes: full, newton on
      pair build: full/bin/atomonly
      stencil: full/bin/3d
      bin: standard
Per MPI rank memory allocation (min/avg/max) = 4.073 | 4.194 | 4.482 Mbytes
Step Temp Press Volume TotEng KinEng PotEng c_1[4] c_3 
       0    94.225352   -657.89738    72627.636   -17236.286    1276.2636    -18512.55            0          240 
      50    94.506678   -42.734015    72672.993   -17226.867    1280.0741   -18506.941   0.49019034    240.71656 
     100    95.457322   -394.76793    72719.859   -17199.002    1292.9504   -18491.952    0.8412495    243.13793 
     150    98.177448   -719.00657    72738.327   -17204.663     1329.794   -18534.457    1.0448134    250.06633 
     200    93.335368   -626.05488    72723.924   -17226.545     1264.209   -18490.754    1.2862533    237.73314 
     250    95.093044   -523.80949    72726.257   -17196.699    1288.0163   -18484.716    1.5271586    242.21008 
     300    96.880469   -598.59315    72762.774   -17168.242    1312.2267   -18480.469    1.7584267    246.76281 
     350    96.578246   -408.65819    72758.855   -17165.024    1308.1331   -18473.157    2.0191178    245.99302 
     400    97.370692   -431.02426    72790.845   -17182.012    1318.8666   -18500.879    2.2814523    248.01145 
     450    93.685719   -413.02702    72753.909   -17243.369    1268.9544   -18512.323    2.4949636    238.62551 
     500     95.08117   -275.80733    72747.397   -17263.796    1287.8555   -18551.652     2.722867    242.17984 
     550    91.251665   -286.18981    72800.399    -17285.15    1235.9856   -18521.136    3.0555592    232.42577 
     600    92.621142   -507.60587    72821.609   -17265.323    1254.5349   -18519.858    3.2760706    235.91394 
     650    91.356452   -693.14431    72823.252   -17310.647     1237.405   -18548.052    3.4436299    232.69267 
     700    93.052112    -217.5552    72920.172   -17281.654    1260.3723   -18542.027    3.6085784    237.01166 
     750    92.320888   -522.63249    72981.411   -17260.893     1250.468   -18511.361     3.940601    235.14917 
     800    95.314261   -508.78522     72992.03   -17234.965    1291.0127   -18525.978    4.1590045    242.77354 
     850     98.64069   -314.69014    72946.077   -17210.353    1336.0685   -18546.422    4.3942263    251.24624 
     900    97.549179   -986.53926    72944.639   -17189.744    1321.2842   -18511.028    4.6053514    248.46607 
     950    94.766522   -804.62532    72941.448   -17216.231    1283.5937   -18499.825    4.8762238    241.37841 
    1000    93.275483   -373.67908      72909.7   -17264.338    1263.3978   -18527.736    5.1441845     237.5806 
    1050    90.904523   -619.69933    72849.994   -17282.774    1231.2837   -18514.058    5.3995999    231.54157 
    1100     92.21502   -668.89098    72844.376   -17248.542    1249.0341   -18497.576    5.6180469    234.87951 
    1150    93.923616    -291.4311    72858.967   -17257.467    1272.1767   -18529.644    5.8846656    239.23145 
    1200    95.478972   -161.03783    72900.076   -17240.689    1293.2437   -18533.933    6.2293285    243.19308 
    1250    94.952049   -439.38161    72891.287   -17213.925    1286.1066   -18500.032    6.6363684    241.85096 
    1300    91.430274   -866.56392    72829.489   -17239.019    1238.4049   -18477.424    6.8950443     232.8807 
    1350     94.54569   -513.02991    72742.933    -17224.82    1280.6025   -18505.423    7.0762907    240.81593 
    1400    93.003526   -386.29759    72766.168   -17204.668    1259.7142   -18464.382    7.3704086    236.88791 
    1450    93.935056   -471.86236    72791.207   -17203.972    1272.3316   -18476.304    7.5401305    239.26059 
    1500    94.122075   -778.47824    72805.751   -17199.128    1274.8648   -18473.993    7.8038391    239.73695 
    1550    93.986186   -390.20559    72766.668   -17205.211    1273.0242   -18478.235    8.1254988    239.39082 
    1600    97.059933   -581.60544    72710.282   -17192.615    1314.6575   -18507.272    8.3287189    247.21992 
    1650    93.658373   -363.30319    72721.111   -17187.812     1268.584   -18456.396    8.5812356    238.55586 
    1700    94.429883   -470.48518    72722.444   -17187.515     1279.034   -18466.549    8.7726612    240.52096 
    1750      96.5008   -544.56929    72700.104   -17206.853    1307.0841   -18513.937    8.9977753    245.79576 
    1800    92.813322    -664.1189    72668.024    -17241.46     1257.138   -18498.598    9.1812629    236.40344 
    1850    97.281574    -850.6188    72637.864   -17234.134    1317.6595   -18551.793    9.2564198    247.78446 
    1900    96.495014   -431.94306    72653.398   -17245.443    1307.0058   -18552.448    9.3231184    245.78102 
    1950    93.376005   -527.94224    72705.003   -17236.876    1264.7594   -18501.635    9.4684536    237.83664 
    2000    94.392045   -51.851347    72747.235   -17192.087    1278.5215   -18470.609    9.6832629    240.42458 
    2050     92.70904   -355.05995    72817.017   -17243.898    1255.7255   -18499.624    9.8475629    236.13783 
    2100    95.013192     -138.244    72849.245    -17227.44    1286.9348   -18514.374    10.038062    242.00669 
    2150     96.61014   -465.02776    72876.715   -17205.282    1308.5651   -18513.847    10.249925    246.07426 
    2200    93.723143   -664.11708    72835.975   -17212.325    1269.4613   -18481.786    10.503313    238.72083 
    2250    96.217614   -492.81676    72762.681   -17228.792    1303.2484    -18532.04    10.763101    245.07446 
    2300    95.052526   -727.59585    72669.223   -17236.866    1287.4675   -18524.334    10.979079    242.10688 
    2350    96.996686   -603.73094    72686.931   -17199.216    1313.8008   -18513.017    11.137994    247.05882 
    2400    96.617921   -267.81997    72659.012     -17172.9    1308.6705    -18481.57    11.232673    246.09408 
    2450    96.604572   -242.38209      72583.6   -17160.507    1308.4897   -18468.997    11.473832    246.06008 
    2500    96.465297   -253.53668    72669.323   -17160.769    1306.6032   -18467.372    11.705338    245.70533 
    2550    100.62501   -365.46747    72724.762   -17145.104    1362.9457   -18508.049    11.960813    256.30048 
    2600    96.054023   -236.61534    72719.178   -17162.002    1301.0326   -18463.035    12.233143    244.65778 
    2650    97.368947   -581.31188    72756.517   -17140.437     1318.843    -18459.28     12.45705      248.007 
    2700    97.224692   -413.89266    72771.205   -17124.229    1316.8891   -18441.119    12.636194    247.63957 
    2750    98.769866   -850.55356    72658.984   -17137.019    1337.8182   -18474.838    12.883304    251.57526 
    2800    99.858061    122.21896    72705.848   -17105.667    1352.5576   -18458.225    12.959809    254.34699 
    2850    99.398961   -58.371153    72751.894   -17162.706    1346.3391   -18509.045    13.214209    253.17762 
    2900    98.878313   -298.24697    72752.815    -17147.21    1339.2871   -18486.497    13.537449    251.85149 
    2950    95.172712   -112.39574    72786.683   -17147.485    1289.0954   -18436.581    13.734823    242.41301 
    3000    96.143443   -418.57282    72834.507   -17175.984    1302.2438   -18478.228    14.038676    244.88554 
    3050    93.289547   -282.07591    72866.843   -17189.167    1263.5883   -18452.755    14.478999    237.61642 
    3100    96.156753   -813.59108    72855.581   -17230.363    1302.4241   -18532.787    14.766944    244.91944 
    3150    95.460436   -731.53775    72772.203   -17243.097    1292.9926   -18536.089    14.810727    243.14586 
    3200     95.56863   -478.74149    72718.807   -17243.036    1294.4581   -18537.494    14.911237    243.42144 
    3250    92.420275   -822.47909    72767.023   -17258.145    1251.8142   -18509.959    15.103194    235.40231 
    3300    91.969521   -451.52733    72743.151   -17253.218    1245.7088   -18498.927    15.206509    234.25421 
    3350    93.579894   -849.12762    72659.929   -17258.409     1267.521    -18525.93    15.422632    238.35596 
    3400    92.337876   -420.49048    72626.122   -17283.061    1250.6981   -18533.759    15.820974    235.19244 
    3450    92.437071   -431.56807    72567.845   -17298.147    1252.0417   -18550.189    15.995243     235.4451 
    3500    91.287474   -325.26503    72557.628   -17282.915    1236.4707   -18519.386     16.18252    232.51698 
    3550    91.335209   -785.91016    72572.554   -17289.488    1237.1172   -18526.605    16.358094    232.63856 
    3600    93.059446   -590.07448    72593.173   -17264.241    1260.4717   -18524.713     16.72061    237.03034 
    3650    93.455962   -307.45196    72607.822   -17211.929    1265.8424   -18477.771    16.830122     238.0403 
    3700    96.750344   -677.22109     72646.15   -17215.908    1310.4641   -18526.372     17.11416    246.43137 
    3750    93.214383   -82.926802    72679.983   -17211.073    1262.5703   -18473.643    17.367333    237.42498 
    3800     93.46637   -466.71149    72721.007   -17210.372    1265.9834   -18476.355    17.487353    238.06681 
    3850    92.812705   -409.50514    72696.606   -17205.338    1257.1296   -18462.468    17.787456    236.40187 
    3900    91.096903   -624.88049    72685.623   -17247.293    1233.8894   -18481.182    18.001172    232.03157 
    3950    93.415855   -322.97257    72591.355   -17225.616    1265.2992   -18490.915    18.337201    237.93814 
    4000     93.61781   -150.79011    72588.884   -17244.804    1268.0346   -18512.838    18.529116    238.45254 
    4050    92.403612   -600.99237    72518.503   -17219.623    1251.5885   -18471.212    18.842845    235.35987 
    4100    93.561017   -687.66464    72483.659   -17237.701    1267.2653   -18504.966    19.104051    238.30788 
    4150    94.609772   -587.59764    72429.168   -17209.719    1281.4705    -18491.19    19.315261    240.97915 
    4200    98.404003   -458.94512    72460.437   -17190.603    1332.8626   -18523.465    19.731573    250.64338 
    4250    94.157861   -242.26551     72492.12    -17176.55    1275.3495   -18451.899    19.964624    239.82809 
    4300    94.665434   -295.95538    72451.457   -17193.434    1282.2245   -18475.659    20.216366    241.12093 
    4350    95.179151   -299.65376    72486.779   -17175.271    1289.1826   -18464.453    20.366312    242.42941 
    4400    96.226949    -471.3434    72532.605   -17172.141    1303.3749   -18475.516     20.71376    245.09824 
    4450    95.555445   -125.89182    72520.913   -17184.581    1294.2795    -18478.86    21.142161    243.38786 
    4500    95.553712   -476.97941    72484.668   -17221.449     1294.256   -18515.705    21.457049    243.38345 
    4550    96.879941   -527.69115    72455.099   -17218.992    1312.2195   -18531.212    21.606131    246.76146 
    4600    95.347457   -695.28539    72427.794   -17192.098    1291.4623    -18483.56    21.640645     242.8581 
    4650    95.539354   -441.24419    72352.236   -17174.399    1294.0615   -18468.461     21.93685    243.34687 
    4700    98.247198   -407.52621    72401.266   -17199.883    1330.7387   -18530.622    22.180697    250.24398 
    4750    93.961723    -349.7195     72380.52   -17218.627    1272.6928   -18491.319    22.556142    239.32852 
    4800    93.844569   -596.99216    72376.098    -17203.39     1271.106   -18474.496    22.833825    239.03011 
    4850    95.589346   -312.49057    72401.666   -17187.953    1294.7387   -18482.692    23.077899    243.47421 
    4900    95.180777   -547.93232    72432.783   -17221.308    1289.2047   -18510.513    23.386359    242.43355 
    4950    92.097896    -58.02187    72429.999   -17265.601    1247.4477   -18513.048    23.593854    234.58119 
    5000    93.589748   -388.69723    72522.815   -17242.572    1267.6545   -18510.227    23.758094    238.38106 
    5050    95.735533   -1.2964129    72584.903   -17231.484    1296.7187   -18528.203    23.834312    243.84656 
    5100    94.892316   -242.03205    72683.594   -17202.088    1285.2975   -18487.386    24.260615    241.69881 
    5150    96.309949   -278.15898    72749.392   -17191.927    1304.4991   -18496.426    24.480209    245.30965 
    5200    96.555895   -164.73439    72754.863   -17181.328    1307.8304   -18489.159    24.814239    245.93609 
    5250    95.439705   -759.77206    72751.126   -17186.984    1292.7118   -18479.696    24.885143    243.09306 
    5300    97.419951   -431.67599    72802.099   -17173.592    1319.5338   -18493.125    25.194088    248.13692 
    5350    93.624955   -497.41496    72762.664   -17195.266    1268.1314   -18463.397    25.590686    238.47074 
    5400    97.004087   -11.317371    72757.327   -17210.015     1313.901   -18523.916    25.558554    247.07767 
    5450    95.527213   -755.82548    72822.223   -17218.523    1293.8971    -18512.42    25.880964    243.31595 
    5500    95.054113   -490.16331    72838.053   -17180.608     1287.489   -18468.097    26.123675    242.11092 
    5550    97.505257   -128.64139    72824.718   -17189.222    1320.6893   -18509.912    26.289939     248.3542 
    5600    92.544055   -456.90144    72847.945    -17194.83    1253.4908   -18448.321    26.455929    235.71759 
    5650    96.468276   -745.06531    72807.541   -17188.877    1306.6436   -18495.521    26.670278    245.71292 
    5700     97.19574   -384.95019    72825.862   -17196.677    1316.4969   -18513.174    26.882208    247.56583 
    5750    94.978717    12.024618    72858.884   -17206.371    1286.4678   -18492.838    27.288126    241.91888 
    5800    97.273151   -405.51773     72894.93   -17164.327    1317.5455   -18481.872     27.48029      247.763 
    5850    92.945274   -499.02186    72870.734   -17190.683    1258.9252   -18449.608    27.813862    236.73953 
    5900    96.020987   -175.62125     72883.16   -17189.521    1300.5852   -18490.106    27.890836    244.57364 
    5950    95.050449   -48.476033    72887.377    -17186.19    1287.4394    -18473.63    28.362971    242.10159 
    6000    95.589851   -549.60523     72917.46   -17185.156    1294.7455   -18479.902    28.370247    243.47549 
    6050    94.240098   -614.42954     72830.43   -17198.064    1276.4634   -18474.527    28.647381    240.03756 
    6100    94.806539   -291.66481    72816.306   -17184.563    1284.1357   -18468.699    28.836482    241.48033 
    6150     95.38792   -229.68444    72837.624   -17177.162    1292.0104   -18469.172    29.037859    242.96116 
    6200    95.912884    -22.47229    72851.199   -17144.508    1299.1209   -18443.629    29.353027    244.29829 
    6250    94.508132    -375.5114    72896.279   -17183.813    1280.0938   -18463.907    29.634434    240.72026 
    6300    93.131648   -517.28457    72915.734   -17215.743    1261.4496   -18477.192    29.969692    237.21424 
    6350    94.653995    -762.6002    72916.787   -17213.443    1282.0695   -18495.512    30.437306    241.09179 
    6400    93.994234   -632.14154    72841.717   -17238.598    1273.1332   -18511.731    30.758709    239.41132 
    6450    90.664183    -469.8783    72866.627   -17254.883    1228.0283   -18482.912    31.015264     230.9294 
    6500    90.684715   -445.68046    72822.266   -17262.097    1228.3064   -18490.403    31.205479     230.9817 
    6550    94.315837   -475.02714    72824.956   -17246.721    1277.4892    -18524.21    31.434735    240.23047 
    6600    92.648158   -526.25422    72866.818   -17220.897    1254.9008   -18475.798    31.810009    235.98275 
    6650    95.154971   -216.68966    72830.185   -17226.377    1288.8551   -18515.232    31.833523    242.36782 
    6700    94.623102   -444.24459    72815.554    -17216.81    1281.6511   -18498.461    32.136012     241.0131 
    6750     93.09514    -384.8293     72830.68   -17257.929    1260.9551   -18518.885    32.554373    237.12125 
    6800    90.883156    -257.3265     72849.69    -17277.92    1230.9943   -18508.914    32.700206    231.48714 
    6850    92.567033   -843.16063    72886.608   -17254.461     1253.802   -18508.263    33.044319    235.77612 
    6900    95.848436   -579.06826    72845.627   -17216.307     1298.248   -18514.554    33.160853    244.13413 
    6950    96.913764   -440.12579    72831.479   -17210.633    1312.6776   -18523.311    33.561867    246.84761 
    7000    94.255606   -641.35851    72823.797     -17244.4    1276.6734   -18521.073    33.829545    240.07706 
    7050    93.967465   -579.13443    72814.633   -17244.697    1272.7706   -18517.467    34.103258    239.34314 
    7100    94.198387   -785.06172    72771.043   -17220.604    1275.8984   -18496.502     34.45416    239.93132 
    7150    95.399682   -460.97017    72791.482   -17224.007    1292.1697   -18516.177    34.797889    242.99112 
    7200    94.778919    -173.5905    72859.599   -17246.161    1283.7616   -18529.922    34.849239    241.40998 
    7250    92.958181   -712.40867    72924.276   -17281.683    1259.1001   -18540.784    35.064432    236.77241 
    7300    94.236017   -414.41589    72974.476   -17248.477    1276.4081   -18524.885    35.209739    240.02717 
    7350    95.403221   -306.24731    73000.661   -17260.306    1292.2176   -18552.523    35.424162    243.00013 
    7400    93.766445    -432.7795    73069.767   -17235.669    1270.0478   -18505.716    35.578588    238.83112 
    7450     93.54907   -175.10129     73064.13   -17243.052    1267.1035   -18510.156    35.801968    238.27745 
    7500    96.178901    -354.8546    73044.502   -17228.756    1302.7241    -18531.48    36.041676    244.97585 
    7550    95.103626   -278.21671    73061.774   -17254.371    1288.1597    -18542.53    36.477006    242.23704 
    7600    92.333796   -670.87114    73033.003   -17277.623    1250.6429   -18528.266    36.595029    235.18205 
    7650    92.009411   -537.78039    73036.038   -17281.656    1246.2492   -18527.905    36.630867    234.35581 
    7700    97.315707   -732.96224    72987.622   -17221.153    1318.1219   -18539.275    36.679873     247.8714 
    7750    90.489571   -705.79964     72927.48   -17227.718    1225.6632   -18453.381    37.077669    230.48465 
    7800    91.393707   -691.89793    72879.267   -17234.552    1237.9096   -18472.461     37.42813    232.78756 
    7850    96.436363   -727.47005    72859.492   -17199.479    1306.2113   -18505.691    37.576612    245.63163 
    7900    96.625543   -433.33234    72876.401   -17240.257    1308.7737   -18549.031    37.902512    246.11349 
    7950    93.995015   -932.85027    72806.014   -17237.919    1273.1438   -18511.063    38.201626    239.41331 
    8000    92.104004   -516.81616    72769.441   -17246.718    1247.5304   -18494.248    38.243813    234.59675 
    8050    96.118635   -519.12323    72793.163   -17234.723    1301.9078   -18536.631    38.354656    244.82235 
    8100    97.093831   -600.82044    72857.833   -17251.503    1315.1166    -18566.62    38.663223    247.30626 
    8150     95.05656   -577.42526    72895.165    -17254.57    1287.5222   -18542.092    38.940022    242.11716 
    8200     94.65524   -798.47552    72864.618   -17264.456    1282.0864   -18546.542     39.15604    241.09496 
    8250    89.821837   -466.83799    72858.276   -17312.396    1216.6189   -18529.015    39.203842    228.78387 
    8300    93.320319   -501.28071     72825.68   -17281.842    1264.0051   -18545.847    39.537657     237.6948 
    8350    97.066062   -259.94373    72779.122   -17253.393    1314.7405   -18568.134    40.011513    247.23553 
    8400    94.241342   -727.57453     72779.34   -17273.336    1276.4802   -18549.816    40.200612    240.04073 
    8450    96.587892   -480.54113    72752.742   -17250.938    1308.2638   -18559.202     40.40676    246.01759 
    8500    94.922645   -919.72052    72734.903   -17253.086    1285.7083   -18538.794    40.524615    241.77607 
    8550    94.277706    -417.9141    72674.012   -17301.151    1276.9727   -18578.124    40.454396    240.13335 
    8600    91.408763   -131.13841    72665.403    -17301.47    1238.1135   -18539.583    40.640575    232.82591 
    8650    92.056723   -148.37765    72683.573   -17300.023      1246.89   -18546.913    40.783581    234.47632 
    8700    90.977952   -348.63193    72687.335   -17332.496    1232.2782   -18564.774    41.134563     231.7286 
    8750    95.692093   -299.71664    72703.303   -17297.489    1296.1303    -18593.62    41.465395    243.73591 
    8800    95.128004   -487.60403     72696.64     -17327.7    1288.4899    -18616.19     41.68746    242.29913 
    8850    96.199266   -238.07742    72630.546   -17315.158    1302.9999   -18618.158    41.780635    245.02773 
    8900    93.026608   -277.43445    72671.241   -17300.223    1260.0269    -18560.25    42.099855     236.9467 
    8950    94.003931    -392.5664    72713.222   -17282.612    1273.2645   -18555.876    42.371573    239.43602 
    9000    92.993752   -254.16666    72689.821   -17241.377    1259.5819   -18500.959    42.544308    236.86301 
    9050    94.468656   -176.09415    72691.692    -17280.63    1279.5591   -18560.189    42.647982    240.61972 
    9100    94.278252   -22.262434    72677.984   -17303.683    1276.9801   -18580.663    43.087345    240.13474 
    9150    92.934344   -205.80961     72747.01   -17328.514    1258.7772   -18587.292    43.373942    236.71169 
    9200    92.078248     -506.721     72743.98   -17316.464    1247.1815   -18563.646     43.44887    234.53114 
    9250    94.726087    136.37329    72719.358   -17272.855     1283.046   -18555.901     43.70109    241.27541 
    9300    95.845641   -450.86565    72710.884   -17267.647    1298.2101   -18565.857    43.871944    244.12701 
    9350     91.06229   -460.16941    72638.162   -17298.454    1233.4206   -18531.874    44.280295    231.94341 
    9400     92.90033   -396.91386    72640.368   -17333.921    1258.3165   -18592.237    44.650948    236.62506 
    9450    92.279138   -387.31588     72626.78   -17341.623    1249.9026   -18591.525    44.796019    235.04283 
    9500      92.0645   -625.58361    72653.065   -17333.022    1246.9953   -18580.017    45.040227    234.49613 
    9550    94.540804   -417.43366    72652.095   -17334.379    1280.5364   -18614.915    45.248966    240.80348 
    9600    91.514521   -262.15758    72681.142   -17299.259     1239.546   -18538.805    45.329814    233.09528 
    9650    91.774709   -727.78363    72652.519   -17298.985    1243.0702   -18542.055    45.437864      233.758 
    9700    94.929063   -603.24299    72634.966   -17329.131    1285.7953   -18614.926    45.810045    241.79241 
    9750    92.344137   -262.39216    72713.409   -17332.123    1250.7829   -18582.906     46.16558    235.20838 
    9800    93.747543   -501.28899    72786.205   -17308.211    1269.7918   -18578.003    46.291824    238.78298 
    9850    94.220522   -95.531555    72839.604   -17310.737    1276.1982   -18586.936    46.498112     239.9877 
    9900    92.207469   -494.65076    72839.737    -17300.36    1248.9318   -18549.292    46.879761    234.86028 
    9950    93.913739   -379.50279    72776.835    -17281.52    1272.0429   -18553.563       47.096    239.20629 
   10000     95.29634   -746.17842     72735.13   -17276.346      1290.77   -18567.116    47.320163     242.7279 
   10050    93.012788   -377.67816    72666.529   -17272.382    1259.8397   -18532.221    47.486168     236.9115 
   10100    92.684088   -515.99855    72646.875     -17232.5    1255.3875   -18487.887    47.685904    236.07427 
   10150    93.671548   -691.71578    72635.213     -17232.4    1268.7625   -18501.162    47.746755    238.58941 
   10200    92.435983    -443.7705    72677.755   -17266.059     1252.027   -18518.086    48.001814    235.44233 
   10250    94.252272   -387.06829    72793.911   -17273.714    1276.6283   -18550.342    47.970972    240.06857 
   10300    92.622589   -493.93545    72846.238   -17317.163    1254.5545   -18571.718     48.30023    235.91763 
   10350    90.588016   -742.60185    72783.113   -17314.238    1226.9966   -18541.235    48.673835     230.7354 
   10400    92.569761   -880.73639    72822.001   -17284.089     1253.839   -18537.928    48.780465    235.78307 
   10450    94.647075   -387.32875    72790.003   -17271.612    1281.9758   -18553.588    48.837263    241.07416 
   10500    94.168611   -258.03252    72799.177   -17250.354    1275.4951   -18525.849    48.807971    239.85548 
   10550    90.757962   -182.08842    72871.013   -17248.241    1229.2985    -18477.54    48.792118    231.16826 
   10600    94.438971   -190.95824    72956.762   -17222.721    1279.1571   -18501.878    49.212202    240.54411 
   10650    96.384791   -24.160164     73014.11   -17228.994    1305.5128   -18534.506    49.712092    245.50027 
   10700    94.929939    -490.7262    73097.602   -17248.381    1285.8071   -18534.188    49.903198    241.79464 
   10750    95.645688   -531.12604    73057.274   -17251.995    1295.5018   -18547.497    50.202229    243.61772 
   10800    93.601533   -520.48768    73084.705   -17261.706    1267.8141   -18529.521     50.72448    238.41108 
   10850    94.598848   -376.74092    73035.724    -17274.27    1281.3226   -18555.593    50.845908    240.95133 
   10900    92.456361   -239.28814    73081.485   -17267.753     1252.303   -18520.056    51.097887    235.49423 
   10950    96.553855   -78.258442    73077.102   -17230.285    1307.8027   -18538.087    51.411125     245.9309 
   11000    95.442806   -363.81907    73060.378   -17253.376    1292.7538    -18546.13    51.821419    243.10096 
   11050    95.308529   -723.45233    73042.776   -17208.322     1290.935   -18499.257    51.991746    242.75894 
   11100    98.028498   -450.14755    73051.818   -17224.563    1327.7765    -18552.34      52.3218    249.68694 
   11150    92.462147   -508.98354    73028.702   -17252.664    1252.3814   -18505.045    52.585517    235.50897 
   11200    94.605233     -342.068    72979.279   -17247.271     1281.409    -18528.68    52.717613    240.96759 
   11250    96.186167   -349.26138    72961.983   -17242.412    1302.8225   -18545.235    52.901439    244.99436 
   11300    93.563805    -251.2379    73010.374   -17207.412    1267.3031   -18474.715    53.282895    238.31498 
   11350    95.091473   -692.88933    73060.996    -17235.49    1287.9951   -18523.485    53.261737    242.20608 
   11400    93.586262   -264.27616    73105.621   -17237.258    1267.6073   -18504.866    53.152208    238.37218 
   11450    96.147918    -458.9785    73103.784   -17285.554    1302.3044   -18587.859      53.2358    244.89694 
   11500    94.635794   -379.91234    73124.388   -17294.439     1281.823   -18576.262    53.505323    241.04543 
   11550    92.818644   -261.20284    73147.454   -17307.711      1257.21   -18564.921    53.729523    236.41699 
   11600    93.981111   -895.41943    73105.098   -17297.594    1272.9554    -18570.55    53.880855     239.3779 
   11650    92.181276    -51.80316    73079.631   -17311.112     1248.577   -18559.689    54.145636    234.79356 
   11700    91.635157   -547.47474     73140.14   -17310.215      1241.18   -18551.395    54.627727    233.40255 
   11750    93.678753   -501.12342    73034.155   -17318.344    1268.8601   -18587.204    54.561355    238.60777 
   11800    93.922415   -368.22013    72973.454   -17333.005    1272.1604   -18605.165    54.352952    239.22839 
   11850    89.953722   -271.34612    72964.998   -17378.147    1218.4053   -18596.552    54.466928    229.11979 
   11900    91.811683     -368.057    72914.469   -17347.976     1243.571   -18591.547    54.576788    233.85218 
   11950    92.834199   -249.64682    72920.935   -17311.493    1257.4207   -18568.914    54.792359    236.45661 
   12000    93.051307   -344.22467     72944.89   -17312.152    1260.3614   -18572.514    54.701882    237.00961 
   12050    96.144376    -26.28362    72927.053   -17325.061    1302.2564   -18627.317    55.063201    244.88792 
   12100    92.213644   -449.84277    72929.415   -17294.147    1249.0154   -18543.162    55.097502    234.87601 
   12150    93.380251   -457.57093    72943.049   -17276.465    1264.8169   -18541.282    55.367474    237.84746 
   12200    92.643056   -309.32425    72949.875   -17257.999    1254.8317   -18512.831    55.660085    235.96976 
   12250    92.722336   -191.42277    73003.669   -17290.876    1255.9056   -18546.782    56.140297    236.17169 
   12300    91.969653   -398.60664    72992.328   -17313.734    1245.7106   -18559.445    56.302976    234.25454 
   12350    93.690772   -292.90633    73013.923   -17256.495    1269.0228   -18525.518    56.136321    238.63838 
   12400    94.288785   -303.31294    73011.127   -17283.207    1277.1228    -18560.33     56.36219    240.16157 
   12450    91.412128   -211.75429    73060.856    -17300.28    1238.1591   -18538.439     56.60033    232.83448 
   12500    92.663276    -309.8496    73058.867    -17306.24    1255.1056   -18561.345    56.823582    236.02126 
   12550    89.938744   -419.01005    73095.719   -17370.668    1218.2024    -18588.87    57.370252    229.08165 
   12600    91.773267   -127.36666    73118.315   -17345.867    1243.0506   -18588.917    57.241419    233.75433 
   12650    94.216528   -317.01925    73143.127   -17337.661    1276.1441   -18613.805    57.180522    239.97752 
   12700    94.201027   -507.47171    73123.782   -17353.918    1275.9342   -18629.852    57.373206    239.93804 
   12750    92.867706   -361.83213    73110.414   -17380.338    1257.8746   -18638.212    57.426477    236.54196 
   12800    89.716879   -503.08598    73107.454   -17391.666    1215.1973   -18606.863    57.705195    228.51653 
   12850    90.475699   -428.24228    73089.697   -17375.248    1225.4753   -18600.723    58.111455    230.44931 
   12900    94.000839   -266.48729    73135.238   -17350.351    1273.2226   -18623.574      58.2526    239.42815 
   12950    97.256652   -389.38599    73075.834   -17308.529     1317.322   -18625.851     58.64378    247.72098 
   13000    90.983474   -289.71958    73104.162   -17318.054     1232.353   -18550.407    58.697454    231.74266 
   13050    93.415146    -338.9273    73165.531   -17312.761    1265.2895   -18578.051    58.852596    237.93634 
   13100    95.336126   -98.031429    73217.874   -17300.073    1291.3088   -18591.381    59.296564    242.82924 
   13150    95.358974    -483.4809    73252.358   -17281.551    1291.6183   -18573.169    59.592388    242.88743 
   13200    93.382428   -457.98283    73233.682   -17277.848    1264.8464   -18542.695    59.940478      237.853 
   13250    96.788565   -393.86892    73237.859   -17273.214    1310.9818   -18584.196     60.02466    246.52872 
   13300    95.630075   -197.74442    73269.911   -17259.988    1295.2903   -18555.279    60.213858    243.57795 
   13350    96.896262   -616.63657    73260.982   -17237.783    1312.4406   -18550.224    60.605201    246.80303 
   13400    96.732452   -293.48938    73240.719   -17277.109    1310.2218   -18587.331     60.88037     246.3858 
   13450    96.676917   -217.62363    73267.681   -17281.836    1309.4696   -18591.306    61.095949    246.24435 
   13500    90.579389   -535.63915    73296.937    -17336.41    1226.8798    -18563.29    61.318378    230.71342 
   13550    94.867237   -367.37624    73279.913   -17281.072    1284.9578    -18566.03    61.377718    241.63493 
   13600    93.237521   -832.91299    73226.993   -17296.278    1262.8837   -18559.161    61.663322    237.48391 
   13650    93.168971   -805.38374    73198.927   -17329.082    1261.9552   -18591.037    61.794699    237.30931 
   13700    91.837734   -673.58529    73182.138   -17323.361    1243.9238   -18567.285    62.030342    233.91853 
   13750     94.45549   -553.62057     73134.89   -17304.496    1279.3808   -18583.876    62.138024    240.58618 
   13800    93.294304    -781.6585    73121.744    -17301.71    1263.6528   -18565.362    62.603892    237.62854 
   13850    97.566888   -532.90711    73059.409   -17258.693    1321.5241   -18580.217    63.088884    248.51118 
   13900    93.415065   -798.21456    73004.472   -17300.876    1265.2884   -18566.164    63.040194    237.93613 
   13950    92.343654    -587.8363    73030.247   -17302.875    1250.7764   -18553.651    63.479703    235.20715 
   14000    93.851302   -342.07508    73050.326   -17343.081    1271.1972   -18614.278    64.088955    239.04726 
   14050    90.958337   -534.51842    73118.394   -17331.176    1232.0126   -18563.189     64.13722    231.67864 
   14100    93.147063   -447.96854    73102.206   -17311.569    1261.6584   -18573.228    64.153358     237.2535 
   14150    92.123903   -454.10212    73097.561   -17288.572    1247.7999   -18536.372     64.37487    234.64743 
   14200    91.841614   -420.42245    73082.755   -17290.713    1243.9764    -18534.69    64.478374    233.92842 
   14250    95.450414    -469.7042    73098.265   -17297.443    1292.8568   -18590.299    64.571515    243.12034 
   14300    91.669446    -547.3449    73103.671   -17323.139    1241.6444   -18564.784    64.801044    233.48989 
   14350    94.679992   -446.92579    73055.784   -17317.441    1282.4216   -18599.863    64.770072    241.15801 
   14400    95.393708   -461.31449    73056.665   -17315.342    1292.0888   -18607.431    65.145353     242.9759 
   14450     93.37874   -47.993141    73098.749    -17293.65    1264.7964   -18558.447    65.050034    237.84361 
   14500    94.963742   -88.942858    73114.169    -17261.69     1286.265   -18547.955    65.102055    241.88074 
   14550    97.350084   -479.21896    73167.974   -17250.718    1318.5875   -18569.305    65.174191    247.95896 
   14600    98.176359   -548.35225    73146.182   -17251.307    1329.7792   -18581.087    65.250258    250.06355 
   14650    93.581053   -777.24299    73125.922   -17247.129    1267.5367   -18514.666    65.243827    238.35892 
   14700     95.60715   -619.79281    73077.143   -17258.014    1294.9798   -18552.994    65.495846    243.51956 
   14750    94.055107   -449.42872    73086.517   -17258.351    1273.9577   -18532.308    65.440046    239.56637 
   14800    94.585286     -230.285    73103.318   -17227.255    1281.1389   -18508.394    65.647607    240.91678 
   14850    97.008722   -409.19867    73055.567   -17243.448    1313.9638   -18557.412    65.909268    247.08948 
   14900    97.893158   -120.03587    73108.893   -17248.633    1325.9433   -18574.576    66.132322    249.34221 
   14950    94.638898   -250.05456    73177.188   -17292.802     1281.865   -18574.667    66.909623    241.05334 
   15000    94.732203   -309.93531    73212.873   -17310.458    1283.1288   -18593.587    66.914215    241.29099 
   15050    91.537749   -510.32079    73187.196   -17292.031    1239.8606   -18531.891    67.080118    233.15444 
   15100    94.373534   -470.43047    73158.573   -17280.892    1278.2707   -18559.163    67.126827    240.37743 
   15150    96.412821   -564.35125    73179.476   -17283.822    1305.8925   -18589.714    67.362391    245.57167 
   15200    96.302641   -692.51494    73119.088   -17217.822    1304.4001   -18522.222     67.94723    245.29103 
   15250    92.698109   -377.19694    73187.002   -17277.776    1255.5774   -18533.353    68.004426    236.10998 
   15300    94.034049   -313.32017    73181.478   -17278.555    1273.6725   -18552.227    68.028614    239.51273 
   15350    96.153726   -618.01323    73199.087   -17248.261    1302.3831   -18550.644    67.956464    244.91173 
   15400    95.634634   -453.11484    73214.272    -17244.65    1295.3521   -18540.002    68.179971    243.58956 
   15450    92.771345   -229.02178    73246.466   -17248.584    1256.5694   -18505.153    68.284849    236.29652 
   15500    95.239555   -411.53219    73233.182   -17265.643    1290.0008   -18555.644    68.437131    242.58326 
   15550    94.772026   -262.74099    73234.174   -17263.709    1283.6682   -18547.377    69.016389    241.39243 
   15600    93.073918   -352.21646    73239.537   -17263.516    1260.6677   -18524.183    69.279013     237.0672 
   15650    93.307057   -397.80569    73225.618   -17243.136    1263.8255   -18506.961     69.49535    237.66102 
   15700    96.117165   -467.80961    73226.955   -17258.911    1301.8879   -18560.799    70.076694    244.81861 
   15750    95.065594    -872.9396    73244.191   -17242.619    1287.6445   -18530.264    70.600459    242.14017 
   15800    93.895842   -561.41555    73218.348   -17254.756    1271.8005   -18526.556    70.561878    239.16071 
   15850    93.772833   -495.83701    73194.885   -17263.057    1270.1344   -18533.191    70.736645     238.8474 
   15900    91.950531   -599.94814    73193.437   -17259.043    1245.4516   -18504.495    70.795466    234.20584 
   15950    93.047951   -702.70365     73144.69   -17290.268     1260.316   -18550.584    70.904533    237.00106 
   16000    93.936425   -491.56092    73113.366   -17282.529    1272.3502   -18554.879    71.133447    239.26408 
   16050    93.903917   -692.28187    73122.346    -17288.03    1271.9099    -18559.94    71.301332    239.18128 
   16100    93.754482   -724.96773    73115.286     -17262.5    1269.8858   -18532.386    71.437314    238.80065 
   16150    94.210829   -715.74015    73089.403   -17263.458    1276.0669   -18539.525    71.303521    239.96301 
   16200    92.791153   -659.94164    73053.049   -17257.821    1256.8377   -18514.658    71.459233    236.34697 
   16250    92.141572    -400.1301    73055.353   -17254.362    1248.0392   -18502.401    71.736098    234.69243 
   16300    93.698886   -291.99164    73052.679   -17225.503    1269.1327   -18494.636     72.11245    238.65904 
   16350    95.055137   -137.85818        73042   -17205.183    1287.5029   -18492.686    72.477278    242.11353 
   16400    97.907684   -338.17742    73073.865   -17196.725    1326.1401   -18522.866    72.913145    249.37921 
   16450    94.054525   -785.85669    73143.618   -17200.533    1273.9498   -18474.483     73.34333    239.56489 
   16500    96.975279   -121.75068    73150.333   -17152.963    1313.5108   -18466.474    74.070034     247.0043 
   16550    96.383103   -396.76246    73150.615   -17174.814    1305.4899   -18480.304    74.263809    245.49598 
   16600    97.785986   -444.85584     73141.11   -17149.172    1324.4917   -18473.664    74.636645    249.06924 
   16650    98.623212   -339.28443    73138.633   -17166.753    1335.8318   -18502.585    74.819576    251.20172 
   16700    94.367837   -458.11445    73136.775   -17207.047    1278.1936   -18485.241    74.836957    240.36292 
   16750    97.235972   -465.42243    73093.063   -17184.851    1317.0419   -18501.893    75.056496     247.6683 
   16800    97.840625   -398.04102    73116.774   -17172.729    1325.2318    -18497.96     75.24399    249.20841 
   16850     95.38603   -34.474507    73197.852   -17191.815    1291.9848     -18483.8    75.292836    242.95635 
   16900    97.629155    -312.5947    73266.257   -17182.792    1322.3675    -18505.16     75.75573    248.66978 
   16950    95.022167   -647.77917      73221.1   -17168.418    1287.0563   -18455.475    75.634544    242.02955 
   17000    95.676239   -460.85206    73246.459   -17184.212    1295.9156   -18480.127    75.859005    243.69553 
   17050    97.138085   -205.80266     73279.66   -17180.618     1315.716   -18496.334    76.150436    247.41898 
   17100    94.950968   -364.36896    73340.435   -17189.873     1286.092   -18475.965    76.550312    241.84821 
   17150    95.588512   -268.18579    73381.358   -17193.549    1294.7274   -18488.277     76.89712    243.47208 
   17200    92.813426   -424.56465    73413.288    -17235.37    1257.1394    -18492.51    77.048862     236.4037 
   17250    91.110469    -652.0086    73393.526   -17278.182    1234.0732   -18512.255    77.154514    232.06613 
   17300    96.064579   -286.46239    73333.006   -17273.877    1301.1756   -18575.053    77.432345    244.68467 
   17350    94.587646   -441.89484    73298.402    -17292.31    1281.1708   -18573.481    77.560002    240.92279 
   17400    92.579636   -594.84255    73228.864   -17280.965    1253.9727   -18534.938    77.696222    235.80822 
   17450    93.636169   -554.34804    73188.955   -17267.448    1268.2833   -18535.731    78.379783     238.4993 
   17500    93.672313   -399.78148    73165.896    -17298.14    1268.7728   -18566.912    78.910677    238.59136 
   17550    95.055884   -514.83282    73128.315   -17277.507     1287.513    -18565.02    78.934813    242.11544 
   17600    94.421559   -544.75244    73107.041   -17298.053    1278.9212   -18576.974     79.29638    240.49975 
   17650    93.320753    -437.8716    73099.738   -17304.949     1264.011    -18568.96    79.277825    237.69591 
   17700    94.081305   -654.43849    73036.622   -17348.534    1274.3125   -18622.847    79.060892     239.6331 
   17750    91.542129     -724.889    72976.617   -17389.546    1239.9199   -18629.466     79.40978     233.1656 
   17800    92.518681    -536.6395    72936.477   -17403.267    1253.1471   -18656.414    79.719489    235.65296 
   17850    92.790971   -506.14087    72916.409   -17412.793    1256.8352   -18669.628    79.640769    236.34651 
   17900    93.402662   -491.60978    72930.472   -17372.175    1265.1205   -18637.295     79.98164    237.90454 
   17950     94.10682   -348.68166    72972.907   -17333.231    1274.6581   -18607.889    79.805802    239.69809 
   18000    94.537201   -540.12693    72963.706    -17331.56    1280.4876   -18612.047    80.081406    240.79431 
   18050    89.163237   -171.12111     72994.92    -17354.58    1207.6983   -18562.278    80.267361    227.10636 
   18100    92.390894   -310.43574    73022.395   -17319.757    1251.4163   -18571.173    80.579078    235.32748 
   18150    93.769821   -668.70015    73020.954   -17316.309    1270.0935   -18586.402    80.782873    238.83972 
   18200    91.847714    -557.8091    72934.173   -17336.854     1244.059   -18580.913    80.471004    233.94395 
   18250    92.216487   -837.33466     72939.11   -17362.567     1249.054   -18611.621    80.901991    234.88325 
   18300    93.343533   -370.61756    72960.917   -17364.927    1264.3196   -18629.247    81.164669    237.75393 
   18350    91.571121   -165.82188    73013.522     -17349.4    1240.3126   -18589.713    81.511494    233.23945 
   18400     90.64247   -287.88373    73029.107    -17361.52    1227.7342   -18589.255    81.966474    230.87409 
   18450    91.009339   -408.12413    73085.188   -17373.563    1232.7034   -18606.266    82.063809    231.80854 
   18500    91.489016   -476.52113    73100.931   -17348.025    1239.2005   -18587.226    82.601858    233.03032 
   18550    93.979164   -312.08336    73120.127   -17330.368    1272.9291   -18603.297    83.112086    239.37294 
   18600    93.600998   -367.76962     73133.92   -17322.455    1267.8069   -18590.262    83.495124    238.40972 
   18650    91.335023   -59.228827    73186.278   -17324.626    1237.1147    -18561.74    83.711567    232.63809 
   18700    93.269093   -611.75943    73194.065   -17337.022    1263.3113   -18600.334    83.800537    237.56433 
   18750    92.231242   -802.70312    73234.204    -17374.36    1249.2538   -18623.614    83.683721    234.92083 
   18800      91.2082   -398.08993    73252.423   -17371.504    1235.3969   -18606.901    83.627204    232.31506 
   18850    93.369013   -368.22048    73200.845   -17357.967    1264.6647   -18622.632     83.83337    237.81883 
   18900    94.899431   -407.40152     73177.49   -17325.481    1285.3939   -18610.874    84.062847    241.71694 
   18950    94.783115   -589.16913    73163.098   -17321.576    1283.8184   -18605.394    84.254878    241.42067 
   19000    91.844333   -611.02736    73061.951   -17342.716    1244.0132   -18586.729    83.848665    233.93534 
   19050    90.228899   -549.22937    73022.544   -17337.412    1222.1325   -18559.544     83.72027    229.82069 
   19100    95.385339   -319.98272    72998.557   -17320.872    1291.9754   -18612.848    83.946238    242.95458 
   19150    94.231888   -685.23112    73002.875   -17298.376    1276.3522   -18574.728    83.974482    240.01665 
   19200    92.314156   -353.48485    72972.237   -17304.155    1250.3769   -18554.532    84.032268    235.13202 
   19250    95.667918   -206.61323    72996.293   -17284.385    1295.8029   -18580.188    84.236924    243.67434 
   19300    93.481077    -484.2799    73005.775   -17281.799    1266.1826   -18547.981    84.578573    238.10427 
   19350    93.936996   -143.02792    72957.132   -17288.976    1272.3579   -18561.334    84.530177    239.26553 
   19400    89.611627    -160.5306    73007.924   -17274.756    1213.7716   -18488.528    84.618454    228.24845 
   19450    93.127489   -596.39967    72994.709   -17265.758    1261.3933   -18527.152    85.145022    237.20365 
   19500    94.474094   -374.18815    72988.986    -17265.74    1279.6328   -18545.373    84.975374    240.63357 
   19550    95.399943   -476.93545    73012.997   -17264.074    1292.1732   -18556.247    85.389872    242.99178 
   19600    94.186356   -515.71281    72987.394   -17265.205    1275.7354    -18540.94    85.606674    239.90067 
   19650    90.986836    -467.4943    72996.474   -17267.996    1232.3986   -18500.395    85.745072    231.75122 
   19700    94.188922   -667.32623    72988.486    -17235.26    1275.7702    -18511.03    86.267866    239.90721 
   19750    97.216164   -535.98627    72975.382   -17206.422    1316.7736   -18523.196    86.808304    247.61785 
   19800    93.502923    -316.8996    72933.735   -17260.591    1266.4785    -18527.07    86.815455    238.15991 
   19850    96.047642   -312.98343    72936.855   -17250.193    1300.9462   -18551.139    86.691121    244.64153 
   19900    93.596982   -675.59181    72988.251   -17260.247    1267.7525   -18527.999     86.38921    238.39949 
   19950    92.796652    -267.8411    72960.042   -17268.233    1256.9122   -18525.145    86.235258    236.36098 
   20000    94.933948   -598.96636    72931.669   -17286.996    1285.8614   -18572.857    86.395796    241.80485 
   20050    92.627691   -445.95792    72837.148   -17278.327    1254.6236    -18532.95    86.590071    235.93062 
   20100    91.062149   -221.58134    72841.063   -17323.953    1233.4187   -18557.371    87.049423    231.94305 
   20150    91.007378   -674.96937    72843.014   -17338.431    1232.6768   -18571.107    87.272565    231.80354 
   20200    90.589223   -588.32003    72802.761    -17312.77     1227.013   -18539.783    87.657848    230.73847 
   20250    92.409832   -644.65914    72743.745   -17305.529    1251.6728   -18557.202     88.10698    235.37571 
   20300    93.207698   -515.10661    72688.079   -17300.719    1262.4797   -18563.198    87.972258    237.40795 
   20350    91.304756   -764.53306    72643.542   -17291.545    1236.7047    -18528.25     88.14366    232.56099 
   20400    94.192746   -384.98877    72580.044   -17295.933     1275.822   -18571.755    88.226465    239.91695 
   20450     93.75611   -508.45212     72612.62   -17277.036    1269.9078   -18546.944    88.649241     238.8048 
   20500    92.812752   -479.72282    72615.587   -17306.535    1257.1302   -18563.665    88.749334    236.40199 
   20550    91.277767   -30.875772    72667.577   -17273.571    1236.3392    -18509.91    88.641627    232.49225 
   20600    92.657163   -281.39207    72705.559    -17264.05    1255.0228   -18519.072    88.571539    236.00569 
   20650    95.267962   -262.88957    72758.261   -17267.277    1290.3856   -18557.663    88.634439    242.65562 
   20700     94.31188   -709.59046    72755.049    -17275.43    1277.4356   -18552.865     88.61422    240.22039 
   20750    92.217663   -817.96795    72787.412   -17265.948    1249.0699   -18515.018    88.767132    234.88625 
   20800    92.510195   -471.05894    72813.704   -17258.778    1253.0322    -18511.81    88.795009    235.63135 
   20850    94.489629   -178.91854    72899.923    -17268.61    1279.8432   -18548.454    89.082065    240.67314 
   20900    94.650482   -638.88116    72955.599    -17268.59    1282.0219   -18550.612    89.107334    241.08284 
   20950    95.211253   -329.97471    72979.926   -17288.615    1289.6175   -18578.232     88.84836    242.51117 
   21000    92.445247   -326.93646     73075.02   -17301.106    1252.1525   -18553.259    89.189762    235.46592 
   21050    95.181272   -70.393146    73110.919   -17307.343    1289.2114   -18596.554     89.24373    242.43481 
   21100     91.72878   -414.95971    73123.849   -17303.687    1242.4481   -18546.135    89.277412    233.64102 
   21150    92.556594    -524.0759    73047.393   -17330.208    1253.6606   -18583.869    89.265931    235.74953 
   21200    94.446988   -748.75902    73020.562   -17294.096    1279.2656   -18573.362    89.450375    240.56452 
   21250    94.744625   -573.56432    73014.193   -17248.717    1283.2971   -18532.014    89.786074    241.32263 
   21300    94.277606   -487.62429    73007.032   -17244.287    1276.9714   -18521.258    90.192873    240.13309 
   21350    94.331996    -499.9272     72982.58    -17228.14    1277.7081   -18505.848     90.52899    240.27163 
   21400    92.654829   -487.69508    72936.982   -17256.217    1254.9912   -18511.208    90.710435    235.99974 
   21450    94.688097   -444.10301    72925.292   -17253.305    1282.5314   -18535.836    90.615866    241.17865 
   21500    97.370471   -380.06062     72975.45    -17254.94    1318.8636   -18573.803    90.507493    248.01089 
   21550     92.47827   -383.33624    73023.098   -17263.684    1252.5998   -18516.284     90.79461    235.55003 
   21600    97.514105   -39.057374    73019.493   -17243.034    1320.8091   -18563.843    90.679014    248.37673 
   21650    94.628989   -594.31825    72973.316   -17280.045    1281.7308   -18561.776    90.513931     241.0281 
   21700    93.948735   -331.08093    72979.025   -17262.299    1272.5169   -18534.816    90.887406    239.29543 
   21750    93.686491   -263.14681    72963.848   -17293.462    1268.9649   -18562.427     91.07344    238.62747 
   21800    93.884796   -704.05504    72987.172   -17257.189    1271.6509    -18528.84    91.667562    239.13258 
   21850    94.394599   -587.91577    73007.894   -17276.944     1278.556     -18555.5    91.870154    240.43109 
   21900    92.175726   -349.12186    73002.437   -17271.322    1248.5019   -18519.824    92.007409    234.77943 
   21950    93.710357   -336.19331    72970.425   -17287.308    1269.2881   -18556.596     92.61788    238.68826 
   22000    96.440857   -601.91567    72964.669   -17272.706    1306.2722   -18578.979    93.367057    245.64308 
   22050    91.532267   -762.11511    72986.025   -17278.011    1239.7863   -18517.797    93.337622    233.14048 
   22100    96.663649   -675.83211     72961.37   -17253.493    1309.2899   -18562.782    93.938837    246.21055 
   22150    96.624612   -710.78607    72909.897   -17238.939    1308.7611     -18547.7    94.219472    246.11112 
   22200     94.33653   -693.98632    72883.394   -17250.706    1277.7695   -18528.476    94.379706    240.28318 
   22250    95.991964   -641.07135    72863.564   -17254.097     1300.192   -18554.289    94.827161    244.49971 
   22300    95.751285   -154.88258    72854.139   -17206.166    1296.9321   -18503.098    94.976359    243.88668 
   22350    95.911384   -176.35739    72928.798   -17213.624    1299.1006   -18512.724    95.010257    244.29447 
   22400    95.848828   -345.62322    72988.189   -17208.893    1298.2533   -18507.146    95.089134    244.13513 
   22450    97.479706   -278.50004    73037.368   -17190.857    1320.3432   -18511.201    95.246804    248.28912 
   22500    95.579344   -382.59936    73053.063   -17192.578    1294.6032   -18487.182    95.564914    243.44873 
   22550    93.535762   -408.52032    73049.757   -17242.115    1266.9233   -18509.038    95.520755    238.24356 
   22600    94.332979   -303.70494    73080.471   -17247.068    1277.7214    -18524.79     95.88043    240.27414 
   22650     93.30206   -710.94637    73115.152   -17235.736    1263.7578   -18499.494    95.978958     237.6483 
   22700    97.263701   -537.79479    73123.314   -17243.632    1317.4175   -18561.049    96.049431    247.73893 
   22750    94.793355   -568.36306    73104.379   -17257.838    1283.9571   -18541.795    96.276291    241.44675 
   22800      95.0207   -567.67599    73056.206    -17236.39    1287.0365   -18523.426     96.83773    242.02582 
   22850    95.051099   -767.90406    72991.473   -17222.421    1287.4482   -18509.869    97.089978    242.10325 
   22900    92.778831   -433.97175    72978.433   -17258.797    1256.6708   -18515.468    97.226271    236.31559 
   22950    94.592767   -190.33413    72948.592   -17282.943    1281.2402   -18564.183    97.320105    240.93584 
   23000    96.024238   -370.67809    72884.953   -17270.949    1300.6292   -18571.578    97.415903    244.58192 
   23050     94.29542   -201.50175    72925.455   -17296.108    1277.2127   -18573.321    98.193886    240.17847 
   23100    93.439442   -159.34465    72985.287    -17288.86    1265.6186   -18554.478    98.273533    237.99822 
   23150    94.631496   -497.71261    73020.962   -17260.653    1281.7648   -18542.417    98.782497    241.03448 
   23200    94.005901   -360.47096    73055.944   -17315.899    1273.2912    -18589.19    99.060947    239.44104 
   23250    91.530358   -264.56517    73076.202    -17325.34    1239.7605     -18565.1    98.891966    233.13562 
   23300    91.073246   -318.52919    73093.493   -17322.266     1233.569   -18555.835    99.001964    231.97132 
   23350    92.328183   -229.66063     73128.83   -17275.464    1250.5668   -18526.031    99.049399    235.16775 
   23400    93.318512   -478.56183    73114.041   -17283.105    1263.9807   -18547.086    98.793726     237.6902 
   23450    94.257008    -684.9268    73166.078   -17306.925    1276.6924   -18583.617    98.956818    240.08063 
   23500     95.08634   -557.65032    73156.606   -17291.493    1287.9255   -18579.418    98.895627    242.19301 
   23550    93.593114   -342.27472    73101.185   -17309.233    1267.7001   -18576.933    99.203992    238.38964 
   23600    94.791479   -599.43124    73100.606   -17308.946    1283.9317   -18592.878    99.302808    241.44197 
   23650    92.584365   -809.64511    73042.512   -17286.068    1254.0368   -18540.105    99.209637    235.82027 
   23700    92.541049   -296.81821    73014.775   -17278.601    1253.4501   -18532.051    99.227333    235.70994 
   23750    94.286847   -615.81785    73004.432   -17314.978    1277.0966   -18592.074     99.37691    240.15663 
   23800    94.109876   -422.32326    72995.398   -17295.808    1274.6995   -18570.508     99.51376    239.70587 
   23850    91.935031    -334.4541    73003.209   -17296.469    1245.2417   -18541.711    100.49642    234.16636 
   23900    93.927755   -285.32664    73029.871   -17296.038    1272.2327   -18568.271    100.62861    239.24199 
   23950     95.14574   -722.66879    72985.957   -17300.616    1288.7301   -18589.346     100.7455    242.34431 
   24000    94.384536   -566.64082    72930.523   -17303.836    1278.4198   -18582.255    101.10848    240.40546 
   24050    93.696819   -518.28944    72918.081   -17297.003    1269.1048   -18566.107    101.49703    238.65378 
   24100    94.258069   -393.17499    72890.351   -17288.391    1276.7068   -18565.098    101.49202    240.08333 
   24150    94.503709   -444.14054    72903.876   -17278.404    1280.0339   -18558.438    101.58594      240.709 
   24200    97.656762    24.727351    72986.133   -17254.709    1322.7414   -18577.451    101.59563    248.74009 
   24250    98.425948   -160.99125    73046.492   -17239.974    1333.1599   -18573.134    101.41687    250.69928 
   24300    96.091074   -145.79322     73105.43   -17245.517    1301.5345   -18547.052    101.92294    244.75215 
   24350    93.957591    -741.5916    73082.652   -17267.119    1272.6369   -18539.756    102.18293    239.31799 
   24400    94.122194   -589.47024    73006.835   -17270.781    1274.8664   -18545.647    102.30491    239.73725 
   24450    94.165509   -441.38112    72994.522   -17287.961    1275.4531   -18563.414    102.26347    239.84757 
   24500    93.744131   -88.450849    72988.906   -17270.283    1269.7456   -18540.029    101.88369    238.77429 
   24550    89.901578   -234.96353    72991.648   -17306.229     1217.699   -18523.928    102.17316    228.98698 
   24600    94.996842   -430.52033    73008.413   -17275.876    1286.7133   -18562.589    102.28957    241.96505 
   24650    94.606603   -211.39194    73054.955   -17280.139    1281.4276   -18561.567    102.51096    240.97108 
   24700    92.431876   -436.50778    73090.622   -17284.561    1251.9714   -18536.532    102.53215    235.43186 
   24750    93.912384   -741.90327    73119.949   -17285.762    1272.0245   -18557.786     102.8665    239.20284 
   24800    92.607586   -413.29947    73129.412   -17309.639    1254.3513    -18563.99    102.54875    235.87941 
   24850    92.689997    -878.0052    73091.898   -17322.515    1255.4676   -18577.982    102.89482    236.08932 
   24900    94.120812   -577.38363     73045.52   -17307.599    1274.8477   -18582.447    102.64225    239.73373 
   24950    93.382441   -515.11953    73026.013   -17296.451    1264.8466   -18561.298    102.77603    237.85303 
   25000     94.76111   -300.72163    73037.005   -17304.812    1283.5204   -18588.333    102.78994    241.36462 
   25050    93.808132   -462.26665    73040.076   -17280.574    1270.6125   -18551.186    103.20412    238.93731 
   25100    92.835388   -359.69936    73064.548   -17290.551    1257.4368   -18547.988    103.32448    236.45964 
   25150    92.296872   -393.76276    73121.646   -17287.535    1250.1427   -18537.678    103.52779      235.088 
   25200    94.988045   -495.46465    73085.846   -17275.813    1286.5942   -18562.407    103.82187    241.94264 
   25250    96.333688   -304.05336    73042.092   -17252.808    1304.8206   -18557.629    104.25978    245.37011 
   25300    96.991962   -440.38148    73023.489   -17219.741    1313.7368   -18533.477     104.4602    247.04679 
   25350     96.98562   -540.25938    73008.098   -17238.711    1313.6509   -18552.362    104.65682    247.03064 
   25400    95.571381   -136.28296    73017.284    -17234.99    1294.4953   -18529.485    105.00892    243.42845 
   25450    96.503064   -443.41562    73076.652   -17225.886    1307.1148       -18533    105.56716    245.80153 
   25500    92.892734   -456.91245    73091.279   -17239.703    1258.2136   -18497.917    106.02645    236.60571 
   25550    98.114171   -487.71796    73133.902    -17222.31    1328.9369   -18551.247     106.1154    249.90515 
   25600    95.570354   -674.98262    73198.954   -17182.825    1294.4814   -18477.306    106.21648    243.42583 
   25650    95.166288   -904.72096    73182.445   -17203.219    1289.0084   -18492.227    106.48949    242.39664 
   25700    97.074862   -708.11864    73158.979   -17186.444    1314.8597   -18501.304    106.40309    247.25794 
   25750    95.816173   -361.77479    73155.304   -17226.817     1297.811   -18524.628    106.34375    244.05196 
   25800    95.569778   -626.71376    73146.476   -17209.295    1294.4736   -18503.769    106.25114    243.42437 
   25850    96.720402   -259.92799    73129.013    -17201.75    1310.0586   -18511.808    106.33502    246.35511 
   25900    96.225404   -896.30945    73060.718   -17196.908    1303.3539   -18500.262    106.35774     245.0943 
   25950    94.958548   -752.44408    73034.343   -17209.883    1286.1946   -18496.077    106.86048    241.86751 
   26000    92.281541    -779.1574    73036.369   -17239.807    1249.9351   -18489.742    106.84011    235.04895 
   26050    93.063322   -641.50337    72968.961   -17246.076    1260.5242   -18506.601    107.22641    237.04021 
   26100    94.810975   -585.66143    72954.578   -17235.818    1284.1958   -18520.014    107.37868    241.49163 
   26150    90.942376   -1050.8462    72890.153   -17259.772    1231.7964   -18491.568    107.48572    231.63798 
   26200    94.901805   -100.62109    72881.067   -17233.863     1285.426   -18519.289    107.59607    241.72298 
   26250    94.419303   -170.12531    72929.535    -17237.02    1278.8907   -18515.911    107.98894    240.49401 
   26300    96.904036   -488.98608    72954.689    -17227.45    1312.5459   -18539.996    107.64129    246.82284 
   26350    95.013546   -620.61403     72966.58   -17239.867    1286.9396   -18526.806    108.06626     242.0076 
   26400    95.537011   -298.61026    72963.726   -17227.505    1294.0298   -18521.534     108.2699    243.34091 
   26450    93.187315   -603.56857    72914.908   -17265.209    1262.2036   -18527.413    108.43361    237.35603 
   26500    95.163532   -755.04476    72815.362   -17224.456    1288.9711   -18513.427    108.51945    242.38962 
   26550    95.583641   -825.88907    72816.913   -17227.091    1294.6614   -18521.752    108.59274    243.45968 
   26600    93.802839   -340.47939    72843.734   -17233.461    1270.5408   -18504.002    108.50934    238.92382 
   26650    94.547594   -592.77129    72861.825   -17195.118    1280.6283   -18475.746    108.79974    240.82078 
   26700     95.76022   -116.03785    72909.535   -17160.219    1297.0531   -18457.272    108.98565    243.90944 
   26750    97.074199   -396.96976    72994.735   -17177.412    1314.8507   -18492.263    109.11062    247.25626 
   26800    96.451895   -341.07179    73001.519   -17173.252    1306.4217   -18479.674    109.27947    245.67119 
   26850    96.334647   -565.87688    73048.234   -17169.709    1304.8336   -18474.542    109.73374    245.37255 
   26900    94.869164    -451.9652    73058.882   -17201.258    1284.9839   -18486.242    109.98429    241.63984 
   26950    95.215762   -361.11636    73015.091   -17218.531    1289.6785    -18508.21    109.82912    242.52266 
   27000    95.307487   -358.37832    73052.195   -17187.303    1290.9209   -18478.224    109.96955    242.75629 
   27050     96.35728   -189.43492     73052.34   -17192.123    1305.1402   -18497.263    109.92005     245.4302 
   27100    95.483461   -257.03468    73073.406   -17204.121    1293.3045   -18497.425    110.04968    243.20451 
   27150     96.21457   -452.46413    73062.019   -17170.684    1303.2072   -18473.891    110.04389    245.06671 
   27200    97.258486   -559.38213    73075.658   -17175.439    1317.3468   -18492.786    109.96005    247.72565 
   27250    94.546129   -402.36381    73045.679   -17212.369    1280.6085   -18492.978    109.84012    240.81705 
   27300    93.941416   -614.68041    73039.871   -17207.862    1272.4178    -18480.28    109.90989    239.27679 
   27350    95.986437   -500.55206    72988.754   -17243.381    1300.1172   -18543.498    110.11325    244.48563 
   27400    95.195983   -815.13591    72936.965   -17253.243    1289.4106   -18542.654    110.13562    242.47228 
   27450    93.887237   -333.67287    72939.474   -17231.318    1271.6839   -18503.002    110.14841    239.13879 
   27500    95.706731   -452.92904    73001.789   -17191.045    1296.3286   -18487.374    110.35835     243.7732 
   27550    95.590291   -580.54244    72957.032   -17183.876    1294.7515   -18478.628    110.62245    243.47661 
   27600     96.12848   -554.55117    72895.179   -17207.352    1302.0411   -18509.393    110.45272    244.84743 
   27650    93.658037   -697.35427    72829.759   -17215.802    1268.5795   -18484.381     110.5456      238.555 
   27700     95.39855   -215.06284    72752.409   -17229.678    1292.1544   -18521.832    110.51675    242.98824 
   27750     93.13657   -371.93136    72778.039   -17274.973    1261.5163   -18536.489    110.87348    237.22678 
   27800    96.742811   -319.49317     72783.66    -17259.07    1310.3621   -18569.432     111.2145    246.41218 
   27850    94.846432   -614.50127    72806.331   -17268.179     1284.676   -18552.855    111.21781    241.58194 
   27900     92.15772   -337.54894    72823.468    -17278.79     1248.258   -18527.048    111.27298    234.73357 
   27950    93.639901   -467.22866    72896.437    -17280.47    1268.3338   -18548.804    111.53783    238.50881 
   28000    95.870279   -271.15809    72957.318   -17272.053    1298.5438   -18570.596    111.95022    244.18977 
   28050    91.861652   -392.23935    72966.244   -17307.886    1244.2478   -18552.134    111.93073    233.97945 
   28100    92.679027   -541.92986    72927.105   -17305.848     1255.319   -18561.167    112.28259    236.06138 
   28150    94.000068   -568.52228    72889.946   -17320.944    1273.2122   -18594.156     112.4118    239.42618 
   28200    93.389809   -825.64873    72964.825   -17293.642    1264.9464   -18558.588    112.69191     237.8718 
   28250    93.784956   -377.75103    73015.332   -17259.339    1270.2985   -18529.637    112.99218    238.87827 
   28300    94.347933    -414.2098    73038.477   -17263.571     1277.924   -18541.495    113.13201    240.31222 
   28350    95.841561    -72.80301    72995.014    -17221.68    1298.1549   -18519.835    113.77464    244.11662 
   28400    94.675749   -500.51121    73016.108   -17251.486    1282.3642    -18533.85    114.33592     241.1472 
   28450    96.142214    -437.8596    73042.324   -17213.398    1302.2271   -18515.625     114.3495    244.88241 
   28500    95.304968   -507.61161    73073.862     -17217.4    1290.8868   -18508.287    114.80298    242.74987 
   28550    94.504275   -428.45164     73091.57   -17238.134    1280.0416   -18518.176    114.96397    240.71044 
   28600    95.288929   -404.05657    73084.573   -17214.466    1290.6696   -18505.136    115.00937    242.70902 
   28650    94.710089   -400.01291    73082.168   -17224.367    1282.8293   -18507.196    115.37371    241.23467 
   28700    94.910004   -555.48506    73116.159   -17179.512    1285.5371   -18465.049    115.64027    241.74387 
   28750    97.326901   -509.67388    73071.693   -17165.334    1318.2735   -18483.608    115.99266    247.89991 
   28800    96.242631   -254.37078    73076.954   -17205.247    1303.5873   -18508.834    116.53025    245.13818 
   28850    94.407146   -667.83249    73134.858   -17241.829     1278.726   -18520.555    116.55241    240.46304 
   28900    93.117917    -565.1985    73091.374   -17307.498    1261.2636   -18568.762      116.687    237.17927 
   28950    91.340378   -478.60275    73041.406   -17302.669    1237.1872   -18539.856    116.73698    232.65173 
   29000    93.248259   -540.12951    73043.608   -17282.572    1263.0291   -18545.602    117.24742    237.51126 
   29050    92.071235   -266.55789    73055.974   -17275.424    1247.0865   -18522.511    117.87188    234.51328 
   29100    94.560969   -367.20552    73044.662   -17253.744    1280.8095   -18534.554    118.28428    240.85485 
   29150    96.918473   -566.71637    73010.155   -17249.837    1312.7414   -18562.578    118.42035    246.85961 
   29200    94.853957   -481.22704    73012.652   -17258.972     1284.778    -18543.75    118.52032    241.60111 
   29250    92.580005    -615.9289    73046.288   -17285.561    1253.9777   -18539.538     118.6597    235.80916 
   29300    96.884918   -111.39026    73040.463   -17277.126    1312.2869   -18589.413    119.01225    246.77414 
   29350    94.684427   -514.11895    73105.399   -17324.874    1282.4817   -18607.356    119.73273     241.1693 
   29400    93.934506   -447.19818    73076.002   -17315.898    1272.3242   -18588.223    120.25141    239.25919 
   29450    93.850175   -695.93341    73100.046   -17308.485    1271.1819   -18579.667    120.51793    239.04439 
   29500    95.679997   -247.97606    73124.079   -17290.004    1295.9665    -18585.97    120.76691     243.7051 
   29550    91.688524   -155.70545    73189.585   -17304.857    1241.9028    -18546.76    121.01002    233.53848 
   29600    93.607571   -533.00737    73142.322    -17305.69    1267.8959   -18573.586    121.50897    238.42646 
   29650    92.403937   -150.59234    73126.689   -17343.001    1251.5929   -18594.593    121.36311     235.3607 
   29700    94.113524   -591.14765    73121.179   -17318.117    1274.7489   -18592.866    122.02664    239.71516 
   29750    92.217106   -527.22953    73075.234   -17335.666    1249.0623   -18584.728    122.19985    234.88483 
   29800    95.381294   -644.37077    73051.481   -17277.717    1291.9206   -18569.638    122.31478    242.94428 
   29850    90.046901   -359.72479     73059.83     -17277.1    1219.6673   -18496.767    122.80234    229.35713 
   29900    94.968193   -624.51422    73061.617   -17265.674    1286.3253   -18551.999    123.47444    241.89208 
   29950    94.782269   -29.715482    73094.065   -17271.832     1283.807   -18555.639     123.5434    241.41851 
   30000    93.435177   -253.89064    73120.723   -17269.634    1265.5609   -18535.195    124.16199    237.98736 
   30050    94.646726   -568.05284    73108.205   -17252.827    1281.9711   -18534.798    124.03251    241.07328 
   30100    95.713056    -638.7527     73064.88   -17268.609    1296.4143   -18565.023    124.04474    243.78931 
   30150    94.453003   -728.65991    73057.185   -17259.095    1279.3471   -18538.442    124.28301    240.57985 
   30200    95.281757   -309.54081    73046.252   -17230.101    1290.5724   -18520.673    124.36695    242.69075 
   30250    96.950235   -343.39817    73059.036   -17254.532    1313.1716   -18567.704    124.44383    246.94051 
   30300    95.940437   -293.21867    73085.219   -17256.748    1299.4941   -18556.242     124.1842    244.36847 
   30350    97.338497    -180.5632    73129.105    -17249.48    1318.4306   -18567.911    124.53501    247.92944 
   30400    99.223283    -671.9605     73137.13   -17198.938    1343.9596   -18542.898    124.79773    252.73015 
   30450    95.781698   -468.13723    73128.323   -17200.065     1297.344   -18497.409    124.45989    243.96414 
   30500    97.583673   -598.70703    73160.634   -17230.975    1321.7514   -18552.726    124.77885    248.55393 
   30550    93.873187   -365.94288    73156.352   -17231.856    1271.4936    -18503.35     124.8429    239.10301 
   30600    96.210313   -425.58131    73242.451   -17216.227    1303.1495   -18519.377    125.20276    245.05587 
   30650    96.207046   -468.88602    73226.628   -17248.715    1303.1053    -18551.82    125.15104    245.04754 
   30700    97.832065   -404.24801    73227.291    -17216.27    1325.1158   -18541.386    125.47421     249.1866 
   30750    95.808459   -221.87404    73285.405   -17218.534    1297.7065   -18516.241    125.83736    244.03231 
   30800    94.215037   -219.65841    73303.678   -17226.395    1276.1239   -18502.519    125.93723    239.97373 
   30850    92.487845   -389.72197    73310.584   -17242.624    1252.7294   -18495.354     125.9705    235.57442 
   30900    90.840462    -521.7527    73262.805   -17303.119     1230.416   -18533.535     126.5746     231.3784 
   30950    95.307777     -915.341    73249.017   -17312.228    1290.9249   -18603.153    126.84899    242.75703 
   31000    95.334845   -627.23594    73180.175   -17295.394    1291.2915   -18586.686    126.79856    242.82597 
   31050    93.221603   -507.25746    73115.986   -17307.811    1262.6681    -18570.48    126.87552    237.44337 
   31100    94.600546   -544.81187    73064.256   -17318.558    1281.3456   -18599.904    127.21319    240.95565 
   31150    91.372445    -647.2697    73112.254   -17292.817    1237.6216   -18530.438    127.46104     232.7334 
   31200     94.26014   -709.52362    73093.632    -17332.78    1276.7348   -18609.514    127.50598    240.08861 
   31250    94.561106   -626.98129    73034.282   -17316.075    1280.8113   -18596.887    127.06667    240.85519 
   31300    92.903402   -929.00297    73022.207   -17291.776    1258.3581   -18550.134    127.53678    236.63288 
   31350    96.256873   -484.59381    73008.902   -17253.776    1303.7802   -18557.557    127.61438    245.17446 
   31400    95.852153   -390.23876    73006.229   -17233.527    1298.2983   -18531.825    127.91517     244.1436 
   31450    95.053765   -423.69074    72998.725   -17262.433    1287.4843   -18549.917    128.10365    242.11004 
   31500    97.581534   -239.15813    72999.998   -17296.177    1321.7224   -18617.899    128.25785    248.54848 
   31550    94.125893   -457.97412    73071.001   -17325.966    1274.9165   -18600.883    128.47601    239.74667 
   31600     93.80904   -684.35905    73095.408   -17355.295    1270.6248   -18625.919    128.81386    238.93962 
   31650    93.496805   -100.67237    73126.181    -17353.97    1266.3956   -18620.366    129.23078    238.14433 
   31700    93.711571   -587.00498    73175.344   -17337.448    1269.3046   -18606.753    129.59115    238.69136 
   31750    96.048637   -208.90066    73210.672   -17326.243    1300.9597   -18627.203    129.15053    244.64406 
   31800    93.595806   -344.15412    73244.927   -17322.816    1267.7366   -18590.553    129.47477    238.39649 
   31850    94.892403   -672.78998    73258.677   -17312.488    1285.2987   -18597.787    129.83159    241.69904 
   31900     92.94967   -796.20295    73258.173   -17325.146    1258.9848   -18584.131    129.95616    236.75073 
   31950    92.318563   -204.03188    73191.353   -17346.651    1250.4366   -18597.088    129.76124    235.14325 
   32000    95.031785   -413.37129    73178.648   -17340.154    1287.1866    -18627.34     130.1878    242.05405 
   32050     95.79069   -678.92975    73120.577   -17309.716    1297.4658   -18607.182     130.3719    243.98705 
   32100    95.871043   -455.80737    73141.972   -17322.032    1298.5542   -18620.586     130.3878    244.19171 
   32150    92.319716   -467.14909    73129.462   -17322.097    1250.4522   -18572.549    130.80468    235.14618 
   32200    91.834971   -548.31739    73090.194   -17282.954    1243.8864    -18526.84    130.61015     233.9115 
   32250    97.266402   -495.06977    73061.246   -17257.399    1317.4541   -18574.853    131.18878    247.74581 
   32300    93.597797   -745.71432     73060.97    -17270.91    1267.7635   -18538.673    131.40861    238.40156 
   32350    95.861466   -622.81278      73056.2   -17266.268    1298.4245   -18564.692    131.78815    244.16732 
   32400    92.143392   -601.86748    73022.114   -17279.807    1248.0639   -18527.871    131.68065    234.69707 
   32450    93.336128   -705.69222    73010.494    -17289.12    1264.2193   -18553.339    131.81825    237.73507 
   32500    95.149268   -845.47459    73022.282    -17275.17    1288.7779   -18563.948    132.24964    242.35329 
   32550    93.418272   -613.20813    72963.023    -17257.61    1265.3319   -18522.942    132.32497     237.9443 
   32600    95.523859   -405.83881    72887.675   -17269.653    1293.8516   -18563.505    132.13923    243.30741 
   32650    94.716619   -394.80424    72870.703   -17213.894    1282.9177   -18496.812    132.36386     241.2513 
   32700    95.044217   -436.69591    72883.403   -17213.527     1287.355   -18500.882    132.37847    242.08572 
   32750    96.241493   -574.90792    72848.488   -17210.357    1303.5719   -18513.929    132.12418    245.13528 
   32800    94.789944    -375.9861    72847.201   -17236.983    1283.9109   -18520.894    132.07098    241.43806 
   32850    93.409823   -667.49281    72840.637   -17230.204    1265.2175   -18495.422      132.585    237.92278 
   32900    94.549115    35.145064      72877.5   -17256.578    1280.6489   -18537.227    132.81697    240.82465 
   32950    95.281672   -257.04253    72940.876   -17264.456    1290.5713   -18555.028    133.39613    242.69054 
   33000    94.432174   -185.74299    72977.225   -17247.711     1279.065   -18526.776    133.84455    240.52679 
   33050    93.181221   -52.631204    73027.996   -17241.298    1262.1211   -18503.419    134.29325    237.34051 
   33100    95.855577   -90.567673    73067.353   -17232.265    1298.3447   -18530.609    134.33153    244.15232 
   33150    95.900852    134.65024    73135.161   -17252.816    1298.9579   -18551.774    134.85226    244.26764 
   33200     98.33537   -693.78726     73106.07   -17234.843     1331.933   -18566.776    135.15688    250.46857 
   33250    95.897437   -723.88562    73047.669   -17241.833    1298.9117   -18540.745    134.80174    244.25894 
   33300     92.95234   -623.31955    72990.385   -17266.556    1259.0209   -18525.577    134.99134    236.75753 
   33350    95.135963   -280.45211    72976.697   -17259.479    1288.5977   -18548.077    135.23158     242.3194 
   33400    93.973937   -422.81832    73010.691    -17282.45    1272.8583   -18555.308    135.46573    239.35962 
   33450    93.376227   -468.25427    72991.651   -17251.097    1264.7624    -18515.86    135.34745    237.83721 
   33500    94.905081   -367.01609    72922.057   -17241.906    1285.4704   -18527.376     135.6663    241.73133 
   33550    95.475264    -814.1001    72855.872   -17224.123    1293.1934   -18517.316     135.9406    243.18363 
   33600    94.897521   -436.43078    72866.199   -17230.897     1285.368   -18516.265    136.15449    241.71207 
   33650    92.359467   -503.86313    72933.637   -17228.359    1250.9906    -18479.35    136.26988    235.24743 
   33700    94.784533   -686.27486    72925.307   -17218.153    1283.8376    -18501.99    136.49622    241.42428 
   33750    96.454335   -254.42268    72976.532   -17194.504    1306.4548   -18500.959      136.744    245.67741 
   33800    96.181284   -490.55593    72978.038   -17168.791    1302.7563   -18471.547    137.07922    244.98192 
   33850    95.256904   -638.61574    73007.314   -17160.293    1290.2358   -18450.528    137.03265    242.62745 
   33900    97.802872   -604.35738    72949.378   -17163.727    1324.7204   -18488.447    137.62878    249.11225 
   33950    97.059512   -589.57065    72966.556   -17208.278    1314.6518   -18522.929     138.1957    247.21885 
[...]
   92000    93.779455   -121.02959    72918.318   -17240.582     1270.224   -18510.806    357.90263    238.86426 
   92050    94.239451    -304.1111    72920.158   -17271.167    1276.4546   -18547.622    358.58772    240.03591 
   92100    92.863976   -429.18324    72920.143   -17270.313    1257.8241   -18528.137    358.19825    236.53246 
   92150    96.058137   -612.40721    72908.132   -17277.103    1301.0883   -18578.191    358.11653    244.66826 
   92200    92.698786   -584.67399    72885.254   -17268.993    1255.5866    -18524.58    358.58495    236.11171 
   92250    92.447432   -603.35448    72903.357   -17256.805    1252.1821   -18508.987    358.38164    235.47149 
   92300     94.72469   -702.21213    72899.926   -17256.891    1283.0271   -18539.918    358.43174    241.27186 
   92350    94.599035   -411.77327    72937.686    -17234.71    1281.3251   -18516.035    358.66515     240.9518 
   92400    94.190918   -473.99131    72914.704   -17228.114    1275.7972   -18503.911    358.90469    239.91229 
   92450     97.88971   -204.63959    72973.832   -17226.418    1325.8966   -18552.314    358.92404    249.33343 
   92500    94.962353   -769.74095    72997.169   -17241.621    1286.2462   -18527.867    359.32355     241.8772 
   92550    94.685994   -339.68974    73020.492   -17220.484    1282.5029   -18502.987    359.36696    241.17329 
   92600    94.852418   -643.45933    73087.377   -17214.763    1284.7571    -18499.52    359.83977    241.59719 
   92650    92.629794    -943.6928    73071.641   -17242.446    1254.6521   -18497.098    359.94006    235.93598 
   92700    94.844674   -632.19994    73020.791   -17223.656    1284.6522   -18508.308      359.638    241.57747 
   92750    93.930024   -816.90401    72963.499   -17249.142    1272.2635   -18521.405     360.1565    239.24777 
   92800    93.112514   -157.60345    72942.337   -17260.744    1261.1905   -18521.934    361.27064    237.16551 
   92850     97.11049   -717.26724    72977.517   -17214.754    1315.3423   -18530.096    361.34186    247.34869 
   92900    94.046383   -210.37988    72934.998   -17197.304    1273.8395   -18471.143    361.27106    239.54415 
   92950    95.390196   -450.43254    72878.987   -17241.159    1292.0412     -18533.2    361.36477    242.96696 
   93000    94.184946   -934.32189    72833.233   -17226.971    1275.7163   -18502.687    361.50874    239.89708 
   93050    91.775452   -684.90582    72733.917   -17248.563    1243.0802   -18491.643     361.1529     233.7599 
   93100    96.852447   -329.33066    72765.767   -17210.584    1311.8471   -18522.431    361.18427    246.69143 
   93150    98.043136   -288.99688    72868.951   -17190.477    1327.9748   -18518.452    361.67357    249.72422 
   93200     94.84024   -724.62691    72885.003   -17207.946    1284.5922   -18492.538    361.99945    241.56617 
   93250    95.060858   -668.78174    72788.011   -17211.302    1287.5804   -18498.882    362.36583     242.1281 
   93300    95.347822   -595.41922    72734.095   -17212.444    1291.4673   -18503.911    362.36934    242.85903 
   93350    94.104932   -415.21604    72701.054   -17235.697    1274.6326    -18510.33    362.52643    239.69328 
   93400    96.848763   -605.43174    72699.617   -17213.442    1311.7972   -18525.239    362.79212    246.68205 
   93450    94.972877   -769.86996    72612.928   -17253.922    1286.3887   -18540.311    362.72573    241.90401 
   93500    92.178755   -657.53398    72641.564   -17279.973    1248.5429   -18528.516    362.63479    234.78714 
   93550    92.621065   -269.68216     72698.27   -17279.636    1254.5339    -18534.17    362.35234    235.91374 
   93600    92.458373   -719.31445    72715.074   -17274.538    1252.3302   -18526.868    362.56271    235.49935 
   93650    94.371459   -318.55113     72706.65   -17230.515    1278.2426   -18508.758    362.45376    240.37215 
   93700    94.690957   -566.52356    72716.303   -17232.627    1282.5702   -18515.197    362.02126    241.18593 
   93750     93.65502   -604.74573    72657.679   -17239.787    1268.5386   -18508.325    362.25117    238.54732 
   93800     95.86492   -507.73136    72678.902   -17226.989    1298.4713    -18525.46    362.27381    244.17612 
   93850     93.70527   -601.51033     72696.16   -17251.543    1269.2192   -18520.762    362.35686    238.67531 
   93900    94.721321   -538.51219    72722.843   -17241.185    1282.9814   -18524.167    362.46704    241.26328 
   93950    93.107162   -574.03457      72653.6   -17256.073     1261.118   -18517.191    363.12645    237.15188 
   94000     93.84816   -471.54971    72633.925   -17250.011    1271.1546   -18521.166    362.90469    239.03926 
   94050    93.366806   -335.38039     72669.54   -17266.048    1264.6348   -18530.683    362.49886    237.81321 
   94100    93.422433   -314.88228    72745.273   -17252.716    1265.3883   -18518.105    362.05815     237.9549 
   94150    93.382781   -566.91882    72796.093   -17266.368    1264.8512   -18531.219    362.65174     237.8539 
   94200    90.493635   -207.68468    72745.561   -17303.086    1225.7183   -18528.804    363.73759      230.495 
   94250    93.359992   -359.91171    72757.436   -17306.155    1264.5425   -18570.698    364.13033    237.79585 
   94300    94.373422   -135.67843    72726.072    -17293.97    1278.2692   -18572.239    363.82344    240.37715 
   94350    94.304476     -152.658    72735.733   -17292.066    1277.3353   -18569.401    364.38745    240.20153 
   94400    92.115679   -487.63458    72743.354   -17292.745    1247.6885   -18540.433    365.13818    234.62648 
   94450    94.489845   -404.93319    72758.018   -17294.775    1279.8461   -18574.621     364.7119    240.67369 
   94500    92.889458   -350.05091    72759.032   -17282.819    1258.1692   -18540.988    365.24345    236.59736 
   94550    94.034226    70.407263    72814.477   -17270.157    1273.6749   -18543.832    364.36636    239.51318 
   94600    92.138795   -97.839407     72838.24   -17275.781    1248.0016   -18523.783    364.42931    234.68536 
   94650    93.467434   -419.79766    72904.816   -17270.076    1265.9978   -18536.074    364.06053    238.06952 
   94700    92.191048   -515.99066    72896.557   -17312.703    1248.7094   -18561.412    364.23579    234.81846 
   94750    92.844917   -309.30225    72866.773   -17292.746    1257.5659   -18550.312    364.58313    236.48391 
   94800    95.110196   -615.04894    72860.316   -17281.102    1288.2487   -18569.351    364.69996    242.25377 
   94850    93.426632   -459.39684    72881.662   -17263.073    1265.4451   -18528.518    365.19227    237.96559 
   94900     94.47404   -411.40289    72867.332   -17281.949    1279.6321   -18561.581    366.01644    240.63343 
   94950    92.675601   -491.73716     72880.85   -17275.045    1255.2726   -18530.317    365.63049    236.05265 
   95000    93.814446   -195.82658      72874.1   -17304.481     1270.698   -18575.179    365.10296    238.95339 
   95050    93.286249   -454.41469    72894.332   -17308.035    1263.5437   -18571.579    366.07911    237.60802 
   95100    93.062811    -347.1138    72908.314   -17289.963    1260.5172    -18550.48    366.46681    237.03891 
   95150    93.979138    -434.6117    72926.269   -17255.039    1272.9287   -18527.967    366.96018    239.37287 
   95200    92.458725   -948.57132    72878.298   -17265.705     1252.335    -18518.04    367.11832    235.50025 
   95250    94.162427   -507.66918     72835.54   -17256.211    1275.4113   -18531.622    367.47504    239.83972 
   95300    94.794632   -231.25001    72887.339   -17232.266    1283.9744    -18516.24    368.41365    241.45001 
   95350    97.082893   -513.12632     72929.82   -17251.745    1314.9685   -18566.714     369.0824     247.2784 
   95400      94.7974   -512.54001    72963.747    -17262.59    1284.0119   -18546.602    368.62646    241.45705 
   95450    94.182458   -470.32572    72976.846   -17246.741    1275.6826   -18522.424    368.41449    239.89074 
   95500    93.394336   -500.12076    72975.085   -17235.556    1265.0077   -18500.564    368.31728    237.88333 
   95550    93.919758   -241.50816     73034.02   -17226.868    1272.1244   -18498.993    368.65559    239.22163 
   95600    96.904046   -289.59131    73081.467   -17226.958     1312.546   -18539.504    369.23529    246.82286 
   95650    93.291139    -87.01537    73102.414   -17224.409    1263.6099   -18488.019    369.78881    237.62048 
   95700    95.235637   -520.32434    73111.504   -17245.383    1289.9477    -18535.33    370.14062    242.57328 
   95750    93.529414   -507.41725    73158.898   -17220.022    1266.8373   -18486.859    370.59062    238.22739 
   95800    97.992142   -290.55135    73151.814    -17261.73     1327.284   -18589.014    370.70894    249.59433 
   95850    93.567842   -242.29527    73159.634   -17265.348    1267.3578   -18532.706     371.0963    238.32527 
   95900     93.97068   -490.30536    73125.669    -17222.28    1272.8142   -18495.094    370.98679    239.35133 
   95950    88.584899   -604.44743    73092.914     -17283.2    1199.8648   -18483.065    371.30133    225.63328 
   96000    90.771252   -354.98033    73089.285    -17268.29    1229.4785   -18497.768    371.78269    231.20211 
   96050    94.616138   -30.421055    73099.649   -17269.643    1281.5568     -18551.2    371.65712    240.99537 
   96100    92.758831   -98.486301    73146.425   -17275.127    1256.3999   -18531.527    371.98301    236.26465 
   96150    96.655659   -435.14781    73101.103   -17274.076    1309.1817   -18583.257     372.4505     246.1902 
   96200    93.823846   -389.50925    73140.045   -17265.671    1270.8253   -18536.497    372.75827    238.97733 
   96250     92.28908   -807.56719    73105.721   -17233.018    1250.0372   -18483.055    372.93441    235.06815 
   96300    90.779806   -555.74672    73078.489   -17255.268    1229.5944   -18484.863    372.85511     231.2239 
   96350    91.764559   -598.47898    73144.532    -17238.48    1242.9327   -18481.413    372.81143    233.73215 
   96400    92.613217    -266.5135    73104.245   -17259.838    1254.4276   -18514.265    373.35203    235.89375 
   96450    91.874215   -619.30921    73106.002   -17263.977    1244.4179   -18508.395    373.60768    234.01145 
   96500    91.922401   -726.60475    73103.812   -17262.874    1245.0706   -18507.945     374.1555    234.13419 
   96550    93.681188   -805.60744    73101.911   -17269.167     1268.893    -18538.06     373.3368    238.61397 
   96600    91.909489   -643.00811    73085.685   -17271.688    1244.8957   -18516.583    373.51833     234.1013 
   96650    92.841822   -280.14376    73094.343    -17280.45     1257.524   -18537.974     374.2424    236.47603 
   96700    94.354899   -380.48928    73046.933   -17274.517    1278.0183   -18552.536    374.24786    240.32997 
   96750    92.039253    -524.7769    73061.571    -17273.36    1246.6534   -18520.013    374.29876    234.43182 
   96800    95.613162   -260.70529    73043.749       -17253    1295.0612   -18548.061    375.09964    243.53487 
   96850    93.395644   -378.62392    73116.405   -17252.896    1265.0254   -18517.921    374.95671    237.88666 
   96900    92.878928   -677.94892    73138.917   -17268.686    1258.0266   -18526.712    375.43293    236.57054 
   96950     95.19274   -696.43883    73157.665   -17258.753    1289.3667    -18548.12    375.39081    242.46402 
   97000    93.619869   -846.38214    73156.534   -17290.922    1268.0625   -18558.985    376.08128    238.45778 
   97050    91.529338   -779.91866    73071.434   -17277.255    1239.7467   -18517.002    376.00468    233.13302 
   97100    90.820084   -764.96239    72979.382   -17301.103      1230.14   -18531.243    376.10733    231.32649 
   97150     94.50475   -118.02136    73003.796   -17238.985     1280.048   -18519.033    377.05416    240.71165 
   97200    94.064488   -509.88279    73062.318   -17259.918    1274.0848   -18534.003    377.37209    239.59026 
   97250    92.208111   -591.28879    73091.069   -17246.164    1248.9405   -18495.105    377.08321    234.86191 
   97300    92.640998   -359.10446    73087.448   -17260.404    1254.8039   -18515.208    377.66913    235.96451 
   97350    93.951964   -335.81755    73094.005   -17268.126    1272.5607   -18540.687    377.86923    239.30366 
   97400    93.989074   -259.37399     73174.75   -17264.373    1273.0633   -18537.437    378.16447    239.39818 
   97450    93.670651   -303.75124    73213.444   -17264.492    1268.7503   -18533.242    379.27222    238.58713 
   97500    96.146862   -144.80562    73202.239   -17257.967    1302.2901   -18560.257    379.41859    244.89425 
   97550    97.869398   -457.05061    73146.399   -17245.316    1325.6215   -18570.937    379.99275    249.28169 
   97600    95.733067   -279.64081    73112.452   -17237.236    1296.6853   -18533.921    380.40759    243.84028 
   97650    96.449019   -13.206279    73091.981   -17215.931    1306.3828   -18522.313     380.9372    245.66387 
   97700    96.078617   -291.40639    73099.445   -17202.727    1301.3657   -18504.093    381.94098    244.72042 
   97750    94.579075   -226.61209     73110.68   -17203.502    1281.0547   -18484.557    382.47479    240.90096 
   97800    96.820886   -274.50926    73001.141   -17236.043    1311.4196   -18547.462    382.30793    246.61105 
   97850    94.448811   -274.59179    72997.216   -17272.526    1279.2903   -18551.817    382.82811    240.56917 
   97900    91.529669   -204.13619    73005.695   -17280.149    1239.7511     -18519.9    382.78002    233.13387 
   97950     92.55475   -531.30345    72974.675   -17290.385    1253.6357   -18544.021    382.26168    235.74483 
   98000    93.120478   -657.87138    72930.312   -17320.548    1261.2983   -18581.846    382.29398    237.18579 
   98050    96.366767   -292.70825    72910.449   -17290.944    1305.2687   -18596.212    382.27035    245.45437 
   98100    91.955948   -229.69498     72942.62   -17289.015     1245.525    -18534.54    382.98156    234.21963 
   98150    95.212878   -520.04604    72948.923   -17296.365    1289.6395   -18586.004    383.16405    242.51531 
   98200    91.992721   -269.34672    72905.611   -17304.469    1246.0231   -18550.492     382.8708     234.3133 
   98250    96.117421   -315.49242    72936.543   -17286.157    1301.8913   -18588.049    382.74915    244.81926 
   98300    93.812958   -319.66158    72964.656   -17306.763    1270.6778   -18577.441    382.76977     238.9496 
   98350    91.933755   -341.25115    72952.773   -17266.706    1245.2244    -18511.93    383.05457    234.16311 
   98400    94.537761   -239.46036    72937.235   -17307.485    1280.4951    -18587.98    383.07623    240.79573 
   98450      94.5723   -377.91346    72966.328   -17294.268     1280.963   -18575.231     383.5232    240.88371 
   98500    96.361226   -323.14902    72990.735   -17305.011    1305.1936   -18610.205    383.37145    245.44025 
   98550    93.221375    -700.7012    73013.899   -17318.915     1262.665    -18581.58    383.93178    237.44278 
   98600    92.748486   -273.61974    73024.712   -17325.601    1256.2598   -18581.861     383.6145     236.2383 
   98650    93.360664   -672.72994    73003.006   -17318.398    1264.5516    -18582.95    383.57747    237.79757 
   98700    89.840654   -253.41459    73045.305   -17334.956    1216.8738    -18551.83    383.84988     228.8318 
   98750    91.459043   -348.59529    73099.855   -17305.863    1238.7945   -18544.658    384.42729    232.95398 
   98800    92.039299   -615.77124    73016.714   -17292.188     1246.654   -18538.842    384.27215    234.43194 
   98850    93.026818   -492.47812    73023.586   -17278.923    1260.0297   -18538.953    385.11823    236.94723 
   98900    99.010522   -587.36966    72924.942   -17233.056    1341.0778   -18574.134    384.88971    252.18824 
   98950    96.761037   -501.64047    72874.476   -17244.292     1310.609   -18554.901    384.44311    246.45861 
   99000    94.230529   -906.74129    72832.746   -17232.244    1276.3338   -18508.578    384.07673    240.01319 
   99050    93.673946    -95.10275    72876.681   -17249.263    1268.7949   -18518.058    384.22937    238.59552 
   99100    93.340686   -675.29262    72824.281   -17266.306     1264.281   -18530.587    384.65325    237.74668 
   99150    97.228736   -575.08667    72887.066   -17228.537    1316.9439   -18545.481    384.99737    247.64987 
   99200     95.55772   -133.14411    72887.213   -17222.778    1294.3103   -18517.088    385.18554    243.39365 
   99250    97.259721   -494.33852    72824.759   -17221.179    1317.3636   -18538.543    385.75916     247.7288 
   99300    94.261074   -632.07172    72847.649   -17256.332    1276.7475    -18533.08    385.77527    240.09099 
   99350    91.937215   -432.88293    72864.181   -17249.741    1245.2713   -18495.012    385.58812    234.17192 
   99400    93.697994   -834.91746    72810.509   -17298.733    1269.1207   -18567.853    385.65047    238.65677 
   99450    92.829705   -809.97796     72761.82   -17303.066    1257.3599   -18560.426    385.19156    236.44517 
   99500    93.496779   -468.22155    72714.575   -17290.256    1266.3952   -18556.651    385.24816    238.14426 
   99550    94.342357   -906.70976    72709.065   -17262.042    1277.8484    -18539.89    385.02609    240.29802 
   99600    94.758629   -342.59007    72679.099   -17253.862    1283.4868   -18537.349    385.81714     241.3583 
   99650    93.256372   -170.40526    72698.653   -17273.601     1263.139    -18536.74    386.60148    237.53192 
   99700    90.856105   -145.47291    72757.375   -17264.584    1230.6278   -18495.211    386.87749    231.41824 
   99750    90.595017   -332.94323    72719.633   -17275.796    1227.0915   -18502.887    387.16744    230.75323 
   99800     94.17508   -340.00609    72681.482    -17273.08    1275.5827   -18548.662    387.01191    239.87195 
   99850    94.421467   -246.19776      72728.8   -17243.199      1278.92   -18522.119    387.25151    240.49952 
   99900    93.557148   -462.06362    72733.743   -17251.232    1267.2129   -18518.445    387.70833    238.29803 
   99950    92.282197   -508.38794    72771.936   -17294.375     1249.944   -18544.319    388.33022    235.05062 
  100000    95.884031   -521.76378      72783.5   -17259.725    1298.7301   -18558.455    388.73196     244.2248 
Loop time of 85.0578 on 128 procs for 100000 steps with 4545 atoms

Performance: 507.890 ns/day, 0.047 hours/ns, 1175.671 timesteps/s
99.3% CPU use with 128 MPI tasks x no OpenMP threads

MPI task timing breakdown:
Section |  min time  |  avg time  |  max time  |%varavg| %total
---------------------------------------------------------------
Pair    | 12.353     | 36.11      | 57.952     | 314.0 | 42.45
Neigh   | 0.26199    | 0.71644    | 2.0464     |  78.2 |  0.84
Comm    | 16.935     | 38.441     | 63.878     | 323.5 | 45.19
Output  | 0.14557    | 0.14976    | 0.2817     |   3.0 |  0.18
Modify  | 5.939      | 8.7007     | 11.968     |  61.7 | 10.23
Other   |            | 0.9405     |            |       |  1.11

Nlocal:    35.5078 ave 95 max 13 min
Histogram: 87 9 0 0 0 0 0 2 14 16
Nghost:    610.109 ave 785 max 335 min
Histogram: 32 0 0 0 0 2 30 1 31 32
Neighs:    0 ave 0 max 0 min
Histogram: 128 0 0 0 0 0 0 0 0 0
FullNghs:  3655.23 ave 12695 max 617 min
Histogram: 96 0 0 0 0 0 0 2 12 18

Total # of neighbors = 467870
Ave neighs/atom = 102.942
Neighbor list builds = 5668
Dangerous builds = 0

write_data		${DIR}/data.eq-${NAME}-${TEMP}
write_data		run_19/data.eq-${NAME}-${TEMP}
write_data		run_19/data.eq-het_freeze_19-${TEMP}
write_data		run_19/data.eq-het_freeze_19-240
undump          1

reset_timestep  0

unfix           2
unfix           3
unfix           4


################################################
#######         Run Simulation         #########
################################################

log				${DIR}/log.run_${NAME}
log				run_19/log.run_${NAME}
log				run_19/log.run_het_freeze_19
