LAMMPS data file via write_data, version 16 Mar 2018, timestep = 100000

5031 atoms
2 atom types

0.0000000000000000e+00 4.9219999999999999e+01 xlo xhi
0.0000000000000000e+00 4.9019635930410494e+01 ylo yhi
1.1116780297195845e+00 3.8888321970280828e+01 zlo zhi

Masses

1 18.015
2 12.01

Atoms # atomic

140 2 0.0000000000000000e+00 2.8417180249513345e+00 3.1337494176399798e+00 0 0 0
142 2 0.0000000000000000e+00 0.0000000000000000e+00 3.1337494176399798e+00 0 0 0
144 2 1.2305000000000001e+00 7.1042950623783474e-01 3.1337494176399798e+00 0 0 0
151 2 1.2305000000000001e+00 2.1312885187134998e+00 3.1337494176399798e+00 0 0 0
153 2 2.4610000000000003e+00 2.8417180249513345e+00 3.1337494176399798e+00 0 0 0
155 2 2.4610000000000003e+00 0.0000000000000000e+00 3.1337494176399798e+00 0 0 0
157 2 3.6915000000000004e+00 7.1042950623783474e-01 3.1337494176399798e+00 0 0 0
172 2 3.6914999999999996e+00 2.1312885187134998e+00 3.1337494176399798e+00 0 0 0
174 2 4.9220000000000006e+00 2.8417180249513332e+00 3.1337494176399798e+00 0 0 0
176 2 4.9220000000000006e+00 0.0000000000000000e+00 3.1337494176399798e+00 0 0 0
178 2 6.1524999999999999e+00 7.1042950623783407e-01 3.1337494176399798e+00 0 0 0
201 2 6.1524999999999999e+00 2.1312885187134989e+00 3.1337494176399798e+00 0 0 0
203 2 7.3829999999999991e+00 2.8417180249513345e+00 3.1337494176399798e+00 0 0 0
205 2 7.3829999999999991e+00 0.0000000000000000e+00 3.1337494176399798e+00 0 0 0
207 2 8.6134999999999984e+00 7.1042950623783407e-01 3.1337494176399798e+00 0 0 0
238 2 8.6134999999999984e+00 2.1312885187135002e+00 3.1337494176399798e+00 0 0 0
147 2 0.0000000000000000e+00 4.2625770374269996e+00 3.1337494176399798e+00 0 0 0
149 2 1.2305000000000001e+00 4.9730065436648339e+00 3.1337494176399798e+00 0 0 0
164 2 1.2305000000000001e+00 6.3938655561404980e+00 3.1337494176399798e+00 0 0 0
168 2 2.4610000000000003e+00 4.2625770374269996e+00 3.1337494176399798e+00 0 0 0
170 2 3.6914999999999996e+00 4.9730065436648339e+00 3.1337494176399798e+00 0 0 0
193 2 3.6914999999999996e+00 6.3938655561404980e+00 3.1337494176399798e+00 0 0 0
145 2 0.0000000000000000e+00 7.1042950623783341e+00 3.1337494176399798e+00 0 0 0
166 2 2.4610000000000003e+00 7.1042950623783341e+00 3.1337494176399798e+00 0 0 0
197 2 4.9220000000000006e+00 4.2625770374269978e+00 3.1337494176399798e+00 0 0 0
199 2 6.1524999999999999e+00 4.9730065436648339e+00 3.1337494176399798e+00 0 0 0
230 2 6.1524999999999999e+00 6.3938655561404980e+00 3.1337494176399798e+00 0 0 0
234 2 7.3829999999999991e+00 4.2625770374269996e+00 3.1337494176399798e+00 0 0 0
236 2 8.6135000000000002e+00 4.9730065436648339e+00 3.1337494176399798e+00 0 0 0
275 2 8.6135000000000002e+00 6.3938655561404980e+00 3.1337494176399798e+00 0 0 0
195 2 4.9220000000000006e+00 7.1042950623783341e+00 3.1337494176399798e+00 0 0 0
232 2 7.3830000000000009e+00 7.1042950623783341e+00 3.1337494176399798e+00 0 0 0
160 2 0.0000000000000000e+00 8.5251540748539991e+00 3.1337494176399798e+00 0 0 0
162 2 1.2305000000000001e+00 9.2355835810918343e+00 3.1337494176399798e+00 0 0 0
189 2 2.4610000000000003e+00 8.5251540748539991e+00 3.1337494176399798e+00 0 0 0
191 2 3.6915000000000004e+00 9.2355835810918343e+00 3.1337494176399798e+00 0 0 0
158 2 0.0000000000000000e+00 1.1366872099805333e+01 3.1337494176399798e+00 0 0 0
185 2 1.2305000000000001e+00 1.0656442593567498e+01 3.1337494176399798e+00 0 0 0
187 2 2.4610000000000003e+00 1.1366872099805333e+01 3.1337494176399798e+00 0 0 0
222 2 3.6914999999999996e+00 1.0656442593567499e+01 3.1337494176399798e+00 0 0 0
226 2 4.9220000000000006e+00 8.5251540748539991e+00 3.1337494176399798e+00 0 0 0
228 2 6.1524999999999999e+00 9.2355835810918343e+00 3.1337494176399798e+00 0 0 0
271 2 7.3830000000000009e+00 8.5251540748539991e+00 3.1337494176399798e+00 0 0 0
273 2 8.6134999999999984e+00 9.2355835810918343e+00 3.1337494176399798e+00 0 0 0
224 2 4.9220000000000006e+00 1.1366872099805333e+01 3.1337494176399798e+00 0 0 0
267 2 6.1524999999999999e+00 1.0656442593567499e+01 3.1337494176399798e+00 0 0 0
269 2 7.3829999999999991e+00 1.1366872099805333e+01 3.1337494176399798e+00 0 0 0
314 2 8.6134999999999984e+00 1.0656442593567498e+01 3.1337494176399798e+00 0 0 0
141 2 0.0000000000000000e+00 1.4208590124756650e+00 6.2210934362634518e+00 0 0 0
143 2 0.0000000000000000e+00 0.0000000000000000e+00 6.2210934362634518e+00 0 0 0
152 2 1.2305000000000001e+00 2.1312885187134998e+00 6.2210934362634518e+00 0 0 0
154 2 2.4610000000000003e+00 1.4208590124756650e+00 6.2210934362634518e+00 0 0 0
156 2 2.4610000000000003e+00 0.0000000000000000e+00 6.2210934362634518e+00 0 0 0
173 2 3.6914999999999996e+00 2.1312885187134998e+00 6.2210934362634518e+00 0 0 0
150 2 1.2305000000000001e+00 3.5521475311891644e+00 6.2210934362634518e+00 0 0 0
171 2 3.6914999999999996e+00 3.5521475311891644e+00 6.2210934362634518e+00 0 0 0
469 2 0.0000000000000000e+00 2.8417180249513345e+00 9.3084374548861835e+00 0 0 0
470 2 0.0000000000000000e+00 0.0000000000000000e+00 9.3084374548861835e+00 0 0 0
471 2 1.2305000000000001e+00 7.1042950623783474e-01 9.3084374548861835e+00 0 0 0
475 2 1.2305000000000001e+00 2.1312885187134998e+00 9.3084374548861835e+00 0 0 0
476 2 2.4610000000000003e+00 2.8417180249513345e+00 9.3084374548861835e+00 0 0 0
477 2 2.4610000000000003e+00 0.0000000000000000e+00 9.3084374548861835e+00 0 0 0
478 2 3.6915000000000004e+00 7.1042950623783474e-01 9.3084374548861835e+00 0 0 0
486 2 3.6914999999999996e+00 2.1312885187134998e+00 9.3084374548861835e+00 0 0 0
175 2 4.9220000000000006e+00 1.4208590124756650e+00 6.2210934362634518e+00 0 0 0
177 2 4.9220000000000006e+00 0.0000000000000000e+00 6.2210934362634518e+00 0 0 0
202 2 6.1524999999999999e+00 2.1312885187134989e+00 6.2210934362634518e+00 0 0 0
204 2 7.3829999999999991e+00 1.4208590124756659e+00 6.2210934362634518e+00 0 0 0
206 2 7.3829999999999991e+00 0.0000000000000000e+00 6.2210934362634518e+00 0 0 0
239 2 8.6134999999999984e+00 2.1312885187135002e+00 6.2210934362634518e+00 0 0 0
200 2 6.1524999999999999e+00 3.5521475311891644e+00 6.2210934362634518e+00 0 0 0
237 2 8.6134999999999984e+00 3.5521475311891657e+00 6.2210934362634518e+00 0 0 0
487 2 4.9220000000000006e+00 2.8417180249513332e+00 9.3084374548861835e+00 0 0 0
488 2 4.9220000000000006e+00 0.0000000000000000e+00 9.3084374548861835e+00 0 0 0
489 2 6.1524999999999999e+00 7.1042950623783407e-01 9.3084374548861835e+00 0 0 0
501 2 6.1524999999999999e+00 2.1312885187134989e+00 9.3084374548861835e+00 0 0 0
502 2 7.3829999999999991e+00 2.8417180249513345e+00 9.3084374548861835e+00 0 0 0
503 2 7.3829999999999991e+00 0.0000000000000000e+00 9.3084374548861835e+00 0 0 0
504 2 8.6134999999999984e+00 7.1042950623783407e-01 9.3084374548861835e+00 0 0 0
520 2 8.6134999999999984e+00 2.1312885187135002e+00 9.3084374548861835e+00 0 0 0
146 2 0.0000000000000000e+00 5.6834360499026637e+00 6.2210934362634518e+00 0 0 0
148 2 0.0000000000000000e+00 4.2625770374269996e+00 6.2210934362634518e+00 0 0 0
165 2 1.2305000000000001e+00 6.3938655561404980e+00 6.2210934362634518e+00 0 0 0
167 2 2.4610000000000003e+00 5.6834360499026637e+00 6.2210934362634518e+00 0 0 0
169 2 2.4610000000000003e+00 4.2625770374269996e+00 6.2210934362634518e+00 0 0 0
194 2 3.6914999999999996e+00 6.3938655561404980e+00 6.2210934362634518e+00 0 0 0
163 2 1.2305000000000001e+00 7.8147245686161639e+00 6.2210934362634518e+00 0 0 0
192 2 3.6914999999999996e+00 7.8147245686161639e+00 6.2210934362634518e+00 0 0 0
473 2 0.0000000000000000e+00 4.2625770374269996e+00 9.3084374548861835e+00 0 0 0
474 2 1.2305000000000001e+00 4.9730065436648339e+00 9.3084374548861835e+00 0 0 0
482 2 1.2305000000000001e+00 6.3938655561404980e+00 9.3084374548861835e+00 0 0 0
484 2 2.4610000000000003e+00 4.2625770374269996e+00 9.3084374548861835e+00 0 0 0
485 2 3.6914999999999996e+00 4.9730065436648339e+00 9.3084374548861835e+00 0 0 0
497 2 3.6914999999999996e+00 6.3938655561404980e+00 9.3084374548861835e+00 0 0 0
472 2 0.0000000000000000e+00 7.1042950623783341e+00 9.3084374548861835e+00 0 0 0
483 2 2.4610000000000003e+00 7.1042950623783341e+00 9.3084374548861835e+00 0 0 0
196 2 4.9220000000000006e+00 5.6834360499026637e+00 6.2210934362634518e+00 0 0 0
198 2 4.9220000000000006e+00 4.2625770374269978e+00 6.2210934362634518e+00 0 0 0
231 2 6.1524999999999999e+00 6.3938655561404980e+00 6.2210934362634518e+00 0 0 0
233 2 7.3829999999999991e+00 5.6834360499026637e+00 6.2210934362634518e+00 0 0 0
235 2 7.3829999999999991e+00 4.2625770374269996e+00 6.2210934362634518e+00 0 0 0
276 2 8.6135000000000002e+00 6.3938655561404980e+00 6.2210934362634518e+00 0 0 0
229 2 6.1524999999999999e+00 7.8147245686161639e+00 6.2210934362634518e+00 0 0 0
274 2 8.6135000000000002e+00 7.8147245686161639e+00 6.2210934362634518e+00 0 0 0
499 2 4.9220000000000006e+00 4.2625770374269978e+00 9.3084374548861835e+00 0 0 0
500 2 6.1524999999999999e+00 4.9730065436648339e+00 9.3084374548861835e+00 0 0 0
516 2 6.1524999999999999e+00 6.3938655561404980e+00 9.3084374548861835e+00 0 0 0
518 2 7.3829999999999991e+00 4.2625770374269996e+00 9.3084374548861835e+00 0 0 0
519 2 8.6135000000000002e+00 4.9730065436648339e+00 9.3084374548861835e+00 0 0 0
539 2 8.6135000000000002e+00 6.3938655561404980e+00 9.3084374548861835e+00 0 0 0
498 2 4.9220000000000006e+00 7.1042950623783341e+00 9.3084374548861835e+00 0 0 0
517 2 7.3830000000000009e+00 7.1042950623783341e+00 9.3084374548861835e+00 0 0 0
159 2 0.0000000000000000e+00 9.9460130873296642e+00 6.2210934362634518e+00 0 0 0
161 2 0.0000000000000000e+00 8.5251540748539991e+00 6.2210934362634518e+00 0 0 0
188 2 2.4610000000000003e+00 9.9460130873296642e+00 6.2210934362634518e+00 0 0 0
190 2 2.4610000000000003e+00 8.5251540748539991e+00 6.2210934362634518e+00 0 0 0
184 2 1.2305000000000001e+00 1.2077301606043163e+01 6.2210934362634518e+00 0 0 0
186 2 1.2305000000000001e+00 1.0656442593567498e+01 6.2210934362634518e+00 0 0 0
221 2 3.6914999999999996e+00 1.2077301606043163e+01 6.2210934362634518e+00 0 0 0
223 2 3.6914999999999996e+00 1.0656442593567499e+01 6.2210934362634518e+00 0 0 0
480 2 0.0000000000000000e+00 8.5251540748539991e+00 9.3084374548861835e+00 0 0 0
481 2 1.2305000000000001e+00 9.2355835810918343e+00 9.3084374548861835e+00 0 0 0
495 2 2.4610000000000003e+00 8.5251540748539991e+00 9.3084374548861835e+00 0 0 0
496 2 3.6915000000000004e+00 9.2355835810918343e+00 9.3084374548861835e+00 0 0 0
479 2 0.0000000000000000e+00 1.1366872099805333e+01 9.3084374548861835e+00 0 0 0
493 2 1.2305000000000001e+00 1.0656442593567498e+01 9.3084374548861835e+00 0 0 0
494 2 2.4610000000000003e+00 1.1366872099805333e+01 9.3084374548861835e+00 0 0 0
512 2 3.6914999999999996e+00 1.0656442593567499e+01 9.3084374548861835e+00 0 0 0
225 2 4.9220000000000006e+00 9.9460130873296642e+00 6.2210934362634518e+00 0 0 0
227 2 4.9220000000000006e+00 8.5251540748539991e+00 6.2210934362634518e+00 0 0 0
270 2 7.3830000000000009e+00 9.9460130873296642e+00 6.2210934362634518e+00 0 0 0
272 2 7.3830000000000009e+00 8.5251540748539991e+00 6.2210934362634518e+00 0 0 0
266 2 6.1524999999999999e+00 1.2077301606043163e+01 6.2210934362634518e+00 0 0 0
268 2 6.1524999999999999e+00 1.0656442593567499e+01 6.2210934362634518e+00 0 0 0
313 2 8.6135000000000002e+00 1.2077301606043163e+01 6.2210934362634518e+00 0 0 0
315 2 8.6134999999999984e+00 1.0656442593567498e+01 6.2210934362634518e+00 0 0 0
514 2 4.9220000000000006e+00 8.5251540748539991e+00 9.3084374548861835e+00 0 0 0
515 2 6.1524999999999999e+00 9.2355835810918343e+00 9.3084374548861835e+00 0 0 0
537 2 7.3830000000000009e+00 8.5251540748539991e+00 9.3084374548861835e+00 0 0 0
538 2 8.6134999999999984e+00 9.2355835810918343e+00 9.3084374548861835e+00 0 0 0
513 2 4.9220000000000006e+00 1.1366872099805333e+01 9.3084374548861835e+00 0 0 0
535 2 6.1524999999999999e+00 1.0656442593567499e+01 9.3084374548861835e+00 0 0 0
536 2 7.3829999999999991e+00 1.1366872099805333e+01 9.3084374548861835e+00 0 0 0
559 2 8.6134999999999984e+00 1.0656442593567498e+01 9.3084374548861835e+00 0 0 0
2487 1 4.9104505529002340e+00 1.0065336833552172e+01 1.6360592874240922e+01 0 0 0
4812 1 3.6628690110594677e+00 3.6765092812186544e+00 1.1932604566846814e+01 1 0 0
2637 1 8.7108680398987381e+00 5.3158589905511677e+00 1.6980564389628768e+01 0 0 0
11 1 4.3785076693631098e+00 9.3044818678427277e-01 1.1604648616929088e+01 0 1 0
1697 1 8.3644673994555774e+00 3.7218461728121186e+00 1.2506635284242050e+01 0 1 0
1640 1 1.0704132073296941e+00 1.4437965576612235e+00 1.8785578191715349e+01 0 1 0
2568 1 1.1208932649680856e+00 4.3315666816953495e+00 1.2395220978150162e+01 1 0 -1
93 1 9.3802823350375206e+00 1.2115505643972481e+01 1.5093961119758685e+01 0 1 0
30 1 5.8778835706101518e+00 5.2885703342450263e+00 1.2402101775923057e+01 0 0 0
977 1 5.9049764401528604e+00 4.9720999487338862e+00 1.5379802077871123e+01 1 1 1
1704 1 6.2590092914711857e+00 8.3165642043887935e+00 1.4418291409601904e+01 -1 0 -1
2312 1 6.7570265548189301e+00 8.2296987287313090e+00 1.1760983590724873e+01 0 0 0
1837 1 3.4495618327522899e+00 8.1524824892218994e+00 1.8816028500599149e+01 1 0 0
4352 1 1.9360270411350291e+00 9.5925961422926367e+00 1.2035997504363310e+01 0 1 0
2436 1 1.5666178767269126e+00 8.7086168855074710e+00 1.4700284280986105e+01 1 0 0
3263 1 8.4891389438260223e+00 7.9468087071909990e+00 1.6006799851485582e+01 0 0 0
4145 1 4.6287659694323944e+00 1.0136125877330619e+01 1.1929739376138208e+01 1 2 0
1612 1 7.3244099585845177e+00 5.5630681160867734e+00 1.9215239009362715e+01 0 1 0
1618 1 7.0090124685669046e+00 1.1197893779331032e+01 1.3807892818202498e+01 0 1 -1
5022 1 8.6566639438635189e+00 1.0251499541666915e+01 1.7511251002329519e+01 0 0 0
2528 1 2.1167579395869676e+00 1.1372977328892551e+01 1.6134671649905961e+01 1 1 -1
705 1 3.9772765299295854e+00 2.3696574817238378e+00 1.4869336311064904e+01 0 1 0
1583 1 5.6965866877755618e+00 1.1728924094360955e+00 1.8899457672955499e+01 0 -1 0
995 1 2.6232306521963884e+00 3.1366298183090175e+00 1.7089248485727669e+01 1 1 0
4293 1 1.3726329902101833e+00 5.5268021269015373e+00 1.6190168039774839e+01 1 1 0
1529 1 9.7090639869609756e+00 8.0061974416793547e+00 1.1583574354470215e+01 0 1 1
4235 1 8.5245584317527605e+00 2.9785122282527210e+00 1.5174961780265487e+01 -1 1 1
843 1 4.2751422381277093e-01 1.2009736763537923e+01 1.2034774312802437e+01 0 -1 0
906 1 3.7144392686599144e+00 7.1096385519107415e+00 1.5923953557313132e+01 0 1 0
3235 1 6.3770446525540532e+00 1.5233132070873570e+00 1.5956296368088625e+01 1 0 0
2349 1 3.6077709941954395e-01 7.0030862663435425e+00 1.2040503920904499e+01 0 0 0
2502 1 4.4733544748435481e+00 5.2154110796530979e+00 1.8521240332737776e+01 1 0 0
984 1 6.0145339464826222e+00 1.0023541860440996e+01 1.8841016961649242e+01 1 0 0
660 1 8.4594887271891341e+00 9.5035194303105164e-01 1.1561576097405901e+01 0 -1 1
4048 1 6.4228267232802783e-01 8.5956816083891709e+00 1.9655554179489904e+01 0 1 0
4273 1 3.4544703456906061e+00 2.3455702948912331e+00 2.3443788121381438e+01 1 0 0
754 1 3.2028771951761605e+00 9.7325667346558280e+00 2.4795958580876871e+01 0 0 -1
3358 1 8.2606608792629928e+00 8.6787827900575092e+00 2.8261454712124578e+01 0 0 0
15 1 9.5422967066887328e+00 4.2293574233736999e+00 2.5486009865739401e+01 1 0 0
1848 1 8.6559156688524386e+00 3.5073968577629233e+00 2.7930386757092592e+01 1 0 0
3131 1 3.1744811171438791e+00 4.5993287445229543e+00 2.0819521766699921e+01 1 1 0
1603 1 2.8270743678043799e+00 5.3481558256554651e+00 2.5985204231177882e+01 1 0 0
1691 1 8.7923716581190483e+00 3.3012354384942982e-01 2.8245206646775731e+01 0 1 -1
3436 1 6.7504662139219134e+00 7.3834522165045060e+00 2.2570199946756780e+01 1 0 0
4259 1 6.6677641631481341e+00 4.3453510501571060e+00 2.3107938027377536e+01 0 0 0
839 1 3.7352874117064734e+00 9.3541449496893065e+00 2.8791817121449384e+01 0 0 0
797 1 3.3193602544980974e+00 1.1424645017835471e+00 2.0555143229120215e+01 0 1 0
4983 1 1.7549489261790374e+00 7.1855113068514598e+00 2.1640592506656475e+01 1 0 0
4168 1 3.0351539379231371e+00 1.2167598569748533e+01 2.8531720876004602e+01 1 0 1
2369 1 9.2812356525872595e+00 5.3108975731341213e+00 2.1930249475644960e+01 0 0 0
4872 1 7.6584539649004286e+00 8.9546414622562942e+00 2.4461568417600834e+01 0 1 0
875 1 3.9933353269527427e+00 8.0112064964185343e+00 2.2680654805150670e+01 1 -1 0
4164 1 8.6712891745659100e+00 8.8292571359688476e-01 2.2475316490689277e+01 0 0 -1
1535 1 5.9789582965892398e+00 1.0241567687161726e+01 2.7603683360870082e+01 0 0 0
3408 1 2.7416557695955962e-01 2.1467723853767401e-01 2.6863205991092755e+01 0 0 0
47 1 2.9188868119312578e-01 3.0291922970354794e+00 2.8518155355553997e+01 1 0 0
3996 1 4.4809427990418378e+00 3.8239701039706704e+00 2.7778468338216335e+01 1 -1 -1
4847 1 5.8188423958784128e+00 1.0857610876983161e+01 2.4972377692675089e+01 0 1 -1
668 1 2.0518660609629165e+00 8.0827701591645997e+00 2.6739169562891327e+01 1 0 -1
4156 1 7.8284262563399976e-01 1.0621021564416766e+00 2.4105478354083512e+01 1 0 0
845 1 7.8600240817863165e+00 1.7671281389406650e+00 2.4995091695955402e+01 -1 1 -1
1740 1 5.3532859807606803e+00 1.6870675219590092e+00 2.5856551643006746e+01 0 1 0
924 1 7.2153890529541149e+00 3.0271830190165359e+00 2.0434371397577809e+01 2 0 0
3240 1 6.8144370596869919e-01 3.6846852273504620e+00 2.5395112744527164e+01 0 1 0
894 1 4.2018788870574628e+00 5.2073798772795250e+00 2.3568529967556316e+01 0 1 -1
2572 1 7.3435353041848703e+00 6.0018488489208615e+00 2.8950586545524860e+01 0 -1 1
4262 1 3.0474480064887083e-01 4.0244292016634668e+00 2.0464502129393765e+01 0 0 0
3500 1 7.8461011598032924e+00 8.1322173098343775e+00 2.0059041906627701e+01 1 0 -1
3303 1 9.7780125458257210e+00 7.0273265311944151e+00 2.6253916552293600e+01 1 0 0
2653 1 2.6727560853401715e+00 3.9548643819117819e+00 2.9828845227455137e+01 -1 0 0
2445 1 9.2012065841414170e+00 9.1615075610750498e+00 3.5207427289002972e+01 0 1 0
3282 1 4.5692566591478387e+00 2.9274617240100023e+00 3.2903608191860286e+01 -1 0 0
2371 1 8.2970523071569033e+00 4.6155543553593752e+00 3.1633199522599135e+01 0 1 0
978 1 1.2806024144232468e+00 2.7520802336903829e+00 3.2464407093399714e+01 0 1 1
1586 1 4.4672518388267877e+00 7.9026452007508361e+00 3.5447194298722657e+01 0 0 0
3289 1 3.6466978062753155e+00 5.6782867680961147e+00 3.1913271426294727e+01 1 1 -1
3247 1 7.1411645773261589e-01 9.4629505797689557e+00 3.1906686919016533e+01 1 -1 0
4040 1 8.0282688115894754e+00 1.6043590648132366e+00 3.7916586216461404e+01 1 0 -1
823 1 6.3389356936029291e+00 5.5513239221271800e+00 3.3545800045171347e+01 -1 -1 -1
2621 1 7.8888701946712336e+00 1.9775793917978779e+00 3.4844269643215448e+01 0 0 -1
2512 1 2.4893953914814779e+00 8.9525669236861793e-01 3.0613789402991678e+01 1 0 0
4871 1 8.3638683053706959e+00 1.8561347646154409e+00 3.2085380902239628e+01 0 0 0
1609 1 1.1019922195613294e+00 1.0253994262249471e+01 3.7278023427459885e+01 0 0 0
3298 1 5.9933641683341907e+00 1.0954969475718752e+01 3.5733952856858203e+01 0 -1 -1
4003 1 5.1420881116534503e+00 7.3531278040931856e+00 3.0256491907143371e+01 2 0 0
964 1 5.7988999195222624e+00 9.5135078756997302e+00 3.1918039494509539e+01 1 0 0
3517 1 6.0463907065548215e+00 3.1911757231485991e+00 3.0139778171717115e+01 1 0 0
3418 1 3.6654305098349722e+00 7.6093576869968926e-01 3.6151441702625704e+01 0 0 0
2641 1 9.0461970400855485e+00 5.6779618346716676e+00 3.4708482146310672e+01 0 0 0
3411 1 8.3690218722633247e+00 1.0165046116486456e+01 3.0847312471021269e+01 1 0 0
2631 1 8.4291708608839926e+00 5.8201764792472730e+00 3.7367831113574994e+01 0 0 -1
670 1 4.3299104950572724e+00 2.9516638181415460e+00 3.8597863559777693e+01 1 0 0
5021 1 5.6810428386274898e+00 3.1664953927823769e-01 3.8395198511413852e+01 0 1 0
3328 1 6.2644417985322285e+00 9.5055425576443255e+00 3.8308657675051215e+01 1 0 -1
120 1 4.4171471478987288e+00 5.1187327621906231e+00 3.5433342337477001e+01 0 0 0
4198 1 1.8307011259856028e+00 2.8897474420167546e+00 3.7972168557023615e+01 1 0 -1
1781 1 2.6406293192287444e+00 2.9756600959582036e+00 3.5150624972337681e+01 1 0 0
3230 1 6.0374797594090324e-01 5.5228296351730686e+00 3.7613895631565399e+01 0 0 0
3213 1 1.9850185283932527e+00 7.5874897094044638e+00 3.3533896750944905e+01 0 -1 0
3178 1 5.7742424449663607e+00 5.1699868708137595e+00 3.8120087769358776e+01 1 1 0
1615 1 6.5841152392970939e+00 8.7601253384999573e+00 3.4242609517160965e+01 0 0 0
1722 1 4.4782309463864367e+00 7.4949138880801929e+00 3.8257624934579347e+01 0 -1 -1
1551 1 2.8526176786939712e+00 1.0635579494927894e+01 3.5070779454646917e+01 0 1 0
4033 1 1.2450183500084157e-01 1.1262323928048458e+01 3.3990858136667939e+01 1 0 0
3261 1 8.7275346708417612e+00 8.4453633874315059e+00 3.7775003778703315e+01 0 0 0
3271 1 1.7412823952271150e+00 7.7198364368721917e+00 3.8492765626137810e+01 1 1 0
3414 1 3.8571306025915928e+00 1.1573133850490779e+01 3.2658710910219803e+01 1 0 1
860 1 1.8356158081316796e+00 1.2054090021111609e+01 3.0995654347177933e+01 1 1 -1
4090 1 5.7662126645467291e+00 9.8968139493775906e-02 3.4382334683995843e+01 1 1 -1
4066 1 3.2746365144661266e-01 6.0570152585316333e+00 3.4983791385812403e+01 0 0 -1
4885 1 5.3636276071426723e+00 1.2018551969597818e+01 3.8773497933975101e+01 0 1 -1
4188 1 5.1613706184028176e+00 3.1260850776488547e-01 3.1540358174901179e+01 1 0 0
181 2 0.0000000000000000e+00 1.2787731112280996e+01 3.1337494176399798e+00 0 0 0
183 2 1.2305000000000001e+00 1.3498160618518829e+01 3.1337494176399798e+00 0 0 0
218 2 2.4610000000000003e+00 1.2787731112280996e+01 3.1337494176399798e+00 0 0 0
220 2 3.6915000000000004e+00 1.3498160618518829e+01 3.1337494176399798e+00 0 0 0
179 2 0.0000000000000000e+00 1.5629449137232333e+01 3.1337494176399798e+00 0 0 0
214 2 1.2305000000000001e+00 1.4919019630994494e+01 3.1337494176399798e+00 0 0 0
216 2 2.4610000000000003e+00 1.5629449137232328e+01 3.1337494176399798e+00 0 0 0
259 2 3.6915000000000004e+00 1.4919019630994494e+01 3.1337494176399798e+00 0 0 0
595 2 8.6135000000000002e+00 2.2023314693372832e+01 9.3084374548861835e+00 0 0 0
263 2 4.9220000000000006e+00 1.2787731112280996e+01 3.1337494176399798e+00 0 0 0
265 2 6.1524999999999990e+00 1.3498160618518829e+01 3.1337494176399798e+00 0 0 0
310 2 7.3829999999999991e+00 1.2787731112280996e+01 3.1337494176399798e+00 0 0 0
312 2 8.6135000000000002e+00 1.3498160618518835e+01 3.1337494176399798e+00 0 0 0
261 2 4.9220000000000006e+00 1.5629449137232333e+01 3.1337494176399798e+00 0 0 0
306 2 6.1524999999999990e+00 1.4919019630994494e+01 3.1337494176399798e+00 0 0 0
308 2 7.3829999999999991e+00 1.5629449137232333e+01 3.1337494176399798e+00 0 0 0
353 2 8.6135000000000002e+00 1.4919019630994494e+01 3.1337494176399798e+00 0 0 0
210 2 0.0000000000000000e+00 1.7050308149707998e+01 3.1337494176399798e+00 0 0 0
255 2 2.4610000000000003e+00 1.7050308149707998e+01 3.1337494176399798e+00 0 0 0
208 2 0.0000000000000000e+00 1.9892026174659328e+01 3.1337494176399798e+00 0 0 0
212 2 1.2305000000000001e+00 1.7760737655945832e+01 3.1337494176399798e+00 0 0 0
251 2 1.2305000000000001e+00 1.9181596668421495e+01 3.1337494176399798e+00 0 0 0
253 2 2.4610000000000003e+00 1.9892026174659328e+01 3.1337494176399798e+00 0 0 0
257 2 3.6914999999999996e+00 1.7760737655945832e+01 3.1337494176399798e+00 0 0 0
298 2 3.6914999999999996e+00 1.9181596668421495e+01 3.1337494176399798e+00 0 0 0
302 2 4.9220000000000006e+00 1.7050308149707998e+01 3.1337494176399798e+00 0 0 0
349 2 7.3830000000000009e+00 1.7050308149707998e+01 3.1337494176399798e+00 0 0 0
300 2 4.9220000000000006e+00 1.9892026174659328e+01 3.1337494176399798e+00 0 0 0
304 2 6.1524999999999999e+00 1.7760737655945832e+01 3.1337494176399798e+00 0 0 0
345 2 6.1524999999999999e+00 1.9181596668421495e+01 3.1337494176399798e+00 0 0 0
347 2 7.3829999999999991e+00 1.9892026174659328e+01 3.1337494176399798e+00 0 0 0
351 2 8.6134999999999984e+00 1.7760737655945832e+01 3.1337494176399798e+00 0 0 0
387 2 8.6135000000000002e+00 1.9181596668421495e+01 3.1337494176399798e+00 0 0 0
245 2 0.0000000000000000e+00 2.4154603212086325e+01 3.1337494176399798e+00 0 0 0
247 2 0.0000000000000000e+00 2.1312885187134999e+01 3.1337494176399798e+00 0 0 0
249 2 1.2304999999999993e+00 2.2023314693372832e+01 3.1337494176399798e+00 0 0 0
290 2 1.2304999999999993e+00 2.3444173705848499e+01 3.1337494176399798e+00 0 0 0
292 2 2.4610000000000003e+00 2.4154603212086325e+01 3.1337494176399798e+00 0 0 0
294 2 2.4610000000000003e+00 2.1312885187134995e+01 3.1337494176399798e+00 0 0 0
296 2 3.6914999999999996e+00 2.2023314693372832e+01 3.1337494176399798e+00 0 0 0
337 2 3.6915000000000004e+00 2.3444173705848499e+01 3.1337494176399798e+00 0 0 0
339 2 4.9220000000000006e+00 2.4154603212086325e+01 3.1337494176399798e+00 0 0 0
341 2 4.9220000000000006e+00 2.1312885187134995e+01 3.1337494176399798e+00 0 0 0
343 2 6.1524999999999990e+00 2.2023314693372832e+01 3.1337494176399798e+00 0 0 0
379 2 6.1524999999999999e+00 2.3444173705848499e+01 3.1337494176399798e+00 0 0 0
381 2 7.3830000000000009e+00 2.4154603212086336e+01 3.1337494176399798e+00 0 0 0
383 2 7.3829999999999991e+00 2.1312885187134999e+01 3.1337494176399798e+00 0 0 0
385 2 8.6135000000000002e+00 2.2023314693372832e+01 3.1337494176399798e+00 0 0 0
413 2 8.6134999999999984e+00 2.3444173705848499e+01 3.1337494176399798e+00 0 0 0
182 2 0.0000000000000000e+00 1.2787731112280996e+01 6.2210934362634518e+00 0 0 0
219 2 2.4610000000000003e+00 1.2787731112280996e+01 6.2210934362634518e+00 0 0 0
180 2 0.0000000000000000e+00 1.4208590124756663e+01 6.2210934362634518e+00 0 0 0
215 2 1.2305000000000001e+00 1.4919019630994494e+01 6.2210934362634518e+00 0 0 0
217 2 2.4610000000000003e+00 1.4208590124756663e+01 6.2210934362634518e+00 0 0 0
260 2 3.6915000000000004e+00 1.4919019630994494e+01 6.2210934362634518e+00 0 0 0
491 2 0.0000000000000000e+00 1.2787731112280996e+01 9.3084374548861835e+00 0 0 0
492 2 1.2305000000000001e+00 1.3498160618518829e+01 9.3084374548861835e+00 0 0 0
510 2 2.4610000000000003e+00 1.2787731112280996e+01 9.3084374548861835e+00 0 0 0
511 2 3.6915000000000004e+00 1.3498160618518829e+01 9.3084374548861835e+00 0 0 0
490 2 0.0000000000000000e+00 1.5629449137232333e+01 9.3084374548861835e+00 0 0 0
508 2 1.2305000000000001e+00 1.4919019630994494e+01 9.3084374548861835e+00 0 0 0
509 2 2.4610000000000003e+00 1.5629449137232328e+01 9.3084374548861835e+00 0 0 0
531 2 3.6915000000000004e+00 1.4919019630994494e+01 9.3084374548861835e+00 0 0 0
264 2 4.9220000000000006e+00 1.2787731112280996e+01 6.2210934362634518e+00 0 0 0
311 2 7.3829999999999991e+00 1.2787731112280996e+01 6.2210934362634518e+00 0 0 0
262 2 4.9220000000000006e+00 1.4208590124756663e+01 6.2210934362634518e+00 0 0 0
307 2 6.1524999999999990e+00 1.4919019630994494e+01 6.2210934362634518e+00 0 0 0
309 2 7.3830000000000009e+00 1.4208590124756663e+01 6.2210934362634518e+00 0 0 0
354 2 8.6135000000000002e+00 1.4919019630994494e+01 6.2210934362634518e+00 0 0 0
533 2 4.9220000000000006e+00 1.2787731112280996e+01 9.3084374548861835e+00 0 0 0
534 2 6.1524999999999990e+00 1.3498160618518829e+01 9.3084374548861835e+00 0 0 0
557 2 7.3829999999999991e+00 1.2787731112280996e+01 9.3084374548861835e+00 0 0 0
558 2 8.6135000000000002e+00 1.3498160618518835e+01 9.3084374548861835e+00 0 0 0
532 2 4.9220000000000006e+00 1.5629449137232333e+01 9.3084374548861835e+00 0 0 0
555 2 6.1524999999999990e+00 1.4919019630994494e+01 9.3084374548861835e+00 0 0 0
556 2 7.3829999999999991e+00 1.5629449137232333e+01 9.3084374548861835e+00 0 0 0
579 2 8.6135000000000002e+00 1.4919019630994494e+01 9.3084374548861835e+00 0 0 0
211 2 0.0000000000000000e+00 1.7050308149707998e+01 6.2210934362634518e+00 0 0 0
213 2 1.2305000000000001e+00 1.6339878643470165e+01 6.2210934362634518e+00 0 0 0
256 2 2.4610000000000003e+00 1.7050308149707998e+01 6.2210934362634518e+00 0 0 0
258 2 3.6915000000000004e+00 1.6339878643470165e+01 6.2210934362634518e+00 0 0 0
209 2 0.0000000000000000e+00 1.8471167162183658e+01 6.2210934362634518e+00 0 0 0
252 2 1.2305000000000001e+00 1.9181596668421495e+01 6.2210934362634518e+00 0 0 0
254 2 2.4610000000000003e+00 1.8471167162183658e+01 6.2210934362634518e+00 0 0 0
299 2 3.6914999999999996e+00 1.9181596668421495e+01 6.2210934362634518e+00 0 0 0
506 2 0.0000000000000000e+00 1.7050308149707998e+01 9.3084374548861835e+00 0 0 0
529 2 2.4610000000000003e+00 1.7050308149707998e+01 9.3084374548861835e+00 0 0 0
505 2 0.0000000000000000e+00 1.9892026174659328e+01 9.3084374548861835e+00 0 0 0
507 2 1.2305000000000001e+00 1.7760737655945832e+01 9.3084374548861835e+00 0 0 0
527 2 1.2305000000000001e+00 1.9181596668421495e+01 9.3084374548861835e+00 0 0 0
528 2 2.4610000000000003e+00 1.9892026174659328e+01 9.3084374548861835e+00 0 0 0
530 2 3.6914999999999996e+00 1.7760737655945832e+01 9.3084374548861835e+00 0 0 0
551 2 3.6914999999999996e+00 1.9181596668421495e+01 9.3084374548861835e+00 0 0 0
303 2 4.9220000000000006e+00 1.7050308149707998e+01 6.2210934362634518e+00 0 0 0
305 2 6.1524999999999999e+00 1.6339878643470165e+01 6.2210934362634518e+00 0 0 0
350 2 7.3830000000000009e+00 1.7050308149707998e+01 6.2210934362634518e+00 0 0 0
352 2 8.6134999999999984e+00 1.6339878643470165e+01 6.2210934362634518e+00 0 0 0
301 2 4.9220000000000006e+00 1.8471167162183658e+01 6.2210934362634518e+00 0 0 0
346 2 6.1524999999999999e+00 1.9181596668421495e+01 6.2210934362634518e+00 0 0 0
348 2 7.3829999999999991e+00 1.8471167162183658e+01 6.2210934362634518e+00 0 0 0
388 2 8.6135000000000002e+00 1.9181596668421495e+01 6.2210934362634518e+00 0 0 0
553 2 4.9220000000000006e+00 1.7050308149707998e+01 9.3084374548861835e+00 0 0 0
577 2 7.3830000000000009e+00 1.7050308149707998e+01 9.3084374548861835e+00 0 0 0
552 2 4.9220000000000006e+00 1.9892026174659328e+01 9.3084374548861835e+00 0 0 0
554 2 6.1524999999999999e+00 1.7760737655945832e+01 9.3084374548861835e+00 0 0 0
575 2 6.1524999999999999e+00 1.9181596668421495e+01 9.3084374548861835e+00 0 0 0
576 2 7.3829999999999991e+00 1.9892026174659328e+01 9.3084374548861835e+00 0 0 0
578 2 8.6134999999999984e+00 1.7760737655945832e+01 9.3084374548861835e+00 0 0 0
596 2 8.6135000000000002e+00 1.9181596668421495e+01 9.3084374548861835e+00 0 0 0