LAMMPS data file via write_data, version 16 Mar 2018, timestep = 8000000

5031 atoms
2 atom types

0.0000000000000000e+00 4.9219999999999999e+01 xlo xhi
0.0000000000000000e+00 4.9019635930410494e+01 ylo yhi
-1.7763862558731702e-01 4.0177638625607571e+01 zlo zhi

Masses

1 18.015
2 12.01

Atoms # atomic

140 2 0.0000000000000000e+00 2.8417180249513345e+00 1.9824593336088334e+00 0 0 0
142 2 0.0000000000000000e+00 0.0000000000000000e+00 1.9824593336088334e+00 0 0 0
144 2 1.2305000000000001e+00 7.1042950623783474e-01 1.9824593336088334e+00 0 0 0
151 2 1.2305000000000001e+00 2.1312885187134998e+00 1.9824593336088334e+00 0 0 0
153 2 2.4610000000000003e+00 2.8417180249513345e+00 1.9824593336088334e+00 0 0 0
155 2 2.4610000000000003e+00 0.0000000000000000e+00 1.9824593336088334e+00 0 0 0
157 2 3.6915000000000004e+00 7.1042950623783474e-01 1.9824593336088334e+00 0 0 0
172 2 3.6914999999999996e+00 2.1312885187134998e+00 1.9824593336088334e+00 0 0 0
174 2 4.9220000000000006e+00 2.8417180249513332e+00 1.9824593336088334e+00 0 0 0
176 2 4.9220000000000006e+00 0.0000000000000000e+00 1.9824593336088334e+00 0 0 0
178 2 6.1524999999999999e+00 7.1042950623783407e-01 1.9824593336088334e+00 0 0 0
201 2 6.1524999999999999e+00 2.1312885187134989e+00 1.9824593336088334e+00 0 0 0
203 2 7.3829999999999991e+00 2.8417180249513345e+00 1.9824593336088334e+00 0 0 0
205 2 7.3829999999999991e+00 0.0000000000000000e+00 1.9824593336088334e+00 0 0 0
207 2 8.6134999999999984e+00 7.1042950623783407e-01 1.9824593336088334e+00 0 0 0
238 2 8.6134999999999984e+00 2.1312885187135002e+00 1.9824593336088334e+00 0 0 0
147 2 0.0000000000000000e+00 4.2625770374269996e+00 1.9824593336088334e+00 0 0 0
149 2 1.2305000000000001e+00 4.9730065436648339e+00 1.9824593336088334e+00 0 0 0
164 2 1.2305000000000001e+00 6.3938655561404980e+00 1.9824593336088334e+00 0 0 0
168 2 2.4610000000000003e+00 4.2625770374269996e+00 1.9824593336088334e+00 0 0 0
170 2 3.6914999999999996e+00 4.9730065436648339e+00 1.9824593336088334e+00 0 0 0
193 2 3.6914999999999996e+00 6.3938655561404980e+00 1.9824593336088334e+00 0 0 0
145 2 0.0000000000000000e+00 7.1042950623783341e+00 1.9824593336088334e+00 0 0 0
166 2 2.4610000000000003e+00 7.1042950623783341e+00 1.9824593336088334e+00 0 0 0
197 2 4.9220000000000006e+00 4.2625770374269978e+00 1.9824593336088334e+00 0 0 0
199 2 6.1524999999999999e+00 4.9730065436648339e+00 1.9824593336088334e+00 0 0 0
230 2 6.1524999999999999e+00 6.3938655561404980e+00 1.9824593336088334e+00 0 0 0
234 2 7.3829999999999991e+00 4.2625770374269996e+00 1.9824593336088334e+00 0 0 0
236 2 8.6135000000000002e+00 4.9730065436648339e+00 1.9824593336088334e+00 0 0 0
275 2 8.6135000000000002e+00 6.3938655561404980e+00 1.9824593336088334e+00 0 0 0
195 2 4.9220000000000006e+00 7.1042950623783341e+00 1.9824593336088334e+00 0 0 0
232 2 7.3830000000000009e+00 7.1042950623783341e+00 1.9824593336088334e+00 0 0 0
160 2 0.0000000000000000e+00 8.5251540748539991e+00 1.9824593336088334e+00 0 0 0
162 2 1.2305000000000001e+00 9.2355835810918343e+00 1.9824593336088334e+00 0 0 0
189 2 2.4610000000000003e+00 8.5251540748539991e+00 1.9824593336088334e+00 0 0 0
191 2 3.6915000000000004e+00 9.2355835810918343e+00 1.9824593336088334e+00 0 0 0
158 2 0.0000000000000000e+00 1.1366872099805333e+01 1.9824593336088334e+00 0 0 0
185 2 1.2305000000000001e+00 1.0656442593567498e+01 1.9824593336088334e+00 0 0 0
187 2 2.4610000000000003e+00 1.1366872099805333e+01 1.9824593336088334e+00 0 0 0
222 2 3.6914999999999996e+00 1.0656442593567499e+01 1.9824593336088334e+00 0 0 0
226 2 4.9220000000000006e+00 8.5251540748539991e+00 1.9824593336088334e+00 0 0 0
228 2 6.1524999999999999e+00 9.2355835810918343e+00 1.9824593336088334e+00 0 0 0
271 2 7.3830000000000009e+00 8.5251540748539991e+00 1.9824593336088334e+00 0 0 0
273 2 8.6134999999999984e+00 9.2355835810918343e+00 1.9824593336088334e+00 0 0 0
224 2 4.9220000000000006e+00 1.1366872099805333e+01 1.9824593336088334e+00 0 0 0
267 2 6.1524999999999999e+00 1.0656442593567499e+01 1.9824593336088334e+00 0 0 0
269 2 7.3829999999999991e+00 1.1366872099805333e+01 1.9824593336088334e+00 0 0 0
314 2 8.6134999999999984e+00 1.0656442593567498e+01 1.9824593336088334e+00 0 0 0
141 2 0.0000000000000000e+00 1.4208590124756650e+00 5.2805454218672647e+00 0 0 0
143 2 0.0000000000000000e+00 0.0000000000000000e+00 5.2805454218672647e+00 0 0 0
152 2 1.2305000000000001e+00 2.1312885187134998e+00 5.2805454218672647e+00 0 0 0
154 2 2.4610000000000003e+00 1.4208590124756650e+00 5.2805454218672647e+00 0 0 0
156 2 2.4610000000000003e+00 0.0000000000000000e+00 5.2805454218672647e+00 0 0 0
173 2 3.6914999999999996e+00 2.1312885187134998e+00 5.2805454218672647e+00 0 0 0
150 2 1.2305000000000001e+00 3.5521475311891644e+00 5.2805454218672647e+00 0 0 0
171 2 3.6914999999999996e+00 3.5521475311891644e+00 5.2805454218672647e+00 0 0 0
175 2 4.9220000000000006e+00 1.4208590124756650e+00 5.2805454218672647e+00 0 0 0
177 2 4.9220000000000006e+00 0.0000000000000000e+00 5.2805454218672647e+00 0 0 0
202 2 6.1524999999999999e+00 2.1312885187134989e+00 5.2805454218672647e+00 0 0 0
204 2 7.3829999999999991e+00 1.4208590124756659e+00 5.2805454218672647e+00 0 0 0
206 2 7.3829999999999991e+00 0.0000000000000000e+00 5.2805454218672647e+00 0 0 0
239 2 8.6134999999999984e+00 2.1312885187135002e+00 5.2805454218672647e+00 0 0 0
200 2 6.1524999999999999e+00 3.5521475311891644e+00 5.2805454218672647e+00 0 0 0
237 2 8.6134999999999984e+00 3.5521475311891657e+00 5.2805454218672647e+00 0 0 0
146 2 0.0000000000000000e+00 5.6834360499026637e+00 5.2805454218672647e+00 0 0 0
148 2 0.0000000000000000e+00 4.2625770374269996e+00 5.2805454218672647e+00 0 0 0
165 2 1.2305000000000001e+00 6.3938655561404980e+00 5.2805454218672647e+00 0 0 0
167 2 2.4610000000000003e+00 5.6834360499026637e+00 5.2805454218672647e+00 0 0 0
169 2 2.4610000000000003e+00 4.2625770374269996e+00 5.2805454218672647e+00 0 0 0
194 2 3.6914999999999996e+00 6.3938655561404980e+00 5.2805454218672647e+00 0 0 0
163 2 1.2305000000000001e+00 7.8147245686161639e+00 5.2805454218672647e+00 0 0 0
192 2 3.6914999999999996e+00 7.8147245686161639e+00 5.2805454218672647e+00 0 0 0
196 2 4.9220000000000006e+00 5.6834360499026637e+00 5.2805454218672647e+00 0 0 0
198 2 4.9220000000000006e+00 4.2625770374269978e+00 5.2805454218672647e+00 0 0 0
231 2 6.1524999999999999e+00 6.3938655561404980e+00 5.2805454218672647e+00 0 0 0
233 2 7.3829999999999991e+00 5.6834360499026637e+00 5.2805454218672647e+00 0 0 0
235 2 7.3829999999999991e+00 4.2625770374269996e+00 5.2805454218672647e+00 0 0 0
276 2 8.6135000000000002e+00 6.3938655561404980e+00 5.2805454218672647e+00 0 0 0
229 2 6.1524999999999999e+00 7.8147245686161639e+00 5.2805454218672647e+00 0 0 0
274 2 8.6135000000000002e+00 7.8147245686161639e+00 5.2805454218672647e+00 0 0 0
159 2 0.0000000000000000e+00 9.9460130873296642e+00 5.2805454218672647e+00 0 0 0
161 2 0.0000000000000000e+00 8.5251540748539991e+00 5.2805454218672647e+00 0 0 0
188 2 2.4610000000000003e+00 9.9460130873296642e+00 5.2805454218672647e+00 0 0 0
190 2 2.4610000000000003e+00 8.5251540748539991e+00 5.2805454218672647e+00 0 0 0
184 2 1.2305000000000001e+00 1.2077301606043163e+01 5.2805454218672647e+00 0 0 0
186 2 1.2305000000000001e+00 1.0656442593567498e+01 5.2805454218672647e+00 0 0 0
221 2 3.6914999999999996e+00 1.2077301606043163e+01 5.2805454218672647e+00 0 0 0
223 2 3.6914999999999996e+00 1.0656442593567499e+01 5.2805454218672647e+00 0 0 0
266 2 6.1524999999999999e+00 1.2077301606043163e+01 5.2805454218672647e+00 0 0 0
268 2 6.1524999999999999e+00 1.0656442593567499e+01 5.2805454218672647e+00 0 0 0
313 2 8.6135000000000002e+00 1.2077301606043163e+01 5.2805454218672647e+00 0 0 0
315 2 8.6134999999999984e+00 1.0656442593567498e+01 5.2805454218672647e+00 0 0 0
225 2 4.9220000000000006e+00 9.9460130873296642e+00 5.2805454218672647e+00 0 0 0
227 2 4.9220000000000006e+00 8.5251540748539991e+00 5.2805454218672647e+00 0 0 0
270 2 7.3830000000000009e+00 9.9460130873296642e+00 5.2805454218672647e+00 0 0 0
272 2 7.3830000000000009e+00 8.5251540748539991e+00 5.2805454218672647e+00 0 0 0
469 2 0.0000000000000000e+00 2.8417180249513345e+00 8.5786315101218396e+00 0 0 0
470 2 0.0000000000000000e+00 0.0000000000000000e+00 8.5786315101218396e+00 0 0 0
471 2 1.2305000000000001e+00 7.1042950623783474e-01 8.5786315101218396e+00 0 0 0
475 2 1.2305000000000001e+00 2.1312885187134998e+00 8.5786315101218396e+00 0 0 0
476 2 2.4610000000000003e+00 2.8417180249513345e+00 8.5786315101218396e+00 0 0 0
477 2 2.4610000000000003e+00 0.0000000000000000e+00 8.5786315101218396e+00 0 0 0
478 2 3.6915000000000004e+00 7.1042950623783474e-01 8.5786315101218396e+00 0 0 0
486 2 3.6914999999999996e+00 2.1312885187134998e+00 8.5786315101218396e+00 0 0 0
487 2 4.9220000000000006e+00 2.8417180249513332e+00 8.5786315101218396e+00 0 0 0
488 2 4.9220000000000006e+00 0.0000000000000000e+00 8.5786315101218396e+00 0 0 0
489 2 6.1524999999999999e+00 7.1042950623783407e-01 8.5786315101218396e+00 0 0 0
501 2 6.1524999999999999e+00 2.1312885187134989e+00 8.5786315101218396e+00 0 0 0
502 2 7.3829999999999991e+00 2.8417180249513345e+00 8.5786315101218396e+00 0 0 0
503 2 7.3829999999999991e+00 0.0000000000000000e+00 8.5786315101218396e+00 0 0 0
504 2 8.6134999999999984e+00 7.1042950623783407e-01 8.5786315101218396e+00 0 0 0
520 2 8.6134999999999984e+00 2.1312885187135002e+00 8.5786315101218396e+00 0 0 0
473 2 0.0000000000000000e+00 4.2625770374269996e+00 8.5786315101218396e+00 0 0 0
474 2 1.2305000000000001e+00 4.9730065436648339e+00 8.5786315101218396e+00 0 0 0
482 2 1.2305000000000001e+00 6.3938655561404980e+00 8.5786315101218396e+00 0 0 0
484 2 2.4610000000000003e+00 4.2625770374269996e+00 8.5786315101218396e+00 0 0 0
485 2 3.6914999999999996e+00 4.9730065436648339e+00 8.5786315101218396e+00 0 0 0
497 2 3.6914999999999996e+00 6.3938655561404980e+00 8.5786315101218396e+00 0 0 0
472 2 0.0000000000000000e+00 7.1042950623783341e+00 8.5786315101218396e+00 0 0 0
483 2 2.4610000000000003e+00 7.1042950623783341e+00 8.5786315101218396e+00 0 0 0
499 2 4.9220000000000006e+00 4.2625770374269978e+00 8.5786315101218396e+00 0 0 0
500 2 6.1524999999999999e+00 4.9730065436648339e+00 8.5786315101218396e+00 0 0 0
516 2 6.1524999999999999e+00 6.3938655561404980e+00 8.5786315101218396e+00 0 0 0
518 2 7.3829999999999991e+00 4.2625770374269996e+00 8.5786315101218396e+00 0 0 0
519 2 8.6135000000000002e+00 4.9730065436648339e+00 8.5786315101218396e+00 0 0 0
539 2 8.6135000000000002e+00 6.3938655561404980e+00 8.5786315101218396e+00 0 0 0
498 2 4.9220000000000006e+00 7.1042950623783341e+00 8.5786315101218396e+00 0 0 0
517 2 7.3830000000000009e+00 7.1042950623783341e+00 8.5786315101218396e+00 0 0 0
480 2 0.0000000000000000e+00 8.5251540748539991e+00 8.5786315101218396e+00 0 0 0
481 2 1.2305000000000001e+00 9.2355835810918343e+00 8.5786315101218396e+00 0 0 0
495 2 2.4610000000000003e+00 8.5251540748539991e+00 8.5786315101218396e+00 0 0 0
496 2 3.6915000000000004e+00 9.2355835810918343e+00 8.5786315101218396e+00 0 0 0
479 2 0.0000000000000000e+00 1.1366872099805333e+01 8.5786315101218396e+00 0 0 0
493 2 1.2305000000000001e+00 1.0656442593567498e+01 8.5786315101218396e+00 0 0 0
494 2 2.4610000000000003e+00 1.1366872099805333e+01 8.5786315101218396e+00 0 0 0
512 2 3.6914999999999996e+00 1.0656442593567499e+01 8.5786315101218396e+00 0 0 0
537 2 7.3830000000000009e+00 8.5251540748539991e+00 8.5786315101218396e+00 0 0 0
535 2 6.1524999999999999e+00 1.0656442593567499e+01 8.5786315101218396e+00 0 0 0
515 2 6.1524999999999999e+00 9.2355835810918343e+00 8.5786315101218396e+00 0 0 0
559 2 8.6134999999999984e+00 1.0656442593567498e+01 8.5786315101218396e+00 0 0 0
514 2 4.9220000000000006e+00 8.5251540748539991e+00 8.5786315101218396e+00 0 0 0
538 2 8.6134999999999984e+00 9.2355835810918343e+00 8.5786315101218396e+00 0 0 0
513 2 4.9220000000000006e+00 1.1366872099805333e+01 8.5786315101218396e+00 0 0 0
536 2 7.3829999999999991e+00 1.1366872099805333e+01 8.5786315101218396e+00 0 0 0
4886 1 2.6351374527746203e+00 1.0273089750156164e+00 1.0820411087753564e+01 0 -3 0
1617 1 5.1590774842743032e+00 2.4909289746709065e+00 1.1526588713702614e+01 3 3 0
3363 1 9.0758313148428975e+00 1.0666072193150976e+01 1.0983448308910651e+01 -2 1 0
4808 1 7.9375776028760336e+00 3.2336655334241486e+00 1.1006264377822436e+01 0 1 0
4062 1 1.2726623994410602e+00 5.2903197755083315e+00 1.1410604596364127e+01 0 1 0
4308 1 4.3808422759329444e+00 5.5348029300902368e+00 1.1548102129424635e+01 3 3 0
4840 1 8.7073656301964437e+00 5.7022012928277439e+00 1.1881089512088659e+01 1 2 0
2673 1 6.3396515832220048e+00 6.9522807779852966e+00 1.1068876731121946e+01 0 2 0
4023 1 7.6340532986524856e+00 1.2169304855368090e+01 1.9182981625691767e+01 3 3 -1
2386 1 9.3933390798153233e+00 9.6325396052401280e-01 1.1538243426628767e+01 2 1 0
3242 1 4.9617489677121416e+00 1.1566405353982603e+01 1.1145350082265248e+01 1 2 0
3267 1 6.7486955517837623e+00 9.5915226821295470e+00 1.1815767971338111e+01 -1 -3 -1
4314 1 1.2163424040262807e+00 2.4999411414964987e+00 1.4012505027173550e+01 0 0 0
2617 1 3.5165991138468526e+00 3.4003959889503483e+00 1.5198965962478775e+01 3 1 0
2352 1 5.6414067897261502e+00 1.6267377939854568e+00 1.4151803551077119e+01 -2 0 0
4268 1 7.8907611549178487e+00 2.6788122332316195e+00 1.5314870194471453e+01 5 -2 -1
769 1 4.3424593459054499e+00 5.9605267404303506e+00 1.4355566434907983e+01 -1 1 -1
51 1 2.3666612071510507e+00 7.9678525767863837e+00 1.5092651175989184e+01 -2 0 0
2399 1 8.5852719807028155e+00 5.3648461424840805e+00 1.4617632851395310e+01 0 -1 0
635 1 6.5607237346086036e+00 7.0107697828211535e+00 1.5510461299788384e+01 -2 1 -1
2373 1 2.5767558652870397e+00 1.0650914296934538e+01 1.4089541598530435e+01 1 3 -1
4199 1 4.9919933986701692e-01 2.6929276071199810e+00 1.1302761229565887e+01 -1 0 -1
4283 1 5.1548339923443329e+00 1.1262028036195604e+01 1.8380956326108208e+01 -3 -4 1
843 1 4.9883993587056423e+00 1.1395249920024808e+01 1.5403612056631408e+01 2 -3 0
2574 1 6.7030921743672174e+00 9.5090655092279093e+00 1.4761803524936424e+01 -2 1 0
4351 1 3.5321103675621446e+00 3.1929212239061311e+00 1.8124952589043694e+01 1 -1 1
21 1 3.0826182336976671e+00 5.0744378227999609e-01 1.8950516663797917e+01 -1 0 0
4224 1 4.6380026724610319e+00 8.4880482414476859e+00 1.9221872425443369e+01 0 1 -1
1740 1 7.7572971902877175e+00 2.3674683271200920e+00 1.8284281675317153e+01 1 3 0
3987 1 1.7993944089954812e+00 4.9719098584140289e+00 1.8878263871378863e+01 1 0 -1
3196 1 2.4016673427662076e+00 7.6785122330948496e+00 1.7902596316497149e+01 1 2 0
1694 1 5.9856487219445347e+00 4.3114896121312860e+00 1.9155808447238048e+01 -2 2 0
1569 1 6.6635884202887246e+00 6.9827804928630286e+00 1.8247329413729801e+01 -1 0 0
3382 1 9.1128081632441873e+00 8.0212976876105788e+00 1.9136680638839319e+01 1 1 -1
4237 1 1.2113516239449365e+00 1.1804849763361123e+01 1.8020998685615091e+01 -2 1 1
859 1 2.5390404957475132e-01 9.1665644157740829e+00 1.8817003757663674e+01 1 1 -1
10 1 9.7685234444684399e-01 1.2248960150806740e+01 1.5363856651208335e+01 1 0 0
3153 1 1.7715558340474566e+00 1.1632384994589330e+01 1.1323608909893844e+01 1 -3 -1
1667 1 9.7227641072128606e+00 1.0595810382877838e+01 1.8310725123711688e+01 -1 0 0
3330 1 9.2360874369150903e+00 1.0595518278721158e+01 1.5457374771097117e+01 1 0 0
1713 1 9.7315318725797670e+00 1.0016791632557489e+00 1.4355061963128161e+01 2 0 -1
1560 1 1.3403320563538917e-01 6.7595483706671065e+00 1.3961885933148046e+01 0 0 0
4818 1 1.0068419808618370e+00 2.1921088550311416e+00 2.2556248517917346e+01 2 1 0
3410 1 3.1500631337595726e+00 5.9379025925792039e-01 2.1732289987673525e+01 0 0 0
863 1 5.6004714265473936e+00 1.6300342801034919e+00 2.2552186344217926e+01 0 1 -1
621 1 9.6970622154777679e+00 1.0764922796596309e+01 2.6639385139510022e+01 -2 0 0
3171 1 1.8837072570823108e+00 4.8992020364681039e+00 2.1613532581615043e+01 -2 1 0
2464 1 4.3697109326635895e+00 6.0780532866785126e+00 2.2846988541156104e+01 2 2 0
3440 1 6.0944877372919271e+00 4.3992949162032904e+00 2.2097183066963233e+01 2 1 0
4970 1 8.7035356687892911e+00 5.1758750050288569e+00 2.2781950278839147e+01 1 1 0
4255 1 3.0940211207485726e+00 1.0367600324375340e+01 2.2756683751078402e+01 1 3 0
1765 1 3.8463940580497097e-01 9.6448965019715835e+00 2.1462237790974488e+01 -5 -2 -1
2481 1 4.9080690311606308e+00 8.5468375624063313e+00 2.1913000131633538e+01 -2 4 0
4855 1 9.0904291275872584e+00 7.8631340357752029e+00 2.2062459106913693e+01 0 -2 1
3372 1 7.2376348502021761e+00 9.7258573502494237e+00 2.2667943000834324e+01 -1 0 -1
4896 1 1.2816121076888765e+00 2.2099907820562779e+00 2.5227288318140278e+01 0 2 0
4021 1 3.6391716968146999e+00 3.0797594583774872e+00 2.6271658210902874e+01 2 2 0
4915 1 5.7738716473286438e+00 1.3861765586461072e+00 2.5408759835506274e+01 0 3 0
4204 1 7.9247995418623134e+00 2.4894779693586173e+00 2.6746798631243355e+01 0 0 -1
1604 1 5.3334122699988455e+00 1.0925718404210944e+01 2.9172285029568783e+01 0 1 0
2345 1 4.5668306759704071e+00 5.9035094090682412e+00 2.5609363758135128e+01 2 -1 0
4996 1 2.3229008409079550e+00 7.5804519522429628e+00 2.6334987152854161e+01 0 0 0
820 1 8.5558078185358504e+00 5.1873330967604101e+00 2.5703500595266632e+01 0 1 0
3271 1 6.8401203102489356e+00 7.1321932780322630e+00 2.6691497986481270e+01 1 0 0
894 1 3.1450660657235132e+00 1.0153507916887856e+01 2.5548171665159984e+01 0 1 -1
3383 1 1.4604696657270705e-01 6.8055385017698811e+00 2.2626918928107358e+01 0 -1 0
962 1 5.5872305970110565e+00 1.1408406053766560e+01 2.6447063560014850e+01 1 0 1
2433 1 7.4928391530763871e+00 9.6263082100505475e+00 2.5561804624865086e+01 1 1 0
96 1 2.0348860943324505e+00 5.1325327895927417e+00 2.9938831251219312e+01 -2 3 1
872 1 6.5888254196753699e+00 6.7826594110407799e+00 2.9507595918320057e+01 1 0 0
4073 1 8.4442883753249234e+00 2.1243585356319805e+00 2.9620358203729360e+01 3 1 1
4330 1 7.7245380090267968e-01 1.1929812354731542e+01 2.9109423705199493e+01 1 2 0
3289 1 2.3368686268661372e+00 7.5950729689217811e+00 2.9001081790021143e+01 1 1 -1
1653 1 4.1665181826485647e+00 3.4794544999247896e+00 2.9081061090787490e+01 0 1 0
1487 1 9.8024598027266592e+00 7.3230839112271262e-01 2.5662618338801117e+01 -2 1 0
1673 1 3.1465128282642154e+00 1.1782547834264192e+00 2.9969512491659273e+01 1 -2 1
1732 1 1.1548866205734927e+00 1.2175627459679347e+01 2.6469820113164857e+01 0 1 0
3192 1 2.2687671629754882e-01 9.2718664513698705e+00 2.9773159768058122e+01 -1 1 0
1804 1 9.7600952028327814e+00 7.1835992564595241e-01 2.2724024686275321e+01 0 -2 0
2676 1 8.0001103923873096e+00 1.2119501684613706e+01 2.1756075445363003e+01 0 -2 1
715 1 3.5773699051688368e-02 6.6984072495844300e+00 2.5330516058497185e+01 -1 1 0
2409 1 3.3869952304037816e+00 1.2045825203594969e+00 3.2563816898766561e+01 -2 -1 0
623 1 3.9616136370137744e+00 3.4500949711633146e+00 3.3159287936671021e+01 -2 0 0
4334 1 1.9017724524703310e+00 5.0103459639151362e+00 3.2449892592474569e+01 2 -1 0
3417 1 6.8299281695838925e+00 4.4447198434936173e+00 3.3326654641965177e+01 -1 -1 -1
1726 1 4.8115020931562205e+00 8.6366897490078838e+00 3.3213432141613595e+01 0 -2 0
1724 1 5.3788286311088527e+00 1.1873271683669227e+01 3.6398700631181242e+01 4 0 0
1612 1 9.3453306527366582e+00 3.8084860674705325e+00 3.9886771194627002e+01 -1 4 0
2600 1 4.7882793022037209e+00 1.1605742340797940e+01 3.9646526502708241e+01 -1 1 0
4780 1 3.9564003642233705e+00 3.7933456425679410e+00 3.5713158805564660e+01 3 0 0
4999 1 4.2103293962832025e+00 1.1556969801282659e+00 3.6247095493110493e+01 -2 3 0
4980 1 8.1328560092803208e+00 2.6152205999878579e+00 3.5453768616492269e+01 3 -1 -1
865 1 4.6172508714946714e+00 8.6193370882095000e+00 3.0440732959353401e+01 3 0 0
71 1 2.0730667421633298e+00 7.6023039293012502e+00 3.3231616305267181e+01 0 0 -1
901 1 2.1232363724396639e+00 7.6133599882025615e+00 3.6109720900841737e+01 -1 0 0
4264 1 7.3508435488257744e+00 7.1804645971661358e+00 3.3538150301628647e+01 1 5 0
2565 1 6.4649918507178663e+00 4.3002641462881792e+00 3.6830154709801192e+01 1 -2 -1
2437 1 6.9462427049174682e+00 7.0802679645607460e+00 3.6307103512527291e+01 -1 2 0
4954 1 6.6133165467351240e+00 4.0019930079242636e+00 3.0281071388827147e+01 -1 2 0
4937 1 5.0852110222044109e+00 1.1347329523181601e+01 3.3490947799465360e+01 -1 1 0
4126 1 6.7235010014622087e+00 4.7842985547107899e+00 3.9624623032280340e+01 0 -2 0
819 1 9.4251587101010692e+00 1.1363888736776782e+00 4.0000493264166863e+01 -1 0 0
2693 1 4.8186962786925065e+00 9.7321607288906531e-01 3.9104796448980068e+01 1 3 -1
4790 1 3.0515820359723744e-01 9.3001644878891891e+00 3.2514990504619604e+01 -1 0 0
2597 1 4.6776637567183252e+00 8.9274543920617440e+00 3.8980312305938767e+01 1 1 1
1588 1 2.3437464776261590e+00 7.8679267723899127e+00 3.9575528180267824e+01 -2 -3 0
3301 1 1.8489807603419677e+00 5.0625344915471304e+00 3.6812546208259960e+01 1 -1 -1
964 1 2.1707067294133915e+00 5.3659695134245284e+00 3.9497758101067205e+01 0 -1 0
979 1 6.8124967913532615e+00 7.5026884690874489e+00 4.0018298630534971e+01 4 1 0
1512 1 1.0536012381031836e+00 1.1810455828450218e+01 3.3704368945086358e+01 1 1 0
2423 1 4.5298670583864808e+00 9.0831523137337538e+00 3.6463206367287924e+01 2 0 0
4957 1 9.7543661020456209e+00 8.5798731134154398e+00 3.6519848967651981e+01 1 -1 0
823 1 6.6227422393058362e+00 3.8693128981429670e-01 3.4997892560291959e+01 0 2 -1
2584 1 9.4612045998864129e+00 8.2455327203426272e+00 3.9284285672262385e+01 -1 0 0
4058 1 9.8416902402614816e+00 1.0907761827495914e+01 3.9917033762434045e+01 -1 0 0
2576 1 2.2532529816276581e-01 1.2014880677070076e+01 3.6532898814200934e+01 1 -1 1
1718 1 4.4150867842200086e+00 3.6243927921349326e+00 3.9832737826477810e+01 1 0 0
4866 1 1.3863891028554116e+00 8.4840620667755218e-02 3.3679337884957462e+01 1 -2 0
181 2 0.0000000000000000e+00 1.2787731112280996e+01 1.9824593336088334e+00 0 0 0
183 2 1.2305000000000001e+00 1.3498160618518829e+01 1.9824593336088334e+00 0 0 0
218 2 2.4610000000000003e+00 1.2787731112280996e+01 1.9824593336088334e+00 0 0 0
220 2 3.6915000000000004e+00 1.3498160618518829e+01 1.9824593336088334e+00 0 0 0
179 2 0.0000000000000000e+00 1.5629449137232333e+01 1.9824593336088334e+00 0 0 0
214 2 1.2305000000000001e+00 1.4919019630994494e+01 1.9824593336088334e+00 0 0 0
216 2 2.4610000000000003e+00 1.5629449137232328e+01 1.9824593336088334e+00 0 0 0
259 2 3.6915000000000004e+00 1.4919019630994494e+01 1.9824593336088334e+00 0 0 0
263 2 4.9220000000000006e+00 1.2787731112280996e+01 1.9824593336088334e+00 0 0 0
265 2 6.1524999999999990e+00 1.3498160618518829e+01 1.9824593336088334e+00 0 0 0
310 2 7.3829999999999991e+00 1.2787731112280996e+01 1.9824593336088334e+00 0 0 0
312 2 8.6135000000000002e+00 1.3498160618518835e+01 1.9824593336088334e+00 0 0 0
261 2 4.9220000000000006e+00 1.5629449137232333e+01 1.9824593336088334e+00 0 0 0
306 2 6.1524999999999990e+00 1.4919019630994494e+01 1.9824593336088334e+00 0 0 0
308 2 7.3829999999999991e+00 1.5629449137232333e+01 1.9824593336088334e+00 0 0 0
353 2 8.6135000000000002e+00 1.4919019630994494e+01 1.9824593336088334e+00 0 0 0
210 2 0.0000000000000000e+00 1.7050308149707998e+01 1.9824593336088334e+00 0 0 0
255 2 2.4610000000000003e+00 1.7050308149707998e+01 1.9824593336088334e+00 0 0 0
208 2 0.0000000000000000e+00 1.9892026174659328e+01 1.9824593336088334e+00 0 0 0
212 2 1.2305000000000001e+00 1.7760737655945832e+01 1.9824593336088334e+00 0 0 0
251 2 1.2305000000000001e+00 1.9181596668421495e+01 1.9824593336088334e+00 0 0 0
253 2 2.4610000000000003e+00 1.9892026174659328e+01 1.9824593336088334e+00 0 0 0
257 2 3.6914999999999996e+00 1.7760737655945832e+01 1.9824593336088334e+00 0 0 0
298 2 3.6914999999999996e+00 1.9181596668421495e+01 1.9824593336088334e+00 0 0 0
302 2 4.9220000000000006e+00 1.7050308149707998e+01 1.9824593336088334e+00 0 0 0
349 2 7.3830000000000009e+00 1.7050308149707998e+01 1.9824593336088334e+00 0 0 0
300 2 4.9220000000000006e+00 1.9892026174659328e+01 1.9824593336088334e+00 0 0 0
304 2 6.1524999999999999e+00 1.7760737655945832e+01 1.9824593336088334e+00 0 0 0
345 2 6.1524999999999999e+00 1.9181596668421495e+01 1.9824593336088334e+00 0 0 0
347 2 7.3829999999999991e+00 1.9892026174659328e+01 1.9824593336088334e+00 0 0 0
351 2 8.6134999999999984e+00 1.7760737655945832e+01 1.9824593336088334e+00 0 0 0
387 2 8.6135000000000002e+00 1.9181596668421495e+01 1.9824593336088334e+00 0 0 0
245 2 0.0000000000000000e+00 2.4154603212086325e+01 1.9824593336088334e+00 0 0 0
247 2 0.0000000000000000e+00 2.1312885187134999e+01 1.9824593336088334e+00 0 0 0
249 2 1.2304999999999993e+00 2.2023314693372832e+01 1.9824593336088334e+00 0 0 0
290 2 1.2304999999999993e+00 2.3444173705848499e+01 1.9824593336088334e+00 0 0 0
292 2 2.4610000000000003e+00 2.4154603212086325e+01 1.9824593336088334e+00 0 0 0
294 2 2.4610000000000003e+00 2.1312885187134995e+01 1.9824593336088334e+00 0 0 0
296 2 3.6914999999999996e+00 2.2023314693372832e+01 1.9824593336088334e+00 0 0 0
337 2 3.6915000000000004e+00 2.3444173705848499e+01 1.9824593336088334e+00 0 0 0
339 2 4.9220000000000006e+00 2.4154603212086325e+01 1.9824593336088334e+00 0 0 0
341 2 4.9220000000000006e+00 2.1312885187134995e+01 1.9824593336088334e+00 0 0 0
343 2 6.1524999999999990e+00 2.2023314693372832e+01 1.9824593336088334e+00 0 0 0
379 2 6.1524999999999999e+00 2.3444173705848499e+01 1.9824593336088334e+00 0 0 0
381 2 7.3830000000000009e+00 2.4154603212086336e+01 1.9824593336088334e+00 0 0 0
383 2 7.3829999999999991e+00 2.1312885187134999e+01 1.9824593336088334e+00 0 0 0
385 2 8.6135000000000002e+00 2.2023314693372832e+01 1.9824593336088334e+00 0 0 0
413 2 8.6134999999999984e+00 2.3444173705848499e+01 1.9824593336088334e+00 0 0 0
182 2 0.0000000000000000e+00 1.2787731112280996e+01 5.2805454218672647e+00 0 0 0
219 2 2.4610000000000003e+00 1.2787731112280996e+01 5.2805454218672647e+00 0 0 0
180 2 0.0000000000000000e+00 1.4208590124756663e+01 5.2805454218672647e+00 0 0 0
215 2 1.2305000000000001e+00 1.4919019630994494e+01 5.2805454218672647e+00 0 0 0
217 2 2.4610000000000003e+00 1.4208590124756663e+01 5.2805454218672647e+00 0 0 0
260 2 3.6915000000000004e+00 1.4919019630994494e+01 5.2805454218672647e+00 0 0 0
264 2 4.9220000000000006e+00 1.2787731112280996e+01 5.2805454218672647e+00 0 0 0
311 2 7.3829999999999991e+00 1.2787731112280996e+01 5.2805454218672647e+00 0 0 0
262 2 4.9220000000000006e+00 1.4208590124756663e+01 5.2805454218672647e+00 0 0 0
307 2 6.1524999999999990e+00 1.4919019630994494e+01 5.2805454218672647e+00 0 0 0
309 2 7.3830000000000009e+00 1.4208590124756663e+01 5.2805454218672647e+00 0 0 0
354 2 8.6135000000000002e+00 1.4919019630994494e+01 5.2805454218672647e+00 0 0 0
211 2 0.0000000000000000e+00 1.7050308149707998e+01 5.2805454218672647e+00 0 0 0
213 2 1.2305000000000001e+00 1.6339878643470165e+01 5.2805454218672647e+00 0 0 0
256 2 2.4610000000000003e+00 1.7050308149707998e+01 5.2805454218672647e+00 0 0 0
258 2 3.6915000000000004e+00 1.6339878643470165e+01 5.2805454218672647e+00 0 0 0
209 2 0.0000000000000000e+00 1.8471167162183658e+01 5.2805454218672647e+00 0 0 0
252 2 1.2305000000000001e+00 1.9181596668421495e+01 5.2805454218672647e+00 0 0 0
254 2 2.4610000000000003e+00 1.8471167162183658e+01 5.2805454218672647e+00 0 0 0
299 2 3.6914999999999996e+00 1.9181596668421495e+01 5.2805454218672647e+00 0 0 0
303 2 4.9220000000000006e+00 1.7050308149707998e+01 5.2805454218672647e+00 0 0 0
305 2 6.1524999999999999e+00 1.6339878643470165e+01 5.2805454218672647e+00 0 0 0
350 2 7.3830000000000009e+00 1.7050308149707998e+01 5.2805454218672647e+00 0 0 0
352 2 8.6134999999999984e+00 1.6339878643470165e+01 5.2805454218672647e+00 0 0 0
301 2 4.9220000000000006e+00 1.8471167162183658e+01 5.2805454218672647e+00 0 0 0
346 2 6.1524999999999999e+00 1.9181596668421495e+01 5.2805454218672647e+00 0 0 0
348 2 7.3829999999999991e+00 1.8471167162183658e+01 5.2805454218672647e+00 0 0 0
388 2 8.6135000000000002e+00 1.9181596668421495e+01 5.2805454218672647e+00 0 0 0
250 2 1.2305000000000001e+00 2.0602455680897162e+01 5.2805454218672647e+00 0 0 0
297 2 3.6915000000000004e+00 2.0602455680897162e+01 5.2805454218672647e+00 0 0 0
246 2 0.0000000000000000e+00 2.2733744199610655e+01 5.2805454218672647e+00 0 0 0
248 2 0.0000000000000000e+00 2.1312885187134999e+01 5.2805454218672647e+00 0 0 0
291 2 1.2304999999999993e+00 2.3444173705848499e+01 5.2805454218672647e+00 0 0 0
293 2 2.4610000000000003e+00 2.2733744199610655e+01 5.2805454218672647e+00 0 0 0
295 2 2.4610000000000003e+00 2.1312885187134995e+01 5.2805454218672647e+00 0 0 0
338 2 3.6915000000000004e+00 2.3444173705848499e+01 5.2805454218672647e+00 0 0 0
382 2 7.3829999999999991e+00 2.2733744199610655e+01 5.2805454218672647e+00 0 0 0
384 2 7.3829999999999991e+00 2.1312885187134999e+01 5.2805454218672647e+00 0 0 0
414 2 8.6134999999999984e+00 2.3444173705848499e+01 5.2805454218672647e+00 0 0 0
344 2 6.1524999999999999e+00 2.0602455680897162e+01 5.2805454218672647e+00 0 0 0
386 2 8.6134999999999984e+00 2.0602455680897162e+01 5.2805454218672647e+00 0 0 0
340 2 4.9220000000000006e+00 2.2733744199610655e+01 5.2805454218672647e+00 0 0 0
342 2 4.9220000000000006e+00 2.1312885187134995e+01 5.2805454218672647e+00 0 0 0
380 2 6.1524999999999999e+00 2.3444173705848499e+01 5.2805454218672647e+00 0 0 0
491 2 0.0000000000000000e+00 1.2787731112280996e+01 8.5786315101218396e+00 0 0 0
492 2 1.2305000000000001e+00 1.3498160618518829e+01 8.5786315101218396e+00 0 0 0
510 2 2.4610000000000003e+00 1.2787731112280996e+01 8.5786315101218396e+00 0 0 0
511 2 3.6915000000000004e+00 1.3498160618518829e+01 8.5786315101218396e+00 0 0 0
490 2 0.0000000000000000e+00 1.5629449137232333e+01 8.5786315101218396e+00 0 0 0
508 2 1.2305000000000001e+00 1.4919019630994494e+01 8.5786315101218396e+00 0 0 0
509 2 2.4610000000000003e+00 1.5629449137232328e+01 8.5786315101218396e+00 0 0 0
531 2 3.6915000000000004e+00 1.4919019630994494e+01 8.5786315101218396e+00 0 0 0
533 2 4.9220000000000006e+00 1.2787731112280996e+01 8.5786315101218396e+00 0 0 0
534 2 6.1524999999999990e+00 1.3498160618518829e+01 8.5786315101218396e+00 0 0 0