LAMMPS data file via write_data, version 29 Oct 2020, timestep = 50000

6589 atoms
2 atom types

0.0 49.22 xlo xhi
0.0 49.019635930410494 ylo yhi
0.6533592761580742 59.40864072384311 zlo zhi

Masses

1 18.015
2 12.01

Atoms # atomic

5228 1 23.582173815065836 17.803346092181975 4.091801124871673 1 0 0
5190 1 9.057246900355207 12.367497843369621 6.9460658467604315 0 0 0
1858 1 1.3596721978443316 7.045208102705719 8.773963064036842 0 1 0
4603 1 19.06581633682292 24.11560613010484 9.878868007252295 0 0 1
1318 1 4.322170669727837 2.2304472877903057 16.15528241512974 0 0 1
5340 1 15.61506622117452 7.225591486588765 2.218250341641597 0 -1 1
5462 1 10.049945495956548 20.351796641884214 6.278215708147362 0 0 1
1770 1 20.190092661824334 0.831472961893926 15.874631142461737 0 1 0
4781 1 23.932230166807972 6.181144495442412 9.25336125324656 0 -1 1
4771 1 2.1364079812260877 13.452760708423286 17.20988968544436 1 0 1
5256 1 22.83976154254279 15.107934491995264 4.344167716710235 -1 0 0
3545 1 3.399858205196482 1.1515956707763109 5.583627428146936 0 1 0
1509 1 16.779307279943204 0.15618414043458728 4.228264092812079 1 1 0
3359 1 1.2955370193837699 8.274363388377992 2.7305876410545724 0 1 0
1947 1 7.584252771400872 10.082461358874069 5.791201759161216 0 1 0
1911 1 11.33550148981962 23.822385128952973 10.677572768465167 0 0 0
3432 1 20.62893084714037 24.160223217037608 13.396831276852927 1 1 1
3816 1 14.680491980120449 24.34332888651772 3.2668625984816884 -1 0 0
6332 1 15.330542766841788 22.27237503101116 11.095721980290172 -1 0 1
3786 1 15.716153188124984 10.13120226848397 2.121735128653799 1 0 0
385 1 3.8818705629882495 8.617432703816675 13.669578337816507 0 0 0
3855 1 23.198867569393276 3.398776812592508 9.486054718303562 1 -1 1
1454 1 18.49015916386819 22.734234954406602 2.0419411477430183 1 1 1
3310 1 17.069716231769224 2.4991009373319892 1.5960033844556039 0 2 0
4797 1 17.949734897557395 20.46313739022718 3.654925606170164 0 -1 1
1281 1 12.07019875295112 15.839986832327348 0.6703861099669215 1 0 1
312 1 3.674459168165101 10.599478884386095 9.83195036328719 -1 1 0
1845 1 11.294274363251336 6.570017877254791 6.989595926373178 1 0 0
2060 1 11.07757345155593 13.993832663582312 12.964350195469729 0 0 0
536 1 22.01009235631875 9.647941137151435 7.604688797986035 0 -1 1
2018 1 20.252741520217135 19.561866450210005 2.7345881849271914 1 0 1
4910 1 22.98623826691266 12.24804511564464 7.277964023137417 0 0 1
3401 1 24.013643926600487 1.3937927044826526 5.220168786864527 -1 0 0
2213 1 20.373713088642447 16.676708177012767 1.3598131426950584 1 1 1
4631 1 20.392923644258293 4.678002301206506 19.54986151719004 0 1 0
3294 1 20.90218277202895 5.952934557037612 8.85332686687113 0 0 1
5409 1 3.851285372134328 12.444779064838858 7.371039795470447 1 1 0
5246 1 14.938026876958121 12.590801516795215 1.254191577479658 1 1 0
2991 1 16.720288368625816 23.202537836685032 14.485325730815493 1 0 1
1698 1 1.8957881232322782 3.9184343908759818 10.024873582908567 0 0 0
3542 1 12.44084627431436 23.668358377655405 19.445508515018382 0 0 0
3565 1 15.946327105861888 7.746385064629938 6.532396150994335 1 -1 0
4642 1 13.870941094423323 14.144982222641772 8.310832426757013 0 0 1
46 1 8.936129534057027 11.973925592123939 11.836079612898855 0 0 0
2211 1 8.35229228615848 15.311052810805753 7.135122031817864 1 0 1
1786 1 6.28360968460514 11.435685192528275 3.4352948475946636 -1 1 0
1498 1 11.06940154579798 16.035150071843436 7.661751440657313 2 0 1
3249 1 22.315734455631247 4.6129408112395245 2.782776957374742 0 1 0
6319 1 17.475274538563145 13.070502188098551 0.7353638015265748 1 1 1
1431 1 21.991098983897267 21.575974407292104 3.0445892190305797 0 0 1
3450 1 6.387567798478396 20.877965243271404 3.4437077668596188 0 -1 0
3797 1 5.473689539612016 7.231680814763435 6.43476008644022 0 1 0
3325 1 9.214997331742339 2.719418926283211 17.298950106660243 0 0 0
5258 1 4.523588955044787 19.132441909494297 19.813579036948298 0 1 0
3582 1 5.329060248015175 13.695611445824795 1.1393074604059035 2 2 0
335 1 9.815376786119108 17.63851863338749 5.176588568841896 0 1 0
4888 1 23.537843890046027 23.164646237558898 13.78212899445214 0 0 1
5148 1 0.024701559470480708 17.429673620667035 15.300163956528616 1 1 0
4878 1 9.912974469575197 3.9090860367818268 8.468686310206316 0 2 1
5328 1 4.715095175430057 3.80781733949859 6.209662814362624 2 1 0
3027 1 14.99600188472042 16.062141195545088 6.750729641047099 0 1 1
5209 1 0.345097161460975 4.489507465509044 7.676430976476164 0 1 0
4661 1 3.292822156367638 4.655176910595171 16.109405764243043 0 0 1
1633 1 11.837025725415401 18.96737401214142 1.5556411711787335 1 0 1
593 1 1.1807233454839678 8.692929410947386 17.149041015966528 0 0 0
3389 1 1.8878813182507073 12.233899179996166 11.305223093381478 1 0 0
1862 1 3.3358646271342094 24.489808218718494 7.3243129351962555 0 -1 1
1959 1 21.433178616310318 7.7275973776996 2.1861350261877366 -1 0 0
5412 1 9.178378322464113 2.0117062674974697 13.590081357626174 1 0 0
1444 1 1.5599867886248575 22.675650813048723 9.266276916183598 1 1 1
1754 1 19.2068939189301 5.800666379989228 17.086845295794873 -1 -1 0
6454 1 1.453263884102429 18.569135905823988 3.202138568447649 1 0 0
1605 1 19.242814159222238 1.6725287674538525 12.72229779761419 1 2 1
6520 1 16.425385345646223 17.82603105715217 2.749208317001188 0 -1 1
6246 1 3.685758945354762 20.19556243540776 8.484412957706109 1 0 1
6585 1 12.108222496925045 7.743875050800175 4.511215891365799 1 0 0
3461 1 21.152662957348994 21.549005147682497 5.798615488742168 1 0 0
267 1 13.568603176041115 17.654327424028143 4.6923069305574865 -1 0 0
1810 1 5.923336737063694 6.014683600318021 10.43756125415678 0 0 0
6396 1 13.100758458810777 3.811578329998126 2.9794936803917893 0 2 1
1877 1 24.098173424911582 2.599637899505994 13.81898977054818 0 0 0
4568 1 12.918071316213043 4.380870445504331 5.7730449417022625 -1 1 1
3737 1 14.36628931268675 11.449779001445169 19.576696581662393 0 1 0
1569 1 10.649256844270207 10.885986972986084 14.232835560421785 1 0 0
404 1 0.16610609546019525 4.395670289041857 19.57466129553494 -1 0 1
3616 1 12.89932323468301 21.15126514265622 18.15793804949852 2 0 1
6351 1 0.5020263265223276 17.80951174852067 18.285397697821992 0 2 0
3337 1 18.513380236919335 6.257564572634854 5.466331091701889 -1 -1 0
1768 1 20.016161908037972 1.1275095537427728 0.8791333127944938 0 0 1
2196 1 1.7424806842783849 2.178215249359858 19.27652952187003 0 0 0
4624 1 12.988298504032466 11.25369684542795 7.057408292661166 0 0 1
6331 1 2.380705031559617 17.527537649819077 11.391745113559987 1 1 1
6577 1 13.44370417442386 7.954709631228313 9.44704627474368 0 -1 0
5215 1 20.35620502060236 3.041858270470332 8.480863083239969 -1 0 0
2978 1 7.681548457387259 15.95550703147186 15.753858861501957 0 0 1
1584 1 16.822982679421756 3.293052265639963 14.16569448792568 -1 0 1
6481 1 11.29137308746629 11.36971279882885 1.576191549349995 0 0 1
4676 1 14.331215402071107 10.513063225892259 12.86123393793063 0 0 1
1322 1 9.274427161874803 13.600817091189429 2.6188881859246624 -1 1 1
3017 1 15.15148270235757 4.959779100081677 7.102513488444024 1 1 1
293 1 18.537055330093587 12.777143736945806 7.220164305333941 -1 0 0
3269 1 2.6547252979230795 1.6014042032056908 13.656058748898074 -1 1 0
534 1 19.02622095482495 23.385125903972522 16.11305094427653 0 0 1
97 1 6.130694711552933 10.630134315915457 11.800710174977803 1 1 0
3598 1 23.212559188945058 9.713021775805242 1.5465251710438095 0 0 0
1514 1 2.830705578967845 13.72900259610719 3.471384060715666 0 0 0
1675 1 6.297546918682748 9.085075546580747 8.606625033041325 1 1 1
3123 1 6.4923430676532226 11.961113848188797 8.54000885595314 0 0 0
159 1 3.0859060452675955 1.6042823367199064 9.229281884968312 1 0 0
1375 1 6.449416694094883 15.529030019650538 2.733567864584204 1 1 1
236 1 18.329434576704823 9.574487841838648 5.897174740033899 0 1 0
1604 1 12.078505801680151 5.074797832427307 10.774514705684409 1 1 0
3666 1 11.920391716041895 5.2143641674743595 16.911261573150945 1 0 0
6437 1 2.11670447973697 6.1025889252310215 18.34292182937613 0 2 1
3228 1 17.370152227496956 21.912066802544164 8.995957861020484 0 0 0
2103 1 16.755427035513858 0.3646035324476137 12.045190829416986 0 0 0
6548 1 7.704776860457495 4.347816096312036 2.3456182994540313 0 1 0
4932 1 22.889746915942276 20.315600597219767 12.822715472411772 -2 0 1
2927 1 13.773457190127612 13.5550708702041 14.108821159559733 2 1 1
531 1 13.695742591065722 15.090766921676067 11.168092265856211 0 1 1
1602 1 16.336655434969394 13.672724094589762 3.925712745838744 1 1 0
3633 1 5.187014570953924 14.68191865190084 9.415620650511274 0 -1 0
3509 1 22.390909905060358 19.36900816812407 15.414996751271595 0 0 0
4929 1 18.55857212612723 22.047848574580133 12.468442448037399 0 0 0
1975 1 22.884943645886697 12.026972722563286 3.120644697472972 -1 -1 0
3762 1 7.156830534893972 18.240356900667503 19.0097413824918 0 0 1
3451 1 7.338171360515944 24.07424362104835 17.01042885756518 1 -1 0
22 1 4.325810975274738 17.128659611108528 5.6582361195119235 0 1 0
6455 1 4.727714911001226 23.592312186043774 4.131382629288398 -1 0 0
5073 1 18.21152826435136 9.728416611910708 8.823728264038758 0 1 0
5231 1 7.286065395970573 22.128801732030958 6.093155159360711 1 1 1
4810 1 8.878380471087354 16.204564128545034 1.3671591748303893 1 1 1
3482 1 15.879982436112812 11.523338523118756 5.446867492330133 0 0 0
1559 1 24.44569478304283 21.35213637981617 18.672754616272915 0 1 0
2115 1 14.520577201562629 15.526264837928261 2.48568656717306 0 0 0
5122 1 20.89241777799963 18.590946482220442 5.880537043275389 -1 -1 1
4622 1 20.584423393925597 16.008751793900803 18.059803157686687 -1 1 1
6320 1 6.613824311118406 3.9251445682160577 16.671417897714587 1 1 0
5125 1 18.968184312283512 7.362003658237544 2.649603441806312 -1 0 1
386 1 7.2340405258411895 18.058456417901667 7.823010407389143 0 0 1
6544 1 2.44264393327415 21.320312312892806 15.96885005920548 0 1 0
1469 1 22.42891906934303 0.35252351521490527 13.48303188398644 -1 1 1
3370 1 9.602161810294426 18.738935824304786 2.477790634214707 0 1 0
1669 1 9.591612337162358 0.027787653072805153 3.177378460536595 0 1 1
3466 1 12.01023697677803 2.0535338495421875 6.610569603746242 1 0 0
1946 1 0.9946870460889483 13.469863186915411 8.742135996121435 0 0 1
1718 1 4.146101497843604 7.9063442355921865 16.613962828333083 1 0 0
1682 1 15.16517833772884 16.97574302784141 9.926480417639013 1 0 0
3270 1 24.600504836056544 18.379894131167784 1.7286868617183804 0 1 0
1622 1 9.942053541320798 4.916129776563776 13.569357052528867 -1 0 0
1915 1 3.824874929038723 6.060143367466891 8.087152202651325 0 1 0
5170 1 15.82133074137976 9.11940808089115 10.519246850933024 1 -1 0
2061 1 22.730211077787626 6.959120869455626 4.608803321934695 -1 1 0
1707 1 14.953076693896179 5.562693693869525 9.608217345743151 -1 -1 0
1676 1 14.814092491388992 2.0827082952589415 12.673082234423564 1 0 0
5179 1 8.637566857628542 23.53147931410332 9.59363805993516 0 -1 0
6279 1 6.439319449882778 0.8476287644676743 14.593594183483289 0 0 1
3748 1 22.91317213919222 4.276658867091988 16.10069730268996 -1 0 0
3671 1 20.79683577599923 0.3116383998851785 10.68287273901385 0 0 0
4720 1 4.096295439930518 9.696829003181724 5.48662670447551 0 2 1
5502 1 1.4293088518515877 21.529202162618656 4.714898818581244 1 -1 1
3751 1 18.5391315645754 17.419032968758888 4.698282985706404 0 -1 1
5198 1 18.36207396953075 19.317786055247215 16.571347757534987 0 0 0
3051 1 8.876025643040595 23.80142988908282 4.955643225520218 0 -1 1
3038 1 1.004563184385094 15.475429035137038 1.8546259413740422 1 1 1
1878 1 11.624570461409167 9.492357815382297 8.367197822341371 0 1 0
4845 1 14.660545015331968 2.514951719540938 10.051317126901115 1 0 0
2245 1 8.33424021513674 20.352179894926223 17.083719331955045 -1 1 1
4681 1 17.803697495723434 2.687042081364809 9.610287462071067 0 1 1
1368 1 13.27325586026493 22.328571772891358 9.48371397165131 0 0 1
5461 1 11.992726269986747 2.105249948964228 9.500407464991481 1 2 1
5326 1 4.604803255065514 23.530726497744112 18.411294633581882 0 -1 0
5242 1 0.4371484893518634 24.121115723471913 5.926700783008204 0 -1 0
5512 1 8.323683717222034 6.570749236947392 12.17860129920729 0 0 1
4754 1 10.080682399786474 7.129737216464266 15.77236472510387 0 0 1
1616 1 1.5653026631026388 16.32600204586358 8.9219839925233 -1 0 1
31 1 7.566721191718943 9.685237812426402 17.921747908199542 0 1 0
1884 1 12.546910155779782 12.10397680055618 16.426019261008488 0 1 0
5327 1 19.989332047142632 13.200852694347683 12.110453194841622 1 1 0
4970 1 14.432924784222207 20.25299661477008 5.755147850339047 1 0 0
5357 1 17.026190657744525 3.11202162535961 6.656931641596779 0 -1 0
5527 1 17.5560172330066 5.193411214177171 11.067486653960906 -1 0 1
3538 1 17.616652935700326 15.078150658182341 6.021343366280898 0 0 0
1594 1 10.098733583706082 23.622735565973283 2.5810325949636486 -1 1 1
2150 1 22.49004886595098 0.8689902385160421 7.595330963301101 1 1 0
3729 1 2.050429524940526 23.84339949846875 12.291124789580675 0 0 0
5192 1 19.380956474020252 8.687850825251493 18.566956451730665 1 2 0
5090 1 1.1477132271791617 15.64192883480944 13.53361295668999 1 0 0
3635 1 9.181923883590017 8.648080454009087 3.8619847196213892 1 -1 0
285 1 23.966140985546836 2.1202114310521556 2.6646823444446643 0 -1 1
459 1 4.2909849915751614 21.894950474723764 12.319350395939129 1 -1 0
5158 1 4.36784422642164 14.222526942223324 5.385618213341388 1 1 0
2232 1 13.92958378643714 19.844376459552834 15.292169203779505 0 0 1
1687 1 15.849686815836536 1.0539847937643352 7.957012424296726 0 0 0
1927 1 8.100574996000832 14.079359410934265 10.091909638878882 -1 0 0
3785 1 21.373314828345297 18.415074689333533 10.455452478041659 -1 0 0
4815 1 0.19185737606143272 1.162330699198613 4.808441012747001 0 1 1
6263 1 23.775616517625465 18.582705840357956 8.912447000267875 -1 1 1
4668 1 5.261385528178975 0.18664960790264448 7.539291151488739 0 0 1
53 1 10.606697410003841 22.72005359764016 13.017972915241996 0 1 1
12 1 10.017045954578041 22.933918672655555 17.169735385617887 0 -1 0
4746 1 23.636934618183084 20.21202507121639 5.398638988901089 1 2 1
2913 1 9.120592369050554 17.263941529612147 13.364632776118759 1 -1 0
378 1 10.264542183381252 18.82893466034895 10.226682582056247 -1 1 0
6366 1 11.095673867956931 13.349868355548303 8.366404537393844 -1 1 1
1295 1 11.207916359199531 16.24897431364878 10.461738236580953 1 -2 1
5272 1 6.931463497571189 13.642060341223397 4.95541422685204 0 1 0
391 1 19.7083866718371 15.462563513766868 13.990344254548294 1 1 0
477 1 14.357131568642806 1.5705167872188124 1.2049406589354588 1 1 1
4694 1 20.339408317239496 17.045789159665794 8.1825390031658 0 0 1
2096 1 13.721080552931337 17.372213632982543 13.12979626309421 -1 0 1
1399 1 21.25962839406705 14.530035196389228 6.797590481734145 0 0 1
3759 1 23.954563897624713 16.028087886709013 7.910795502259999 -1 1 1
84 1 1.8144083124287704 4.92847926136256 5.200246565890836 1 2 1
4967 1 20.303821698035804 24.48340617948886 19.539798813652077 1 0 0
3512 1 22.404512675092032 14.72320230276484 10.611630143572649 0 -1 0
405 1 6.43517232171395 0.26835527498607503 17.655168727951796 -1 0 0
1493 1 20.351987297116928 12.25645831286534 17.493984141830484 0 0 1
3692 1 2.6795253011889577 21.434245062814544 18.85397252569854 1 1 0
389 1 23.589937739540463 22.61061454239141 16.55249259462753 -1 0 1
3823 1 23.990504382789847 8.31852867325726 14.235783305931307 0 1 1
2203 1 20.85412528168227 7.294026836765229 6.4895780290921525 0 1 1
4686 1 20.780991075186623 13.810833313681165 2.631020239377123 -1 1 1
5408 1 12.39064512380079 1.866739117965199 13.750349345010449 0 0 0
5394 1 0.9081334168235864 3.5517366098922047 3.053379679031111 -1 -1 0
5201 1 13.349371651457663 7.727876118683771 15.80673174606106 0 1 0
5437 1 17.354518275487067 15.883466623990333 13.148928826851241 1 1 0
343 1 7.126130014634037 6.41861824290613 14.972286638059604 1 0 0
4740 1 10.857340260801092 0.4949124060181131 11.49435218000598 0 1 1
336 1 12.081760253244218 8.835551122201707 13.562318698212582 1 0 0
6574 1 12.738073753331259 4.653093312155652 13.52756777228171 2 1 1
3077 1 2.5591160256015657 10.862738645518178 16.234944707067545 1 2 1
441 1 0.6165006545546764 2.396475123794232 12.135059321215655 0 0 0
453 1 17.83058219796736 17.841421315951195 8.926060078309238 1 0 0
5456 1 11.092187642798306 11.434943594265128 4.731021534710062 0 0 1
5337 1 14.224498421871507 20.046955059600997 2.482558792865108 0 0 0
1342 1 4.677321977471324 11.355952077849862 18.310143159498185 1 1 1
3703 1 18.37324451709013 22.580518714363027 5.507903074042663 0 1 0
2134 1 12.888935465075186 6.3761213794441955 2.1335790863338433 0 2 1
2079 1 18.92215434797102 12.061117727684515 3.4421644814122883 1 1 0
447 1 8.301452043214624 9.157390364961126 13.392622191984353 0 0 0
98 1 7.474352385139415 6.756408441203893 18.013696322035077 1 0 0
4796 1 14.099098527333307 14.235898949754775 17.54557627870365 0 0 1
382 1 7.351073990660938 2.403739454870063 7.963255979713152 0 1 1
1562 1 4.001704443494537 8.022707076612122 10.738591004437444 0 0 1
506 1 16.91472668444209 4.094163637306163 18.11229728370754 0 1 1
528 1 15.61378059878945 2.1077650297284167 16.674873954447904 1 1 1
4953 1 14.318272502157214 9.55172740779892 4.597238593917861 0 0 1
4784 1 22.513077640340494 10.072533399716287 18.078067264317795 0 -1 1
1907 1 22.9871505541763 4.776014154788379 12.02928742829328 0 0 0
3645 1 5.542018273700111 8.874580759917697 1.3130366121286352 1 -1 0
3431 1 21.946416765258924 7.515105372609356 12.122489347883782 -1 0 0
5366 1 8.251828053354473 0.20521728777138776 10.044075033439476 1 0 0
498 1 23.96797014451546 12.29300538061685 16.317657249512663 -1 -1 0
44 1 3.9607636313377936 20.681006146339033 5.662247456345235 -1 0 1
519 1 6.875747825565277 15.206231742479577 12.339111756044138 0 2 1
5166 1 14.593224189105753 5.981783300627199 18.394336042067348 1 1 0
325 1 10.114672120168201 9.766094370757878 17.85537851256716 1 1 0
5012 1 7.523759918619215 19.016396091397482 10.627511371988398 1 0 0
406 1 5.603455476997576 16.4513923826502 17.295263919033214 0 1 0
3086 1 18.232393194860055 6.807739203516327 8.78484764316907 0 1 1
3290 1 18.317669543496695 8.693589451369297 15.739858878690717 0 1 0
4836 1 20.236360213333047 3.6666189499809323 15.435729286707959 -3 2 1
3845 1 19.76161504006539 3.7720522602412916 2.9632188262408112 1 0 1
3171 1 4.463269329058861 14.820089683242822 19.195816894242817 1 1 1
4750 1 10.893957000872188 21.457598791872126 3.8818249550710386 1 -1 1
4867 1 1.475161198305285 7.278251111997347 14.087610117904894 1 0 0
2151 1 6.191381014489834 3.9698676342499204 19.33368280000629 0 0 1
5332 1 3.8619073594896816 11.729523821242017 13.309002647242533 0 -1 0
2207 1 10.97480257130198 19.197630090531145 18.84218291074793 -1 0 1
5268 1 4.4785829670419055 17.55466435278923 8.722843954087509 -1 1 0
370 1 12.716570973885197 12.123817383118082 10.98526498799038 1 0 0
106 1 20.81363472650207 9.424582832481994 10.130596319245544 0 1 0
2942 1 1.6035358100354626 17.40956568212796 6.3202672643710756 1 0 1
1755 1 20.803555761029433 12.367627716441238 14.631698181514956 0 0 0
409 1 5.304151752254624 3.5128081588074562 9.270539004828938 0 -1 1
257 1 15.550085793285405 22.644361572746426 6.74652668330891 1 -1 1
5234 1 14.961965450135512 15.784520278252355 15.20825680520452 0 0 0
5079 1 5.565796361314446 23.66692121252143 14.974058702717628 1 0 1
6325 1 8.759754981591367 7.663849722311568 9.547448446393085 1 0 0
6507 1 16.775689712408276 20.397484754419594 14.80291600809913 0 0 1
2195 1 11.51981960087058 15.465909180376116 3.5167365102657464 0 1 1
3523 1 14.03384356094927 16.79047204196875 18.967311574904784 0 -1 0
4669 1 11.025000044745335 19.13581565932634 15.84546443347363 -1 1 1
1771 1 6.813437776857423 18.075935023010043 4.5789810962766095 -1 1 1
3467 1 1.9606294581058736 9.450196143880694 7.65036732702879 0 0 0
6261 1 18.89327834031612 19.956066616134787 10.407749518288202 2 0 1
3557 1 6.027100366863049 23.212839478634763 8.880461107246893 1 1 0
544 1 7.607533109624038 12.107906515860137 0.8246784483337414 0 -1 1
3090 1 6.245811188581129 9.063421599497206 15.679239656892342 0 1 0
6297 1 6.347588349787549 5.373903223073923 4.786055693202728 0 2 1
3541 1 11.736097318569218 15.15204642261595 19.471348057082324 0 1 0
1451 1 10.075228463700675 12.840596556154555 18.384755583625388 0 0 1
6205 1 0.8659643385111379 12.260882584002527 19.96617557399244 1 1 1
5241 1 7.379682739344676 14.45978067925895 19.82785436106647 0 -1 0
542 1 16.50310932382588 18.593658347279252 6.336657798581124 0 0 0
6459 1 9.735674480025812 19.86099003338526 12.980427868350791 1 1 0
5419 1 14.565032245456178 10.258882788853324 16.4841278461806 0 1 0
436 1 21.300547999054793 9.179810520922807 14.870740398509714 0 0 0
3553 1 5.703692750596373 17.998158426498268 1.142987957035151 0 0 0
3039 1 0.9584516869806456 19.595131484147473 8.460532431240479 1 0 1
1817 1 1.8590229683617778 23.445289983502814 2.7766983402803973 0 1 0
2915 1 7.043729395042408 12.832761399930622 17.136946440438344 1 0 1
2021 1 11.251406033101953 7.735918276051062 11.15149329816977 2 0 0
3866 1 24.007245666291503 18.465331049051894 17.431031854698933 1 1 1
3536 1 0.9536221199438736 19.036031824556748 13.172685831804062 2 0 0
3284 1 9.835502027374135 5.625872770727451 18.923807190719362 0 2 1
1495 1 15.674250612279863 20.922641350202852 19.552413285543118 1 0 1
5046 1 18.469199096430575 13.720244804462334 19.64900219790925 -1 1 0
5159 1 18.372023689062456 10.125575281200842 1.8345384784556271 1 0 0
6209 1 21.668929358203865 2.156610894761446 18.313634387561915 1 2 1
1648 1 21.67969452970336 7.2157304169134955 19.53090847057144 1 1 1
3665 1 4.262994875721178 8.736088355195704 19.2038596903436 1 0 0
160 1 3.1786671396363424 10.747583555814703 3.0825623001584144 0 -1 0
2925 1 5.112093697401289 17.60999217312964 11.838438117924708 1 -1 1
6589 1 0.7769310285022275 8.476307390288666 11.586957121320927 1 0 1
270 1 12.15166971434988 2.290551143447318 16.45149916556128 -1 1 0
3733 1 9.92870538869357 15.661409473071172 17.04268198166058 -1 0 0
2038 1 15.045295506664349 5.6908384885892325 14.727657953190201 -1 0 0
428 1 17.89536353470059 0.9112072410811168 17.65862367634181 1 1 0
587 1 19.31598913766324 7.377953187084034 13.231871225297867 0 0 1
439 1 21.721311960772752 16.789579892148776 12.696651011559817 -1 0 0
5323 1 3.469099238601604 15.008135097810841 15.430022185755487 1 1 0
1455 1 3.0260863764430472 18.00793482581896 16.5370482807878 0 0 1
3007 1 19.708248201277737 4.51060676331347 12.73795962131182 0 1 1
5154 1 23.272347410216067 7.004400554484133 16.78135439459843 0 -1 0
6274 1 0.2695735951489841 15.685646971277507 4.819611282050839 0 0 1
3250 1 5.4907090205209395 20.98692921438982 10.195739466604385 0 -1 1
4887 1 16.475363026973753 7.009465844343991 12.544062024250527 0 1 1
3008 1 19.651526656321778 0.8684597391780522 3.9065388837400077 0 1 0
3278 1 21.686136192537553 20.580762286559864 19.833863793718187 0 0 1
3011 1 16.407726070716638 12.584344117649966 13.76664373666145 1 0 1
4875 1 17.280802647330596 11.155114138657973 15.983124030554357 -1 1 1
6192 1 9.952867822696534 2.6680863533487895 3.2259187491462273 2 1 1
227 1 7.517754586720918 7.097872447602445 1.8923062771820098 0 1 1
364 1 12.222724691459623 22.356421947710793 15.2657546953267 -1 1 0
1654 1 10.470206528165386 24.4653412758263 7.231606268090213 0 -1 0
237 1 7.210450279395413 19.299245512824832 14.610231397726654 -1 -1 0
5024 1 23.753935746023316 13.369122029832381 13.269665420596398 0 1 0
3740 1 20.829140713018514 20.910153382225047 17.06277116514776 -1 1 0
6257 1 5.934353505438711 13.50659570029519 14.748575057249212 1 0 0
6229 1 13.493482055691752 19.265856516145128 9.738258607164234 1 0 1
3308 1 17.022170826641418 18.565386847674404 12.24442691159705 -1 1 0
1540 1 20.170560601070843 17.53062539299569 15.838829646768763 -1 2 1
14 1 17.60035339517362 11.098752636857153 18.70283354334365 1 0 0
243 1 9.25476089236705 10.47466298668433 9.603547074104936 1 0 1
1865 1 11.53112245574169 16.280343371204133 14.491319508556218 -1 1 1
6311 1 22.37393554274813 17.30462576247684 19.428601107548825 1 0 1
6282 1 20.135093656145376 12.23404406008348 9.525963568930097 1 1 1
3670 1 3.770480572683344 2.051412990932357 2.839349828266242 0 0 0
331 1 7.194914267465284 21.551726447513353 12.62567594810217 0 0 0
5054 1 13.073251628829109 22.478050447527746 1.5098403433141154 1 0 0
1466 1 9.108856600789123 4.503046825284019 5.538453986348879 0 1 1
1351 1 3.1090442511191134 14.411240874170067 11.302098016606795 -1 1 1
2005 1 2.8760769041116183 24.215282443818758 15.525910988390386 1 0 0
5429 1 4.240103742409208 19.38818817028986 14.220765731423914 0 0 1
5191 1 19.481136017869908 3.389865236017119 5.590492698614433 0 -1 0
3307 1 8.845203757011852 20.79038819551901 8.542664393025586 1 -1 0
5262 1 0.36044539711415413 13.086770481196316 5.933467993495917 1 0 0
1500 1 15.367179909527222 2.5441187298154313 4.159140821225872 0 0 1
5065 1 0.8780645460396275 4.667992178051998 14.475958997358937 1 0 0
3731 1 5.698257421507039 22.879110166145082 1.15974400834128 1 1 0
5475 1 12.269359737155407 18.999799869347 7.308456236599071 1 0 1
2041 1 13.945222635497657 8.639802727024687 19.662074507679307 0 1 0
1685 1 4.572112855841192 1.5678292266409215 19.763931889459823 0 0 1
1317 1 6.15581879472253 2.4044406613453413 1.384851644442275 1 0 1
3410 1 22.447104672521117 13.76448245460986 18.795185010334674 1 0 1
3830 1 3.701942482830796 19.310912503730908 2.6669959292962173 1 0 1
1962 1 18.128307030640066 19.826737787572867 19.377304139532313 0 3 0
6496 1 13.271085655369944 2.1298986349070566 19.351434062447492 0 1 0
5088 1 0.6527086468937107 12.84543936745351 14.483531555545152 0 1 0
490 1 24.448777630155952 23.90342603288955 20.128605122773127 0 0 0
6358 1 24.584430309786807 8.625874016882355 8.210870991641535 0 0 0
3494 1 8.118738912031299 24.116635058065352 12.988747221626264 1 -1 0
5496 1 8.172784791971699 20.604987834561747 0.723169299663367 1 0 1
5489 1 24.437547680858962 16.722581237283784 12.546215341334511 1 1 1
5390 1 0.1863782466420717 5.341358472111677 11.60916956431539 0 0 0
3316 1 24.574391989552833 11.9625626622466 9.411545092366218 0 1 0
3484 1 13.382901673938935 24.013676647033922 7.407013723483891 0 -1 1
1852 1 0.8324988942809637 0.44487601970531837 15.344860891295344 0 0 0
5197 1 0.10749805782917388 24.28084424643472 19.197406671463316 0 1 0
6 1 13.691576324507272 0.16147615095542278 5.061157152258875 -1 -1 0
6497 1 8.68197605918054 3.1543105333986743 19.958650942885185 0 1 0
3500 1 6.586584888050914 8.776540167855782 20.141435699080596 1 0 1
5162 1 17.288140500803138 5.21670683737856 1.0530733116426818 0 -1 0
1574 1 1.0630737409078728 11.085067818440695 0.765317159497996 0 0 1
4984 1 0.45138357344959934 18.82492455617125 0.8716638243047974 1 1 1
3507 1 24.56775915111145 15.527431650960308 17.90827868736849 -2 0 0
2950 1 21.458298328584494 24.00541922694809 37.180427016255535 0 1 0
3571 1 9.59441045572734 9.479438590186037 23.872484218329976 1 1 0
6414 1 11.657725793809822 21.326978342026017 24.545885147989722 0 -1 1
5060 1 9.859392485897525 23.189893938432146 20.32753213774792 0 0 0
201 1 5.53463939230828 0.1689343058790259 38.209557663110985 -1 0 -1
5520 1 10.050034036710715 24.417987034813716 37.840896958081416 -1 0 0
4990 1 3.0600732505796593 23.692942178093215 24.00065800240138 -1 0 0
5276 1 7.495480736464113 14.898912786582796 36.67123757122876 2 1 -1
298 1 6.129696256881494 23.306273664891556 23.576042092413154 1 1 0
5255 1 13.914369131813338 1.5625753332249848 22.587169016754885 0 1 0
127 1 23.21112766358009 15.282215234030936 21.5205237613054 -1 2 0
3519 1 19.072781795021385 2.0899703011245796 20.27632924144714 1 2 0
4692 1 22.436190662851434 4.405687206473812 35.889925438287705 0 1 0
449 1 8.208002364682876 17.06880205077572 21.31577248596887 -1 0 0
2994 1 22.29845375703725 6.2847639335663805 23.10194284223589 -1 -1 1
1782 1 3.417525716628717 17.85036419695733 21.964726252315142 1 1 0
3723 1 10.711622070082448 11.018379979655913 22.184574524424537 0 1 0
5063 1 12.18781579034776 5.787724862313122 23.106141541195548 0 -1 0
1999 1 6.548219328758341 6.0312229813556115 36.85821047160948 1 1 -1
5186 1 7.164249536990873 5.012299269996508 24.29217605267383 0 1 0
5247 1 10.481496051793357 1.769362364529941 23.765271678000833 1 0 0
6259 1 20.81145910590259 14.361495825568305 39.23271558074856 1 -1 0
3589 1 18.176175941412122 2.773623222060353 23.403314902287356 0 0 0
5005 1 18.506432713355903 7.92668241871589 21.321990937837572 1 2 0
3105 1 20.832055906289416 21.176630626364798 23.150963688549812 0 0 1
4648 1 13.88753994161866 0.7032074651888225 36.00572830505378 1 0 0
3837 1 16.46396871319756 23.738541233161328 20.30543360915492 0 0 1
3274 1 0.2377150830016935 1.1053857075203066 21.23430425919973 1 1 0
5322 1 19.786744770543166 10.239789429850708 23.9866657988714 0 -1 0
5375 1 14.177737559661033 17.160297620234044 36.05994322335344 1 0 -1
6422 1 0.7419327806238478 20.735472268311465 36.2836390964642 1 1 -1
1379 1 0.6801560959115089 1.1292407354611567 35.74837677162492 1 2 0
6363 1 3.70362047286482 9.056211178810175 22.879633649294373 1 -1 1
3361 1 11.024914816429103 8.787045863437614 20.452133806371148 0 1 0
3648 1 15.815109615305184 3.2569525713626177 24.0560318277483 0 0 0
410 1 21.2698339514712 8.969968356332867 22.13289313845247 1 0 1
1892 1 1.556493165338704 12.843018227438654 24.24759903526572 0 1 0
112 1 6.950532222570295 9.58478485712236 23.95058317543354 1 0 0
1686 1 8.401899538991529 12.132479428833044 20.48296147259671 0 0 0
429 1 2.0305206618051828 11.812982909267534 37.41912538144523 2 0 -1
4976 1 23.415198345411333 9.988336045186381 36.80543762374893 1 1 -1
3650 1 16.49344588673012 23.979862357051726 24.1429238041849 0 0 0
3779 1 4.396331433726672 12.580603169162973 36.13985102957247 1 -2 0
288 1 16.506714580689536 15.191030751883558 36.46889627604928 -1 -1 -1
4777 1 17.014815664115744 8.207654657565367 37.79162788433443 -2 0 0