
# read in water data
read_data data.liquid_ML_500 group water extra/atom/types 1
Reading data file ...
  orthogonal box = (0.0000000 0.0000000 0.25802179) to (49.220000 49.019636 59.803978)
  2 by 2 by 3 MPI processor grid
  reading atoms ...
  4609 atoms
  reading velocities ...
  4609 velocities
  read_data CPU = 0.020 seconds

# remove area for graphite
region substrate block 0 ${XDIM} 0 ${YDIM} ${Z_LO} ${Z_HI}
region substrate block 0 49.22 0 ${YDIM} ${Z_LO} ${Z_HI}
region substrate block 0 49.22 0 49.019635930410494 ${Z_LO} ${Z_HI}
region substrate block 0 49.22 0 49.019635930410494 25 ${Z_HI}
region substrate block 0 49.22 0 49.019635930410494 25 35.062
delete_atoms region substrate
Deleted 780 atoms, new total = 3829

# Insert substrate
read_data data.graphite add append shift 0.0 0.0 ${Z_LO} group graphite offset 1 0 0 0 0
read_data data.graphite add append shift 0.0 0.0 25 group graphite offset 1 0 0 0 0
Reading data file ...
  orthogonal box = (0.0000000 0.0000000 0.25802179) to (49.220000 49.019636 59.803978)
  2 by 2 by 3 MPI processor grid
  reading atoms ...
  2760 atoms
  reading velocities ...
  2760 velocities
  read_data CPU = 0.015 seconds


# Define potential
# CHECK ON THIS %%%%%%%%%%%%
#
pair_style sw
pair_coeff * * MLC_e.sw mW C


# Delete water and ice atoms that are overlapping
#
delete_atoms overlap 2.5 water graphite
System init for delete_atoms ...
Neighbor list info ...
  update every 1 steps, delay 10 steps, check yes
  max neighbors/atom: 2000, page size: 100000
  master list distance cutoff = 7.76
  ghost atom cutoff = 7.76
  binsize = 3.88, bins = 13 13 16
  2 neighbor lists, perpetual/occasional/extra = 1 1 0
  (1) command delete_atoms, occasional, copy from (2)
      attributes: full, newton on
      pair build: copy
      stencil: none
      bin: none
  (2) pair sw, perpetual
      attributes: full, newton on
      pair build: full/bin/atomonly
      stencil: full/bin/3d
      bin: standard
Deleted 117 atoms, new total = 6472

# set timestep
#
timestep 10.0

# Define output
#
compute 1 all msd
thermo 50
thermo_style custom step temp press vol etotal ke pe c_1[4]

# Neighbor lists
#
neigh_modify delay 0 every 1 check yes


# Fix graphite atoms in place
# CHECK ON THIS %%%%%%%%%%%%%%%%%%%%
#
fix 1 graphite setforce 0.0 0.0 0.0
velocity graphite set 0.0 0.0 0.0

# Set fixes
#
fix 2 water momentum 10 linear 1 1 1 rescale
fix 3 all nph z ${PRES} ${PRES} ${PCOUPL}
fix 3 all nph z -500 ${PRES} ${PCOUPL}
fix 3 all nph z -500 -500 ${PCOUPL}
fix 3 all nph z -500 -500 10000.0
fix 4 all temp/csvr ${TEMP} ${TEMP} ${TCOUPL} 837492
fix 4 all temp/csvr 235 ${TEMP} ${TCOUPL} 837492
fix 4 all temp/csvr 235 235 ${TCOUPL} 837492
fix 4 all temp/csvr 235 235 5000.0 837492


# Run 1.0 ns equilibration of water
#
dump 1 all atom 1000 eq.all.${NAME}.dump
dump 1 all atom 1000 eq.all.graphite_ML_500atm_e.dump
run 100000
Neighbor list info ...
  update every 1 steps, delay 0 steps, check yes
  max neighbors/atom: 2000, page size: 100000
  master list distance cutoff = 7.76
  ghost atom cutoff = 7.76
  binsize = 3.88, bins = 13 13 16
  1 neighbor lists, perpetual/occasional/extra = 1 0 0
  (1) pair sw, perpetual
      attributes: full, newton on
      pair build: full/bin/atomonly
      stencil: full/bin/3d
      bin: standard
Per MPI rank memory allocation (min/avg/max) = 4.559 | 4.691 | 4.954 Mbytes
Step Temp Press Volume TotEng KinEng PotEng c_1[4] 
       0    132.07108   -723.50873     143669.3    -34583.97    2547.4956   -37131.465            0 
      50    144.44596   -1243.1176    143601.68   -34383.345    2786.1923   -37169.537   0.53953978 
     100    144.36263   -1230.9402    143284.66   -34229.193    2784.5851   -37013.778   0.85878171 
     150    151.22693   -1046.3525    142732.62   -34061.516    2916.9894   -36978.505     1.184759 
     200    156.06688   -756.41579    142054.61   -33910.725    3010.3462   -36921.072    1.4758276 
     250    159.01311   -642.76137    141421.99   -33762.899    3067.1755   -36830.075    1.7747135 
     300    159.77271   -772.84527    140943.65    -33606.31    3081.8273   -36688.138    2.1261847 
     350    163.17522   -1091.5235    140600.11   -33427.301    3147.4578   -36574.759     2.558002 
     400     163.5218   -948.75152    140240.21   -33330.986    3154.1428   -36485.129    2.9954961 
     450    164.91132   -624.11293    139814.93   -33209.615    3180.9451    -36390.56    3.5006797 
     500    166.95851   -696.47671    139451.31   -33086.325     3220.433   -36306.758     4.091884 
     550    162.63903   -661.87607    139169.58   -32967.424    3137.1152    -36104.54    4.6278893 
     600    169.81797   -672.03647    138914.72   -32840.227    3275.5885   -36115.816    5.2238424 
     650     168.4156   -879.98232    138723.49   -32738.224    3248.5385   -35986.763    5.8758081 
     700    171.41522   -415.46066    138542.73   -32595.737    3306.3977   -35902.135    6.5848088 
     750    174.66373   -980.96261     138400.4   -32491.058    3369.0575   -35860.116    7.3162727 
     800    176.75804   -454.53762    138263.84   -32374.017    3409.4543   -35783.472    8.0036385 
     850    172.72602   -448.48186    138164.88   -32282.638    3331.6814   -35614.319    8.7349915 
     900    181.27868   -655.88785    138124.39   -32184.274    3496.6521   -35680.926    9.4134684 
     950    180.28701   -1103.5084    138106.64   -32094.611     3477.524   -35572.135    10.129029 
    1000    185.11498   -274.14626     138114.2   -31968.566    3570.6499   -35539.216    11.015471 
    1050    185.72206   -546.65584    138237.69   -31883.022    3582.3598   -35465.382    11.932093 
    1100    181.39852   -564.73986    138342.74   -31768.623    3498.9638   -35267.587    12.755751 
    1150    190.06127   -303.95233    138404.03   -31685.827     3666.058   -35351.885    13.647076 
    1200    183.18186   -761.96496    138508.09    -31607.47    3533.3623   -35140.832    14.673674 
    1250    189.50966   -489.04319    138570.54   -31523.031     3655.418   -35178.449    15.429522 
    1300    191.14755   -674.40559    138638.22   -31465.234    3687.0109   -35152.245    16.261511 
    1350    193.01956   -916.86672     138755.2     -31354.4    3723.1198    -35077.52     17.19342 
    1400    192.34299   -583.08328    138851.81   -31260.978    3710.0696   -34971.048    18.131338 
    1450    196.00638   -735.86718    138907.36   -31169.636    3780.7321   -34950.368    19.053939 
    1500    195.47716   -638.35531    138890.22   -31141.726    3770.5242    -34912.25    20.234127 
    1550    197.35258   -564.07537    138809.08   -31039.646    3806.6987   -34846.344    21.430976 
    1600    197.92707   -609.33704    138807.45   -30974.309    3817.7801   -34792.089    22.618412 
    1650    199.85076   -175.11517    138820.07   -30930.165    3854.8858   -34785.051    23.964264 
    1700    204.72466   -561.58305    138893.36   -30872.686    3948.8976   -34821.583    25.346196 
    1750    205.67972   -320.67638    139039.58   -30769.313    3967.3194   -34736.633    26.685376 
    1800    203.75935   -499.54102    139229.32   -30743.492    3930.2778    -34673.77    28.041359 
    1850    202.58223   -538.20542    139393.86   -30665.374    3907.5726   -34572.946    29.147717 
    1900    207.95834   -814.40008     139558.5   -30616.448    4011.2714    -34627.72    30.526418 
    1950    208.91068   -548.62812    139692.47    -30560.49    4029.6408   -34590.131     31.87844 
    2000    207.86902   -573.19355    139834.04   -30476.241    4009.5485    -34485.79    33.139642 
    2050    210.48417   -728.83295    139996.03   -30437.785    4059.9917   -34497.777    34.512553 
    2100    208.71621    -534.6327    140128.17   -30390.955    4025.8897   -34416.844    35.814804 
    2150    206.63905   -923.86606    140222.42   -30311.402    3985.8239   -34297.226    37.178908 
    2200    212.95271   -295.63989    140269.47   -30249.205    4107.6069   -34356.811    38.457301 
    2250    216.45478   -488.29383    140356.42   -30220.408    4175.1576   -34395.566    39.976186 
    2300    214.79364   -734.41427    140353.79   -30189.977    4143.1162   -34333.094    41.634393 
    2350    213.28839   -594.29482    140347.99   -30130.605    4114.0818   -34244.686    43.209083 
    2400    216.41061   -915.69558    140334.34   -30114.134    4174.3057    -34288.44    45.084318 
    2450    214.44222   -718.68051    140293.74   -30123.023    4136.3378   -34259.361     46.48743 
    2500    215.64134   -159.42878    140291.75   -30122.152    4159.4673   -34281.619    47.841926 
    2550    217.66106   -288.15222     140387.5   -30043.099    4198.4254   -34241.524    49.221848 
    2600    218.54641   -34.369771    140545.52   -30040.021    4215.5028   -34255.524    50.941804 
    2650    217.11105   -596.28033    140709.36   -30027.432    4187.8163   -34215.248    52.705233 
    2700    219.37041   -683.88034    140853.31    -29983.63    4231.3968   -34215.027    54.384505 
    2750    220.15875   -552.56242    141036.93    -29936.73    4246.6029   -34183.333    56.360251 
    2800    221.03286   -385.55523    141179.29   -29932.454    4263.4635   -34195.918    57.931407 
    2850    223.58257   -193.90953    141304.94   -29895.845    4312.6443   -34208.489    59.754208 
    2900    219.12215   -187.19232    141505.76   -29871.639     4226.608   -34098.247    61.253063 
    2950    218.19162    -521.8009    141786.51   -29848.643    4208.6592   -34057.302     63.05858 
    3000    218.94109   -729.36266     142065.3   -29831.033    4223.1157   -34054.149    64.777876 
    3050    220.22652   -650.88348     142177.2   -29794.273      4247.91   -34042.183     66.25398 
    3100    225.05247   -679.08164    142160.69    -29736.15    4340.9971   -34077.147    67.764381 
    3150    222.39616   -753.72976    142122.27   -29697.443    4289.7599   -33987.203    68.861854 
    3200    219.56259   -265.50131    142154.25   -29664.219    4235.1036   -33899.322    70.491043 
    3250    224.20416   -908.04049    142285.87   -29627.366     4324.634       -33952     72.06039 
    3300    228.36165   -574.80214    142389.14   -29621.863    4404.8272    -34026.69    73.894531 
    3350    221.22334   -545.88361    142483.36   -29628.454    4267.1376   -33895.592    75.211497 
    3400    220.37485   -972.15711    142533.47   -29625.604    4250.7713   -33876.376    76.715368 
    3450     222.0002   -224.38938    142522.88   -29648.935    4282.1223   -33931.058    78.328331 
    3500    228.70198   -967.80019    142486.73   -29646.562    4411.3918   -34057.954    79.508132 
    3550    224.76955   -711.26862    142401.19   -29614.793    4335.5398   -33950.333    80.944463 
    3600    229.05445   -469.70859    142316.76   -29596.855    4418.1906   -34015.046     82.76498 
    3650    223.14152   -400.59158    142226.62   -29570.895    4304.1371   -33875.032    84.848692 
    3700    227.06425   -352.42605    142135.31   -29529.746    4379.8019   -33909.548    86.233561 
    3750    230.93161   -568.47699    142069.57    -29448.35    4454.3987   -33902.749    87.964339 
    3800    231.01116   -284.45884    141988.48   -29441.368    4455.9332   -33897.301     89.59299 
    3850    227.83216     18.63157    141943.56   -29397.226    4394.6139    -33791.84    90.905335 
    3900    236.85001   -561.61416    142017.56   -29376.595    4568.5577   -33945.152    92.868306 
    3950    226.96065   -686.76413    142209.82   -29365.601    4377.8035   -33743.404    94.269462 
    4000    229.73091   -662.77513    142431.41   -29394.322    4431.2386    -33825.56    96.824754 
    4050    228.26214   -815.38405    142652.36    -29381.05    4402.9078   -33783.958    99.057388 
    4100    228.89002   -672.45868       142782   -29365.337    4415.0187   -33780.355    101.09773 
    4150     230.9772   -428.21707    142874.55   -29388.772    4455.2781    -33844.05    102.96509 
    4200    227.72253   -416.07251    142967.75    -29358.66    4392.4993   -33751.159    104.60164 
    4250     228.3429   -445.15009    143080.15   -29341.939    4404.4656   -33746.405    106.56133 
    4300    230.75257   -612.56126    143221.97   -29322.737    4450.9451   -33773.682    108.59614 
    4350    231.00575   -876.77071    143367.98   -29313.404    4455.8288   -33769.232    110.61867 
    4400    229.17826   -670.64217    143405.14    -29299.31    4420.5786   -33719.889    112.59372 
    4450    223.69825   -359.56064     143434.3   -29270.965    4314.8757   -33585.841    114.28707 
    4500    229.41947   -1046.2573    143456.82   -29264.667    4425.2313   -33689.898    116.06726 
    4550    229.91565   -628.90636    143359.74   -29245.433     4434.802   -33680.235    117.43293 
    4600     228.6212   -485.71084    143256.02   -29232.305    4409.8336   -33642.139    119.40139 
    4650    233.47517   -471.02031    143192.82   -29199.497    4503.4609   -33702.958    120.78241 
    4700    240.03158   -611.23332    143152.39   -29207.955    4629.9263   -33837.881    122.23375 
    4750    230.98132   -790.68257    143149.18   -29219.745    4455.3575   -33675.103    124.32442 
    4800    232.82228   -686.33964    143104.14   -29191.426    4490.8674   -33682.293    125.59992 
    4850    232.64977   -486.56811    143112.91   -29172.391    4487.5399   -33659.931    126.85089 
    4900    233.55339    100.23018    143207.49   -29167.705    4504.9697   -33672.674    128.57779 
    4950    231.50984   -312.48252     143397.8   -29167.822    4465.5521   -33633.374    130.85262 
    5000    228.95608   -562.76274     143566.6   -29145.898     4416.293   -33562.191     132.7059 
    5050    234.93574   -161.75961    143658.28    -29154.94    4531.6336   -33686.574    134.92462 
    5100    233.63373   -656.77941    143757.84    -29138.93    4506.5195    -33645.45    136.98291 
    5150    231.57364   -605.25908    143840.29   -29145.419    4466.7828   -33612.202    138.87963 
    5200    231.69596   -482.49021    143882.09   -29108.977    4469.1421   -33578.119    140.22105 
    5250    230.47783   -714.51497    143942.08   -29081.886    4445.6457   -33527.532    142.60646 
    5300    234.54392   -635.78247    144021.44   -29047.469    4524.0758   -33571.545    144.55213 
    5350    235.32548    -578.3149    144092.79   -29042.794    4539.1512   -33581.945    146.38688 
    5400    231.90957   -652.96997    144185.87   -29041.522    4473.2624   -33514.784    148.24321 
    5450    240.64986   -272.43617     144325.8   -29024.327    4641.8523   -33666.179    149.94862 
    5500    236.52091   -695.14675    144476.48   -29031.627    4562.2096   -33593.837    151.54365 
    5550    236.78073   -897.52376    144601.49   -29037.537    4567.2213   -33604.758    153.48627 
    5600    235.72203   -592.30806    144736.77   -29016.868    4546.8003   -33563.668    155.50622 
    5650    235.43959   -575.13751    144908.23   -29006.168    4541.3523    -33547.52    157.10901 
    5700    236.65301   -570.01772    145037.69   -28975.348    4564.7578   -33540.106    159.18837 
    5750    238.49591   -772.13886    145141.62   -28981.059    4600.3052   -33581.364    160.60622 
    5800    232.42526   -623.18318    145269.68   -28991.436    4483.2094   -33474.646    161.91102 
    5850    232.19052   -335.21177    145412.36   -28994.017    4478.6817   -33472.699    164.07013 
    5900    234.53359   -859.26707    145581.44   -28956.179    4523.8766   -33480.055    166.30426 
    5950    236.53881   -716.95344     145733.2   -28943.362     4562.555   -33505.917    168.83367 
    6000    233.62089   -351.62317    145862.64   -28963.562    4506.2718   -33469.834    170.60012 
    6050    232.68968   -277.03389    146007.44   -28992.876    4488.3098   -33481.185    171.82132 
    6100    233.23925   -161.63591    146209.04   -28978.291    4498.9104   -33477.202    173.76095 
    6150    232.01547   -804.28483     146412.3   -28954.027     4475.305   -33429.332     175.7118 
    6200    234.41778   -426.99657    146601.86    -28938.91    4521.6428   -33460.553    177.65428 
    6250    236.74131   -762.12334    146789.61   -28901.497     4566.461   -33467.958    179.03717 
    6300    237.86556   -793.05289    146891.32   -28916.023    4588.1465    -33504.17    180.63993 
    6350    228.67215   -744.15564    146932.46   -28930.357    4410.8164   -33341.173    182.30365 
    6400    237.12197    -838.8031    146896.53   -28884.089    4573.8033   -33457.892    184.01415 
    6450    237.79037   -608.94775    146802.13   -28881.509     4586.696   -33468.205    185.21741 
    6500    235.81004   -964.87271    146720.47   -28876.596    4548.4979   -33425.094    186.36101 
    6550    234.86492   -165.86701    146590.73   -28874.485    4530.2676   -33404.752    188.50863 
    6600    238.17755   -277.02688    146500.59   -28919.968    4594.1643   -33514.133    190.41922 
    6650    236.41024   -696.80321    146415.27   -28958.134    4560.0751   -33518.209    192.83305 
    6700    233.27278   -843.57129     146299.7   -28962.118    4499.5571   -33461.675    194.11496 
    6750    233.98016   -786.42627    146155.65   -28982.662    4513.2016   -33495.863    195.59875 
    6800    238.44525    -342.4025    146013.07   -28978.027    4599.3279   -33577.354    197.00056 
    6850    237.93123   -70.123784    145915.45   -29004.064    4589.4132   -33593.477    198.79808 
    6900    236.56915   -703.84032    145867.02   -29015.258    4563.1402   -33578.398    200.71803 
    6950    234.54117   -396.02753    145819.25   -29002.886    4524.0228   -33526.909    202.48161 
    7000    234.82214   -680.78273    145810.49   -28994.973    4529.4424   -33524.415    204.20303 
    7050    236.82103   -433.80507    145802.73   -28976.479    4567.9986   -33544.478    205.76845 
    7100    240.13446   -725.08158    145810.83   -28947.073    4631.9108   -33578.984    207.34871 
    7150    233.91206   -785.29963    145769.06   -28938.075    4511.8881   -33449.963    208.52621 
    7200    232.89379   -245.77698    145709.97   -28932.225    4492.2468   -33424.472    210.69585 
    7250    238.73495    -771.7382    145685.22   -28891.011     4604.916   -33495.927    212.51969 
    7300    231.54421   -407.60816    145631.93   -28900.573    4466.2149   -33366.788    214.60517 
    7350    237.69656   -493.46762    145641.11   -28911.396    4584.8867   -33496.282    216.25516 
    7400    237.90752    -751.0461    145619.14   -28910.365    4588.9558   -33499.321    217.65943 
    7450     234.6989   -472.93143    145512.94   -28904.898    4527.0652   -33431.963    219.10265 
    7500    236.63938   -568.13962    145437.48   -28906.462    4564.4948   -33470.957    221.52293 
    7550    233.86049   -581.85432    145400.81   -28947.305    4510.8933   -33458.198    223.27819 
    7600    238.08283   -739.97914    145423.76   -28950.396    4592.3372   -33542.733    225.51321 
    7650     235.3141   -569.66479    145466.66   -28939.564    4538.9318   -33478.495    227.61193 
    7700    232.06916   -647.14461    145488.72   -28938.889    4476.3407    -33415.23    229.76248 
    7750    240.29347   -785.52402    145485.26   -28942.382    4634.9779    -33577.36    232.13992 
    7800    235.18405   -775.37967    145490.62   -28986.921    4536.4232   -33523.344    233.97899 
    7850    235.42754   -790.11447    145503.48   -28948.736    4541.1199   -33489.856    235.77846 
    7900    234.28213   -570.35577    145426.62   -28934.205    4519.0262   -33453.231    237.89952 
    7950    233.19047   -545.43558    145363.63   -28939.989    4497.9695   -33437.959    239.26766 
    8000    234.40326   -648.84977    145347.75   -28939.998    4521.3626   -33461.361    241.43735 
    8050    234.54558   -428.56736    145304.97   -28961.052    4524.1079    -33485.16    243.14261 
    8100    233.77001   -596.18923    145205.47   -28981.809    4509.1482   -33490.957    244.77782 
    8150    231.75785   -570.33609    145062.99   -29005.555    4470.3358   -33475.891    245.89707 
    8200    233.90633   -231.04789    144902.55    -28981.77    4511.7776   -33493.548     247.8949 
    8250    234.89317   -438.95439    144765.38   -28981.342    4530.8125   -33512.154    250.09976 
    8300    231.71599   -526.67576    144665.79   -28976.097    4469.5285   -33445.626    253.18346 
    8350    238.78098   -444.29237    144558.25   -29014.724    4605.8037   -33620.528    256.04383 
    8400    232.63891   -63.958773    144475.97   -29014.569    4487.3305   -33501.899    258.00333 
    8450    235.37887   -560.27722     144433.3   -29009.991    4540.1812   -33550.172    260.12438 
    8500    230.59572     -239.792    144473.34   -28992.075    4447.9198   -33439.994    261.71554 
    8550     234.7518   -506.58788     144515.7   -28960.566    4528.0856   -33488.651    264.14553 
    8600    235.92898     -508.537    144590.11   -28954.248     4550.792    -33505.04    266.07161 
    8650    241.43276   -643.64131    144700.78   -28936.496    4656.9535   -33593.449    268.36657 
    8700    236.48716    -421.9781    144838.26   -28905.316    4561.5588   -33466.875    271.08745 
    8750    239.07798   -702.55067    144954.04   -28888.647    4611.5325   -33500.179    273.37641 
    8800    241.30324   -688.94604    145081.36   -28868.062    4654.4551   -33522.517    275.56827 
    8850    236.41262   -401.87158    145266.28   -28847.178     4560.121   -33407.299    277.87402 
    8900    237.66079   -404.41956    145457.39   -28850.419    4584.1967   -33434.616    280.32122 
    8950     234.1413   -396.69383    145597.89   -28843.914    4516.3098   -33360.224    282.77424 
    9000    237.72996   -522.72479       145781   -28835.048    4585.5308   -33420.578    285.37909 
    9050    241.40862   -555.42183    146042.25   -28849.989    4656.4879   -33506.476    288.41064 
    9100    237.71162   -558.97019    146332.98   -28836.884    4585.1771   -33422.061    291.71649 
    9150    235.77736   -845.34408    146593.69   -28836.314    4547.8676   -33384.181     294.2451 
    9200    234.12738   -535.05067       146818    -28807.29    4516.0414   -33323.332    296.82652 
    9250    235.87313   -614.40229    147030.46   -28800.017    4549.7149   -33349.732    298.90679 
    9300    236.19023     -610.426    147220.23   -28841.498    4555.8312    -33397.33    300.21659 
    9350    237.86326   -844.96768    147434.44   -28841.385    4588.1021   -33429.487     301.8742 
    9400     239.3847    -640.8861     147605.7   -28849.891    4617.4487   -33467.339     302.5395 
    9450    231.89746   -849.50737    147749.29   -28854.537    4473.0288   -33327.566    303.80443 
    9500    236.05228   -474.30226    147865.14   -28850.855    4553.1704   -33404.025    305.40517 
    9550    237.76101   -305.16875     147978.5   -28869.167    4586.1297   -33455.296    307.33182 
    9600    236.12562   -893.27772    148071.95   -28851.119    4554.5849   -33405.704    309.40861 
    9650    241.74974   -557.47111    148115.95   -28823.404    4663.0676   -33486.472    310.59223 
    9700    236.00076   -425.29496    148205.09   -28838.906    4552.1767   -33391.083    312.72972 
    9750    232.95335   -684.90306    148298.95   -28879.684    4493.3957    -33373.08    314.95195 
    9800     236.3591   -686.23748    148384.59   -28879.409    4559.0886   -33438.498    316.45639 
    9850    233.36666   -233.91658     148462.3   -28859.005    4501.3679   -33360.373    318.10706 
    9900    232.44721   -714.89605    148614.66   -28828.291    4483.6329   -33311.923     319.7931 
    9950    231.18986    -558.7777    148727.84   -28829.679      4459.38    -33289.06    321.31206 
   10000    233.21992    -120.4332    148875.98   -28847.994    4498.5375   -33346.532     323.1955 
   10050    235.45737   -426.58638    149094.18   -28841.647    4541.6953   -33383.342    325.51494 
   10100    239.90621   -538.63626    149316.01   -28849.674    4627.5082   -33477.183    327.47536 
   10150    231.64583   -597.34835    149552.63   -28833.242    4468.1751   -33301.417    329.29231 
   10200    231.31088   -507.98055    149676.89   -28836.551    4461.7144   -33298.265    330.73453 
   10250    232.96397   -506.07299    149744.49   -28795.598    4493.6006   -33289.198    332.40063 
   10300    235.79931    -743.7885    149842.81   -28780.925    4548.2909   -33329.216    334.25676 
   10350    236.15931   -473.69255    149959.92   -28795.356    4555.2348    -33350.59    336.69904 
   10400    238.80604   -442.06572    150043.43   -28808.934    4606.2871   -33415.221    338.89882 
   10450     238.7849   -346.88446    150106.16   -28774.717    4605.8794   -33380.596    341.59726 
   10500    236.83002   -616.42154    150277.82   -28778.205    4568.1721   -33346.377    343.46437 
   10550    240.40229    -498.8218    150541.99   -28790.215     4637.077   -33427.292    344.71976 
   10600    239.82502   -254.02405    150840.46   -28797.996    4625.9421   -33423.938    347.39832 
   10650    237.24871   -662.68798    151105.59   -28821.357    4576.2482   -33397.605    350.55713 
   10700    230.72751   -498.79847     151352.3   -28840.602    4450.4618   -33291.064    352.91103 
   10750    237.16939   -496.35283    151663.38   -28830.355    4574.7181   -33405.074    355.10545 
   10800    235.74396    -834.5415    151938.53   -28819.191    4547.2233   -33366.414    357.09133 
   10850    236.24643   -529.98488    152095.45   -28835.626    4556.9154   -33392.542    359.64605 
   10900    240.52567   -210.90224    152237.31   -28835.225    4639.4567   -33474.682    361.96176 
   10950    234.59973   -594.07719    152399.44   -28852.502    4525.1523   -33377.654    363.82199 
   11000    233.42938    -485.9277    152541.15   -28859.844    4502.5777   -33362.421    365.21552 
   11050    235.81122   -654.77469    152610.85   -28865.817    4548.5206   -33414.337    367.66311 
   11100    235.03771   -764.11662    152607.72   -28892.561    4533.6004   -33426.161    368.63627 
   11150     233.0399   -1106.0393    152613.12   -28883.083    4495.0651   -33378.148    369.97884 
   11200    239.50898   -84.771372    152617.03    -28884.25    4619.8461   -33504.096    370.59978 
   11250    233.52388   -467.36995    152693.33   -28874.387    4504.4005   -33378.787       371.72 
   11300    236.61642   -462.55996    152844.96   -28900.819     4564.052   -33464.871    372.95775 
   11350    232.34802   -538.68717    153107.96   -28893.998    4481.7196   -33375.718    374.59285 
   11400    237.36021   -620.90686    153484.77    -28894.03    4578.3988   -33472.429    376.45828 
   11450     233.8594   -391.61112    153862.18   -28876.113    4510.8723   -33386.985    379.57985 
   11500    236.04575   -487.21075    154267.11   -28821.686    4553.0444   -33374.731     382.2541 
   11550    235.06444   -360.86564    154602.38   -28810.644     4534.116   -33344.761    384.41346 
   11600    234.02996   -778.96909     154840.5   -28846.211    4514.1623   -33360.373    386.90113 
   11650    235.98264   -537.44354    154964.41    -28889.47    4551.8271   -33441.297    388.56303 
   11700    235.95344    -586.6835    155028.57   -28867.305    4551.2638   -33418.569    389.95246 
   11750    237.06932   -95.404229    155013.64    -28906.36    4572.7879   -33479.148     391.8795 
   11800    234.47249   -104.08753    155077.92   -28936.248    4522.6981   -33458.946     393.3646 
   11850    229.01437   -348.32633    155251.84   -28939.486    4417.4173   -33356.903    395.57864 
   11900    232.30556   -589.23201     155394.7   -28908.242    4480.9005   -33389.142    397.71731 
   11950    231.10351   -768.48299    155476.66   -28922.143    4457.7145   -33379.858    399.58761 
   12000    233.89901   -882.72774    155509.79   -28916.217    4511.6363   -33427.854    400.54719 
   12050    232.87222   -603.64027     155523.9    -28933.17    4491.8308   -33425.001    401.84345 
   12100    234.77221   -459.93976    155506.18    -28895.42    4528.4793     -33423.9    403.16567 
   12150    232.76281   -491.36691    155515.42   -28900.834    4489.7204   -33390.554    404.55217 
   12200    237.41282   -189.32772     155582.6   -28871.785    4579.4135   -33451.199    406.46757 
   12250    235.84155   -382.68333    155736.12   -28878.599    4549.1056   -33427.704    409.15168 
   12300    237.76318   -521.17933    155966.72   -28835.004    4586.1717   -33421.176    410.84899 
   12350    234.04814   -534.91216    156221.92   -28858.556    4514.5129   -33373.068    412.92443 
   12400    235.54159   -765.05619    156531.43    -28824.29    4543.3198    -33367.61    416.02753 
   12450    235.06905    -69.71984    156811.22   -28814.955    4534.2051    -33349.16    417.54939 
   12500    237.58894   -320.06529    157137.73   -28828.566    4582.8108   -33411.377    420.42718 
   12550    243.27548   -645.87924    157527.53   -28820.797    4692.4973   -33513.294    422.87966 
   12600    234.21438   -430.18788    157943.59   -28832.413    4517.7194   -33350.132    426.61006 
   12650    235.65484   -587.68509    158307.59   -28822.822    4545.5043   -33368.327    428.50785 
   12700     235.7032    -138.2468    158586.04   -28832.805     4546.437   -33379.242    430.61501 
   12750    231.52386   -503.74423    158918.23   -28813.608    4465.8224   -33279.431    433.72001 
   12800    234.29586   -508.61199    159274.85   -28819.863     4519.291   -33339.154    436.88845 
   12850    233.42114   -301.54815    159619.27   -28832.549    4502.4188   -33334.967    439.18231 
   12900    232.99695   -462.34872    159986.74   -28833.179    4494.2366   -33327.416    442.68498 
   12950    233.64456   -158.89965    160396.63   -28827.031    4506.7283    -33333.76    445.35217 
   13000    236.55934    36.519579    160902.85   -28778.102     4562.951   -33341.053    447.81667 
   13050    236.64529   -240.47783    161466.86   -28768.788    4564.6089   -33333.397    451.05654 
   13100    236.11754   -495.26226    161919.45   -28763.299    4554.4292   -33317.729    453.61101 
   13150    235.36333   -527.11915    162238.46   -28781.855    4539.8814   -33321.736    455.83293 
   13200    238.83877   -293.37433    162491.06    -28746.83    4606.9185   -33353.748     457.6674 
   13250    238.27032   -381.80695       162803   -28761.604    4595.9537   -33357.558    460.11195 
   13300    231.57167   -343.80166    163180.71   -28772.669    4466.7448   -33239.413    463.12189 
   13350    235.04824   -385.50671    163570.48   -28761.753    4533.8035   -33295.557    465.01862 
   13400    239.71092   -687.49673    163937.87   -28765.153    4623.7413   -33388.894    466.98803 
   13450    234.27403    -477.2254    164206.91   -28740.537    4518.8701   -33259.407    469.15703 
   13500    238.87522   -431.04242    164438.39   -28759.075    4607.6215   -33366.696     471.5371 
   13550    232.73111    -117.5044    164718.07   -28736.772    4489.1089   -33225.881    474.31408 
   13600    235.65029   -500.20269    165099.14   -28747.184    4545.4165   -33292.601    477.20711 
   13650    238.59089     -715.604    165497.85   -28778.353    4602.1372   -33380.491    479.78971 
   13700    236.66867     -479.433     165856.6   -28790.331    4565.0599    -33355.39    481.99047 
   13750    237.42927   -423.06151    166208.33   -28768.935    4579.7308   -33348.666    484.53454 
   13800    232.77322   -238.90181    166611.64   -28763.025    4489.9213   -33252.946    486.62542 
   13850    231.09321   -59.221814    167058.16   -28754.698    4457.5157   -33212.214    489.91258 
   13900    233.63498   -521.65163    167547.43   -28767.725    4506.5435   -33274.269     494.0163 
   13950    235.54859   -152.17632    168022.65   -28761.806    4543.4547   -33305.261    497.52325 
   14000    229.59951    58.685986    168442.42   -28776.151    4428.7041   -33204.856    500.67376 
   14050    237.18995   -664.16412     168881.9   -28775.154    4575.1147   -33350.269    504.12763 
   14100    237.78149   -270.41972    169291.78   -28757.605    4586.5248   -33344.129    506.54946 
   14150    236.18188   -289.08122    169695.06    -28768.64    4555.6703    -33324.31    509.10319 
   14200    234.51422   -173.16726    170073.07   -28784.597     4523.503   -33308.101     511.6152 
   14250    230.17814   -309.61671    170497.57   -28817.858    4439.8651   -33257.723    513.38306 
   14300    234.81943   -318.49264    171015.81   -28813.755    4529.3902   -33343.145    516.50001 
   14350    231.08702    -632.6767    171586.32    -28820.38    4457.3963   -33277.776    518.77962 
   14400    232.57251   -302.13255    172038.86   -28815.953    4486.0498   -33302.003    521.26729 
   14450    233.18202   -442.97482    172435.79   -28804.496    4497.8064   -33302.302    523.56684 
   14500    234.06448   -245.83349    172832.47   -28782.112     4514.828    -33296.94    526.65761 
   14550    238.10789   -58.256843     173308.1   -28796.977    4592.8206   -33389.797    529.07564 
   14600    234.56517    -224.2571    173884.21   -28783.634    4524.4857   -33308.119    533.12486 
   14650    236.11639   -391.19165    174464.28   -28758.724    4554.4069   -33313.131    537.07714 
   14700    238.77315   -439.95586    174911.03   -28752.735    4605.6528   -33358.388    540.27392 
   14750    233.86233   -374.02872    175331.44   -28773.907    4510.9288   -33284.836    544.79785 
   14800    239.76098   -373.12341     175797.5   -28748.381    4624.7068   -33373.088    547.85102 
   14850    235.18097   -110.86211    176319.84   -28763.711    4536.3638   -33300.075    552.43236 
   14900    235.79018   -701.35993    176940.05   -28775.545    4548.1148    -33323.66    556.44323 
   14950    234.71762   -268.03418     177374.4   -28789.829    4527.4264   -33317.255    557.71619 
   15000    235.38619    -355.9501    177805.51   -28820.797    4540.3223   -33361.119    560.87273 
   15050    235.41576   -1.6455686    178239.29   -28830.734    4540.8927   -33371.626    564.18133 
   15100    234.15823   -105.52209    178693.87   -28841.272    4516.6363   -33357.909    567.91811 
   15150    233.29928   -576.60682    179174.88   -28841.081    4500.0683    -33341.15    571.87272 
   15200    236.28416   -150.90753    179634.64   -28858.866     4557.643   -33416.509    574.48186 
   15250    237.37208   -223.57293    180124.01   -28857.605    4578.6277   -33436.232    577.19988 
   15300    234.84244   -271.59772    180687.28   -28848.939     4529.834   -33378.773    580.70226 
   15350    233.47279   -208.78651    181333.69    -28874.48     4503.415   -33377.895    584.35652 
   15400    233.33441   -59.831763    182022.43   -28914.313    4500.7459   -33415.059    588.32012 
   15450    229.04522   -118.19092    182738.12   -28973.849    4418.0124   -33391.861     593.0419 
   15500    228.83106   -554.51329    183350.01   -28990.408    4413.8816    -33404.29     597.4544 
   15550    226.80789   -288.43948    183751.05   -28957.771     4374.857   -33332.628    599.38986 
   15600    232.52908   -516.64915    184140.26   -28921.237    4485.2121   -33406.449    601.14223 
   15650    232.95488    -235.2632    184624.61   -28888.242    4493.4252   -33381.667    604.62218 
   15700    234.34009    119.97212    185205.52   -28855.504    4520.1443   -33375.648    607.72419 
   15750    235.14189   -486.16927    185822.32   -28848.452      4535.61   -33384.062    612.35915 
   15800    234.93235   -88.330728    186385.05   -28868.107    4531.5683   -33399.676    616.05037 
   15850    234.45969    -515.3519    186971.11     -28863.2    4522.4512   -33385.652    619.10468 
   15900    235.10536   -58.471353    187612.96   -28857.096    4534.9054   -33392.001    623.60542 
   15950     234.3709    -126.3542    188279.74   -28849.647    4520.7385   -33370.386    628.23006 
   16000     233.3395   -261.39705    188949.78       -28836    4500.8441   -33336.845    632.47327 
   16050    234.79244   -566.80834    189635.77   -28829.864    4528.8695   -33358.734    636.24294 
   16100    236.89603   -455.30492    190270.05    -28849.73    4569.4452   -33419.175    639.48557 
   16150    235.61174    -177.7104    190886.83   -28810.187    4544.6728   -33354.859    644.08339 
   16200    233.99361   -162.56758    191524.64   -28775.395     4513.461   -33288.856    647.96051 
   16250    238.35638   -390.58865    192220.32   -28781.602    4597.6138   -33379.216    651.65705 
   16300    236.02443    17.065595    192875.57   -28768.994    4552.6332   -33321.627    655.31018 
   16350    235.22348   -289.42608    193604.63   -28761.687    4537.1837   -33298.871    658.88002 
   16400    236.25143   -283.69258    194294.08   -28786.092    4557.0117   -33343.104    663.41313 
   16450    235.91411     18.04397    194959.73   -28770.987    4550.5052   -33321.492    667.38733 
   16500    234.30905   -100.62279    195662.36   -28795.428    4519.5455   -33314.973    670.62034 
   16550    236.52465    188.28594    196334.77   -28822.545    4562.2819   -33384.827    674.21713 
   16600     231.8549   -390.15624     197037.2   -28835.742    4472.2079    -33307.95    678.81093 
   16650    233.65641   -444.33826    197730.77   -28823.238    4506.9569   -33330.195    682.49556 
   16700    231.82818    229.97126    198406.46   -28782.597    4471.6925    -33254.29    685.92221 
   16750    237.90205   -118.17932    199209.13   -28792.946    4588.8502   -33381.797    691.30145 
   16800    233.91457    25.652152    200025.29   -28767.544    4511.9365    -33279.48    696.91578 
   16850    238.64826   -151.59672    200817.08   -28744.421    4603.2437   -33347.665    701.98182 
   16900    238.50722   -200.39793    201563.57   -28766.826    4600.5233   -33367.349    706.14361 
   16950    239.25946   -312.56536    202287.99   -28781.112    4615.0331   -33396.145    711.54006 
   17000    236.95403   -29.615117    202965.13   -28783.869    4570.5641   -33354.433    716.20586 
   17050    238.63446    288.70405    203691.78   -28773.729    4602.9776   -33376.707    720.87697 
   17100    239.05093   -69.674017    204532.05   -28768.462    4611.0107   -33379.472    727.62673 
   17150    235.68274   -45.368507    205343.92   -28777.602    4546.0424   -33323.645    733.19914 
   17200    239.70748   -289.18527    206104.77   -28778.193    4623.6749   -33401.868    738.49431 
   17250    232.61415   -172.99013    206849.42   -28821.843    4486.8528   -33308.696    744.09798 
   17300    226.15092   -154.74411    207605.14   -28837.064    4362.1848   -33199.248    748.39868 
   17350    233.46166    123.51089    208401.65   -28850.627    4503.2004   -33353.828    753.16219 
   17400     231.7845   -61.404009    209264.93   -28844.619    4470.8499   -33315.469    758.81979 
   17450    233.88172    142.18215    210108.37    -28873.76    4511.3028   -33385.062    764.38053 
   17500    235.78864   -289.17667    210974.02   -28896.433     4548.085   -33444.518     771.1521 
   17550    233.46685   -121.10753    211747.04   -28902.047    4503.3004   -33405.347    776.93523 
   17600    234.91284    -19.58021    212516.86   -28900.998    4531.1919    -33432.19    782.08773 
   17650    241.15984    80.918014    213399.81   -28918.599    4651.6893   -33570.288    788.72084 
   17700    234.79891    149.47282    214326.29    -28929.51    4528.9944   -33458.504     795.1158 
   17750    234.86051   -57.792436    215240.49   -28972.437    4530.1825    -33502.62    803.29169 
   17800    231.83661   -269.47923     216066.3    -28963.07    4471.8551   -33434.925    808.94018 
   17850    231.64162    -209.1629    216785.51   -28979.895     4468.094   -33447.989    813.91123 
   17900    230.83853   -16.439358    217496.98   -28976.171    4452.6032   -33428.774    819.76866 
   17950    233.91744   -137.53363    218349.85   -28975.012    4511.9918   -33487.003    824.14407 
   18000    232.75222   -188.95325    219267.63   -28998.315    4489.5161   -33487.831    829.80936 
   18050    232.56791    173.87192    220059.99   -29020.575    4485.9611   -33506.536    835.25421 
   18100    232.25074   -141.46134    220966.47   -29018.813    4479.8432   -33498.656    841.13571 
   18150    232.49441    134.77701    221903.17   -29038.967    4484.5433    -33523.51    847.80555 
   18200    227.64766   -271.28625    222803.02   -29061.456    4391.0551   -33452.511    854.67475 
   18250    233.71084   -209.75085    223604.57   -29079.382    4508.0068   -33587.389    860.95993 
   18300    231.09158    133.89024    224397.79   -29070.367    4457.4842   -33527.851    867.19473 
   18350    229.33782   -474.69049    225278.76   -29032.543    4423.6564     -33456.2    874.46297 
   18400    235.29763    180.81951    226144.13   -29068.375    4538.6141   -33606.989    879.29676 
   18450     230.3173    178.68828    227072.35    -29051.09    4442.5493   -33493.639    886.94117 
   18500    235.68024    -54.94588    227947.44   -29017.487    4545.9941   -33563.481    894.43614 
   18550    231.33433   -107.79744    228829.18   -29014.469    4462.1667   -33476.636    902.05406 
   18600    231.87477    52.756631    229678.76   -29006.269    4472.5911    -33478.86    910.28643 
   18650    231.02551   -361.19641    230599.37   -28972.658    4456.2098   -33428.868    917.33117 
   18700    231.40811    146.51497    231505.88   -28954.163    4463.5898   -33417.753    924.58339 
   18750    230.59336   -371.45089    232447.04   -28911.599    4447.8742   -33359.473    933.20329 
   18800     238.5684   -13.228671     233298.1   -28904.534    4601.7034   -33506.237    939.42234 
   18850    231.90307   -170.12093    234210.48   -28909.309     4473.137   -33382.446    946.01283 
   18900    233.26856   -191.89291    235118.94   -28953.317    4499.4756   -33452.793    952.79051 
   18950    235.48544   -309.51331    235979.66   -28966.761    4542.2368   -33508.998     959.3254 
   19000    236.17279   -126.51579    236905.47   -28961.457    4555.4949   -33516.952    967.61584 
   19050    233.47964   -99.272101    237860.38   -28969.972    4503.5472    -33473.52    976.90888 
   19100    234.14677   -134.40689    238811.18   -28960.342    4516.4153   -33476.757    985.04066 
   19150    228.39838    226.37981    239857.09   -28951.825    4405.5356    -33357.36    991.94876 
   19200    235.39815    89.175863    240847.26   -28926.764     4540.553   -33467.317    999.56486 
   19250     233.2162   -382.76218    241730.11   -28942.645    4498.4658   -33441.111    1006.5134 
   19300    236.93925   -138.03708    242567.46   -28916.708    4570.2789   -33486.987    1012.6133 
   19350    235.96529    108.43777    243425.91   -28908.125    4551.4924   -33459.617     1019.599 
   19400    237.14285   -86.287218    244359.26   -28883.123    4574.2062   -33457.329    1027.6842 
   19450    237.31925    40.485336    245281.35   -28879.863    4577.6087   -33457.472    1034.6795 
   19500    239.73276    181.16979    246311.14   -28912.916    4624.1625   -33537.078    1042.7024 
   19550    234.44985   -186.62798    247484.92   -28937.201    4522.2614   -33459.462    1051.9427 
   19600    231.19635   -111.94275    248539.14   -28928.279    4459.5052   -33387.784    1059.9377 
   19650    233.57402   -261.96087    249444.77   -28912.721    4505.3677   -33418.088    1067.4216 
   19700    236.77208      55.9627    250275.83   -28922.864    4567.0544   -33489.919     1073.361 
   19750    234.79686    -286.8979    251311.18    -28913.54    4528.9548   -33442.495    1083.0939 
   19800     231.5737    57.338722    252305.31   -28928.998    4466.7839   -33395.782    1092.0541 
   19850    234.05851   -65.586337    253327.77   -28913.385     4514.713   -33428.098    1101.5839 
   19900    232.85926   -64.937783    254348.16   -28894.081    4491.5808   -33385.662    1109.6962 
   19950     234.1659    49.796991    255415.26   -28904.035    4516.7843    -33420.82    1118.5262 
   20000    228.58358   -296.40833    256448.57   -28924.125     4409.108   -33333.233    1127.1652 
   20050    235.18202   -125.64002    257372.14   -28945.464    4536.3841   -33481.848    1135.5816 
   20100     231.7034     78.43503    258283.57   -28971.552    4469.2855   -33440.838    1143.8383 
   20150    234.69084   -9.9513043     259383.4   -28955.311    4526.9098    -33482.22    1151.6492 
   20200    234.18988   -49.485989    260550.65   -28975.695    4517.2469   -33492.942    1163.3767 
   20250    232.37634   -41.673806    261710.25   -28985.533    4482.2658   -33467.799    1173.5725 
   20300    230.08717    41.570848     262844.5   -28960.124    4438.1105   -33398.235    1182.9509 
   20350    232.35883   -229.11913    263832.45   -28926.133     4481.928   -33408.061    1192.5311 
   20400     231.8374   -244.39078    264778.05   -28945.087    4471.8704   -33416.957     1200.631 
   20450    233.12324     123.4854    265641.62   -28951.245    4496.6726   -33447.918    1209.4807 
   20500     237.9416    129.34692    266651.75   -28951.166    4589.6131   -33540.779    1217.9654 
   20550    235.87219   -28.568784    267721.12   -28941.614    4549.6966   -33491.311    1227.4899 
   20600    236.87019   -75.740768    268900.11   -28948.643    4568.9468    -33517.59    1238.5482 
   20650    233.72009    3.6759681    270056.01   -28966.219    4508.1851   -33474.404    1249.9416 
   20700    230.58608   -87.370045    271231.63   -28966.116    4447.7338    -33413.85    1259.4556 
   20750    233.90417   -41.642768    272340.79   -28949.016     4511.736   -33460.752    1271.2115 
   20800    229.11403    63.411781    273445.26   -28954.049    4419.3398   -33373.389    1281.4537 
   20850    232.96012    124.77132    274518.54   -28932.954    4493.5262    -33426.48     1291.122 
   20900    233.54154    -23.44686    275563.34   -28928.432    4504.7411   -33433.173    1300.7107 
   20950    232.39214    31.537311    276633.97   -28951.654    4482.5705   -33434.225    1313.2705 
   21000    234.47484   -112.31204    277781.97   -28951.161    4522.7434   -33473.904    1324.3301 
   21050    230.12969   -214.91281    278992.22   -28956.126    4438.9305   -33395.056    1336.4308 
   21100    235.78145   -195.52755    280168.16   -28950.226    4547.9463   -33498.172     1348.541 
   21150    230.12429    90.268433    281231.99   -28928.697    4438.8265   -33367.523    1359.7068 
   21200    234.44969    27.225584    282354.68   -28929.948    4522.2583   -33452.207    1371.3358 
   21250    233.45063   -59.576525    283541.04   -28941.021    4502.9877   -33444.009    1385.0361 
   21300    234.96816   -59.042454     284742.8   -28925.286     4532.259   -33457.545    1397.7082 
   21350    234.56724   -69.533039    285946.79     -28937.6    4524.5257   -33462.125    1410.8668 
   21400    235.21801    -137.2849    287097.27   -28923.802    4537.0784    -33460.88    1421.8576 
   21450    237.11299    8.1130965    288327.14   -28902.927    4573.6303   -33476.557    1433.2975 
   21500    236.08156    -221.1647    289675.75   -28906.363    4553.7351   -33460.098    1446.3789 
   21550    237.23524   -149.16959    290789.68   -28884.836    4575.9883   -33460.825    1457.2496 
   21600    233.11399   -279.98079    291968.82   -28866.093    4496.4942   -33362.588    1469.6721 
   21650    235.67567   -103.08054    293125.76   -28848.456     4545.906   -33394.362    1481.8117 
   21700      236.169   -97.213808    294282.67     -28844.7    4555.4218   -33400.122    1494.1114 
   21750     236.4512    -18.54414     295499.3   -28829.959     4560.865   -33390.824    1507.8489 
   21800    236.86717    113.16763    296843.85   -28818.179    4568.8887   -33387.068    1521.7828 
   21850    240.15696    91.750112    298222.71   -28843.543    4632.3448   -33475.888    1536.2143 
   21900     234.4923    36.802018    299478.41   -28830.179    4523.0803   -33353.259    1549.0187 
   21950    232.89127    -181.8448    300727.06   -28861.144    4492.1983   -33353.343    1562.0403 
   22000    235.67214    4.7865255     301929.6   -28833.955     4545.838   -33379.793    1574.8554 
   22050    242.04586    -152.2835    303090.26   -28829.098    4668.7794   -33497.877    1588.8544 
   22100    238.61704    104.99213    304344.38   -28814.882    4602.6416   -33417.523    1603.5584 
   22150    235.90687   -160.72789     305820.7   -28810.716    4550.3657   -33361.082    1619.5476 
   22200    234.04928   -103.73082    307185.75   -28792.648    4514.5349   -33307.183    1634.8001 
   22250    235.38464   -35.868918    308368.82   -28776.032    4540.2925   -33316.324    1648.4886 
   22300    241.82291    105.19293    309555.54   -28735.678    4664.4789   -33400.157    1662.5904 
   22350    237.90178    22.014749    310815.37   -28748.084     4588.845   -33336.929    1675.9741 
   22400    232.15707   -49.694738    312139.74   -28758.902    4478.0363   -33236.938    1691.2041 
   22450    238.34963   -162.30307    313486.26   -28755.858    4597.4836   -33353.342    1706.7092 
   22500     239.1594    64.286413     314849.1   -28751.532    4613.1031   -33364.635    1724.0149 
   22550    233.48529    83.946707    316273.42   -28771.119    4503.6562   -33274.776    1738.7575 
   22600    236.61916   -67.355684    317661.09   -28763.028    4564.1049   -33327.133    1754.7206 
   22650    236.07226   -175.32754    319023.62   -28774.237    4553.5557   -33327.792    1770.4586 
   22700    238.06682   -46.766151    320428.42   -28801.677    4592.0285   -33393.705    1787.0692 
   22750     233.9544   -192.18554     321861.1   -28809.284    4512.7047   -33321.989    1804.3336 
   22800    237.83365   -61.998461     323220.9   -28825.187    4587.5309   -33412.718     1821.198 
   22850    237.79956    -95.59225    324673.89   -28819.146    4586.8734   -33406.019    1840.7644 
   22900    240.75254    13.142348    326082.69   -28837.598    4643.8329    -33481.43    1857.7805 
   22950    234.07066   -130.19079    327460.73   -28848.902    4514.9473    -33363.85    1875.7177 
   23000    233.28531   -240.89796    328763.34   -28832.238    4499.7988   -33332.037    1890.4687 
   23050    237.43558    27.319636    330119.18   -28797.491    4579.8526   -33377.343    1905.9182 
   23100    237.70682   -291.59181    331654.36   -28805.857    4585.0845   -33390.942    1924.3967 
   23150    238.53356   -15.341103    333123.78   -28805.112    4601.0314   -33406.143    1942.0985 
   23200    238.17052   -33.536674    334720.84   -28804.375    4594.0288   -33398.404    1963.3585 
   23250    233.66016   -228.58113    336213.67   -28811.698    4507.0292   -33318.727    1981.3839 
   23300    237.43555    12.154566    337544.56   -28814.316    4579.8521   -33394.168    1996.9087 
   23350    232.68918    -70.19255    339022.35   -28827.279    4488.3001   -33315.579    2015.3421 
   23400    233.99161    -6.343897    340384.78    -28813.62    4513.4225   -33327.043    2032.4631 
   23450    233.72621    60.446054    341754.46   -28839.128    4508.3033   -33347.431    2051.6396 
   23500     235.1153   -82.398999    343265.82   -28858.637    4535.0971   -33393.734    2073.1819 
   23550    240.38376   -89.791268    344933.07   -28851.415    4636.7194   -33488.135    2093.7586 
   23600    235.49917   -98.757172    346614.64   -28838.849    4542.5016    -33381.35    2115.1238 
   23650    240.69403   -109.10266    348207.62   -28805.869    4642.7042   -33448.573    2136.4198 
   23700    239.76448   -84.407124    349695.04   -28806.061    4624.7743   -33430.835    2155.3001 
   23750    237.09263   -31.314501    351315.33   -28798.191    4573.2375   -33371.428    2178.2015 
   23800    238.44339   -75.728308    352952.12    -28777.89    4599.2921   -33377.182    2200.8876 
   23850    236.66454    103.64594    354447.42   -28796.316    4564.9801   -33361.296    2220.9643 
   23900    236.19969   -165.74458     356001.9   -28815.679    4556.0138   -33371.693    2242.6097 
   23950    236.59506    16.759452    357539.46   -28834.746    4563.6399   -33398.386    2263.3672 
   24000    234.47551   -161.15319    359143.61   -28836.581    4522.7563   -33359.337    2286.4409 
   24050    231.63488   -103.57084    360800.15   -28809.946    4467.9639   -33277.909       2311.7 
   24100    233.86151   -156.52387     362425.4   -28789.331    4510.9129   -33300.244    2333.7146 
   24150    235.66549    172.10752    364037.41   -28808.168    4545.7096   -33353.877    2357.4562 
   24200    237.12422    -132.7577     365791.4   -28807.831    4573.8469   -33381.678     2381.203 
   24250    237.24628   -104.50063    367467.89   -28805.251    4576.2012   -33381.452    2404.0103 
   24300    238.55708   -17.803733     369170.8   -28829.816     4601.485   -33431.301    2429.4747 
   24350    233.69585    43.389762    370916.24   -28818.569    4507.7176   -33326.287    2455.5067 
   24400    233.49054   -146.86334    372647.68   -28834.536    4503.7574   -33338.294    2481.5237 
   24450    230.47363   -87.668752    374185.43   -28836.622    4445.5648   -33282.187    2502.1522 
   24500    235.48743    -124.6748    375812.07   -28833.122     4542.275   -33375.397    2525.5683 
   24550    235.38576   -76.986432    377586.19   -28843.142    4540.3139   -33383.456    2550.7729 
   24600    232.19478     17.33125    379356.94   -28811.591    4478.7638   -33290.355    2576.7102 
   24650    239.52119   -160.87177    381177.67   -28795.241    4620.0816   -33415.323    2601.8175 
   24700    235.70317   -27.394704    382903.21   -28763.613    4546.4365    -33310.05    2625.7108 
   24750    235.96754   -0.4243595    384529.56   -28720.366    4551.5359   -33271.902    2648.0673 
   24800    237.12402   -25.762968       386290   -28713.594     4573.843   -33287.437    2674.4648 
   24850    238.81439    4.0973108    388078.48   -28682.798    4606.4482   -33289.246    2703.1775 
   24900    238.08519     41.23673    390014.03   -28711.092    4592.3828   -33303.474    2734.6594 
   24950    240.68712   -50.379413    391978.25   -28706.616    4642.5709   -33349.187    2762.9679 
   25000    237.00044   -22.593004    393837.72   -28742.597    4571.4592   -33314.057    2790.7291 
   25050    235.23735   -191.31116    395628.18   -28740.298    4537.4513   -33277.749    2816.7351 
   25100    236.62812    59.300302    397409.85   -28728.695    4564.2777   -33292.973    2845.1295 
   25150    233.64946   -233.83378    399324.14   -28751.664    4506.8227   -33258.487    2873.7387 
   25200    236.98773    -52.79009    401068.04   -28788.671    4571.2141   -33359.885    2899.8669 
   25250    237.10058   -145.48992    402870.97   -28810.184    4573.3908   -33383.575    2929.1726 
   25300    236.92481   -56.324212    404723.97   -28843.756    4570.0004   -33413.756     2960.134 
   25350    238.13953   -27.815913    406822.43   -28880.961    4593.4309   -33474.392    2995.4977 
   25400    237.42201    49.560753    408939.17   -28875.283    4579.5909   -33454.874    3025.0831 
   25450    235.61168   -113.45066    410997.38   -28867.994    4544.6718   -33412.666    3054.6287 
   25500    234.39287   -58.048428    412876.63   -28838.292    4521.1623   -33359.454     3084.685 
   25550    233.11476    17.518791    414779.65    -28861.42     4496.509   -33357.929    3115.8845 
   25600    232.17554    23.881777    416845.42    -28901.76    4478.3926   -33380.153    3147.5433 
   25650    231.77234   -226.63108    418896.29   -28888.364    4470.6154   -33358.979    3181.7122 
   25700    232.63704   -139.98989    420754.25   -28858.836    4487.2943    -33346.13     3210.454 
   25750    235.74862    1.6025693    422744.72   -28836.004     4547.313   -33383.317    3243.8661 
   25800    232.73709    32.295809    424712.33   -28846.761    4489.2242   -33335.985    3274.6921 
   25850    235.40009   -11.059178    426700.45   -28805.885    4540.5904   -33346.475     3309.847 
   25900     230.3341   -169.55292    428706.85    -28816.02    4442.8735   -33258.894    3343.6628 
   25950        234.6   -137.61357    430870.84    -28823.66    4525.1576   -33348.818    3380.9486 
   26000     240.4161    68.520539    433193.37   -28822.795    4637.3432   -33460.138    3419.3868 
   26050    236.11385     14.26284    435514.17   -28911.583    4554.3579    -33465.94    3459.1179 
   26100    235.15168    25.217082    437626.56   -28918.725    4535.7988   -33454.524    3497.0166 
   26150    235.11816   -18.716741    439649.88   -28898.226    4535.1523   -33433.379    3534.2338 
   26200     234.4235   -20.263744    441730.32   -28888.948    4521.7531   -33410.701     3570.486 
   26250    233.24621   -169.89261    443897.74   -28921.319    4499.0446   -33420.364    3608.3314 
   26300    233.89258    79.481901    446070.29   -28923.356    4511.5123   -33434.868    3646.4893 
   26350    233.54512    58.675195    448283.71   -28921.774    4504.8101   -33426.585    3687.5418 
   26400    236.74832   -40.300334    450595.41   -28910.883    4566.5961   -33477.479    3730.3751 
   26450    233.30274   -35.375096    452863.99   -28899.287     4500.135   -33399.422    3769.7454 
   26500    237.72422   -178.13028    455040.11   -28917.045      4585.42   -33502.466    3807.0073 
   26550    227.82253   -144.99546    457123.52   -28918.416    4394.4282   -33312.844    3845.4036 
   26600    234.38229   -233.42495    459303.52   -28902.729    4520.9583   -33423.687    3885.8691 
   26650    236.22025   -17.589506    461538.14   -28891.857    4556.4103   -33448.267    3925.5692 
   26700    238.32392   -106.71252    464022.32   -28875.445    4596.9876   -33472.432    3973.2266 
   26750    233.23444    72.766354    466535.03   -28901.576    4498.8175   -33400.394    4020.9557 
   26800    237.16309   -26.960431    469167.18   -28920.065    4574.5966   -33494.662    4070.5156 
   26850    230.87376   -26.070555    471574.72   -28898.065    4453.2829   -33351.348    4115.3083 
   26900     234.1716    3.3266068    473929.15    -28888.94    4516.8943   -33405.834     4162.231 
   26950    232.53198   -18.437426    476311.87   -28918.744    4485.2679   -33404.012    4208.6057 
   27000    238.61618   -172.71349       478644   -28910.064     4602.625   -33512.689     4253.371 
   27050    233.66735   -91.612864    480917.21   -28917.352    4507.1679    -33424.52    4295.6646 
   27100    233.62192   -90.470434    483319.43   -28907.131    4506.2916   -33413.422    4339.6962 
   27150     236.4052   -64.727366    485808.05   -28919.958    4559.9777   -33479.936    4384.3363 
   27200    238.90487    64.017543    488248.21   -28884.745    4608.1935   -33492.938    4433.5411 
   27250    237.02825   -62.715568    491019.97   -28882.213    4571.9957   -33454.209    4489.5094 
   27300    237.11763   -40.032636    493534.29   -28897.172    4573.7197   -33470.892    4538.8208 
   27350    233.19147    83.078104    496075.96   -28871.981    4497.9887    -33369.97    4590.0544 
   27400    233.27393   -31.121221    498731.46   -28855.979    4499.5792   -33355.558    4643.1678 
   27450    231.84803   -139.45949    501253.84   -28860.682    4472.0752   -33332.757    4694.1987 
   27500    234.82103   -22.866695    503690.73   -28841.177    4529.4209   -33370.598    4741.5876 
   27550    236.48348    -66.75783     506339.1   -28841.844    4561.4876   -33403.332    4794.3252 
   27600    235.23321    12.655979    508974.91   -28860.919    4537.3715   -33398.291    4847.5755 
   27650     237.5542   -46.605042    511831.72   -28885.038    4582.1407   -33467.179    4906.9868 
   27700    235.16285   -176.67729    514705.74   -28856.572    4536.0143   -33392.586    4967.8276 
   27750    235.60798   -132.11091    517265.82   -28850.282    4544.6003   -33394.882    5024.6172 
   27800    233.40421   -20.661706    519765.76   -28829.445    4502.0922   -33331.537    5076.5044 
   27850    235.30021    32.662815    522363.26   -28827.479    4538.6639   -33366.143    5134.7888 
   27900    237.92314    8.6482149    525220.03     -28847.5    4589.2571   -33436.757     5196.538 
   27950    238.25991    97.932475    528224.05   -28844.994     4595.753   -33440.747    5258.4477 
   28000    234.21083   -63.053623    531333.22   -28851.695    4517.6509   -33369.346    5328.5506 
   28050    237.59908   -169.03054    534094.17   -28871.459    4583.0063   -33454.466     5390.618 
   28100    239.17465   -118.99228    536950.14   -28875.049    4613.3972   -33488.447    5452.2291 
   28150     232.3711  -0.10975471    539912.02    -28876.03    4482.1648   -33358.195    5519.5856 
   28200    232.76325   -69.006455    542832.46   -28874.792    4489.7289   -33364.521    5583.1043 
   28250    239.84739    -81.05838    545612.81   -28910.172    4626.3736   -33536.546    5642.6404 
   28300    230.41189   -126.90761     548504.3    -28891.51    4444.3738   -33335.884    5706.4685 
   28350    232.70142     16.18328     551340.4   -28891.293    4488.5362    -33379.83    5769.7347 
   28400    229.23642   -18.148013    554384.72   -28864.903    4421.7005   -33286.604    5838.9215 
   28450    236.09292   -58.367672    557340.53   -28848.785    4553.9542   -33402.739    5908.4083 
   28500     235.8276    -19.78923     560406.7   -28883.967    4548.8366   -33432.803    5979.3956 
   28550    233.40961   -14.177243    563452.82   -28884.116    4502.1965   -33386.313    6046.9282 
   28600    236.27545    36.360689    566679.54   -28883.243    4557.4751   -33440.719    6124.1382 
   28650    234.01712   -51.195919    569946.53   -28901.742    4513.9145   -33415.656    6199.8104 
   28700    234.90213    48.007069    573219.97   -28915.344    4530.9852    -33446.33    6274.1768 
   28750    233.59728   -89.961834    576552.63   -28923.154    4505.8164   -33428.971    6354.2013 
   28800    234.59923    -164.5587    579582.37   -28898.766    4525.1428   -33423.909    6431.0383 
   28850    233.48887    -31.25183    582534.04    -28917.52    4503.7251   -33421.245    6502.6008 
   28900    233.61663   -95.907525    585716.51   -28940.845    4506.1895   -33447.035    6581.5513 
   28950    232.94412    2.2590044    589137.43   -28938.434    4493.2177   -33431.652    6668.7023 
   29000    232.26612   -89.576523    592443.08   -28949.176    4480.1399   -33429.315    6750.9292 
   29050    231.78803    77.520378    595584.15   -28964.771    4470.9181   -33435.689    6834.5707 
   29100    236.50606   -70.974288    599055.95   -28977.445    4561.9232   -33539.368    6923.0348 
   29150    230.84762    17.172013    602584.54   -28970.935    4452.7787   -33423.713    7010.3192 
   29200    237.99204   -115.45657    606246.71    -28997.64    4590.5861   -33588.226    7104.0081 
   29250    229.76085   -46.055167    609598.58   -29024.325    4431.8161   -33456.141    7189.2911 
   29300    229.44134   -96.510793     612951.6   -29009.255    4425.6531   -33434.908    7282.3221 
   29350    230.48435   -151.44225    616470.77   -28990.394    4445.7716   -33436.166    7373.8288 
   29400    233.63104    92.144777    619950.32   -28982.464    4506.4675   -33488.931    7465.0206 
   29450    234.97141   -91.463481    623581.98   -28966.517    4532.3217   -33498.838    7561.9525 
   29500      238.461   -63.171999    627114.75   -28948.105    4599.6317   -33547.736    7653.4502 
   29550    232.44406    74.876698    630719.75   -28932.545     4483.572   -33416.117    7748.5359 
   29600    235.49546   -151.34824    634558.26   -28921.928    4542.4301   -33464.358    7849.6874 
   29650    232.70901   -83.797159    638100.77   -28896.422    4488.6827   -33385.105    7947.0105 
   29700     237.9159   -1.3852346    641772.93   -28889.631    4589.1175   -33478.749    8047.8913 
   29750    231.53031    23.308612    645698.56    -28859.35    4465.9468   -33325.297    8152.7346 
   29800    236.54769   -119.77304    649578.53   -28836.927    4562.7263   -33399.653    8260.0565 
   29850     231.9533    -69.77015     653236.7   -28828.581    4474.1059   -33302.687    8360.8562 
   29900    232.40009   -72.561559    657043.01   -28825.448     4482.724   -33308.172    8468.6459 
   29950    238.73887   -84.983801    660883.63   -28815.881    4604.9914   -33420.873    8575.8641 
   30000    237.91992   -50.349449    664600.24   -28809.857    4589.1949   -33399.052    8682.4996 
   30050    235.08909     9.240706    668701.75   -28803.333    4534.5916   -33337.924    8803.0759 
   30100     237.1608   -32.391308    673036.73   -28816.588    4574.5523    -33391.14    8927.3516 
   30150    232.05452   -75.186565    677158.19   -28795.265    4476.0582   -33271.323    9048.3208 
   30200    233.00755   -119.40072    680943.31   -28819.002    4494.4411   -33313.443    9159.9531 
   30250    237.16936   -48.745187    684717.24   -28849.252    4574.7176   -33423.969    9273.2435 
   30300    235.34886    48.636021     688576.4   -28854.484    4539.6023   -33394.086    9385.1989 
   30350    238.23701    36.835935    692946.06   -28867.934    4595.3112   -33463.245    9512.5217 
   30400    236.36878    5.5675901    697539.04   -28922.047    4559.2752   -33481.322    9649.9446 
   30450    228.53262    -115.5211    701836.49   -28901.089     4408.125   -33309.214    9779.9114 
   30500     230.8765    24.754908    705858.04    -28901.03    4453.3356   -33354.366    9894.7582 
   30550    235.87802   -37.349461    710231.53   -28861.156    4549.8091   -33410.965    10032.421 
   30600    232.08521   -52.633228    714613.93   -28828.213    4476.6503   -33304.863    10163.952 
   30650    234.26136   -63.161067    718917.17   -28814.164    4518.6256    -33332.79    10291.151 
   30700    236.67058   -1.3102017    723309.38   -28806.361    4565.0967   -33371.457    10422.455 
   30750    234.55649   -86.306768     728098.1   -28790.249    4524.3183   -33314.567    10571.446 
   30800    234.88597   -90.447341    732639.11   -28799.533    4530.6737   -33330.207    10713.658 
   30850    239.21471   -11.828799    736966.72   -28751.801    4614.1699   -33365.971    10846.143 
   30900    237.08233   -56.864732    741334.81   -28780.206    4573.0388   -33353.245    10986.919 
   30950    237.28672   -58.328231    745790.58   -28789.088    4576.9813   -33366.069    11132.317 
   31000     238.3414    31.357945    750400.53   -28788.293    4597.3248   -33385.617    11283.406 
   31050    233.97895     -65.6232    755465.09   -28793.365    4513.1783   -33306.543    11451.722 
   31100    238.41081   -5.0299757    760294.73   -28782.123    4598.6636   -33380.787    11613.287 
   31150    234.71913   -45.958758    765121.26   -28795.879    4527.4555   -33323.334    11775.288 
   31200    236.75745   -26.548218    769855.59   -28810.242    4566.7722   -33377.014    11933.916 
   31250     234.0328    57.312138    774850.14   -28794.206     4514.217   -33308.423    12108.188 
   31300    235.18058    -1.452994    780043.45   -28822.586    4536.3562   -33358.942    12282.242 
   31350    237.97774     2.790235    785000.93   -28800.387    4590.3103   -33390.697    12451.491 
   31400    236.14232    31.471253    789806.17   -28818.596    4554.9072   -33373.503    12622.692 
   31450    235.63846   -8.1482333    794792.72   -28839.334    4545.1884   -33384.523    12800.412 
   31500    237.06135   -41.381886    800085.21   -28859.132    4572.6342   -33431.766    12985.752 
   31550     238.3322   -38.493354    805304.22    -28892.51    4597.1473   -33489.658    13174.424 
   31600    238.15942    -29.97142    810579.38   -28866.429    4593.8146   -33460.244    13360.155 
   31650     234.2818   -90.612566    816005.37   -28842.779    4519.0199   -33361.799    13549.948 
   31700    236.94882    -25.73835    821346.69   -28802.558    4570.4635   -33373.021    13739.675 
   31750    238.42881   -45.890653    826822.66   -28826.153    4599.0109   -33425.164     13938.74 
   31800     234.6852   -68.811627    831952.87   -28819.204     4526.801   -33346.005    14127.423 
   31850    236.54568   -60.072232    837074.12    -28809.06    4562.6875   -33371.748    14317.045 
   31900    235.80885   -85.725472    842493.86   -28794.097    4548.4748   -33342.572    14514.037 
   31950    235.71174    5.9876211    848204.09   -28771.107    4546.6018   -33317.709     14727.37 
   32000    238.03825    96.754938    854112.37   -28806.694    4591.4773   -33398.172    14945.642 
   32050    235.64472    -27.07409    860213.68   -28815.378     4545.309   -33360.687    15171.851 
   32100    237.09925   -37.194142    865925.61   -28838.976    4573.3651   -33412.341    15387.377 
   32150    238.06915   -32.238157    871680.47   -28863.557    4592.0735   -33455.631    15607.805 
   32200    236.46532   -68.984939    877477.82   -28824.856    4561.1375   -33385.994    15822.703 
   32250    232.70158    33.298071     883162.6   -28806.268    4488.5394   -33294.807    16043.594 
   32300    235.48913   -54.958974    889235.31   -28826.365    4542.3078   -33368.672    16280.945 
   32350    235.20465    27.068208    895458.75   -28858.214    4536.8206   -33395.034    16528.455 
   32400    233.26059   -29.721934    901733.38   -28846.187    4499.3219   -33345.509    16776.396 
   32450    233.70333   -15.236939    907540.97   -28820.542    4507.8619   -33328.404    17002.512 
   32500    238.75759   -33.059565    913499.31   -28795.868    4605.3526   -33401.221    17242.408 
   32550    238.41766   -22.267532    919886.17   -28808.651    4598.7958   -33407.446    17496.881 
   32600    237.63194   -26.501412    926413.65   -28843.045    4583.6402   -33426.685    17764.259 
   32650    236.93319    27.618252    933094.23   -28835.019    4570.1622   -33405.181    18044.138 
   32700      238.561   -37.240902     939757.5   -28839.003    4601.5606   -33440.563    18319.664 
   32750    235.87496    17.431208    946407.07   -28852.603      4549.75   -33402.353    18594.441 
   32800    236.73786   -72.147838    953116.58   -28836.758    4566.3943   -33403.152    18875.663 
   32850    234.86896   -44.220085    959570.83   -28830.886    4530.3455   -33361.232    19148.946 
   32900    231.79583    18.800312    966177.45    -28818.43    4471.0684   -33289.498    19436.418 
   32950    238.96822   -81.751409    973033.07   -28812.992    4609.4154   -33422.408     19733.93 
   33000    238.46438   -40.023482    980017.07   -28819.592     4599.697   -33419.289    20040.138 
   33050    237.10983   -4.0689315    986909.52    -28832.37    4573.5693    -33405.94     20346.95 
   33100    239.47872 0.0003215307    994077.48   -28835.289    4619.2624   -33454.551    20661.075 
   33150    237.85393    3.1300102    1001373.5   -28807.961    4587.9221   -33395.883    20993.759 
   33200    235.88626   -7.6857156    1008604.4   -28839.526     4549.968   -33389.494    21323.436 
   33250    233.07268   -34.716686    1015959.8   -28792.171    4495.6975   -33287.868    21658.302 
   33300     232.6852   -10.488005    1023215.6   -28795.548    4488.2233   -33283.771    21989.059 
   33350    236.16258    -13.86215    1030750.6   -28790.489    4555.2979   -33345.787    22338.483 
   33400    242.99211   -1.5541342    1038315.8   -28776.066    4687.0316   -33463.098    22681.621 
   33450    236.70672   -89.774843    1045702.6   -28728.103    4565.7938   -33293.897    23018.693 
   33500    238.97365    35.536552    1052846.2   -28680.548    4609.5201   -33290.068    23361.675 
   33550    241.28018    25.931128    1060829.8   -28669.288    4654.0104   -33323.299    23748.514 
   33600    236.91343    57.591321    1069168.7   -28682.406    4569.7809   -33252.187    24149.163 
   33650    237.81456   -45.147534    1077459.4   -28701.394    4587.1627   -33288.556    24551.945 
   33700    235.22031     13.82846    1085516.8   -28710.135    4537.1227   -33247.258    24945.858 
   33750    232.91792   -62.920593    1093497.4   -28715.461    4492.7124   -33208.174    25337.294 
   33800    235.97597   -25.707235    1101395.9   -28739.683    4551.6984   -33291.381    25723.548 
   33850    236.18562   -87.416084    1109655.8   -28760.461    4555.7423   -33316.204    26133.577 
   33900     240.3927   -97.351468    1117852.8   -28761.174     4636.892   -33398.066    26543.417 
   33950    237.68138    33.134024    1126283.2    -28756.48    4584.5939   -33341.074    26968.942 
   34000    235.03697    13.988438    1135067.4   -28760.459    4533.5862   -33294.045    27409.809 
   34050    235.62532   -30.037253    1144090.2   -28798.647    4544.9349   -33343.582    27873.817 
   34100    235.79084    14.045172      1152827   -28779.088    4548.1274   -33327.215    28324.174 
   34150    234.27745    -3.053975    1161675.9   -28786.731     4518.936   -33305.667    28785.049 
   34200    234.98612   -24.670919    1170583.6   -28828.063    4532.6053   -33360.669    29254.141 
   34250    235.04876     -28.6668    1179709.5   -28864.612    4533.8137   -33398.425    29741.488 
   34300    235.88131   -28.895328    1188999.3   -28872.683    4549.8726   -33422.555    30245.838 
   34350    238.41159    -65.47154    1198358.1   -28871.077    4598.6786   -33469.756    30751.761 
   34400    232.73561   -74.519326    1207513.2   -28880.949    4489.1957   -33370.145    31249.434 
   34450    234.49054   -6.5985347    1216889.1   -28883.807    4523.0462   -33406.853    31763.752 
   34500    236.31205   -23.558966    1226734.6   -28878.282    4558.1811   -33436.463    32317.556 
   34550    238.95162   0.65923911    1236708.4   -28854.929    4609.0953   -33464.024    32876.325 
   34600    235.06006   -17.899704    1246605.6   -28855.171    4534.0316   -33389.203    33431.324 
   34650    233.25499   -23.464955    1256522.6   -28838.291     4499.214   -33337.505    33999.334 
   34700    235.63621    10.486041    1266571.8   -28876.911    4545.1449   -33422.056    34574.978 
   34750    233.55154   -33.894887    1277002.4   -28904.319     4504.934   -33409.253    35183.777 
   34800    230.54424   -38.689007    1287304.4   -28913.428    4446.9268   -33360.355      35789.5 
   34850     229.5009   -7.0057863    1297645.6   -28916.349    4426.8021   -33343.151    36399.587 
   34900    235.93238   -31.648936    1308172.9    -28895.05    4550.8576   -33445.908    37034.186 
   34950    233.66223   -32.759033    1318515.3    -28920.52    4507.0691   -33427.589    37652.108 
   35000    233.30831    20.472599    1329321.1   -28908.426    4500.2424   -33408.669    38305.817 
   35050     237.3871   -22.351319    1340635.2   -28923.902    4578.9174   -33502.819    38999.229 
   35100    232.66218    23.594224    1351924.8   -28927.181    4487.7793   -33414.961     39692.02 
   35150    234.31969    13.357202    1363418.8   -28929.245    4519.7507   -33448.996    40410.615 
   35200    233.93236   -8.0572311    1375083.3     -28940.6    4512.2795    -33452.88     41140.05 
   35250    231.41997   -24.444492    1386607.1   -28917.186    4463.8186   -33381.004    41871.809 
   35300    233.96747    16.653758    1397748.6   -28871.123    4512.9569    -33384.08    42587.477 
   35350    236.57824   -39.425365    1409442.3   -28866.004    4563.3156   -33429.319    43347.055 
   35400     231.4988   -13.624809    1421293.1   -28839.929    4465.3392   -33305.268    44125.021 
   35450    239.94937    19.786035    1433234.5   -28892.414    4628.3407   -33520.754    44919.661 
   35500    236.61626    4.6370704    1445744.5    -28888.59    4564.0489   -33452.639    45758.808 
   35550    237.60336    16.299653    1458580.3   -28888.253    4583.0889   -33471.342    46624.799 
   35600    239.52198   -31.146308    1471647.5   -28877.975    4620.0968   -33498.072    47522.141 
   35650    233.30186   -12.758372    1484292.7   -28884.939     4500.118   -33385.057    48390.635 
   35700     232.9324   -6.4701785    1497306.5   -28874.252    4492.9916   -33367.244    49285.432 
   35750    235.23336   -6.3176685    1510345.8   -28849.624    4537.3744   -33386.998    50194.178 
   35800    240.54289    18.804884      1523423   -28870.161    4639.7889    -33509.95    51108.543 
   35850    236.63982   -58.284496    1536707.5   -28856.986    4564.5034   -33421.489    52053.392 
   35900    236.17528   -2.4951661    1549815.7   -28844.617     4555.543    -33400.16    52986.313 
   35950    235.85962   -9.8614786      1563859   -28852.851    4549.4541   -33402.305    54006.158 
   36000    236.54313   -8.9334661    1578173.2   -28874.262    4562.6382     -33436.9    55050.223 
   36050    232.78403     5.825168    1592603.8   -28884.648    4490.1297   -33374.778    56123.127 
   36100    237.03468   -5.8082951    1607221.2   -28873.924    4572.1198   -33446.044    57200.492 
   36150    230.40617   -30.136543    1621772.6   -28896.368    4444.2636   -33340.632    58292.441 
   36200    232.25407   -13.421249    1636235.9    -28884.57    4479.9074   -33364.478    59383.408 
   36250    233.92435   -29.573592    1650730.3   -28878.501    4512.1251   -33390.626    60497.971 
   36300    234.25236   -28.779127      1665993   -28910.785    4518.4521   -33429.237    61677.191 
   36350    228.78751    11.828693    1681409.6   -28932.337    4413.0416   -33345.378    62880.085 
   36400    233.61082    5.0305961    1696970.8   -28913.652    4506.0774   -33419.729    64109.987 
   36450    234.42803    10.260003    1713025.5   -28853.723    4521.8406   -33375.564    65378.458 
   36500    238.29743   -21.037288    1729467.6   -28846.628    4596.4766   -33443.105    66701.084 
   36550    233.10213   -4.7855493    1745482.3   -28858.905    4496.2655   -33355.171    68000.469 
   36600    231.43656   -4.2367184    1761714.5   -28903.425    4464.1385   -33367.563    69333.812 
   36650    233.53167     -4.44022    1778647.3   -28909.701    4504.5508   -33414.252    70737.722 
   36700    230.53425   -3.5041526    1795808.4   -28939.214     4446.734   -33385.948    72182.251 
   36750    234.53903   -10.611751    1812492.6    -28917.26    4523.9816   -33441.242    73586.611 
   36800    232.38822   -51.839473    1829714.4   -28893.888    4482.4949   -33376.383     75066.31 
   36850    233.14494    -31.78596      1847197    -28884.95    4497.0912   -33382.042    76582.029 
   36900    236.37548   -27.303234    1865442.9   -28880.558    4559.4046   -33439.963    78169.526 
   36950    237.94669   -10.751093    1883956.8   -28900.128    4589.7112    -33489.84    79792.455 
   37000    235.88134   -2.8854185    1902380.6   -28909.313    4549.8731   -33459.186    81430.022 
   37050    238.67347   -28.747948    1920952.9   -28884.703    4603.7301   -33488.434    83112.001 
   37100    237.93259   -18.478178    1939846.7   -28857.469    4589.4394   -33446.908    84828.643 
   37150    239.24214    11.333103    1959468.5   -28854.966    4614.6989   -33469.665     86627.16 
   37200    237.07849   -19.811617    1979303.2   -28868.055    4572.9647    -33441.02    88455.084 
   37250    235.16608   -39.849188    1998907.2   -28888.497    4536.0766   -33424.574    90290.851 
   37300    233.96494   -6.3052497    2018851.3   -28892.031    4512.9081   -33404.939    92184.556 
   37350    237.26915   -36.144956      2039276   -28871.097    4576.6423   -33447.739    94142.849 
   37400    239.72093   -21.430091    2059538.7   -28833.958    4623.9344   -33457.893    96120.228 
   37450     237.7198    -14.48997    2080834.7    -28834.45    4585.3348   -33419.784    98217.424 
   37500     241.1161    8.4442016    2102621.2   -28846.483    4650.8454   -33497.329    100378.16 
   37550    234.76555    30.013631    2125118.6   -28895.526    4528.3508   -33423.876    102627.18 
   37600    234.77808   -24.452594    2147141.6   -28907.559    4528.5925   -33436.152    104855.56 
   37650    239.93856    7.6808071    2169423.5   -28896.265    4628.1322   -33524.397    107128.91 
   37700    229.55352   -34.851839    2192033.1   -28900.654     4427.817   -33328.471    109461.33 
   37750    235.16376     9.016269    2214624.4   -28878.119    4536.0319   -33414.151    111816.32 
   37800    234.53417    -4.279041      2238400   -28834.751    4523.8878   -33358.639    114334.77 
   37850     232.8924   -11.835253    2261947.9   -28842.834    4492.2201   -33335.054    116854.47 
   37900    232.38953   -19.911924    2285920.8   -28868.441    4482.5202   -33350.962    119436.54 
   37950    234.54456    14.493106    2311108.8   -28894.016    4524.0882   -33418.105    122164.27 
   38000    234.79556  -0.88784037    2336448.3   -28905.901    4528.9298   -33434.831    124953.35 
   38050    229.06869   -8.8715633    2361480.7    -28895.16    4418.4652   -33313.625    127752.08 
   38100    235.26152   -21.779388    2387180.1   -28911.669    4537.9175   -33449.586    130651.73 
   38150    235.86916   -26.191947    2413524.7   -28890.298    4549.6381   -33439.936    133645.64 
   38200    236.66711     5.547066    2439999.8   -28891.715    4565.0297   -33456.744    136702.58 
   38250    236.02961   -4.9352796    2467496.7   -28898.055    4552.7331   -33450.788    139913.79 
   38300     240.8142    23.581715    2495244.5   -28893.568    4645.0223    -33538.59    143183.58 
   38350    234.31083   -16.650132    2524170.2   -28865.603    4519.5799   -33385.182    146637.67 
   38400       235.89   -18.544773    2552615.6   -28851.088    4550.0402   -33401.128    150077.27 
   38450    230.75932    -9.746947    2581425.5   -28838.674    4451.0755   -33289.749    153612.34 
   38500    232.72151   -8.6236638    2610515.1    -28836.67    4488.9238   -33325.594    157220.07 
   38550    237.25907    -9.344782    2640264.4   -28857.415     4576.448   -33433.863    160935.14 
   38600    238.09375   -27.153019    2670385.2   -28838.683    4592.5478   -33431.231    164759.15 
   38650    235.43485   -3.0061079    2701553.6   -28863.172    4541.2608   -33404.433    168772.62 
   38700    234.84071    5.2951046    2733468.1    -28849.97    4529.8006    -33379.77    172925.95 
   38750    237.89164    2.1532262    2766193.7    -28875.66    4588.6494   -33464.309    177226.22 
   38800    231.13037   -12.789296    2799026.8   -28882.169    4458.2326   -33340.402    181601.67 
   38850    231.42087     18.45445      2832170   -28887.329    4463.8359   -33351.165    186072.96 
   38900    231.71332 -0.032594288    2865686.8   -28920.249    4469.4769   -33389.725    190633.63 
   38950    236.77934   -9.4378199    2900114.5   -28924.072    4567.1946   -33491.267    195382.55 
   39000    231.43525    17.059823    2935596.7   -28934.268    4464.1133   -33398.381    200359.13 
   39050     234.9623   -6.2309725      2971810   -28931.705     4532.146   -33463.851    205475.33 
   39100    236.72692   -9.4853654    3007928.6   -28933.399    4566.1834   -33499.583    210649.63 
   39150    231.90261     7.245563    3045105.1   -28970.693    4473.1282   -33443.821    216036.01 
   39200    232.55935   -4.8869064    3083204.6   -28946.989    4485.7958   -33432.785     221644.7 
   39250     229.5408   -28.607189    3121663.3   -28951.298    4427.5717    -33378.87    227354.43 
   39300    235.49658   -9.6095334    3160332.4   -28898.394    4542.4515   -33440.846    233176.41 
   39350    231.07077   -9.6184686    3200060.3   -28900.558    4457.0829   -33357.641    239225.86 
   39400    235.43112   -7.0206221    3240637.6   -28926.041     4541.189    -33467.23     245514.7 
   39450    235.82673    17.084239    3282358.7    -28959.96    4548.8199   -33508.779    252063.14 
   39500     234.2295    4.1316758    3325006.3   -28991.255    4518.0111   -33509.267    258838.65 
   39550    227.71822    2.5689596    3368605.6   -29002.436    4392.4163   -33394.852    265852.83 
   39600    231.76921    1.4698901    3412805.8   -29042.075    4470.5549    -33512.63     273069.9 
   39650    231.87778   -14.074589    3457756.9   -29019.541    4472.6492    -33492.19    280482.69 
   39700    233.05397    6.5093178    3502625.4   -29029.802    4495.3365   -33525.139    288006.47 
   39750     229.0585   -8.8851782    3549146.2   -29000.288    4418.2686   -33418.556     295919.1 
   39800    232.57142    9.2751144    3596528.6   -28988.909    4486.0287   -33474.937    304090.34 
   39850    236.59704    5.6375039    3645665.6   -29026.194    4563.6782   -33589.872    312661.42 
   39900    231.22598   -13.755946      3695213   -29021.585    4460.0768   -33481.662    321423.22 
   39950    228.48821   -14.831893    3745493.8   -29018.112    4407.2684   -33425.381    330461.56 
   40000    230.45764    1.2661929    3797156.8   -29030.655    4445.2564   -33475.911    339864.78 
   40050    233.46487   -7.4729257    3849682.6   -29008.811    4503.2624   -33512.074    349558.15 
   40100     229.8099   -4.7127924    3903422.4   -28987.167    4432.7622   -33419.929    359594.49 
   40150    232.90335   -9.9416942    3957894.2   -28987.192    4492.4312   -33479.623    369953.55 
   40200    230.85639  -0.93868631    4013630.6    -28984.12    4452.9478   -33437.067    380694.24 
   40250    232.72766 -0.066357241    4071619.8   -28970.586    4489.0425   -33459.629    391974.83 
   40300    231.25251    4.4667739    4130325.1    -28993.59    4460.5885   -33454.179    403579.89 
   40350    231.69019   -4.3423281    4190314.3   -28951.059    4469.0308    -33420.09    415671.07 
   40400    231.31165   -12.397565    4251005.9   -28996.154    4461.7291   -33457.884    428077.03 
   40450    232.67762   -17.579746    4312897.7   -28979.041    4488.0771   -33467.119    440869.96 
   40500    231.23506    -8.227985    4375796.1   -28942.675    4460.2518   -33402.927    454121.68 
   40550    231.62366    1.9255718    4440832.9   -28992.925    4467.7475   -33460.673     468023.9 
   40600      231.598   -8.6848859      4508228   -29011.939    4467.2526   -33479.191    482667.45 
   40650    234.29366    4.9841584    4576129.5   -28961.675    4519.2486   -33480.924    497620.89 
   40700    234.92763    5.3499615    4645948.2   -28996.401    4531.4772   -33527.878    513214.78 
   40750    233.28313    2.1044711      4717091   -28994.027    4499.7568   -33493.784    529369.26 
   40800    230.03238   -9.5135551    4789948.9   -29030.695    4437.0536   -33467.749    546202.28 
   40850    230.17183   -3.8115933    4864654.7   -29022.003    4439.7434   -33461.746    563725.75 
   40900    230.46817    6.8805949      4940459   -29000.966    4445.4595   -33446.425    581799.37 
   40950    233.78512   -17.628604    5018658.6   -28977.419    4509.4395   -33486.858    600721.24 
   41000    229.08188   -4.1834626    5098361.5   -28967.662    4418.7195   -33386.381    620312.88 
   41050    232.93071   -12.890129    5180572.3   -28978.997     4492.959   -33471.956     640861.4 
   41100    232.44096   -1.9827826    5264388.1   -29000.706    4483.5123   -33484.219    662127.78 
   41150    234.58693    3.8706248    5350459.9   -29010.699    4524.9054   -33535.604     684329.3 
   41200    233.50558   -19.313466    5438896.8   -28978.339    4504.0476   -33482.387    707576.85 
   41250    230.48624   -3.8679146    5528746.3   -28975.146    4445.8079   -33420.954    731564.06 
   41300    232.10832   -1.9747537    5620452.8   -28937.405    4477.0961   -33414.501    756460.33 
   41350    231.59758  -0.10818338    5714943.2   -28979.655    4467.2444   -33446.899     782570.9 
   41400    233.98207   -8.2013994    5812510.8   -28944.792    4513.2385   -33458.031    809958.74 
   41450    233.03662   -5.3449368    5912243.5   -28945.241    4495.0019   -33440.243    838450.28 
   41500    230.34732   -11.931947    6014550.9    -28933.56    4443.1284   -33376.689    868161.63 
   41550    237.88777  -0.71109622    6119555.4   -28929.629    4588.5748   -33518.203    899237.23 
   41600     232.0083   -2.5015077      6227477   -28932.908    4475.1668   -33408.075    931697.71 
   41650    231.07431   -10.489672    6338191.1     -28939.2    4457.1512   -33396.351    965635.82 
   41700     233.2044   -2.7272208    6450883.4   -28925.874    4498.2381   -33424.112    1000758.6 
   41750     229.4282   -6.3418524    6567873.8   -28924.183    4425.3997   -33349.582    1037937.4 
   41800    232.99487   -5.0180696    6687595.5   -28955.353    4494.1965   -33449.549    1076673.6 
   41850    231.47566   -6.4246169    6810092.9   -28911.111    4464.8928   -33376.004    1117046.9 
   41900    232.88559   -1.6479197    6935967.9   -28877.144    4492.0886   -33369.233    1159274.1 
   41950    236.40433   -6.7117581    7066186.8   -28873.134     4559.961   -33433.095      1203821 
   42000    233.60062   -5.0427892    7200189.1    -28907.14    4505.8808   -33413.021    1250603.1 
   42050    234.92285    4.9099131    7337601.2   -28882.661    4531.3851   -33414.046    1299460.8 
   42100    232.29371   -1.3469174    7478922.4    -28911.69    4480.6721   -33392.362    1350680.7 
   42150    232.53433   -4.2272658    7624356.7   -28931.307    4485.3133    -33416.62      1404459 
   42200    235.10336   -10.743633      7774119   -28909.884    4534.8668   -33444.751    1460891.2 
   42250    234.69532    3.2544306      7928146   -28941.115    4526.9962   -33468.111    1520048.1 
   42300    232.22777   -2.4348375    8087256.5   -28987.505       4479.4   -33466.905    1582431.6 
   42350    232.80848   -1.0141107    8249941.1   -28977.556    4490.6013   -33468.157    1647508.9 
   42400    232.81483   -3.6631925      8419558   -29027.138    4490.7238   -33517.862    1716742.2 
   42450    234.30467   -12.511223    8593416.9    -29019.71    4519.4611   -33539.171    1789111.9 
   42500    236.26932   -3.7100033    8772030.4   -29007.008    4557.3568   -33564.365    1865121.5 
   42550    235.30893    5.0573299      8957130   -29026.806    4538.8321   -33565.638      1945550 
   42600    234.80902   -4.4470308    9148163.1   -29053.241    4529.1894   -33582.431    2030402.5 
   42650    229.73464    2.7882672    9345957.7   -29054.229    4431.3106    -33485.54    2120126.3 
   42700    232.10689  -0.37498309    9549550.6   -29078.167    4477.0685   -33555.236      2214525 
   42750    230.46068   -9.8625745    9759951.6    -29059.81     4445.315   -33505.125    2314146.7 
   42800    233.52749   0.39180173    9975873.9   -29031.977    4504.4701   -33536.447    2418664.2 
   42850    232.20272   -6.0717616     10200795   -29021.534    4478.9169   -33500.451    2530073.1 
   42900     231.9588   -2.3988844     10432002   -29003.475     4474.212   -33477.686    2647091.1 
   42950    233.64899   -3.4751149     10672613   -28971.881    4506.8138   -33478.695    2771748.9 
   43000    235.95665    1.5087335     10921863   -28993.745    4551.3258   -33545.071      2903900 
   43050    231.68252   -5.9648366     11178337   -28983.972    4468.8828   -33452.854      3043104 
   43100    233.13653   -4.2321314     11443875   -28998.058     4496.929   -33494.987    3190669.8 
   43150    230.59623     -6.12122     11719979   -28975.093    4447.9296   -33423.022    3347763.2 
   43200    230.13043   -3.1678611     12007582   -29003.726    4438.9448    -33442.67    3515452.6 
   43250    234.91762    -4.348776     12304502   -29012.008    4531.2841   -33543.292    3692881.7 
   43300    233.77814   -4.4336088     12611559   -28987.784    4509.3049   -33497.089    3881114.6 
   43350    232.98272   -2.5425138     12930006   -28999.874    4493.9621   -33493.836    4081115.2 
   43400    232.35872   -8.6748067     13261721   -28984.202    4481.9259   -33466.128    4294774.2 
   43450    230.73027    -1.770928     13605261   -28974.996     4450.515   -33425.511    4521788.6 
   43500    234.43069   0.66594298     13964069   -28955.815    4521.8918   -33477.706    4765173.4 
   43550     233.7369  -0.19627805     14337315   -28948.768    4508.5093   -33457.277    5025036.8 
   43600    232.05787    -4.957867     14724009   -28954.407    4476.1229    -33430.53    5301619.3 
   43650    232.32024   0.34775922     15128702   -28933.324    4481.1837   -33414.507    5598999.8 
   43700    233.87188   -5.2175917     15549434   -28893.302    4511.1131   -33404.415    5916810.5 
   43750    233.81145   -3.0499407     15986299   -28879.194    4509.9475   -33389.141    6255985.2 
   43800    238.43256   -1.3748536     16443395   -28921.601    4599.0832   -33520.684    6621046.8 
   43850    236.70314   -1.2432046     16919855   -28900.477    4565.7247   -33466.201    7012522.3 
   43900    232.30981   -2.3307245     17416688   -28906.026    4480.9826   -33387.009    7432807.5 
   43950     236.0648   -2.3472583     17937174   -28955.145    4553.4119   -33508.557    7886369.3 
   44000    230.90959   -3.4673272     18480032   -28965.039    4453.9739   -33419.012    8373636.4 
   44050    234.56532   -1.0077228     19048014   -28957.766    4524.4886   -33482.254      8899111 
   44100    237.26965   -2.4246042     19643443   -28961.456     4576.652   -33538.108    9467367.8 
   44150    238.73809 -0.084597879     20267280   -28974.206    4604.9766   -33579.183     10081345 
   44200    232.21732  0.004977505     20921432   -29025.732    4479.1985    -33504.93     10745896 
   44250    233.66325   -3.0258053     21607055   -29013.011    4507.0889     -33520.1     11465293 
   44300    232.53475   -2.1529458     22325542   -28972.816    4485.3214   -33458.137     12244057 
   44350    238.12981   -1.1361329     23080893    -28946.29    4593.2434   -33539.534     13090375 
   44400    236.97207    0.5000018     23875321   -28956.614     4570.912   -33527.526     14010859 
   44450    235.95581   -1.4679542     24712646   -28933.121    4551.3096   -33484.431     15015164 
   44500    229.34474    4.6944671     25595213   -28937.447    4423.7899   -33361.237     16111317 
   44550    234.09816 -0.068736599     26526507   -28915.233    4515.4778    -33430.71     17309816 
   44600    234.96829   -2.7622496     27507289   -28915.283    4532.2615   -33447.545     18618443 
   44650    236.81176  -0.15077306     28543645   -28892.042    4567.8198   -33459.862     20053131 
   44700    236.35149  -0.50608221     29640119    -28915.17    4558.9418   -33474.112     21628933 
   44750    236.16391   -3.9291961     30800881   -28870.027    4555.3235    -33425.35     23362044 
   44800    237.69322   -2.6819707     32030719    -28850.78    4584.8222   -33435.602     25270961 
   44850    240.36889   -1.2928782     33335416   -28826.516    4636.4328   -33462.949     27378060 
   44900    241.47366   -1.2289129     34723658   -28835.557    4657.7424     -33493.3     29712951 
   44950    234.05893  -0.87047933     36199315   -28846.821     4514.721   -33361.542     32299598 
   45000    238.82853   -1.6034296     37769838   -28907.577     4606.721   -33514.298     35171206 
   45050    235.65849  -0.56784313     39445979   -28912.324    4545.5747   -33457.899     38370770 
   45100    235.86154   -1.2755693     41236553   -28934.821    4549.4912   -33484.312     41942519 
   45150    235.92023  -0.59514471     43150027   -28927.249    4550.6233   -33477.873     45934995 
   45200    234.86828  -0.68043108     45201147   -28912.675    4530.3324   -33443.007     50416303 
   45250    237.95031   -1.9994972     47399857   -28900.663    4589.7812   -33490.444     55451654 
   45300    238.91084  -0.76933688     49764103    -28915.86    4608.3085   -33524.169     61133205 
   45350    236.68928   0.43781582     52311602   -28961.372    4565.4573   -33526.829     67565466 
   45400    236.91488   0.26161003     55059658   -28960.878    4569.8089   -33530.687     74864752 
   45450     238.1996   0.62150968     58031605   -28964.489    4594.5897   -33559.079     83180348 
   45500    230.51687   -0.1730253     61251652   -28973.582    4446.3988   -33419.981     92684400 
   45550      234.645  -0.31301321     64742757   -28967.944    4526.0255   -33493.969 1.0356835e+08 
   45600    237.73198   -1.2172294     68537786   -28940.185    4585.5699   -33525.755 1.1608535e+08 
   45650     238.6589  -0.94576865     72680594   -28932.351    4603.4491     -33535.8 1.305651e+08 
   45700    239.44967  -0.74054618     77212853   -28942.331     4618.702   -33561.033 1.4738047e+08 
   45750    240.88861 -0.082676326     82183088   -28917.216    4646.4574   -33563.673 1.6699101e+08 
   45800    238.44766  -0.18253223     87651356   -28938.967    4599.3744   -33538.342 1.8998185e+08 
   45850    239.80177  -0.27086166     93682191    -28965.64    4625.4936   -33591.134 2.1705572e+08 
   45900    238.47608  -0.87085178 1.0035584e+08   -28953.175    4599.9226   -33553.097 2.4911684e+08 
   45950    237.13544   -1.0074308 1.0776766e+08   -28893.438    4574.0633   -33467.502 2.8731196e+08 
   46000    242.72673   -1.3457169 1.1603136e+08   -28829.681    4681.9127   -33511.593 3.331071e+08 
   46050    244.69725  -0.52774033 1.2528844e+08   -28820.161    4719.9217   -33540.082 3.8842775e+08 
   46100    242.92707   -1.3604624 1.3570047e+08   -28803.511    4685.7769   -33489.288 4.5572593e+08 
   46150    245.16964  -0.58604714 1.4746702e+08   -28763.089    4729.0335   -33492.123 5.382469e+08 
   46200    246.33049  -0.29193042 1.6084074e+08   -28818.804     4751.425   -33570.229 6.4037303e+08 
   46250    246.18868  -0.43464314 1.7612627e+08   -28840.887    4748.6895   -33589.576 7.6795562e+08 
   46300    253.26358  -0.77256307 1.9369477e+08   -28780.695     4885.156   -33665.851 9.2889878e+08 
   46350    249.01575  -0.60838825 2.1403894e+08   -28731.359    4803.2205    -33534.58 1.1343866e+09 
   46400    256.13427  -0.64494888 2.3777356e+08   -28682.397    4940.5284   -33622.926 1.400049e+09 
   46450    254.27818  -0.49784669 2.6570034e+08   -28630.126    4904.7266   -33534.853 1.7483905e+09 
   46500    252.29658  -0.41535741 2.988725e+08   -28595.358    4866.5038   -33461.862 2.2123925e+09 
   46550    255.84558  -0.45805038 3.3869299e+08   -28451.099    4934.9597   -33386.058 2.8414289e+09 
   46600    263.03559  -0.53811522 3.8707844e+08   -28281.929    5073.6466   -33355.576 3.7115378e+09 
   46650    271.53623  -0.47644838 4.4669375e+08   -28090.503    5237.6139   -33328.117 4.9431687e+09 
   46700    279.74422  -0.49615675 5.2133777e+08   -27879.507    5395.9363   -33275.444 6.7336679e+09 
   46750    283.46813  -0.40526564 6.1656757e+08     -27584.9    5467.7662   -33052.666 9.418901e+09 
   46800    286.51602  -0.38966484 7.4082864e+08   -27199.262    5526.5565   -32725.819 1.3598708e+10 
   46850    293.22254  -0.35472954 9.074637e+08   -26667.234    5655.9174   -32323.152 2.0405256e+10 
   46900    304.45615  -0.29259288 1.1386869e+09   -25853.465    5872.6005   -31726.066 3.2130038e+10 
