LAMMPS data file via write_data, version 16 Mar 2018, timestep = 100000

6750 atoms
2 atom types

0.0000000000000000e+00 4.9219999999999999e+01 xlo xhi
0.0000000000000000e+00 4.9019635930410494e+01 ylo yhi
3.5698399987535723e-01 5.9705016000124530e+01 zlo zhi

Masses

1 18.015
2 12.01

Atoms # atomic

3094 1 6.1832464550287609e+00 3.6345719255530660e+00 1.2172263286082433e+01 1 1 1
89 1 5.2604134146223531e+00 3.6020520093672976e+00 2.4811543465523109e+00 0 -1 0
1702 1 1.3004128649655108e-01 2.0222394589832625e+01 7.4126057481237710e+00 0 0 1
1927 1 4.9770680662266624e+00 1.5632540698778112e+00 4.2612581150168456e+00 1 1 0
2136 1 7.3915305345085720e+00 3.1177467999013784e+00 1.0833199640956894e+00 -1 1 0
476 1 4.6493442831012144e-01 2.1564261030236505e+01 9.7072109695137652e+00 0 1 1
3437 1 1.1593827185909374e+01 1.0118809925995086e+01 1.1373230874585891e+01 0 0 1
2316 1 9.7206915527619753e+00 3.3843375161663767e+00 2.5518889099473352e+00 0 0 0
1389 1 1.0721669541418487e+01 1.9478290593673744e+00 4.9409810684520421e+00 1 0 1
5225 1 2.8335422311730574e-01 7.6133951096396437e+00 1.9897023880093614e+00 -1 1 0
4805 1 5.7830196616797380e+00 9.0432642020971032e-01 8.7685731505313882e+00 0 0 1
1614 1 2.1843957199121364e+00 8.3057403058533499e+00 3.5444695774248509e+00 -1 1 1
72 1 6.7575458610438766e+00 7.4261809532706131e+00 3.7497691561975297e+00 0 0 0
3155 1 1.0730189934601041e+01 6.3009110797970544e+00 2.1754324552419986e+00 1 -1 1
5506 1 1.1155685384592966e+01 2.1865503508652406e+01 1.1209984660582608e+01 0 0 0
2254 1 5.0616766801954283e+00 1.1500343003671452e+01 2.7373201353669558e+00 1 0 1
5236 1 4.6639359914516607e+00 8.8160380444981392e+00 2.5785652200478579e+00 2 -1 1
3603 1 8.9429731457650341e+00 8.1189277834708911e+00 2.1343792079632080e+00 0 0 1
5020 1 9.6480534664715645e+00 1.0158189915691931e+01 3.4926517120803475e+00 1 1 1
5586 1 6.6926976060710042e-01 4.8913431502980904e+00 1.8943814343633429e+00 1 1 1
1735 1 2.4775967408630275e+00 8.7640042171340982e-01 2.6958901132182853e+00 1 1 1
3366 1 2.0435242296999654e+00 1.4959998796365868e+01 1.3403530913951438e+00 1 -1 1
1928 1 3.1534457582865625e+00 2.2251426404568409e+01 9.6027589566441662e+00 0 0 1
5425 1 6.8264748279226062e+00 1.4674667830714430e+01 1.3862287509691318e+00 1 2 0
340 1 4.9666248878129551e+00 1.5411004684240481e+01 3.1293762958629241e+00 1 -1 0
1668 1 2.6897143254130955e+00 1.3340317487795668e+01 3.8850463452161965e+00 1 0 1
5091 1 9.7219578429367370e+00 1.5179916687080581e+01 1.7969048106362684e+00 -1 1 0
1689 1 1.0052321939111868e+01 1.5091951979251709e+01 4.4054657658779774e+00 1 0 0
3229 1 9.0690693194617700e-01 2.0276389534540357e+01 1.4167237883990023e+00 0 0 1
1463 1 4.1722528259358527e-01 1.1661179065010431e+01 2.7723262250229515e+00 0 0 1
21 1 1.1883387252025182e+01 1.2921277956157780e+01 1.1029898680388271e+01 1 0 0
463 1 4.2673271590969746e+00 1.8021071006684480e+01 2.2718502610161937e+00 0 -1 0
3586 1 1.0763438891569390e+01 1.7795863140869614e+01 2.0257230594216553e+00 1 -1 0
1647 1 2.0340864042849716e-01 1.8371923217045705e+01 1.1027758712204379e+01 0 1 1
4756 1 2.1473092426219136e+00 2.2467734920607956e+01 2.9716197376912259e+00 1 -1 1
597 1 6.0495903589317850e+00 1.9931630995671835e+01 3.0651892638816025e+00 1 -1 1
1902 1 6.2950271135873548e+00 2.4102801326340554e+01 2.9017074944825589e+00 0 -1 1
1641 1 4.5564497149848702e+00 2.1895870134156755e+01 3.9363019261509384e+00 2 1 0
3619 1 8.3486257532036667e+00 1.9100148459930722e+01 1.3575416427967668e+00 -1 0 0
3212 1 8.2421991216231549e-01 1.0230401593362872e+01 4.9380599483640362e+00 0 0 0
2079 1 2.3613831841057373e+00 2.0741977572888683e+00 5.7851756511188741e+00 -1 1 0
1354 1 6.5726028295461871e+00 2.0754866651669031e+00 6.5707335569747913e+00 0 -2 0
3637 1 1.1591512078812599e+01 2.3328869920246593e+01 7.8121866158331432e+00 2 1 1
4881 1 8.0459593612567613e+00 1.9397909144352013e+01 9.0590087485992310e+00 0 0 1
6463 1 9.1520883345501236e+00 2.7756268446097776e+00 6.8481235149644206e+00 1 1 0
2222 1 4.6435679966296179e+00 4.2423557147259521e+00 7.1086407164845866e+00 0 1 1
5323 1 2.5523856440973769e+00 6.2113040062658857e+00 5.0565648121741198e+00 0 1 0
1738 1 5.4447202423017851e+00 5.1186371634512202e+00 4.5235182219803844e+00 -1 0 1
3109 1 7.0374401463599554e+00 6.5420074158248438e+00 7.0096579294353250e+00 0 -1 1
6509 1 3.4056451247867607e+00 1.8037495363162699e+00 8.6990794716796387e+00 0 2 1
5618 1 9.4269794226688237e+00 5.4357408734879273e+00 7.4120482074973841e+00 1 2 0
5621 1 1.1517880871453913e+01 1.8394659584320227e+01 7.0796943722383192e+00 2 1 0
5004 1 2.0964286287653571e+00 9.1045051206693124e+00 7.2131533174597511e+00 1 0 1
6522 1 6.9110134104909005e+00 9.3911943870290191e+00 6.7104465298668012e+00 -1 1 1
4701 1 4.6060605557765610e+00 9.8201912594459557e+00 8.1489607317607451e+00 1 -1 1
6737 1 7.5380656580161647e+00 1.1180556218425478e+01 4.4973743922559457e+00 1 0 0
4731 1 1.0854173607610255e+01 9.3211728899722974e+00 5.8437480489213689e+00 1 0 1
4730 1 9.1289961695743287e+00 1.0383071650651267e+01 7.8636272718110076e+00 1 1 0
1381 1 8.2372022191409382e+00 1.2361314858309155e+01 1.1129035430223121e+01 1 1 0
2201 1 2.7735685560946353e+00 1.3943435270267969e+01 6.6610276019700958e+00 -1 0 1
3455 1 5.4913132856161733e+00 1.4888055094616215e+01 5.6584861150550880e+00 1 -1 1
1699 1 7.9139753629461262e+00 1.3696037297911188e+01 5.6323184911784958e+00 1 1 1
1593 1 1.1029924617235729e+00 1.5973934753276652e+01 6.6279052511378920e+00 0 0 1
6611 1 5.8924348267033908e+00 1.2500688947453236e+01 4.3642818315456799e-01 2 0 1
5475 1 7.1838229287423365e+00 1.8860555896045941e+01 5.4570012592301698e+00 1 2 0
6575 1 4.9012630171534610e+00 1.7432137006399916e+01 6.7630255928221725e+00 0 0 1
5030 1 7.8422656814336609e+00 3.4592469606500148e-01 2.3819288696375023e+00 0 1 0
5326 1 9.7609220031635111e+00 1.7723439156510825e+01 4.8434434301239300e+00 -1 0 1
5068 1 1.1410653018830244e+01 1.3418391761274725e+01 6.9066183041631346e-01 1 2 1
2093 1 1.8855041822411498e+00 1.8568269559267240e+01 3.7975266451509868e+00 1 -1 0
3713 1 3.1641302733048047e+00 1.9516555704470790e+01 6.3109354079843785e+00 1 0 0
1686 1 4.8486729319033124e+00 2.2154681846399455e+01 6.7065695586144685e+00 0 -1 1
1608 1 1.1787118162627666e+01 2.1131384659546807e+01 6.0853481011240618e+00 0 -1 0
5122 1 7.5051504473780781e+00 2.1052662435505482e+01 7.0836815056261688e+00 1 0 0
3686 1 8.9444448447098388e+00 2.2889480797466284e+01 6.1647563268545964e+00 2 0 0
6615 1 1.1500186026220973e+01 6.6115835230171802e+00 6.6158563327107753e+00 0 0 1
3507 1 1.2581764015671486e+00 2.7148153601343977e-01 1.0358566013392762e+01 0 0 0
3442 1 6.8589100523970927e+00 2.0495954255419250e+01 1.1208567881356164e+01 1 1 0
5226 1 1.1697208084558001e+01 1.1714265804210944e+01 2.8983264467069945e+00 0 0 0
3349 1 7.5223349520622254e+00 1.6412221867303181e+01 1.1894983140842744e+01 0 1 1
5528 1 9.7325340544888554e+00 1.8001991125082311e+00 9.6413733427791115e+00 1 1 0
3580 1 9.1961404089344079e+00 2.1391060178440021e+01 3.9814285292417695e-01 0 1 0
3926 1 7.5755638874189541e+00 1.3595928441826215e+00 1.1260548061326348e+01 0 0 1
2040 1 1.1236388963743602e+01 2.0454404754358350e+01 3.4768811957157038e+00 -1 -1 0
1703 1 3.0016005610759815e+00 4.2287131845576953e+00 1.0519563238834259e+01 1 2 0
6360 1 2.0789881689914158e+00 6.3585424346190953e+00 8.3088192883492162e+00 1 2 1
3314 1 6.0564115824563931e+00 5.3634131557107869e+00 9.8735774245149290e+00 -1 2 1
1475 1 8.7767138433451937e+00 4.8791973814067067e+00 1.0008301460313396e+01 -1 0 1
348 1 1.0748201121984238e+01 2.3148864888875405e+01 2.0341050587850962e+00 1 0 0
5293 1 9.8849509486632066e+00 6.9022374143324416e+00 1.1210959282388020e+01 -1 0 0
3052 1 5.6671166207277213e-01 8.0823505422733088e+00 1.0865150676968563e+01 -1 1 1
1317 1 2.9387255271689212e+00 1.3313216355909894e+01 1.1250365635510256e+01 -1 -1 1
3927 1 2.6077820215466552e-01 1.0092447483968265e+01 8.6676092283380832e+00 1 0 0
2178 1 4.5715204905747875e+00 7.4424507411328626e+00 9.6142892166117306e+00 1 1 0
1706 1 8.8755578476514145e+00 9.6784729720907290e+00 1.0364921933329693e+01 -1 0 1
540 1 8.6928205025569127e+00 2.4320287735497431e+01 3.6583033055091745e+00 1 1 1
3770 1 1.0877866752939203e+01 1.7422430763893381e+01 1.1744914795756342e+01 0 1 0
3073 1 4.2798065703587378e+00 1.2618247054421159e+01 8.9148255181059461e+00 0 -1 1
2087 1 6.7056482592357476e+00 1.4135510982092299e+01 9.4106054630064246e+00 0 0 0
6732 1 8.8206660373882961e+00 2.3605094029194586e+01 1.0787276752399880e+01 0 -1 1
1423 1 8.9960948636291764e+00 1.3084838208163351e+01 8.0181755863161559e+00 1 1 1
3280 1 1.1580069749535946e+01 1.3276581650140114e+01 8.1971493952728345e+00 0 0 1
5671 1 1.4892695508097316e+00 1.7882356316735034e+01 8.1994381517707229e+00 1 0 1
6647 1 4.2958466126362786e+00 1.9943600728119588e+01 1.0987536870256479e+01 0 1 0
19 1 6.5209359106280020e+00 1.7027009147130233e+01 9.2914267510365214e+00 1 1 1
3456 1 3.7454900331292138e+00 1.7463855466918840e+01 1.0009137571219457e+01 0 0 0
5537 1 1.1054671365353272e+00 4.2476142410444053e+00 4.7022094505360847e+00 2 1 0
3590 1 2.6638011746661017e-01 1.5828674041636550e+01 1.1466386777794066e+01 1 -1 1
6731 1 1.0442620499039677e+01 1.9280673020698142e+01 9.6255715194591378e+00 1 0 1
1414 1 3.2443279099487778e+00 4.5508547133270625e+00 1.0373575736529939e+00 1 1 1
3154 1 2.7668910233855054e-01 2.1940005886059222e+01 4.9785981003186466e+00 0 -2 1
4713 1 6.4440172686007546e-01 1.2650423716185765e+01 1.0548428293515796e+01 0 -1 1
3675 1 1.2037867039911355e+01 1.3324698065531962e+01 5.0622885045212280e+00 1 1 0
3441 1 1.2286441480890051e+01 3.0095798584214144e+00 9.8595392837961047e+00 1 -1 1
1924 1 4.0635546750879268e+00 7.2036353736337757e+00 4.6693411349815189e-01 1 0 0
3973 1 8.0516539396742797e+00 2.4361620783813400e+01 8.4081173014507868e+00 0 -1 1
2322 1 1.1544095713656150e+01 2.7903410957139645e+00 4.2711480309856470e-01 -1 0 1
6714 1 1.2266280733516581e+01 5.5962512495021812e+00 1.0573573692757348e+01 2 1 0
1720 1 2.1754020256118167e-02 2.7605856672353707e-01 5.6215611296175210e+00 2 1 0
1580 1 3.1923485294428815e+00 1.5728886572480393e+01 1.2145556475110329e+01 1 0 0
3352 1 1.9016776658716761e+00 1.2898713677216318e+00 1.2889831944698807e+01 1 1 0
6356 1 6.7864291374178798e+00 2.2663369480831392e+01 2.3522039539476104e+01 1 0 1
424 1 7.4513317425077830e-01 5.8984912267029754e-01 1.7103122935476929e+01 1 1 0
6456 1 5.7744243156779556e+00 8.5326396851631592e-01 1.5707630745071842e+01 1 0 1
2190 1 9.0014779645409906e+00 1.1910908957769393e+00 1.3513554681937284e+01 -1 1 0
1316 1 9.6374282358025170e+00 2.7980411483191472e+00 1.5371594374007964e+01 -1 1 1
3406 1 2.0377655496134417e+00 5.0204678941990091e+00 1.6340993550498393e+01 1 0 0
2052 1 9.5613011427333223e+00 1.4675464289526541e+01 1.2294364252700680e+01 0 0 0
2137 1 8.3302874384975407e+00 7.3885509267477500e+00 1.6609735231443171e+01 1 0 0
108 1 7.8436099440608853e+00 9.9693377974941804e+00 1.4718082599108737e+01 0 0 1
333 1 4.7204715082837652e+00 5.7340902407282499e+00 1.3750448182472324e+01 1 -1 0
1753 1 9.9691223699924318e+00 6.8629938033995259e+00 1.4150653057936569e+01 1 1 0
451 1 1.1413367306070322e+01 5.0358404206897127e+00 1.5508310670009100e+01 1 0 0
6697 1 2.1933687400858344e+00 4.3979949420842184e+00 1.3302090283758156e+01 0 2 0
3084 1 8.5942668402965938e-01 1.2796350516466106e+01 1.4443790736794559e+01 0 0 1
356 1 1.5273837681614975e+00 7.4865023930357664e+00 1.4945312512996276e+01 1 1 0
1875 1 3.5762021109388988e+00 1.1728611637558380e+01 1.3772391314744466e+01 1 1 0
3361 1 6.3844909139024981e+00 1.2898937863060647e+01 1.3843271432382313e+01 1 0 0
3178 1 6.7657400641457874e+00 1.0109656409879788e+01 1.2240739101939388e+01 0 -1 0
5334 1 9.8921327345898569e-01 1.1510759240647229e+01 1.7405420050486082e+01 1 0 0
1394 1 1.1897795059543350e+01 7.4653880961601367e+00 2.0815453244583349e+01 1 2 1
4767 1 1.2038217380300063e+01 2.0860305701123441e+01 1.6549397503828732e+01 1 0 1
3240 1 7.6385068199730384e+00 9.4651723505694676e+00 2.3953076116876847e+01 1 0 1
3187 1 5.3563474168742609e+00 1.6215244468741538e+01 1.6427799908056588e+01 1 0 1
5342 1 1.1598709109591407e+01 2.1182917451992243e+01 2.3259988607190763e+01 1 0 0
4857 1 1.0409027976638999e+01 1.6507054796340853e+01 1.6980651256420362e+01 1 0 1
1457 1 7.2160678671901577e+00 2.2398948357565462e+01 1.5516054211467281e+01 0 0 1
43 1 5.6421328332777705e+00 1.4620209013069623e+00 2.3248465485105182e+01 1 0 0
3504 1 1.1907328617189169e+01 1.6645160052400712e+01 2.3296816585340068e+01 1 1 0
3794 1 5.8267645436640985e+00 1.5548314108805467e+01 1.3791321783919225e+01 0 -1 1
6642 1 7.3833245406037857e+00 1.8923223970557640e+01 1.3383309649071844e+01 0 -1 1
80 1 5.3573900086152788e+00 1.9152770206801403e+01 1.5693730922127513e+01 0 1 1
1667 1 1.1642949544853552e+01 1.8208482549751661e+01 1.5050444653003838e+01 0 0 0
2020 1 4.6863123864074980e+00 2.4211256251190527e+01 2.2983585372953492e+01 1 0 0
1850 1 2.3359052203343600e+00 2.2848349238599219e+01 1.4211904182295084e+01 1 0 0
346 1 3.5040108915958954e+00 2.0172907824053553e+01 1.3636885109459381e+01 -1 -1 0
3069 1 4.3422673890865813e+00 2.4134812180862244e+01 1.5906330886209631e+01 1 0 1
3945 1 4.6853980834179776e+00 2.1395766043327189e+01 1.7206434675699750e+01 0 0 1
3661 1 1.1828186053772827e+01 3.4495717678635601e-01 2.2697231864837637e+01 2 0 0
3549 1 1.1726265450685290e+01 9.1434335164209255e+00 1.3918994911579921e+01 2 0 1
5192 1 1.1728315263434814e+01 2.2901171441333783e+01 1.4696957919756848e+01 2 0 0
5321 1 3.0114846731031947e-01 2.0107949396894140e+00 1.9256896573202532e+01 1 1 0
5496 1 2.0266965782411015e+00 6.3846512856678894e-01 2.0773837797195156e+01 1 0 1
6480 1 7.0474544227280207e+00 3.2392745776294585e+00 1.6799832171339560e+01 0 1 1
1576 1 8.0961414963912137e+00 3.5826896584249068e+00 1.9386562086632846e+01 1 1 1
5032 1 2.1234599567895631e+00 2.1528545456264144e+01 2.3624844348095849e+01 1 1 0
5298 1 1.1076729849557395e+01 1.0154346214067351e+00 1.7373242881946158e+01 1 0 1
3354 1 1.0862407162144716e+01 1.3960353288760308e+01 1.4704007788994970e+01 1 0 0
1979 1 4.0314346114401340e+00 6.2232995253050580e+00 1.8315498377125945e+01 1 1 0
2055 1 2.2429137856322794e+00 7.8165405889732265e+00 2.0372915056909161e+01 1 1 0
3030 1 1.8044176967898848e+00 9.0661925313036971e+00 1.7369039633155580e+01 0 0 1
5022 1 6.0576209490835442e+00 5.8497312203424316e+00 1.6302260431223658e+01 0 0 1
4775 1 3.4798979186573691e+00 3.8388102736693641e+00 2.0311008799601414e+01 0 2 1
1723 1 6.8117496573575718e+00 5.5593778530510534e+00 2.0584418620764826e+01 -1 0 0
3993 1 1.1223900207717522e+01 7.2740308054334903e+00 1.7777607435397758e+01 1 0 0
3559 1 2.1477566253329644e-01 9.6124895326928055e+00 2.1101510064096875e+01 1 1 1
1321 1 6.0327544675221692e+00 1.0408538117279926e+01 1.6955854669451096e+01 0 0 1
389 1 5.6434735287978279e+00 8.5772859141015445e+00 1.8854718932498308e+01 2 1 1
416 1 3.5867633909927550e+00 1.1690073766384364e+01 2.2043011332871899e+01 -1 0 0
3550 1 8.7371505307233406e+00 1.0550843533261764e+01 1.9047254854118421e+01 2 -1 0
3369 1 1.0189422856900574e+01 1.1454344223679319e+01 1.5769022155237501e+01 2 1 0
360 1 3.7004174538552173e+00 1.2474284301468861e+01 1.6873482764102445e+01 2 0 0
6603 1 1.9788330155463434e+00 1.3781646494128768e+01 2.0627327956156805e+01 1 -1 1
2175 1 7.6744743040952743e+00 1.6349358204939165e+01 1.7742623932938777e+01 1 0 1
5180 1 5.5525274603008441e+00 1.2913031491706004e+01 1.9359494407422456e+01 1 -2 1
3594 1 7.5073924745273919e+00 1.3058140126442726e+01 1.6851442239496286e+01 1 0 0
2153 1 8.5946023080801002e+00 1.9144056951193519e+01 1.8157817336480196e+01 1 1 0
4884 1 1.3347262530088304e+00 1.1096420176235476e+01 2.3483187372508251e+01 1 0 1
3543 1 4.7011205783362282e+00 1.3797382566854142e+00 1.3071315648465452e+01 0 1 0
1492 1 1.2725526170829469e+00 1.6050493766787408e+01 1.9251270894042893e+01 0 1 1
6489 1 2.8662437906938085e+00 1.5271584821271778e+01 1.6970669651202744e+01 0 1 0
3860 1 2.4680211865991883e+00 1.8504136592049189e+01 1.6932095699260447e+01 0 0 0
6738 1 6.8348155871099454e+00 2.2780991199188847e+01 1.2344033957227417e+01 1 0 1
4793 1 9.3759255092774580e+00 2.3014810230602606e+01 2.3396863807748701e+01 0 1 1
3674 1 1.1854548765442685e+01 4.0035507637611216e+00 1.9574773355365018e+01 1 -1 0
1919 1 2.2688132486942680e+00 2.1093727284312422e+01 1.8240935837832758e+01 0 0 0
6719 1 1.6049463256211065e+00 2.0523853936776799e+01 2.0802966329445873e+01 2 1 1
3337 1 9.1164302767554108e+00 2.0597998493218260e+01 1.5888885456637430e+01 0 0 0
3330 1 2.6767883920439242e+00 2.3404391099010205e+01 2.0924478506885826e+01 1 0 0
497 1 6.3828410364705332e+00 2.0737114119259331e+01 1.9179736821067170e+01 3 -1 0
6653 1 1.2090475814021826e+00 1.5600976358975457e+01 1.4844942358226644e+01 1 1 1
4999 1 1.1223750050216445e+01 2.0188166343858601e+01 1.8977615139688183e+01 1 1 1
234 1 9.6852074378884598e+00 2.2373019456688020e+01 2.0544514689966562e+01 0 0 0
3943 1 6.4501104156855478e+00 5.5313967282845082e+00 2.3097650496153605e+01 1 1 1
3780 1 2.9445916486256425e+00 6.7213808301869662e+00 2.3187401540817280e+01 1 0 0
128 1 8.4458481907890963e+00 1.2452975769819212e+00 2.0181360400021010e+01 2 0 1
3542 1 6.8370003374717063e+00 2.3129443709747758e+01 2.0323289146498855e+01 1 1 0
5064 1 2.5512561255935400e+00 3.7416150933942198e+00 2.2808608826381075e+01 1 0 0
6588 1 3.3225441842829456e-01 5.7497153040363935e+00 2.0910419934574669e+01 1 2 0
113 1 6.9013438743615629e-01 2.2074716246324538e+01 1.6455610869767089e+01 1 0 0
1926 1 1.1383793385081601e+01 1.4085250555618345e+00 1.9939420627426934e+01 0 0 0
1628 1 5.4511966736844339e+00 1.8809029622934044e+00 2.0549136149080752e+01 0 0 1
5615 1 1.1372054094457946e+01 1.0333698282187546e+01 1.9809921487580056e+01 0 1 0
1787 1 9.2233410656589356e+00 4.8894134280108643e+00 2.3610748014385766e+01 1 1 0
2285 1 9.9906372285794092e+00 5.2893398100772453e+00 2.1066864351466990e+01 0 0 0
1903 1 8.6947416843638372e+00 7.7089221927698555e+00 1.9812612518992779e+01 1 0 0
2208 1 2.0232739463353391e+00 1.7827272549346070e+01 2.3325437200267380e+01 1 1 0
3346 1 9.4964458131081930e-01 1.8545008734157992e+01 1.4245113109968091e+01 2 0 0
5501 1 1.1625245758868749e+01 8.9693332324346233e+00 2.3002401196785659e+01 1 1 0
5550 1 2.1477598801045565e+00 9.2421132953176510e+00 1.3008962112128906e+01 0 1 0
5149 1 1.1196189799088136e+01 1.1770554541356985e+01 2.2879464214400901e+01 1 0 1
3234 1 4.2800294551474520e+00 9.2764212847479506e+00 2.1297832581125974e+01 0 -1 1
5218 1 8.3264725641706789e+00 1.2511319871710802e+01 2.0869379189747136e+01 1 -1 0
1959 1 1.6429236118310702e+00 1.5070795984648324e+01 2.3214265898845490e+01 1 -1 0
1767 1 1.9624076753512618e+00 1.0882272383261378e+00 2.3446889852977488e+01 0 1 0
3088 1 9.8660119429861108e+00 1.4736433288268776e+01 2.4086689567958128e+01 0 1 0
4995 1 1.1743689256569041e+00 4.1717584770379075e+00 1.8743339629671503e+01 1 0 0
5003 1 4.6516785991921372e+00 1.5301403003617764e+01 2.0730827964701973e+01 0 1 0
4923 1 8.5352342724397943e+00 1.1639793122026247e+00 2.2845918690139051e+01 1 1 1
3043 1 9.4858452128434454e+00 1.5179633962173195e+01 2.1225070603816715e+01 0 0 1
6656 1 8.0072320809852648e+00 1.2047754802603048e+01 2.3708696335119864e+01 0 0 1
3377 1 2.8770707754553366e+00 1.7770086142969735e+01 2.0666703062737088e+01 -1 0 1
5249 1 5.4677599871242268e+00 8.0304214718961013e+00 2.3733888176142564e+01 0 0 0
6339 1 5.8101641953840755e+00 2.0266870721504866e+01 2.3212961553696012e+01 1 0 1
60 1 1.1575105530618776e-01 2.1596017056590782e+00 1.4980159028820648e+01 1 -1 1
1619 1 5.5282263094710276e+00 1.8964744768815255e+01 2.0870989787373329e+01 2 0 0
3800 1 7.1231954287878239e+00 1.6647796178228617e+01 2.0530730581947633e+01 0 1 0
1731 1 1.0104562988627912e+01 2.0096882456019376e+01 1.3341088953937790e+01 1 1 0
5215 1 4.9026143473065185e+00 1.5072490035653443e+01 2.3241000977547888e+01 2 0 0
322 1 7.4071540761081724e+00 1.6367464648956151e+01 2.3864610882436949e+01 1 0 0
3413 1 5.4571890330469168e+00 1.2386711621529573e+01 2.3766897567796192e+01 0 -1 0
6346 1 1.0280677873815865e+01 1.8853772336226243e+01 2.3886885655789172e+01 0 0 1
3148 1 1.1045010364666783e+01 2.4504778799941121e+01 1.9375665633324278e+01 0 0 0
1946 1 4.7493937607386405e+00 8.2227913737291765e+00 1.2249231937814303e+01 0 1 0
618 2 0.0000000000000000e+00 2.8417180249513345e+00 2.6804524520476392e+01 0 0 0
620 2 0.0000000000000000e+00 0.0000000000000000e+00 2.6804524520476392e+01 0 0 0
622 2 1.2305000000000001e+00 7.1042950623783474e-01 2.6804524520476392e+01 0 0 0
629 2 1.2305000000000001e+00 2.1312885187134998e+00 2.6804524520476392e+01 0 0 0
631 2 2.4610000000000003e+00 2.8417180249513345e+00 2.6804524520476392e+01 0 0 0
633 2 2.4610000000000003e+00 0.0000000000000000e+00 2.6804524520476392e+01 0 0 0
635 2 3.6915000000000004e+00 7.1042950623783474e-01 2.6804524520476392e+01 0 0 0
650 2 3.6914999999999996e+00 2.1312885187134998e+00 2.6804524520476392e+01 0 0 0
652 2 4.9220000000000006e+00 2.8417180249513332e+00 2.6804524520476392e+01 0 0 0
654 2 4.9220000000000006e+00 0.0000000000000000e+00 2.6804524520476392e+01 0 0 0
656 2 6.1524999999999999e+00 7.1042950623783407e-01 2.6804524520476392e+01 0 0 0
679 2 6.1524999999999999e+00 2.1312885187134989e+00 2.6804524520476392e+01 0 0 0
681 2 7.3829999999999991e+00 2.8417180249513345e+00 2.6804524520476392e+01 0 0 0
683 2 7.3829999999999991e+00 0.0000000000000000e+00 2.6804524520476392e+01 0 0 0
1051 2 4.9220000000000006e+00 2.1312885187134995e+01 3.3257475479522597e+01 0 0 0
685 2 8.6134999999999984e+00 7.1042950623783407e-01 2.6804524520476392e+01 0 0 0
716 2 8.6134999999999984e+00 2.1312885187135002e+00 2.6804524520476392e+01 0 0 0
718 2 9.8440000000000012e+00 2.8417180249513332e+00 2.6804524520476392e+01 0 0 0
720 2 9.8440000000000012e+00 0.0000000000000000e+00 2.6804524520476392e+01 0 0 0
722 2 1.1074500000000002e+01 7.1042950623783330e-01 2.6804524520476392e+01 0 0 0
761 2 1.1074500000000002e+01 2.1312885187135002e+00 2.6804524520476392e+01 0 0 0
623 2 0.0000000000000000e+00 7.1042950623783341e+00 2.6804524520476392e+01 0 0 0
625 2 0.0000000000000000e+00 4.2625770374269996e+00 2.6804524520476392e+01 0 0 0
627 2 1.2305000000000001e+00 4.9730065436648339e+00 2.6804524520476392e+01 0 0 0
642 2 1.2305000000000001e+00 6.3938655561404980e+00 2.6804524520476392e+01 0 0 0
644 2 2.4610000000000003e+00 7.1042950623783341e+00 2.6804524520476392e+01 0 0 0
646 2 2.4610000000000003e+00 4.2625770374269996e+00 2.6804524520476392e+01 0 0 0
648 2 3.6914999999999996e+00 4.9730065436648339e+00 2.6804524520476392e+01 0 0 0
671 2 3.6914999999999996e+00 6.3938655561404980e+00 2.6804524520476392e+01 0 0 0
1087 2 8.6134999999999984e+00 2.3444173705848499e+01 3.3257475479522597e+01 0 0 0
673 2 4.9220000000000006e+00 7.1042950623783341e+00 2.6804524520476392e+01 0 0 0
675 2 4.9220000000000006e+00 4.2625770374269978e+00 2.6804524520476392e+01 0 0 0
677 2 6.1524999999999999e+00 4.9730065436648339e+00 2.6804524520476392e+01 0 0 0
708 2 6.1524999999999999e+00 6.3938655561404980e+00 2.6804524520476392e+01 0 0 0
710 2 7.3830000000000009e+00 7.1042950623783341e+00 2.6804524520476392e+01 0 0 0
712 2 7.3829999999999991e+00 4.2625770374269996e+00 2.6804524520476392e+01 0 0 0
5221 1 3.6255625200318766e+00 1.9704261205734099e+01 2.4589944240546966e+01 1 0 0
2101 1 4.8255848577529923e+00 3.9013317784717088e+00 2.4375059929057947e+01 1 1 0
714 2 8.6135000000000002e+00 4.9730065436648339e+00 2.6804524520476392e+01 0 0 0
753 2 8.6135000000000002e+00 6.3938655561404980e+00 2.6804524520476392e+01 0 0 0
755 2 9.8440000000000012e+00 7.1042950623783341e+00 2.6804524520476392e+01 0 0 0
757 2 9.8440000000000012e+00 4.2625770374270004e+00 2.6804524520476392e+01 0 0 0
759 2 1.1074500000000002e+01 4.9730065436648339e+00 2.6804524520476392e+01 0 0 0
800 2 1.1074500000000002e+01 6.3938655561404980e+00 2.6804524520476392e+01 0 0 0
636 2 0.0000000000000000e+00 1.1366872099805333e+01 2.6804524520476392e+01 0 0 0
638 2 0.0000000000000000e+00 8.5251540748539991e+00 2.6804524520476392e+01 0 0 0
640 2 1.2305000000000001e+00 9.2355835810918343e+00 2.6804524520476392e+01 0 0 0
663 2 1.2305000000000001e+00 1.0656442593567498e+01 2.6804524520476392e+01 0 0 0
665 2 2.4610000000000003e+00 1.1366872099805333e+01 2.6804524520476392e+01 0 0 0
667 2 2.4610000000000003e+00 8.5251540748539991e+00 2.6804524520476392e+01 0 0 0
669 2 3.6915000000000004e+00 9.2355835810918343e+00 2.6804524520476392e+01 0 0 0
700 2 3.6914999999999996e+00 1.0656442593567499e+01 2.6804524520476392e+01 0 0 0
702 2 4.9220000000000006e+00 1.1366872099805333e+01 2.6804524520476392e+01 0 0 0
704 2 4.9220000000000006e+00 8.5251540748539991e+00 2.6804524520476392e+01 0 0 0
706 2 6.1524999999999999e+00 9.2355835810918343e+00 2.6804524520476392e+01 0 0 0
745 2 6.1524999999999999e+00 1.0656442593567499e+01 2.6804524520476392e+01 0 0 0
747 2 7.3829999999999991e+00 1.1366872099805333e+01 2.6804524520476392e+01 0 0 0
749 2 7.3830000000000009e+00 8.5251540748539991e+00 2.6804524520476392e+01 0 0 0
1073 2 8.6135000000000002e+00 2.2023314693372832e+01 3.3257475479522597e+01 0 0 0
751 2 8.6134999999999984e+00 9.2355835810918343e+00 2.6804524520476392e+01 0 0 0
792 2 8.6134999999999984e+00 1.0656442593567498e+01 2.6804524520476392e+01 0 0 0
794 2 9.8440000000000012e+00 1.1366872099805333e+01 2.6804524520476392e+01 0 0 0
796 2 9.8440000000000012e+00 8.5251540748539956e+00 2.6804524520476392e+01 0 0 0
798 2 1.1074500000000002e+01 9.2355835810918343e+00 2.6804524520476392e+01 0 0 0
839 2 1.1074500000000002e+01 1.0656442593567498e+01 2.6804524520476392e+01 0 0 0
841 2 1.2304999999999998e+01 1.1366872099805333e+01 2.6804524520476392e+01 0 0 0
657 2 0.0000000000000000e+00 1.5629449137232333e+01 2.6804524520476392e+01 0 0 0
659 2 0.0000000000000000e+00 1.2787731112280996e+01 2.6804524520476392e+01 0 0 0
661 2 1.2305000000000001e+00 1.3498160618518829e+01 2.6804524520476392e+01 0 0 0
692 2 1.2305000000000001e+00 1.4919019630994494e+01 2.6804524520476392e+01 0 0 0
694 2 2.4610000000000003e+00 1.5629449137232328e+01 2.6804524520476392e+01 0 0 0
696 2 2.4610000000000003e+00 1.2787731112280996e+01 2.6804524520476392e+01 0 0 0
698 2 3.6915000000000004e+00 1.3498160618518829e+01 2.6804524520476392e+01 0 0 0
737 2 3.6915000000000004e+00 1.4919019630994494e+01 2.6804524520476392e+01 0 0 0
739 2 4.9220000000000006e+00 1.5629449137232333e+01 2.6804524520476392e+01 0 0 0
741 2 4.9220000000000006e+00 1.2787731112280996e+01 2.6804524520476392e+01 0 0 0
743 2 6.1524999999999990e+00 1.3498160618518829e+01 2.6804524520476392e+01 0 0 0
784 2 6.1524999999999990e+00 1.4919019630994494e+01 2.6804524520476392e+01 0 0 0
786 2 7.3829999999999991e+00 1.5629449137232333e+01 2.6804524520476392e+01 0 0 0
788 2 7.3829999999999991e+00 1.2787731112280996e+01 2.6804524520476392e+01 0 0 0
790 2 8.6135000000000002e+00 1.3498160618518835e+01 2.6804524520476392e+01 0 0 0
831 2 8.6135000000000002e+00 1.4919019630994494e+01 2.6804524520476392e+01 0 0 0
833 2 9.8440000000000012e+00 1.5629449137232328e+01 2.6804524520476392e+01 0 0 0
835 2 9.8440000000000012e+00 1.2787731112280996e+01 2.6804524520476392e+01 0 0 0
837 2 1.1074500000000002e+01 1.3498160618518829e+01 2.6804524520476392e+01 0 0 0
873 2 1.1074500000000002e+01 1.4919019630994494e+01 2.6804524520476392e+01 0 0 0
5104 1 9.5049796352669489e+00 7.6846380957763047e+00 2.4172956006253649e+01 -1 0 1
686 2 0.0000000000000000e+00 1.9892026174659328e+01 2.6804524520476392e+01 0 0 0
688 2 0.0000000000000000e+00 1.7050308149707998e+01 2.6804524520476392e+01 0 0 0
690 2 1.2305000000000001e+00 1.7760737655945832e+01 2.6804524520476392e+01 0 0 0
729 2 1.2305000000000001e+00 1.9181596668421495e+01 2.6804524520476392e+01 0 0 0
731 2 2.4610000000000003e+00 1.9892026174659328e+01 2.6804524520476392e+01 0 0 0
733 2 2.4610000000000003e+00 1.7050308149707998e+01 2.6804524520476392e+01 0 0 0
735 2 3.6914999999999996e+00 1.7760737655945832e+01 2.6804524520476392e+01 0 0 0
776 2 3.6914999999999996e+00 1.9181596668421495e+01 2.6804524520476392e+01 0 0 0
778 2 4.9220000000000006e+00 1.9892026174659328e+01 2.6804524520476392e+01 0 0 0
780 2 4.9220000000000006e+00 1.7050308149707998e+01 2.6804524520476392e+01 0 0 0
782 2 6.1524999999999999e+00 1.7760737655945832e+01 2.6804524520476392e+01 0 0 0
823 2 6.1524999999999999e+00 1.9181596668421495e+01 2.6804524520476392e+01 0 0 0
825 2 7.3829999999999991e+00 1.9892026174659328e+01 2.6804524520476392e+01 0 0 0
827 2 7.3830000000000009e+00 1.7050308149707998e+01 2.6804524520476392e+01 0 0 0
829 2 8.6134999999999984e+00 1.7760737655945832e+01 2.6804524520476392e+01 0 0 0
865 2 8.6135000000000002e+00 1.9181596668421495e+01 2.6804524520476392e+01 0 0 0
867 2 9.8440000000000012e+00 1.9892026174659335e+01 2.6804524520476392e+01 0 0 0
869 2 9.8440000000000012e+00 1.7050308149707998e+01 2.6804524520476392e+01 0 0 0
871 2 1.1074500000000002e+01 1.7760737655945835e+01 2.6804524520476392e+01 0 0 0
899 2 1.1074500000000002e+01 1.9181596668421495e+01 2.6804524520476392e+01 0 0 0
903 2 1.2304999999999998e+01 1.7050308149707998e+01 2.6804524520476392e+01 0 0 0
723 2 0.0000000000000000e+00 2.4154603212086325e+01 2.6804524520476392e+01 0 0 0
725 2 0.0000000000000000e+00 2.1312885187134999e+01 2.6804524520476392e+01 0 0 0
727 2 1.2304999999999993e+00 2.2023314693372832e+01 2.6804524520476392e+01 0 0 0
768 2 1.2304999999999993e+00 2.3444173705848499e+01 2.6804524520476392e+01 0 0 0
770 2 2.4610000000000003e+00 2.4154603212086325e+01 2.6804524520476392e+01 0 0 0
772 2 2.4610000000000003e+00 2.1312885187134995e+01 2.6804524520476392e+01 0 0 0
774 2 3.6914999999999996e+00 2.2023314693372832e+01 2.6804524520476392e+01 0 0 0
815 2 3.6915000000000004e+00 2.3444173705848499e+01 2.6804524520476392e+01 0 0 0
817 2 4.9220000000000006e+00 2.4154603212086325e+01 2.6804524520476392e+01 0 0 0
819 2 4.9220000000000006e+00 2.1312885187134995e+01 2.6804524520476392e+01 0 0 0
821 2 6.1524999999999990e+00 2.2023314693372832e+01 2.6804524520476392e+01 0 0 0