LAMMPS data file via write_data, version 16 Mar 2018, timestep = 6000000

6750 atoms
2 atom types

2.7478679577415832e-01 4.8945213204232829e+01 xlo xhi
2.7366819763370742e-01 4.8745967732775981e+01 ylo yhi
-1.7712051010823160e-01 6.0239120510116209e+01 zlo zhi

Masses

1 18.015
2 12.01

Atoms # atomic

3390 1 5.7992316976130507e+00 2.3972653323815251e+01 1.0378765371337192e+01 1 4 1
1360 1 4.7532592410955097e+00 3.7620413614541590e+00 4.3759868007227221e-01 4 4 1
6406 1 4.8426668302370297e+00 3.8624989101312992e+00 3.0934076853116150e+00 0 -1 1
1462 1 1.9333905182837772e+00 2.0303339545126629e+01 1.1287667508389930e+01 0 -2 1
4747 1 7.7404565473102629e+00 5.0448307878756360e-01 6.0473742347097326e-01 0 1 1
4767 1 1.1225322572224634e+01 4.2602609113828391e+00 4.3318625011076231e+00 0 0 1
3332 1 7.9399198068753174e+00 7.2173611304810659e-01 1.0134396133251641e+01 -3 2 1
5402 1 1.2523788539549039e+00 6.6704371897161474e+00 4.9411775223148346e-01 0 1 0
4846 1 1.2263728977189801e+00 6.8707614129469867e+00 3.0111659398478632e+00 4 -3 1
1398 1 3.6516949966199324e+00 6.1263062484510264e+00 3.8811187204539959e+00 1 -1 1
4818 1 5.9290318366067973e+00 2.4244371492137187e+01 4.2229516853055082e-01 0 -3 1
5316 1 5.6171238883097754e+00 7.9289417995047469e+00 4.2957533523896063e-01 1 0 0
1359 1 5.4560173171647222e+00 8.0049567897676486e+00 2.8605238100261983e+00 -1 3 1
3997 1 9.2503599681529423e+00 4.6107689423126912e+00 4.6871011376006766e-01 -3 -1 1
1523 1 9.0275479178712192e+00 4.9384016917888571e+00 3.2005644719409139e+00 -1 -1 1
3208 1 2.4342962544635998e+00 1.1333510134401170e+01 3.2678869326488948e+00 3 5 1
1854 1 2.3070484793282620e+00 1.0729036761370738e+01 5.2144810150110577e-01 -2 5 0
5353 1 6.6426372279025694e+00 1.2130336873324445e+01 3.2293860686333620e+00 -1 -1 0
6592 1 6.6674491920575560e+00 1.2132960347113213e+01 6.6606725349768481e-01 0 1 1
3594 1 9.9723576305865951e+00 9.1117189534596985e+00 3.3466594287674263e+00 1 -1 0
3677 1 9.9323680537659751e+00 9.0090996816967195e+00 6.1352692209584569e-01 0 -2 0
4834 1 9.2228380758001549e+00 1.1494169137663389e+01 4.2199513600765357e+00 4 -1 1
5135 1 3.4692345410697509e+00 1.5434219662338304e+01 9.3850965445004575e-01 2 -1 1
5361 1 3.4040087181406573e+00 1.5695228745221620e+01 3.4471561467009639e+00 3 3 0
3149 1 7.8566767096800227e-01 9.2929184951782879e+00 4.1003878460070258e+00 0 -1 1
172 1 1.0797035154817456e+01 1.3144461349133159e+01 3.3988941262222720e+00 0 -1 0
5073 1 1.1139172931944506e+01 1.3502640467572762e+01 5.3502153649911055e-01 1 1 1
3890 1 5.5515322769226039e+00 2.4432102998023609e+01 3.0805973424634763e+00 0 -1 1
3855 1 2.7273919409784702e+00 1.8267756474425788e+01 4.2192717866007587e+00 -2 -2 1
279 1 5.9639369067357650e-01 2.6351624070007165e+00 2.0670674304243553e-01 4 -2 0
1921 1 1.8093540372982571e+00 2.2949869833172492e+01 1.0484803882345831e+01 -1 2 0
4967 1 7.5967085363353544e+00 1.6777158862382912e+01 3.3348264602817017e+00 3 -2 1
4954 1 7.6057646934391139e+00 1.6500384350421577e+01 7.2106217507485637e-01 3 0 0
5238 1 4.4884427479726297e+00 2.0206552710645962e+01 8.3759175298158217e-01 -3 2 0
1871 1 4.4592615703551264e+00 2.0169104885166565e+01 3.5068994231914510e+00 0 1 0
6742 1 7.9048269042378303e+00 5.8124421844456520e-01 7.6094217265732107e+00 3 0 1
5113 1 2.7316963815248938e+00 1.8074659468433737e+01 3.1449667201141618e-02 1 4 1
471 1 9.7485179535431699e-01 2.3053587988220009e+01 5.9344265223144244e-01 1 0 0
115 1 1.4049700312057105e+00 2.3301667429996691e+01 3.2552033448403312e+00 0 -1 0
2170 1 7.6137762721027524e+00 1.6728597140872303e+01 1.0405464434691996e+01 -2 -3 0
1713 1 5.8938798263798819e+00 1.4564158544266748e+01 5.7977983383561249e-02 -2 2 0
510 1 8.9176258733775775e+00 2.0876418134300309e+01 3.2742906530609206e+00 0 2 0
153 1 8.7115458936029988e+00 2.1047443465336418e+01 6.3281603548858345e-01 3 -1 0
5617 1 2.9184675649050713e+00 1.9503944860721498e+00 3.9872375397494251e+00 -2 -1 1
245 1 2.6234687481088415e+00 1.7001572419677984e+00 6.7172907175055805e+00 3 0 0
3562 1 4.9907407022062431e+00 1.7410581864176411e+01 1.1065634214343611e+01 0 -4 0
3180 1 7.1079781086797027e+00 2.8632268454117402e+00 4.0860882342319869e+00 1 2 1
4766 1 4.2264290984592616e+00 3.5308039311386175e+00 7.6245850894698011e+00 0 2 1
1369 1 6.7871064660783791e+00 2.9778832092095722e+00 6.8609605679546677e+00 -1 -2 1
604 1 4.3219354591942531e+00 1.9953208265043841e+01 1.0416092989359239e+01 0 -1 1
2256 1 9.1069289378574947e+00 2.0912538677979246e+01 1.0156374177610450e+01 1 4 1
5548 1 1.1584200452053429e+01 4.1876971385065520e+00 6.7921439837568904e+00 0 -2 1
3015 1 3.6296266595985118e+00 6.2593383138246468e+00 6.7360317677015962e+00 0 0 0
2162 1 1.3195662371525922e+00 7.0068383669514098e+00 7.7159441572698100e+00 0 -4 0
5357 1 8.2813034194159538e+00 7.3294861990990867e+00 6.9091595561630008e+00 -2 -2 0
3361 1 5.6124436619377729e+00 7.7160120981639437e+00 7.5290784246238562e+00 1 3 0
1779 1 8.0406527222229229e+00 7.3664817230725994e+00 4.1678456825084078e+00 1 1 0
1374 1 8.8843979600853551e+00 4.6884287225286272e+00 7.6128078512899719e+00 2 1 1
108 1 1.0918345819671419e+01 2.2873961438682205e+01 1.0776849399319525e+01 1 1 1
30 1 6.2625195824492073e+00 2.1452449058995455e+01 1.1265926933842982e+01 0 0 0
5349 1 9.5239896790171130e+00 1.8406082375627566e+01 1.1060218558480543e+01 1 0 0
5100 1 2.5280909271084759e+00 1.1323039876677727e+01 7.3191875926221606e+00 -1 -1 0
1972 1 4.9674174104942024e+00 1.0346739415807948e+01 4.1193065257137222e+00 3 0 0
2092 1 5.1891720656718734e+00 1.0508097571353025e+01 6.7517019284537758e+00 1 0 0
2223 1 9.6390587487929196e+00 1.1615346832107997e+01 6.9340026702388275e+00 3 2 0
3099 1 9.9912037295495946e+00 9.2145428347909064e+00 7.8482728545415252e+00 0 0 1
6588 1 1.5149895638520594e+00 1.3850055568574344e+01 4.0733576380626859e+00 -1 3 0
1688 1 1.5227040113949819e+00 1.3828440890510400e+01 7.1603225179355192e+00 2 0 1
5340 1 3.5494022021069114e+00 1.5696636863133326e+01 7.3190239290282948e+00 2 0 0
1350 1 6.9545894011545561e+00 1.2236477294153708e+01 7.7172108380738313e+00 -3 -1 1
3453 1 5.9478100715942004e+00 1.4472836267644702e+01 4.0749043971292327e+00 4 -3 0
3510 1 6.0568698302832251e+00 1.4768760649132606e+01 6.8780445166783499e+00 2 2 1
5606 1 1.0370468133132826e+01 1.6105181504151972e+01 4.0448205243327138e+00 0 -2 1
3913 1 1.0317727867841098e+01 1.6115016933049830e+01 6.8384761675470536e+00 2 -2 1
151 1 1.1210866207309129e+01 1.3338850804715289e+01 7.6172073933820315e+00 1 2 0
5495 1 2.8856189768296550e+00 1.8209995539021129e+01 6.8951339240998077e+00 -2 0 1
5132 1 1.2258145288750919e+01 1.7946016102121252e+01 4.2490250836159449e-01 3 -1 0
5033 1 4.7396227191390343e+00 1.9975621668027035e+01 7.5318051752574871e+00 0 0 0
3316 1 6.8583478281504604e+00 1.9349450056808877e+01 3.7544414882125419e+00 -2 3 1
4940 1 7.8102291655904974e+00 1.6667259015027277e+01 7.7618538474484771e+00 0 -3 1
5004 1 7.0944501124103407e+00 1.9264370945540460e+01 6.6408919017636423e+00 -4 0 1
3311 1 1.2028498465225635e+01 1.8203879605243298e+01 7.5808168489482259e+00 -1 -1 1
417 1 3.7155535363550207e+00 2.2699902654432016e+01 4.1939448113368307e+00 1 2 0
209 1 1.2523759855892793e+00 2.2902804931368880e+01 7.6764613837387650e+00 3 -2 1
3104 1 3.6959521358994252e+00 2.2350011387541770e+01 6.8361000426169394e+00 -1 0 1
2059 1 8.0093771938188816e+00 2.3549536772871487e+01 4.0301290850039679e+00 2 2 0
3552 1 8.2058846889488883e+00 2.3659998933203827e+01 6.7947363479671932e+00 1 3 0
551 1 1.1481900159482628e+01 2.0240400234999480e+01 3.7009794179003239e+00 1 -2 1
2180 1 1.1319515166567889e+01 2.0527756171581522e+01 6.4255217751776676e+00 -1 -1 0
3618 1 8.7424351918518877e+00 2.1000378328583075e+01 7.4497235883962292e+00 -1 -4 0
6551 1 6.9300644047091229e+00 1.9124685037549185e+01 -6.3542658626256021e-02 -3 0 1
2334 1 4.6752354062804278e+00 3.6395226566172441e+00 1.0035250672768107e+01 -2 0 0
1911 1 5.1900345239624457e+00 1.0811184992354395e+00 1.1278509434119410e+01 2 0 0
3619 1 9.6807653235599069e+00 2.4965570244256434e+00 1.1059845767722488e+01 1 3 0
1971 1 1.2273176412668910e+01 2.1737105986898628e+00 3.0988199455385117e+00 2 3 0
3351 1 2.1897906803585050e+00 4.2079269558753030e+00 1.1159217940636127e+01 1 2 1
5107 1 1.4515979227543916e+00 6.9163373913566479e+00 1.0427883435210571e+01 1 6 1
2291 1 6.3874011110231761e+00 5.6328366393307476e+00 1.1081134868055770e+01 3 -5 1
437 1 5.5250494450814740e+00 8.1718957012768989e+00 1.0223951801106217e+01 2 1 0
1844 1 8.7852768271266672e+00 5.0727499644733980e+00 1.0218444736027179e+01 1 0 0
3597 1 1.0562302540400102e+01 6.7531484410457399e+00 1.1625621716953734e+01 -2 0 1
3864 1 3.1886806823901366e+00 8.8774788953837884e+00 1.1197670082356240e+01 -1 -3 0
4963 1 2.5888776436180945e+00 1.1397436703025370e+01 1.0045718418292649e+01 1 -2 1
3193 1 7.4197675398134963e+00 9.7034557208155903e+00 1.1119618486650241e+01 3 1 1
6433 1 6.9249591088439395e+00 1.2112329927635942e+01 1.0334148036651086e+01 0 -1 1
389 1 1.1685808756001052e+01 1.1151926938212849e+01 1.1073859959517463e+01 0 0 1
4816 1 9.9460978933143416e+00 9.1210091285603969e+00 1.0346409573721843e+01 0 -1 1
1774 1 3.4017569971359927e+00 1.5584213373498038e+01 1.0061724640139417e+01 -3 2 0
5214 1 4.5345915669764247e+00 1.3078353534476005e+01 1.0956286086492980e+01 -2 0 1
3432 1 9.2090225767845901e-01 1.5958931462620342e+01 1.1081526219084372e+01 -4 0 0
5184 1 8.3953457130646729e+00 1.4317654920212430e+01 1.1097071934444408e+01 -1 -1 0
4783 1 1.0994900453871029e+01 1.3590606518596147e+01 1.0174145605855768e+01 1 0 1
6509 1 1.2435677551413388e+01 1.7711905822891341e+00 7.6405428179279706e+00 0 1 1
1556 1 1.2086123576839430e+01 1.7854309583344090e+01 1.0329274492434365e+01 -3 1 1
3723 1 5.5607223241583732e+00 2.3934450321946144e+01 7.6521643648519024e+00 -2 1 1
5064 1 3.5280143132933275e+00 2.2569717041075300e+01 -4.0426385746841320e-02 2 -1 0
3628 1 1.2360712158873030e+01 1.5514289832594508e+00 5.7571183667590686e-01 -2 -2 0
1983 1 1.2183701592394881e+01 1.7741745228981010e+01 3.1300493043154671e+00 1 -3 0
5396 1 1.1381202120463136e+01 2.0316618894627876e+01 7.8493404523937216e-02 1 0 0
1883 1 7.7729936623970941e-01 9.4688498691365854e+00 6.7738459147923527e+00 -1 0 0
1908 1 7.7337986375934884e+00 5.1289107067201023e-01 3.2690470942159702e+00 2 -2 1
3136 1 3.5174319026331230e-01 1.8510959243677437e+01 7.7453988495093711e+00 1 -1 0
3704 1 1.2404693684689343e+01 8.6614136028251636e+00 4.1508263827871561e+00 0 1 1
5037 1 1.6427829557308857e+00 1.3463617916974885e+01 -1.1248666397809615e-01 0 2 1
6605 1 2.7984649464198470e+00 1.9082876260465667e+00 1.4617985847726363e+01 3 4 0
5395 1 1.8922566529356708e+00 4.5798273767911883e+00 1.3729116708181365e+01 -2 -1 0
4910 1 5.3916143350458086e+00 1.2779127954580438e+00 1.3884443364289972e+01 1 0 1
3124 1 7.1168705205170486e+00 3.2004262714298481e+00 1.4737527850108386e+01 2 0 1
616 1 9.5829421333078386e+00 2.4328490191227137e+00 1.3652440389678507e+01 1 -2 1
1469 1 1.1216277170134919e+01 4.2404988555089904e+00 1.4558198314145717e+01 4 -2 1
2201 1 3.7234886252318380e+00 6.6017348610872819e+00 1.4421700306741423e+01 -1 0 1
3561 1 6.3222171868530266e+00 5.8047493906331207e+00 1.3633048301962379e+01 0 0 0
3587 1 8.1144544383819692e+00 7.6316953791542215e+00 1.4628015197656721e+01 2 4 1
149 1 1.0727948782856647e+01 7.0199522524928977e+00 1.4242081318616730e+01 1 -3 0
3459 1 3.0923611990396900e+00 8.9966285188179693e+00 1.3754650566232085e+01 -2 3 0
256 1 6.2910828100549780e+00 1.3547149965082184e+01 2.3940131691215736e+01 1 1 0
5331 1 4.9553546805907898e+00 1.0890227531578246e+01 1.4698817512336042e+01 0 0 0
6738 1 7.1986307832163474e+00 1.0131721473617551e+01 1.3768551556635620e+01 -2 1 1
586 1 9.1501432523717003e+00 1.2027357886128756e+01 1.4786337764954759e+01 -1 -2 1
6443 1 1.1661546673826512e+01 1.1324163030789583e+01 1.3928846931162017e+01 0 0 1
3382 1 3.9936783511935497e-01 3.0200022018671895e+00 1.8077956026000731e+01 3 0 1
3936 1 1.6564042090174036e+00 1.3839577203922920e+01 1.4517284592396587e+01 0 3 1
3273 1 4.3549786394304064e+00 1.3316903315507632e+01 1.3706796849147596e+01 -2 -2 1
4769 1 5.9461918653186405e+00 1.5255158620034871e+01 1.5068008860055825e+01 3 0 1
3635 1 8.1554776992770996e+00 1.4246819242258992e+01 1.3781536241403828e+01 0 1 0
1471 1 9.9064953739846473e+00 1.6274139601808336e+01 1.4873161234015795e+01 -4 0 1
3281 1 7.4552535725474733e-01 1.6052577733000639e+01 1.3783517801924217e+01 2 1 1
4723 1 2.3839193327756116e+00 1.8030797450459566e+01 1.4887036492430255e+01 -1 2 1
3307 1 5.0055422741667517e+00 1.7515118626951693e+01 1.3902490475352760e+01 3 -2 1
5022 1 6.8809979710403208e+00 1.9055352632784285e+01 1.5149043199395729e+01 0 -4 1
5191 1 9.1474700516497123e+00 1.8594970850789753e+01 1.3787689863753460e+01 -4 -2 0
4966 1 1.0748209299940584e+01 2.0402299409190277e+01 1.4829319269542063e+01 -4 -1 1
1940 1 1.8741101481872680e+00 2.0829191687325828e+01 1.4035437923945080e+01 3 1 0
3613 1 3.6872731556379046e+00 2.2412122242783422e+01 1.4707392996869201e+01 4 2 0
3627 1 6.3909462100551053e+00 2.1439271708075324e+01 1.3867060939962851e+01 2 1 1
2044 1 8.1204577880771005e+00 2.3547246482531722e+01 1.4418512845720164e+01 0 2 0
6340 1 1.0784825792636914e+01 2.2814500856934632e+01 1.3480884546061144e+01 -1 0 1
4886 1 2.8789202998053467e+00 2.2071586980940499e+00 1.7299888007286132e+01 -1 0 1
5036 1 5.0116250206974851e+00 3.9424414344075585e+00 1.8248329494801759e+01 -2 1 1
476 1 7.2210286763624802e+00 3.1910002008776299e+00 1.7312169037850179e+01 -1 0 1
2156 1 7.5199004121199948e+00 3.5367361269342873e-01 2.1228910746643486e+01 -4 2 1
4694 1 1.9921177762183688e+00 4.5324577387185023e+00 2.3860815117631475e+01 1 1 1
72 1 1.4418613368678037e+00 6.7757323524621738e+00 1.8032760907934627e+01 2 -1 0
3854 1 3.9849272724191729e+00 6.0971812124251832e+00 1.6816901660530750e+01 0 1 1
3940 1 5.4513141415432020e+00 8.0203247917830183e+00 1.7748072086774993e+01 3 1 1
3142 1 8.0201659581739193e+00 7.3100123392923280e+00 1.7181616138281903e+01 -1 4 1
5499 1 1.1724420310758770e+01 4.2269021981685899e+00 1.7218798278285536e+01 0 2 0
6559 1 9.1286678163618014e+00 4.9694456162059408e+00 1.8190385636787912e+01 1 0 1
5166 1 2.2237034120975876e+00 1.1366680036676287e+01 1.7901985028093893e+01 0 -2 0
3161 1 4.7499803564050822e+00 1.0790771474219911e+01 1.7390698095395422e+01 -1 1 1
6405 1 6.7092622050448050e+00 1.2488327660522989e+01 1.8291538674737968e+01 -5 3 1
5484 1 5.5856938464245132e-01 1.8227983034821779e+01 2.3790557292608856e+01 -1 2 0
3110 1 9.6183873806899296e+00 9.2567638691070293e+00 1.8023981616587591e+01 -2 2 1
4770 1 9.2129673694603280e+00 1.1843353109703701e+01 1.7484963571798211e+01 0 -2 1
3421 1 1.5191708655506442e+00 1.3805289805767991e+01 1.7224167492520316e+01 -2 -1 0
5346 1 3.1124674911696277e+00 1.5452882496631904e+01 1.8137967248260477e+01 0 -2 0
3148 1 5.5041163425447044e+00 1.4982351518043121e+01 1.7639559157035993e+01 -1 -1 0
3888 1 7.4279866386074351e+00 1.6568723641808621e+01 1.8288816841320127e+01 0 -1 0
3036 1 1.0799883839593347e+01 1.3708210452005739e+01 1.8049734825275372e+01 0 2 1
3763 1 9.9598328946470360e+00 1.6112232029857061e+01 1.7651478821956051e+01 -1 4 0
79 1 7.1298335010270364e+00 1.8271227589195949e+01 2.1493973838769460e+01 4 -5 0
182 1 2.3820629182205493e+00 1.8074728744890294e+01 1.7512256180040453e+01 -1 0 0
349 1 3.9342700175668313e+00 2.0220902205808205e+01 1.8321517325117220e+01 1 -2 0
3878 1 6.5306681685733432e+00 1.9256620640586629e+01 1.7797079379049041e+01 3 0 1
2227 1 1.1867724902673407e+01 1.7543081395882816e+00 1.8322424493698094e+01 1 2 0
1585 1 1.1494335698720556e+01 2.0145682648496916e+01 1.7252812201158680e+01 -1 -1 1
4703 1 9.6916264335201352e-01 2.3427100058509239e+01 1.8485935512031531e+01 2 0 1
1512 1 3.5708656630274258e+00 2.2745791638201730e+01 1.7236619382919116e+01 4 -3 1
5185 1 5.8368557827585317e+00 5.8019018369032702e+00 2.3934856030987238e+01 1 2 0
4977 1 8.5580768503067031e+00 2.3212880644944651e+01 1.7190370655150296e+01 -1 1 1
6512 1 8.8190094387527775e+00 2.0572833165629184e+01 1.8250147786309398e+01 0 3 1
6352 1 4.5746184920584598e+00 3.5506629087112560e+00 2.0720731057092877e+01 -2 -1 1
5131 1 3.4604767936397769e+00 1.3907029122243356e+01 2.3894932097073756e+01 0 2 1
3695 1 1.1843410352126607e+01 1.4799981214366582e+00 2.1123215534183291e+01 0 0 0
3994 1 5.0085212896128901e+00 9.6328363592863320e-01 2.1057006917145230e+01 -3 2 1
3212 1 8.2880894416816417e+00 2.3256432307167145e+01 2.3965081915901699e+01 -2 -2 0
2302 1 5.9500151745579650e+00 2.4193516541298838e+01 1.7928257692896256e+01 -1 0 1
532 1 7.6218408011174628e+00 8.3751969956394912e-01 1.8522401593470367e+01 1 1 0
2144 1 9.3396354606011052e+00 2.4318325506859306e+00 2.1611520022583530e+01 0 -1 1
3688 1 8.0399114572173609e+00 2.3398994748794209e+01 2.1319876877242667e+01 -1 1 0
4796 1 1.9908747756797147e+00 4.6502466960616484e+00 2.1074035305387088e+01 -1 0 0
1576 1 1.1389133585565849e+00 7.2364390125231015e+00 2.0927922789785772e+01 1 2 1
3577 1 4.3750152942269045e+00 1.8481508904940686e+01 2.1309517805547760e+01 -1 1 0
2277 1 5.5106536898505469e+00 2.3394275118160738e+01 2.0589193461496986e+01 2 -2 1
4942 1 5.9193603173929823e+00 5.9095173350129100e+00 2.1203146942223501e+01 3 0 0
243 1 5.4562629973901480e+00 8.4089176548675884e+00 2.0493848194955085e+01 2 4 0
55 1 4.0514106159810410e+00 2.1353658509222271e+01 2.0952160147373558e+01 -1 0 1
6466 1 8.5215805542463059e+00 5.0960233684715011e+00 2.0896810842291782e+01 -1 -2 0
5623 1 1.0228329327717988e+01 7.0945259408792980e+00 2.1529993861253583e+01 -2 6 0
2012 1 2.9504698804972751e+00 9.1903058262873731e+00 2.1495463144810248e+01 0 1 1
4712 1 2.1251544459402516e+00 1.1694149985622198e+01 2.0542948567843428e+01 -2 1 0
4 1 2.0622117772916391e+00 1.6739447598202990e+01 2.0898717296312807e+01 0 5 0
562 1 7.3595191846326209e+00 1.0531247055711605e+01 2.1024480809953062e+01 -2 1 1
327 1 1.3049074898191901e+00 2.1908899330008975e+01 2.0962010426073729e+01 0 3 0
258 1 4.7387304400118357e-01 9.2416203095467662e+00 1.7158154701243529e+01 1 -1 0
3578 1 9.7892880851606687e+00 9.5166530715791051e+00 2.0805699842802060e+01 0 -3 0
3652 1 1.1608242150640674e+01 1.1503668386048265e+01 2.0971917359328536e+01 3 2 1
1617 1 1.2153914654753653e+01 1.7542462375003510e+01 1.8440069002084538e+01 1 0 1
2213 1 3.5005799180757382e+00 1.3979964898063502e+01 2.0948742056433112e+01 -1 -2 0
3374 1 1.1668880473820920e+01 1.9261178548108536e+01 2.1177592748691783e+01 -3 -1 0
1439 1 7.8438017671895057e+00 1.5687981709896441e+01 2.3946362721114649e+01 -5 -1 1
1468 1 6.2748223073609424e+00 1.3157312117142176e+01 2.1302503124456095e+01 -1 3 1
3319 1 7.9804174533315253e+00 1.5419055051274679e+01 2.0987233141920441e+01 -3 2 0
3364 1 9.0440796529284615e+00 2.0176423280390992e+01 2.0976960396412490e+01 1 -1 0
3573 1 1.0553470008216062e+01 1.4106403259102109e+01 2.0764857187551414e+01 0 0 0
6645 1 1.0076672242162704e+01 7.4042345262511393e+00 2.3986952044088454e+01 0 0 0
1624 1 1.2314432691929285e+01 8.7168758950647263e+00 1.7121565757961822e+01 0 -1 0
5282 1 1.0724098077463404e+00 2.2548287087732337e+01 2.3433755696571147e+01 2 0 0
97 1 2.9084847677574270e+00 1.6530259109258747e+01 2.3804694994720041e+01 2 0 1
1422 1 1.8934739244243075e+00 1.2003122104571739e+01 2.3850392966111766e+01 2 1 1
5052 1 6.0325341896439699e-01 9.6716109660944056e+00 1.4473743049742239e+01 -2 6 1
1979 1 1.2258136589033708e+01 1.6626581273255784e+01 2.3592282855808367e+01 6 -3 0
3286 1 1.1650239659598334e+01 1.1836064471994124e+01 2.3887010586903099e+01 0 0 1
196 1 5.0718124277885206e+00 8.7487674573356589e-01 2.3601883288128576e+01 -1 -4 0
618 2 2.7478679577415832e-01 3.0836565764822659e+00 2.6746450982181337e+01 0 0 0
620 2 2.7478679577415832e-01 2.7366819763370742e-01 2.6746450982181337e+01 0 0 0
622 2 1.4915474559857362e+00 9.7616529234584981e-01 2.6746450982181337e+01 0 0 0
629 2 1.4915474559857362e+00 2.3811594817701187e+00 2.6746450982181337e+01 0 0 0
631 2 2.7083081161973142e+00 3.0836565764822659e+00 2.6746450982181337e+01 0 0 0
633 2 2.7083081161973142e+00 2.7366819763370742e-01 2.6746450982181337e+01 0 0 0
635 2 3.9250687764084109e+00 9.7616529234584981e-01 2.6746450982181337e+01 0 0 0
650 2 3.9250687764084109e+00 2.3811594817701187e+00 2.6746450982181337e+01 0 0 0
652 2 5.1418294366204700e+00 3.0836565764822659e+00 2.6746450982181337e+01 0 0 0
654 2 5.1418294366204700e+00 2.7366819763370742e-01 2.6746450982181337e+01 0 0 0
656 2 6.3585900968314899e+00 9.7616529234584981e-01 2.6746450982181337e+01 0 0 0
679 2 6.3585900968314899e+00 2.3811594817701187e+00 2.6746450982181337e+01 0 0 0
681 2 7.5753507570426635e+00 3.0836565764822659e+00 2.6746450982181337e+01 0 0 0
683 2 7.5753507570426635e+00 2.7366819763370742e-01 2.6746450982181337e+01 0 0 0
685 2 8.7921114172514052e+00 9.7616529234584981e-01 2.6746450982181337e+01 0 0 0
716 2 8.7921114172514052e+00 2.3811594817701187e+00 2.6746450982181337e+01 0 0 0
718 2 1.0008872077466782e+01 3.0836565764822659e+00 2.6746450982181337e+01 0 0 0
720 2 1.0008872077466782e+01 2.7366819763370742e-01 2.6746450982181337e+01 0 0 0
722 2 1.1225632737680211e+01 9.7616529234584981e-01 2.6746450982181337e+01 0 0 0
761 2 1.1225632737680211e+01 2.3811594817701187e+00 2.6746450982181337e+01 0 0 0
763 2 1.2442393397888821e+01 3.0836565764822659e+00 2.6746450982181337e+01 0 0 0
765 2 1.2442393397888821e+01 2.7366819763370742e-01 2.6746450982181337e+01 0 0 0
1101 2 1.2442393397888821e+01 2.4158569417848415e+01 3.3315549017838649e+01 0 0 0
623 2 2.7478679577415832e-01 7.2986391447549614e+00 2.6746450982181337e+01 0 0 0
625 2 2.7478679577415832e-01 4.4886507659065300e+00 2.6746450982181337e+01 0 0 0
627 2 1.4915474559857362e+00 5.1911478606209451e+00 2.6746450982181337e+01 0 0 0
642 2 1.4915474559857362e+00 6.5961420500439125e+00 2.6746450982181337e+01 0 0 0
644 2 2.7083081161973142e+00 7.2986391447549614e+00 2.6746450982181337e+01 0 0 0
646 2 2.7083081161973142e+00 4.4886507659065300e+00 2.6746450982181337e+01 0 0 0
648 2 3.9250687764084109e+00 5.1911478606209451e+00 2.6746450982181337e+01 0 0 0
671 2 3.9250687764084109e+00 6.5961420500439125e+00 2.6746450982181337e+01 0 0 0
673 2 5.1418294366204700e+00 7.2986391447549614e+00 2.6746450982181337e+01 0 0 0
675 2 5.1418294366204700e+00 4.4886507659065300e+00 2.6746450982181337e+01 0 0 0
677 2 6.3585900968314899e+00 5.1911478606209451e+00 2.6746450982181337e+01 0 0 0
708 2 6.3585900968314899e+00 6.5961420500439125e+00 2.6746450982181337e+01 0 0 0
710 2 7.5753507570426635e+00 7.2986391447549614e+00 2.6746450982181337e+01 0 0 0
712 2 7.5753507570426635e+00 4.4886507659065300e+00 2.6746450982181337e+01 0 0 0
714 2 8.7921114172514052e+00 5.1911478606209451e+00 2.6746450982181337e+01 0 0 0
753 2 8.7921114172514052e+00 6.5961420500439125e+00 2.6746450982181337e+01 0 0 0
755 2 1.0008872077466782e+01 7.2986391447549614e+00 2.6746450982181337e+01 0 0 0
757 2 1.0008872077466782e+01 4.4886507659065300e+00 2.6746450982181337e+01 0 0 0
759 2 1.1225632737680211e+01 5.1911478606209451e+00 2.6746450982181337e+01 0 0 0
800 2 1.1225632737680211e+01 6.5961420500439125e+00 2.6746450982181337e+01 0 0 0
802 2 1.2442393397888821e+01 7.2986391447549614e+00 2.6746450982181337e+01 0 0 0
804 2 1.2442393397888821e+01 4.4886507659065300e+00 2.6746450982181337e+01 0 0 0
4825 1 1.2168315537762693e+01 2.4238466794291739e+01 3.5660580579941787e+01 3 -1 0
1620 1 8.1986882334352114e+00 7.8878650900371721e+00 3.5930512289884255e+01 2 0 0
636 2 2.7478679577415832e-01 1.1513621713027941e+01 2.6746450982181337e+01 0 0 0
638 2 2.7478679577415832e-01 8.7036333341793526e+00 2.6746450982181337e+01 0 0 0
640 2 1.4915474559857362e+00 9.4061304288978018e+00 2.6746450982181337e+01 0 0 0
663 2 1.4915474559857362e+00 1.0811124618316775e+01 2.6746450982181337e+01 0 0 0
665 2 2.7083081161973142e+00 1.1513621713027941e+01 2.6746450982181337e+01 0 0 0
667 2 2.7083081161973142e+00 8.7036333341793526e+00 2.6746450982181337e+01 0 0 0
669 2 3.9250687764084109e+00 9.4061304288978018e+00 2.6746450982181337e+01 0 0 0
700 2 3.9250687764084109e+00 1.0811124618316775e+01 2.6746450982181337e+01 0 0 0
3038 1 4.5858062952839296e+00 1.8697662776732766e+01 2.4260835929520237e+01 0 -1 1
702 2 5.1418294366204700e+00 1.1513621713027941e+01 2.6746450982181337e+01 0 0 0
704 2 5.1418294366204700e+00 8.7036333341793526e+00 2.6746450982181337e+01 0 0 0
706 2 6.3585900968314899e+00 9.4061304288978018e+00 2.6746450982181337e+01 0 0 0
745 2 6.3585900968314899e+00 1.0811124618316775e+01 2.6746450982181337e+01 0 0 0
747 2 7.5753507570426635e+00 1.1513621713027941e+01 2.6746450982181337e+01 0 0 0
749 2 7.5753507570426635e+00 8.7036333341793526e+00 2.6746450982181337e+01 0 0 0
751 2 8.7921114172514052e+00 9.4061304288978018e+00 2.6746450982181337e+01 0 0 0
792 2 8.7921114172514052e+00 1.0811124618316775e+01 2.6746450982181337e+01 0 0 0
794 2 1.0008872077466782e+01 1.1513621713027941e+01 2.6746450982181337e+01 0 0 0
796 2 1.0008872077466782e+01 8.7036333341793526e+00 2.6746450982181337e+01 0 0 0
798 2 1.1225632737680211e+01 9.4061304288978018e+00 2.6746450982181337e+01 0 0 0
839 2 1.1225632737680211e+01 1.0811124618316775e+01 2.6746450982181337e+01 0 0 0
841 2 1.2442393397888821e+01 1.1513621713027941e+01 2.6746450982181337e+01 0 0 0
843 2 1.2442393397888821e+01 8.7036333341793526e+00 2.6746450982181337e+01 0 0 0
1963 1 9.2961713846110250e+00 2.3956788088845542e+00 2.4248086071536868e+01 -1 3 0
657 2 2.7478679577415832e-01 1.5728604281301982e+01 2.6746450982181337e+01 0 0 0
659 2 2.7478679577415832e-01 1.2918615902454118e+01 2.6746450982181337e+01 0 0 0
661 2 1.4915474559857362e+00 1.3621112997160381e+01 2.6746450982181337e+01 0 0 0
692 2 1.4915474559857362e+00 1.5026107186586316e+01 2.6746450982181337e+01 0 0 0
694 2 2.7083081161973142e+00 1.5728604281301982e+01 2.6746450982181337e+01 0 0 0
696 2 2.7083081161973142e+00 1.2918615902454118e+01 2.6746450982181337e+01 0 0 0
698 2 3.9250687764084109e+00 1.3621112997160381e+01 2.6746450982181337e+01 0 0 0
737 2 3.9250687764084109e+00 1.5026107186586316e+01 2.6746450982181337e+01 0 0 0
739 2 5.1418294366204700e+00 1.5728604281301982e+01 2.6746450982181337e+01 0 0 0
741 2 5.1418294366204700e+00 1.2918615902454118e+01 2.6746450982181337e+01 0 0 0
743 2 6.3585900968314899e+00 1.3621112997160381e+01 2.6746450982181337e+01 0 0 0
784 2 6.3585900968314899e+00 1.5026107186586316e+01 2.6746450982181337e+01 0 0 0
786 2 7.5753507570426635e+00 1.5728604281301982e+01 2.6746450982181337e+01 0 0 0
788 2 7.5753507570426635e+00 1.2918615902454118e+01 2.6746450982181337e+01 0 0 0
790 2 8.7921114172514052e+00 1.3621112997160381e+01 2.6746450982181337e+01 0 0 0
831 2 8.7921114172514052e+00 1.5026107186586316e+01 2.6746450982181337e+01 0 0 0
833 2 1.0008872077466782e+01 1.5728604281301982e+01 2.6746450982181337e+01 0 0 0
835 2 1.0008872077466782e+01 1.2918615902454118e+01 2.6746450982181337e+01 0 0 0
837 2 1.1225632737680211e+01 1.3621112997160381e+01 2.6746450982181337e+01 0 0 0
873 2 1.1225632737680211e+01 1.5026107186586316e+01 2.6746450982181337e+01 0 0 0
875 2 1.2442393397888821e+01 1.5728604281301982e+01 2.6746450982181337e+01 0 0 0
877 2 1.2442393397888821e+01 1.2918615902454118e+01 2.6746450982181337e+01 0 0 0
1100 2 1.1225632737680211e+01 2.3456072323136386e+01 3.3315549017838649e+01 0 0 0
686 2 2.7478679577415832e-01 1.9943586849582658e+01 2.6746450982181337e+01 0 0 0
688 2 2.7478679577415832e-01 1.7133598470724998e+01 2.6746450982181337e+01 0 0 0
690 2 1.4915474559857362e+00 1.7836095565434189e+01 2.6746450982181337e+01 0 0 0
729 2 1.4915474559857362e+00 1.9241089754865747e+01 2.6746450982181337e+01 0 0 0
731 2 2.7083081161973142e+00 1.9943586849582658e+01 2.6746450982181337e+01 0 0 0
733 2 2.7083081161973142e+00 1.7133598470724998e+01 2.6746450982181337e+01 0 0 0
735 2 3.9250687764084109e+00 1.7836095565434189e+01 2.6746450982181337e+01 0 0 0
776 2 3.9250687764084109e+00 1.9241089754865747e+01 2.6746450982181337e+01 0 0 0
1070 2 6.3585900968314899e+00 2.3456072323136386e+01 3.3315549017838649e+01 0 0 0
778 2 5.1418294366204700e+00 1.9943586849582658e+01 2.6746450982181337e+01 0 0 0
780 2 5.1418294366204700e+00 1.7133598470724998e+01 2.6746450982181337e+01 0 0 0
782 2 6.3585900968314899e+00 1.7836095565434189e+01 2.6746450982181337e+01 0 0 0
823 2 6.3585900968314899e+00 1.9241089754865747e+01 2.6746450982181337e+01 0 0 0
825 2 7.5753507570426635e+00 1.9943586849582658e+01 2.6746450982181337e+01 0 0 0
827 2 7.5753507570426635e+00 1.7133598470724998e+01 2.6746450982181337e+01 0 0 0
1592 1 8.4057519506027329e+00 5.1101357841435480e+00 2.4143828849820142e+01 2 3 1
829 2 8.7921114172514052e+00 1.7836095565434189e+01 2.6746450982181337e+01 0 0 0
865 2 8.7921114172514052e+00 1.9241089754865747e+01 2.6746450982181337e+01 0 0 0
867 2 1.0008872077466782e+01 1.9943586849582658e+01 2.6746450982181337e+01 0 0 0
869 2 1.0008872077466782e+01 1.7133598470724998e+01 2.6746450982181337e+01 0 0 0
871 2 1.1225632737680211e+01 1.7836095565434189e+01 2.6746450982181337e+01 0 0 0
899 2 1.1225632737680211e+01 1.9241089754865747e+01 2.6746450982181337e+01 0 0 0
903 2 1.2442393397888821e+01 1.7133598470724998e+01 2.6746450982181337e+01 0 0 0
1087 2 8.7921114172514052e+00 2.3456072323136386e+01 3.3315549017838649e+01 0 0 0
723 2 2.7478679577415832e-01 2.4158569417848415e+01 2.6746450982181337e+01 0 0 0
725 2 2.7478679577415832e-01 2.1348581038999843e+01 2.6746450982181337e+01 0 0 0
727 2 1.4915474559857362e+00 2.2051078133708792e+01 2.6746450982181337e+01 0 0 0
768 2 1.4915474559857362e+00 2.3456072323136386e+01 2.6746450982181337e+01 0 0 0
770 2 2.7083081161973142e+00 2.4158569417848415e+01 2.6746450982181337e+01 0 0 0
772 2 2.7083081161973142e+00 2.1348581038999843e+01 2.6746450982181337e+01 0 0 0
774 2 3.9250687764084109e+00 2.2051078133708792e+01 2.6746450982181337e+01 0 0 0
815 2 3.9250687764084109e+00 2.3456072323136386e+01 2.6746450982181337e+01 0 0 0
1597 1 4.4288106346522227e+00 3.6007693070945548e+00 2.4020719693802622e+01 4 2 0