LAMMPS data file via write_data, version 16 Mar 2018, timestep = 6000000

6750 atoms
2 atom types

0.0000000000000000e+00 4.9219999999999999e+01 xlo xhi
0.0000000000000000e+00 4.9019635930410494e+01 ylo yhi
3.8392802426139028e-01 5.9678071975730958e+01 zlo zhi

Masses

1 18.015
2 12.01

Atoms # atomic

5603 1 2.0438163915186611e+00 3.6587061440767328e+00 2.5352213962749448e+00 0 4 0
269 1 8.6152394793650444e-01 1.8309269692516179e+00 1.6324089140566447e+00 0 -2 0
1554 1 4.4983190101225041e+00 3.1599997580198904e+00 1.6892081698171908e+00 0 2 1
1356 1 5.5852069545955612e+00 4.9677282124058852e-01 5.1927271331732499e+00 1 1 1
2042 1 9.4846881466504946e+00 1.5123545530445099e+00 2.7619158870191334e+00 1 2 0
223 1 1.1981461501454108e+01 1.7436242792959000e+01 1.4905663704302510e+00 -1 1 1
4740 1 1.6895278709787489e+00 6.0613947655817029e+00 1.4125353102363929e+00 2 -2 1
5659 1 3.6006821429466473e+00 7.8393401160903693e+00 2.2403090330497282e+00 0 0 1
3502 1 6.5900547961741189e+00 4.9200309923546763e+00 2.3970015910611888e+00 1 0 1
6566 1 6.2789274047613555e+00 7.3834564053024394e+00 1.6592269776590090e+00 -4 0 0
5201 1 8.8741958861729735e+00 3.8918527185095178e+00 1.6387664623020903e+00 0 0 0
1308 1 1.0557993950328022e+01 5.8346951448199027e+00 2.7562394187185730e+00 -1 -1 1
3049 1 2.6266292002019069e+00 1.0345260488430418e+01 1.5022141789305179e+00 0 2 1
4795 1 6.7564071881288319e+00 2.0652635680150290e+01 1.0021139168166922e+01 -1 1 1
3566 1 7.7978231519028860e+00 9.3702647429241637e+00 2.4689786300457079e+00 0 -4 0
439 1 6.8568524599809848e+00 1.1372611591110472e+01 1.3571368440455762e+00 1 1 0
1343 1 1.0191259350436619e+01 8.5320617578767468e+00 2.2164134216342184e+00 -1 0 1
1892 1 1.1757004901497350e+01 1.0405442823751198e+01 2.6785799187868400e+00 1 3 0
3031 1 1.4902724385396342e+00 1.5211026851980513e+01 2.4264258680668012e+00 -2 1 1
383 1 3.9594964007838858e+00 1.4757907797997952e+01 1.1379514920441611e+00 2 2 0
6745 1 4.4342700104184507e+00 1.2315478256141745e+01 1.9440992437863334e+00 2 5 0
4959 1 7.7331242436460599e+00 1.6212309113236145e+01 1.2407267422484269e+00 -3 0 1
5085 1 8.3859182965539638e+00 1.3462071033500820e+01 2.1655110307865302e+00 2 1 1
3732 1 1.1010961246321761e+01 1.2938652368040032e+01 1.7803748813265639e+00 1 0 0
3632 1 2.6656840818740291e+00 2.0100737954685123e+01 2.7856614738625787e+00 2 -1 0
4709 1 9.1817376973479436e-01 1.7712424381250628e+01 1.3628756868971621e+00 -1 -1 1
487 1 5.4597126085376901e+00 1.6715591860962476e+01 2.0333499218263702e+00 1 2 0
3598 1 4.8805342284561117e+00 1.9115498224879055e+01 1.4463104445517003e+00 1 1 1
2080 1 3.2186815323699576e+00 2.4238141024092009e+01 2.7751810699723021e+00 2 -1 0
2081 1 9.4396564818414550e+00 1.8078130088233603e+01 2.3243799148997635e+00 -1 2 0
3068 1 8.8964062536155275e+00 2.0489363714844920e+01 1.6205231542316509e+00 2 3 1
3485 1 1.7635157172289329e+00 2.2476999838282946e+01 1.5339233116234048e+00 2 1 0
3900 1 1.5786111802101813e-01 1.1153232165468062e+01 5.0691970548293952e+00 -1 -3 1
2181 1 6.6083105434867733e+00 2.1118648993867442e+01 2.3145085521360702e+00 0 0 0
3901 1 5.6892245393179168e+00 2.3716822280373268e+01 1.9670247279600903e+00 -2 1 1
6659 1 1.0485285640455801e+01 2.2575241899918858e+01 2.4538811845242745e+00 -1 3 1
5203 1 2.2974653302966241e+00 3.3021212992139000e+00 5.3170050287962631e+00 -1 2 0
1672 1 6.2177229760784514e-01 1.4795139715138903e+00 6.3609435254800992e+00 -1 1 0
3060 1 4.8584265735867449e+00 2.9910747164947629e+00 6.2278952834517742e+00 3 0 1
6727 1 3.6162036487709864e-01 1.0995132752993607e+01 2.3086942742635399e+00 1 -3 1
3363 1 9.8795202195880769e+00 1.6733844915505101e+00 5.4943044277979327e+00 0 1 0
5122 1 1.2010795356175889e+01 1.7235126868140068e+01 8.9186640153326717e+00 0 3 0
5351 1 1.6544110114936836e+00 5.9029751884994619e+00 5.8746988381324314e+00 1 1 0
3085 1 3.0888697807674070e+00 7.9697858973299045e+00 5.0395118965710939e+00 1 1 1
330 1 6.5432420205594015e+00 4.8766916078118712e+00 5.3250138617324598e+00 0 0 0
3011 1 5.6337599311454198e+00 7.3646135863933404e+00 5.9747933581109578e+00 -1 0 1
287 1 8.8542669718778324e+00 4.0842409928942471e+00 6.2769211536676357e+00 -1 2 0
2217 1 1.0750820387999820e+01 5.7899843173143415e+00 5.3905441883481844e+00 4 3 1
482 1 2.7657993780040346e+00 1.0445122980000958e+01 5.8141656324742401e+00 2 3 1
6685 1 1.6438798181675769e+00 2.1705886819710344e+01 8.9218596568713355e+00 -2 2 1
3081 1 7.6249395184963387e+00 9.1080550312738335e+00 5.2445395978764635e+00 0 1 1
3026 1 6.7151090973928902e+00 1.1452283985282842e+01 5.9269269920384513e+00 3 -2 1
2316 1 9.9374743295025194e+00 8.3818927919233222e+00 6.3536664138199175e+00 -1 0 0
1899 1 1.1710674282860079e+01 1.0471923738203184e+01 5.3999327538143067e+00 1 2 1
4998 1 1.3212766452179137e+00 1.5209965817957407e+01 5.2528442470797740e+00 3 1 1
5392 1 3.8920657210311087e+00 1.4442397309234657e+01 5.8995618477881990e+00 1 1 0
34 1 4.3895793016547806e+00 1.2065953143841197e+01 4.8087742069695913e+00 1 -1 0
366 1 7.6814211041383080e+00 1.6069195510631651e+01 6.0120743840803481e+00 2 2 0
2262 1 8.4195807614924298e+00 1.3499885528140554e+01 4.8597167818089613e+00 1 -2 1
408 1 1.0636995166941741e+01 1.2857894683841572e+01 5.9226190479235408e+00 2 2 0
5079 1 2.3311856858818927e+00 1.9740892252064238e+01 5.2285850363202551e+00 -1 2 0
3023 1 5.8159960142860512e-01 1.7592879761138121e+01 5.8697191333104630e+00 -1 1 1
3123 1 5.3151420299234395e+00 1.6618782049564683e+01 4.9554619027682243e+00 3 1 1
6391 1 4.8606058304368389e+00 1.9114132691017158e+01 6.2905397858650671e+00 -1 -2 1
608 1 9.6534913095803958e+00 1.8004442295790579e+01 5.1253530400483660e+00 0 1 0
1699 1 5.4412158853625954e+00 6.7220689587968252e-01 2.5699042437637130e+00 0 0 1
5627 1 3.2758662716104729e+00 2.4122319316888163e+01 5.5668420413790187e+00 -1 -3 0
2226 1 1.3467951111712411e+00 2.2050855095510443e+01 6.2380421278975806e+00 -3 2 0
2322 1 6.3930838320367567e+00 2.0962309353055339e+01 5.0161322475779375e+00 -2 2 1
5218 1 5.8277123890159821e+00 2.3413847640636110e+01 6.2966592841571538e+00 2 -3 0
1933 1 8.8278543873102198e+00 2.0430887724453015e+01 6.2118229637183102e+00 2 -1 0
6472 1 1.0573277299820891e+01 2.2402359125685962e+01 5.2381931793122645e+00 5 0 1
4877 1 2.2607859872965608e+00 3.4987901335957243e+00 9.9112656241533958e+00 0 -1 1
3308 1 7.1094830786910357e-01 1.4740411849083583e+00 9.0951407949178673e+00 1 -1 0
5334 1 4.8356355472700399e+00 2.9236686238500074e+00 8.9036518584718749e+00 1 0 0
4908 1 9.8212673227511171e+00 1.8056128302902374e+00 9.4835286921895960e+00 2 0 1
4970 1 9.0160840298786642e+00 4.4101569255870734e+00 8.9749120512335310e+00 -1 1 1
6546 1 1.5998323891181243e+00 6.0635527595842102e+00 8.6850077097264649e+00 1 -1 1
371 1 3.4125769934279702e+00 7.6287906362748332e+00 9.5623387864287377e+00 2 2 0
6664 1 6.7021696490646194e+00 5.0555177877280704e+00 9.6931886660289592e+00 0 -1 1
4761 1 6.0496629906167385e+00 7.2571433310388151e+00 8.7437311635134023e+00 1 1 1
4769 1 1.0856555328538828e+01 6.2619678168713140e+00 9.9845549166699676e+00 2 3 1
3270 1 1.0466451529268832e+01 2.2221618856207151e+01 9.9946603953220237e+00 0 -1 1
3339 1 2.5381345857658797e+00 1.0127447857344062e+01 8.6660746096727230e+00 3 0 1
5634 1 7.8342219609734283e+00 9.2754947483019912e+00 9.9463038065021347e+00 -1 2 0
5119 1 6.8532567319634001e+00 1.1571588871225750e+01 8.9462169985441111e+00 1 2 0
5239 1 4.3518392011774498e+00 1.1999887360673275e+01 9.5899111471285341e+00 2 1 0
2309 1 1.0063499669903644e+01 8.5522740115186728e+00 9.0438610197766653e+00 1 1 1
3260 1 1.1676675822567102e+01 1.0735333542751809e+01 9.9061220313527940e+00 1 2 1
3823 1 1.1237096295188163e+00 1.5049218471430931e+01 9.5876153871200582e+00 1 1 1
1542 1 3.7266526734045256e+00 1.4496550059996824e+01 8.6902656281272268e+00 2 2 1
3777 1 1.2245314333505650e+01 8.1636750677164494e-01 8.7902737103430209e+00 0 -1 0
3295 1 7.7557728453878862e+00 1.6026024242686816e+01 8.7380915217760293e+00 -1 4 0
6501 1 8.5581718262632940e+00 1.3688656356075887e+01 9.9256031759521122e+00 4 0 0
498 1 1.1007652404027739e+01 1.3052259090562076e+01 8.8220304567328451e+00 2 0 0
4862 1 5.7836381310972751e+00 2.3220213015421024e+01 8.8378484197269191e+00 -1 4 1
6353 1 2.4242156285484069e+00 1.9021243838687024e+01 9.6803315044393461e+00 5 2 1
1 1 2.3914332542091149e-01 1.7384315850333000e+01 8.8511391821862535e+00 3 -2 0
4974 1 5.3247973943096323e+00 1.6675751439851325e+01 9.9096483797793784e+00 0 -1 1
396 1 4.9829635490387725e+00 1.8927512289480440e+01 8.9181203833480609e+00 -1 0 0
6590 1 9.0881048855921414e+00 2.0228261305620784e+01 8.8609215455268515e+00 0 0 1
6514 1 1.2187719040123573e+01 1.7741252210104534e+01 6.4156736511659398e+00 2 -1 1
3911 1 9.5140647295141232e+00 1.7836499841374213e+01 9.7233351658981775e+00 1 0 0
5447 1 3.0428884726456080e+00 2.3957210362780263e+01 9.2977325977896772e+00 -1 0 0
3419 1 5.3386692115854082e+00 5.6373990675577468e-01 9.6386415637579326e+00 1 0 0
13 1 2.0039096947867066e-01 1.1074938978414925e+01 9.6129300768813266e+00 -1 -1 1
5222 1 3.3431216394943677e+00 2.3895859652893897e+01 1.1973013692116419e+01 1 0 0
3507 1 1.2020905377638270e+01 1.2151437388007513e+00 1.7959852589846443e+00 2 1 0
3954 1 3.1414977091859324e+00 1.0143991823838903e+00 1.3466829748296993e+01 3 -2 1
5452 1 9.4243773717985597e+00 1.7943401105782140e+01 1.2498925059043346e+01 1 2 0
5656 1 7.0440579489243476e+00 2.2450906629326615e+00 1.3385752049621379e+01 0 2 1
3942 1 5.2722577905565746e+00 4.8424594830044282e-01 1.2354204780522842e+01 -1 1 1
1829 1 5.0600912101087197e+00 1.3222224567289231e-01 2.1364078492078242e+01 0 0 0
1915 1 1.1234293272152554e+01 3.7226788868988083e+00 1.3511075193948379e+01 0 1 1
2067 1 1.1222037269611437e+01 3.8505507746232395e+00 1.6177507521234027e+01 0 0 0
12 1 3.8817739982197716e+00 5.3172972254413571e+00 1.3578750415082535e+01 3 0 0
5661 1 8.3758907214263250e+00 1.3643546662398469e+01 1.2624882004247331e+01 3 -1 1
3861 1 4.1054997343402171e+00 5.3358751302241121e+00 1.6664765844797529e+01 -1 1 0
3165 1 3.4300619868266518e+00 7.7231312527215552e+00 1.2359245305486997e+01 1 3 1
4950 1 8.0036862854182012e+00 6.8375150549683461e+00 1.3533995695084355e+01 1 1 1
2079 1 2.2595709323256887e+00 1.9743823759466625e+01 1.2371556046025887e+01 -3 1 0
3781 1 1.2016022586129919e+01 1.4530441572168142e+00 1.7102605644632874e+01 0 0 0
3923 1 6.7300642904713037e-01 8.3054428659145749e+00 1.6090712013948938e+01 2 0 0
5098 1 8.6385779857561795e-01 8.3016419802750541e+00 1.3178327848327703e+01 0 1 0
5585 1 5.0430696248911051e+00 9.5860164477221872e+00 1.3133082995961903e+01 1 3 1
190 1 4.7088033493868009e+00 9.8097295532654876e+00 1.6285013583133264e+01 -1 -3 0
6455 1 1.9919850312527523e+00 1.9566718392850529e+01 2.0442824152938233e+01 1 -1 1
3046 1 9.0666912604571603e+00 1.1275652964033632e+01 1.3573254353007549e+01 1 -2 1
4698 1 6.3945097261212549e+00 4.9875043802198125e+00 1.2347286448781727e+01 1 0 1
3276 1 1.8759694730467149e+00 1.2756916841477334e+01 1.3074539251519209e+01 2 -1 1
2161 1 2.7080848900764920e-01 1.1081833309233772e+01 2.3437210655106870e+01 2 0 1
3705 1 1.6821108725895193e+00 1.2616556283557316e+01 1.5737556849221336e+01 -3 -2 0
3945 1 6.0791098601639657e+00 1.4318349171074095e+01 1.3373363622033546e+01 1 2 1
3728 1 5.5668719468939072e+00 1.3814391708522717e+01 1.5995633207701227e+01 2 0 1
3248 1 1.2028969667760814e+01 7.9784971570338614e+00 1.3562516679000359e+01 1 0 1
534 1 1.0286197331937943e+01 1.5644366716970469e+01 1.3536576681868704e+01 -1 -2 0
5187 1 2.9472539058691640e+00 1.7380924572035656e+01 1.3321240804194389e+01 0 1 0
4854 1 7.6540063558857234e+00 9.3700724394089665e+00 1.2583442765053425e+01 -1 -1 1
3864 1 2.3734946456149970e+00 1.7106969625289679e+01 1.6274035152953548e+01 0 0 0
3422 1 3.5285674049534765e-01 1.7700912747737402e+01 1.9655555618074384e+01 -1 -2 0
1459 1 7.2897447943520222e+00 1.8589140354611779e+01 1.3586057020829079e+01 0 -4 0
6682 1 7.0874398187166401e+00 1.8220065358786272e+01 1.6204250510484961e+01 -1 -1 0
160 1 1.1093569310951180e+01 1.9837321658489028e+01 1.3629827493414842e+01 1 -1 0
6574 1 1.1093140709118172e+01 1.9879013562582532e+01 1.6351460762236467e+01 -1 2 1
5548 1 1.1014649657335271e+00 1.5270493347526823e+01 1.2433437873834029e+01 1 0 1
3244 1 3.1094420470350288e+00 2.4120852261504883e+01 2.3549406469868856e+01 -1 0 1
3776 1 3.8964263094557987e+00 2.1563082563914797e+01 1.3301871831014552e+01 1 -1 0
1929 1 5.5001013729097599e+00 1.6246193839850012e+01 2.2904807406705977e+01 0 2 0
314 1 7.9838763988767569e+00 2.2959657514924483e+01 1.3616813566241623e+01 -5 0 0
274 1 7.9795818648896688e+00 2.2967102645261924e+01 1.6259632692983562e+01 0 0 0
4724 1 2.3583182461647896e+00 2.9379178723965866e+00 2.3205531020562059e+01 -1 1 1
2111 1 1.0001905888449476e+01 2.2545315005811126e+01 2.0646151664287732e+01 2 0 0
3968 1 2.8525883106839025e+00 7.5286928848584744e-01 1.6257477371098723e+01 -2 1 1
6534 1 6.8939779128633971e-01 1.7487455542624584e+00 1.7101092588086441e+01 -1 -1 1
3785 1 3.3386990014552942e+00 7.7460277969085709e+00 2.3152334908259252e+01 -2 3 0
3174 1 7.0416042128726692e+00 2.1282517087830248e+00 1.5932440029100903e+01 -1 1 1
1846 1 4.7073812369533679e+00 2.6717206794965920e+00 1.7278078607581620e+01 1 -1 1
3484 1 4.7780245857919796e+00 2.7338342175961050e+00 1.9778822125230896e+01 1 0 0
2314 1 1.8915468748375692e+00 3.5988451673829820e+00 1.2512818529967312e+01 1 1 1
75 1 5.3231216656357789e+00 1.6850402878438377e+01 1.2517989257070552e+01 0 -1 0
2058 1 8.6634874372892288e+00 4.1249142308158140e+00 1.7059464567980662e+01 3 6 0
6674 1 8.4578934208110681e+00 4.0000107366353337e+00 1.9593177435718438e+01 1 1 1
3374 1 1.4829042967333834e+00 5.8187127466791502e+00 1.7227016371513212e+01 0 -1 0
3669 1 1.9160413630628490e+00 5.7015832908061110e+00 1.9800279672106274e+01 1 3 1
2247 1 5.8084121227137109e+00 7.5807241128276983e+00 1.7426320493734373e+01 0 -1 1
3312 1 5.7739178388025429e+00 7.1486679536794666e+00 1.9929926525437285e+01 0 0 0
3122 1 8.0565461276506714e+00 6.7798474989272020e+00 1.6100786537845959e+01 1 0 1
6427 1 1.1932411737593419e+01 2.4103867935397744e+01 1.6265634408177050e+01 2 -3 1
3404 1 2.1984362484815798e+00 1.0371609570154568e+01 1.6982366023361472e+01 2 1 1
1686 1 2.2496227503937356e+00 1.0399410356968279e+01 1.9843110418084457e+01 1 -2 1
191 1 6.6106028959579293e+00 1.1838753590383993e+01 1.7265023188294343e+01 2 0 0
1313 1 6.3050837682105723e+00 1.1299122280271259e+01 1.9563998528181223e+01 2 -2 1
1427 1 8.9337494702879745e+00 1.1126980110549852e+01 1.6325626693247301e+01 2 1 1
2302 1 9.8229363977734767e+00 8.7262587546470449e+00 1.7420467458389467e+01 -1 1 1
3519 1 9.9048208558402546e+00 8.5391598496095984e+00 2.0080457657006420e+01 0 1 0
88 1 3.0899738316385474e+00 1.4570393783798361e+01 1.7067396786538893e+01 3 0 0
3360 1 3.3381352736632666e+00 1.4232660554228788e+01 1.9683390786710984e+01 3 3 0
3503 1 7.6539380896612998e+00 1.5632019617255574e+01 1.9580675381276187e+01 4 -2 0
3329 1 7.4051138509336694e+00 1.5650559422798775e+01 1.7070653887300672e+01 -1 0 1
1571 1 1.0040547033035439e+01 1.5564726216820780e+01 1.6479278374382496e+01 1 0 1
5261 1 1.0637881581593318e+01 1.2962819463059414e+01 1.6935232662195350e+01 2 0 1
6704 1 1.0833563789110265e+01 1.3045649272522732e+01 1.9811678137516633e+01 4 0 1
3768 1 3.4597455507920087e-02 1.8006809003469510e+01 1.6961099057226328e+01 0 -3 0
3251 1 1.2181859948989240e+01 8.3720814961102832e+00 1.6212996197684969e+01 2 1 1
2066 1 4.5778700810074149e+00 1.8838180582940076e+01 1.6916516879455401e+01 1 0 0
1357 1 4.5615446692569552e+00 1.8786514885366405e+01 1.9824217379793588e+01 1 0 1
1724 1 1.1871998916566726e+01 1.7415420873739716e+01 1.7416552008084714e+01 0 0 1
3506 1 8.4883045741264596e+00 2.0279007515782997e+01 1.9757744059701025e+01 1 -1 0
2159 1 1.1783907929914033e+01 1.7497716051643867e+01 2.0284825253704810e+01 2 -1 0
8 1 1.4937604802736038e+00 2.2138010901989013e+01 1.9437542428394984e+01 0 0 1
1321 1 1.6001202855707792e+00 2.2206874625778859e+01 1.6748603210004408e+01 -1 1 1
3902 1 3.9056472287045318e+00 2.1259232681035325e+01 1.5804537087864782e+01 1 2 0
3704 1 5.0633359003645060e+00 2.3575026411420179e+01 1.9808854194302224e+01 -1 -1 1
4770 1 5.3048163498665319e+00 2.3462508306102983e+01 1.6588175742842452e+01 -1 -2 1
1466 1 8.5311179563738300e+00 2.0248869996697895e+01 1.6903117454647568e+01 -2 4 1
4779 1 9.0814115683288499e+00 1.7581679203779892e+01 2.0631753291179283e+01 2 -1 1
1451 1 2.2430348544215359e+00 3.2837142293658279e+00 2.0464014863379163e+01 -3 -5 1
4995 1 1.0487608511096889e+01 2.2534921255136048e+01 2.3144740291922254e+01 3 1 0
1465 1 5.0995689201792294e+00 1.6121747650701732e+01 2.0217141835776022e+01 0 0 1
6500 1 1.0390875130694281e+01 2.2154757578598666e+01 1.2826036920474325e+01 0 1 1
1711 1 6.3701088211728916e+00 2.0714992469944828e+01 2.3347141467093074e+01 4 -1 0
27 1 9.4463212864888924e+00 1.7993012265762245e+00 2.3291200490789837e+01 1 0 0
6624 1 9.0744347205443425e+00 1.7250420629015706e+00 2.0458588935778689e+01 -2 0 1
3801 1 3.2555005685892011e+00 7.9555786772889387e+00 2.0553774459648796e+01 -1 -2 0
4816 1 1.2880208521338032e-01 1.0802746498152546e+01 1.2295578096307951e+01 -2 -1 1
3293 1 6.3451907488399781e+00 4.4719641662266838e+00 2.3513955712085771e+01 1 0 1
6630 1 6.2951263423869195e+00 4.6432342519811716e+00 2.0607881550960990e+01 0 0 0
5525 1 1.0368266720535244e+01 5.9759276017043721e+00 1.2640305563723587e+01 -1 4 0
3298 1 1.0223151643828258e+01 5.8703262337977700e+00 2.3213393034771549e+01 -2 2 0
3766 1 1.0038731530573308e+01 5.8651580036530326e+00 2.0582199382650003e+01 2 0 0
1802 1 1.1643855700689713e+01 1.2477116578031771e+00 1.9715213228525506e+01 0 0 1
3170 1 2.2110754674473010e+00 1.9630858468340136e+01 2.3150015606962203e+01 2 0 0
3880 1 7.3137118566915635e+00 9.0461674912616310e+00 2.0823811518280500e+01 1 0 0
1388 1 7.1320678990459845e+00 9.1664017307338383e+00 2.3697007354898556e+01 -1 1 1
6615 1 4.0936566401605718e+00 1.2103628848430860e+01 2.3570174123686709e+01 3 0 1
283 1 9.5071714312165483e+00 1.8154537657708552e+01 2.3529439735011380e+01 4 0 0
6522 1 1.1667738714592740e+01 1.0223284680644429e+01 2.2951704108281699e+01 1 -1 1
3867 1 1.1799594735506391e+01 1.0580838514884281e+01 2.0455322346932000e+01 2 -1 1
5433 1 1.1749749664360039e+00 1.4664596189669266e+01 2.3268020924410912e+01 1 -1 0
3729 1 1.1488146641550185e+00 1.5224414161847207e+01 2.0709640503966956e+01 0 2 0
50 1 6.0259410132391968e+00 2.1046686960756812e+01 2.0788456499866751e+01 -2 1 0
4685 1 4.0302591374345571e+00 1.1924344055113737e+01 2.0709757144224618e+01 1 -1 1
124 1 7.0667122749893796e-01 1.3308866278826534e+00 1.9703924809238817e+01 2 -3 0
4888 1 8.6409056182043535e+00 1.3249772244462607e+01 2.3212238708834182e+01 1 -3 1
5415 1 8.1031212894258751e+00 1.3078269235118459e+01 2.0570555263424147e+01 4 1 1
5350 1 9.5451599302909980e+00 1.7407520781431602e+00 1.2467390011270691e+01 2 1 0
5279 1 1.1687568214600434e+01 1.0701434166416689e+01 1.2672896748071656e+01 -1 3 0
1987 1 2.6039804172416792e-01 3.9676096403576260e+00 1.6034437502794926e+01 3 -2 0
6550 1 2.8018188570486915e+00 2.3979008722511548e+01 2.0817174505216887e+01 2 3 1
5256 1 8.1052812117284070e+00 1.5963467304994026e+01 2.3924555613146616e+01 0 2 0
3224 1 5.5757139169029184e+00 7.0039770807391655e+00 2.3719111088465944e+01 1 -1 1
3266 1 8.5641950667702127e-01 1.7283493194684688e+01 2.4076637410756607e+01 0 -1 0
5510 1 5.7580468660234043e+00 2.3233220207105823e+01 2.3941395367540583e+01 1 1 0
3840 1 6.4750117176628912e+00 2.1212922207389052e+01 1.2581154059393270e+01 -1 0 0
2046 1 1.1993009522641511e+01 2.4107465985116477e+01 1.3452536978594763e+01 2 0 0
242 1 1.8463856422508831e+00 5.6800981770481096e+00 2.3972048587453596e+01 2 1 0
562 1 1.1018057328326426e+01 1.2690598402818921e+01 2.3773260324653524e+01 0 0 1
3396 1 9.6822544290512393e+00 8.6435985186593918e+00 2.3769520643427057e+01 0 1 0
3553 1 4.4011418295149376e+00 1.2126183132492828e+01 1.2342656936750616e+01 1 3 0
3622 1 4.6581584974546582e+00 1.8486582337700160e+01 2.4088701000150333e+01 0 0 0
618 2 0.0000000000000000e+00 2.8417180249513345e+00 2.6807454162161800e+01 0 0 0
620 2 0.0000000000000000e+00 0.0000000000000000e+00 2.6807454162161800e+01 0 0 0
622 2 1.2305000000000001e+00 7.1042950623783474e-01 2.6807454162161800e+01 0 0 0
629 2 1.2305000000000001e+00 2.1312885187134998e+00 2.6807454162161800e+01 0 0 0
631 2 2.4610000000000003e+00 2.8417180249513345e+00 2.6807454162161800e+01 0 0 0
633 2 2.4610000000000003e+00 0.0000000000000000e+00 2.6807454162161800e+01 0 0 0
635 2 3.6915000000000004e+00 7.1042950623783474e-01 2.6807454162161800e+01 0 0 0
650 2 3.6914999999999996e+00 2.1312885187134998e+00 2.6807454162161800e+01 0 0 0
652 2 4.9220000000000006e+00 2.8417180249513332e+00 2.6807454162161800e+01 0 0 0
654 2 4.9220000000000006e+00 0.0000000000000000e+00 2.6807454162161800e+01 0 0 0
656 2 6.1524999999999999e+00 7.1042950623783407e-01 2.6807454162161800e+01 0 0 0
679 2 6.1524999999999999e+00 2.1312885187134989e+00 2.6807454162161800e+01 0 0 0
681 2 7.3829999999999991e+00 2.8417180249513345e+00 2.6807454162161800e+01 0 0 0
683 2 7.3829999999999991e+00 0.0000000000000000e+00 2.6807454162161800e+01 0 0 0
685 2 8.6134999999999984e+00 7.1042950623783407e-01 2.6807454162161800e+01 0 0 0
716 2 8.6134999999999984e+00 2.1312885187135002e+00 2.6807454162161800e+01 0 0 0
718 2 9.8440000000000012e+00 2.8417180249513332e+00 2.6807454162161800e+01 0 0 0
720 2 9.8440000000000012e+00 0.0000000000000000e+00 2.6807454162161800e+01 0 0 0
722 2 1.1074500000000002e+01 7.1042950623783330e-01 2.6807454162161800e+01 0 0 0
761 2 1.1074500000000002e+01 2.1312885187135002e+00 2.6807454162161800e+01 0 0 0
1100 2 1.1074500000000002e+01 2.3444173705848499e+01 3.3254545837819293e+01 0 0 0
623 2 0.0000000000000000e+00 7.1042950623783341e+00 2.6807454162161800e+01 0 0 0
625 2 0.0000000000000000e+00 4.2625770374269996e+00 2.6807454162161800e+01 0 0 0
627 2 1.2305000000000001e+00 4.9730065436648339e+00 2.6807454162161800e+01 0 0 0
642 2 1.2305000000000001e+00 6.3938655561404980e+00 2.6807454162161800e+01 0 0 0
644 2 2.4610000000000003e+00 7.1042950623783341e+00 2.6807454162161800e+01 0 0 0
646 2 2.4610000000000003e+00 4.2625770374269996e+00 2.6807454162161800e+01 0 0 0
648 2 3.6914999999999996e+00 4.9730065436648339e+00 2.6807454162161800e+01 0 0 0
671 2 3.6914999999999996e+00 6.3938655561404980e+00 2.6807454162161800e+01 0 0 0
1088 2 9.8440000000000012e+00 2.4154603212086336e+01 3.3254545837819293e+01 0 0 0
673 2 4.9220000000000006e+00 7.1042950623783341e+00 2.6807454162161800e+01 0 0 0
675 2 4.9220000000000006e+00 4.2625770374269978e+00 2.6807454162161800e+01 0 0 0
677 2 6.1524999999999999e+00 4.9730065436648339e+00 2.6807454162161800e+01 0 0 0
708 2 6.1524999999999999e+00 6.3938655561404980e+00 2.6807454162161800e+01 0 0 0
710 2 7.3830000000000009e+00 7.1042950623783341e+00 2.6807454162161800e+01 0 0 0
712 2 7.3829999999999991e+00 4.2625770374269996e+00 2.6807454162161800e+01 0 0 0
3086 1 8.7929702426270460e+00 3.9233472485680738e+00 2.4246966391993368e+01 1 -2 0
714 2 8.6135000000000002e+00 4.9730065436648339e+00 2.6807454162161800e+01 0 0 0
753 2 8.6135000000000002e+00 6.3938655561404980e+00 2.6807454162161800e+01 0 0 0
755 2 9.8440000000000012e+00 7.1042950623783341e+00 2.6807454162161800e+01 0 0 0
757 2 9.8440000000000012e+00 4.2625770374270004e+00 2.6807454162161800e+01 0 0 0
759 2 1.1074500000000002e+01 4.9730065436648339e+00 2.6807454162161800e+01 0 0 0
800 2 1.1074500000000002e+01 6.3938655561404980e+00 2.6807454162161800e+01 0 0 0
636 2 0.0000000000000000e+00 1.1366872099805333e+01 2.6807454162161800e+01 0 0 0
638 2 0.0000000000000000e+00 8.5251540748539991e+00 2.6807454162161800e+01 0 0 0
640 2 1.2305000000000001e+00 9.2355835810918343e+00 2.6807454162161800e+01 0 0 0
663 2 1.2305000000000001e+00 1.0656442593567498e+01 2.6807454162161800e+01 0 0 0
665 2 2.4610000000000003e+00 1.1366872099805333e+01 2.6807454162161800e+01 0 0 0
667 2 2.4610000000000003e+00 8.5251540748539991e+00 2.6807454162161800e+01 0 0 0
669 2 3.6915000000000004e+00 9.2355835810918343e+00 2.6807454162161800e+01 0 0 0
700 2 3.6914999999999996e+00 1.0656442593567499e+01 2.6807454162161800e+01 0 0 0
1087 2 8.6134999999999984e+00 2.3444173705848499e+01 3.3254545837819293e+01 0 0 0
702 2 4.9220000000000006e+00 1.1366872099805333e+01 2.6807454162161800e+01 0 0 0
704 2 4.9220000000000006e+00 8.5251540748539991e+00 2.6807454162161800e+01 0 0 0
706 2 6.1524999999999999e+00 9.2355835810918343e+00 2.6807454162161800e+01 0 0 0
745 2 6.1524999999999999e+00 1.0656442593567499e+01 2.6807454162161800e+01 0 0 0
747 2 7.3829999999999991e+00 1.1366872099805333e+01 2.6807454162161800e+01 0 0 0
749 2 7.3830000000000009e+00 8.5251540748539991e+00 2.6807454162161800e+01 0 0 0
751 2 8.6134999999999984e+00 9.2355835810918343e+00 2.6807454162161800e+01 0 0 0
792 2 8.6134999999999984e+00 1.0656442593567498e+01 2.6807454162161800e+01 0 0 0
794 2 9.8440000000000012e+00 1.1366872099805333e+01 2.6807454162161800e+01 0 0 0
796 2 9.8440000000000012e+00 8.5251540748539956e+00 2.6807454162161800e+01 0 0 0
798 2 1.1074500000000002e+01 9.2355835810918343e+00 2.6807454162161800e+01 0 0 0
839 2 1.1074500000000002e+01 1.0656442593567498e+01 2.6807454162161800e+01 0 0 0
841 2 1.2304999999999998e+01 1.1366872099805333e+01 2.6807454162161800e+01 0 0 0
5069 1 1.1926693651163363e+01 1.4463238344886158e+00 2.4124826810362411e+01 2 2 0
657 2 0.0000000000000000e+00 1.5629449137232333e+01 2.6807454162161800e+01 0 0 0
659 2 0.0000000000000000e+00 1.2787731112280996e+01 2.6807454162161800e+01 0 0 0
661 2 1.2305000000000001e+00 1.3498160618518829e+01 2.6807454162161800e+01 0 0 0
692 2 1.2305000000000001e+00 1.4919019630994494e+01 2.6807454162161800e+01 0 0 0
694 2 2.4610000000000003e+00 1.5629449137232328e+01 2.6807454162161800e+01 0 0 0
696 2 2.4610000000000003e+00 1.2787731112280996e+01 2.6807454162161800e+01 0 0 0
698 2 3.6915000000000004e+00 1.3498160618518829e+01 2.6807454162161800e+01 0 0 0
737 2 3.6915000000000004e+00 1.4919019630994494e+01 2.6807454162161800e+01 0 0 0
739 2 4.9220000000000006e+00 1.5629449137232333e+01 2.6807454162161800e+01 0 0 0
741 2 4.9220000000000006e+00 1.2787731112280996e+01 2.6807454162161800e+01 0 0 0
743 2 6.1524999999999990e+00 1.3498160618518829e+01 2.6807454162161800e+01 0 0 0
784 2 6.1524999999999990e+00 1.4919019630994494e+01 2.6807454162161800e+01 0 0 0
786 2 7.3829999999999991e+00 1.5629449137232333e+01 2.6807454162161800e+01 0 0 0
788 2 7.3829999999999991e+00 1.2787731112280996e+01 2.6807454162161800e+01 0 0 0
790 2 8.6135000000000002e+00 1.3498160618518835e+01 2.6807454162161800e+01 0 0 0
831 2 8.6135000000000002e+00 1.4919019630994494e+01 2.6807454162161800e+01 0 0 0
833 2 9.8440000000000012e+00 1.5629449137232328e+01 2.6807454162161800e+01 0 0 0
835 2 9.8440000000000012e+00 1.2787731112280996e+01 2.6807454162161800e+01 0 0 0
837 2 1.1074500000000002e+01 1.3498160618518829e+01 2.6807454162161800e+01 0 0 0
873 2 1.1074500000000002e+01 1.4919019630994494e+01 2.6807454162161800e+01 0 0 0
3084 1 9.3812987472935960e-01 1.1240390336568476e+01 3.5891566167670021e+01 -1 2 0
1090 2 1.1074500000000002e+01 2.2023314693372832e+01 3.3254545837819293e+01 0 0 0
686 2 0.0000000000000000e+00 1.9892026174659328e+01 2.6807454162161800e+01 0 0 0
688 2 0.0000000000000000e+00 1.7050308149707998e+01 2.6807454162161800e+01 0 0 0
690 2 1.2305000000000001e+00 1.7760737655945832e+01 2.6807454162161800e+01 0 0 0
729 2 1.2305000000000001e+00 1.9181596668421495e+01 2.6807454162161800e+01 0 0 0
731 2 2.4610000000000003e+00 1.9892026174659328e+01 2.6807454162161800e+01 0 0 0
733 2 2.4610000000000003e+00 1.7050308149707998e+01 2.6807454162161800e+01 0 0 0
735 2 3.6914999999999996e+00 1.7760737655945832e+01 2.6807454162161800e+01 0 0 0
776 2 3.6914999999999996e+00 1.9181596668421495e+01 2.6807454162161800e+01 0 0 0
778 2 4.9220000000000006e+00 1.9892026174659328e+01 2.6807454162161800e+01 0 0 0
780 2 4.9220000000000006e+00 1.7050308149707998e+01 2.6807454162161800e+01 0 0 0
782 2 6.1524999999999999e+00 1.7760737655945832e+01 2.6807454162161800e+01 0 0 0
823 2 6.1524999999999999e+00 1.9181596668421495e+01 2.6807454162161800e+01 0 0 0
825 2 7.3829999999999991e+00 1.9892026174659328e+01 2.6807454162161800e+01 0 0 0
827 2 7.3830000000000009e+00 1.7050308149707998e+01 2.6807454162161800e+01 0 0 0
4821 1 6.7340099065174890e+00 1.1656684477700290e+01 2.4345410064026279e+01 1 0 1
829 2 8.6134999999999984e+00 1.7760737655945832e+01 2.6807454162161800e+01 0 0 0
865 2 8.6135000000000002e+00 1.9181596668421495e+01 2.6807454162161800e+01 0 0 0
867 2 9.8440000000000012e+00 1.9892026174659335e+01 2.6807454162161800e+01 0 0 0
869 2 9.8440000000000012e+00 1.7050308149707998e+01 2.6807454162161800e+01 0 0 0
871 2 1.1074500000000002e+01 1.7760737655945835e+01 2.6807454162161800e+01 0 0 0
899 2 1.1074500000000002e+01 1.9181596668421495e+01 2.6807454162161800e+01 0 0 0
903 2 1.2304999999999998e+01 1.7050308149707998e+01 2.6807454162161800e+01 0 0 0
3238 1 8.7496604161278171e+00 2.0574665492715912e+01 2.4197921580982559e+01 0 2 1
723 2 0.0000000000000000e+00 2.4154603212086325e+01 2.6807454162161800e+01 0 0 0
725 2 0.0000000000000000e+00 2.1312885187134999e+01 2.6807454162161800e+01 0 0 0
727 2 1.2304999999999993e+00 2.2023314693372832e+01 2.6807454162161800e+01 0 0 0
768 2 1.2304999999999993e+00 2.3444173705848499e+01 2.6807454162161800e+01 0 0 0
770 2 2.4610000000000003e+00 2.4154603212086325e+01 2.6807454162161800e+01 0 0 0
772 2 2.4610000000000003e+00 2.1312885187134995e+01 2.6807454162161800e+01 0 0 0
774 2 3.6914999999999996e+00 2.2023314693372832e+01 2.6807454162161800e+01 0 0 0
815 2 3.6915000000000004e+00 2.3444173705848499e+01 2.6807454162161800e+01 0 0 0
817 2 4.9220000000000006e+00 2.4154603212086325e+01 2.6807454162161800e+01 0 0 0
819 2 4.9220000000000006e+00 2.1312885187134995e+01 2.6807454162161800e+01 0 0 0
821 2 6.1524999999999990e+00 2.2023314693372832e+01 2.6807454162161800e+01 0 0 0