LAMMPS data file via write_data, version 16 Mar 2018, timestep = 6000000

6489 atoms
2 atom types

0.0000000000000000e+00 4.9219999999999999e+01 xlo xhi
0.0000000000000000e+00 4.9019635930410494e+01 ylo yhi
6.1404401559406097e-01 5.9447955984398682e+01 zlo zhi

Masses

1 18.015
2 12.01

Atoms # atomic

3588 1 2.8802493661404260e+00 1.6913487245897287e+00 2.7449717428861335e+00 1 1 0
2933 1 6.0630917228908503e+00 9.9483116137167968e+00 5.5593621328577667e+00 -2 0 1
5440 1 7.2060312862224913e+00 2.0826794885273969e+00 2.4993270564097885e+00 2 0 1
523 1 5.0558191038782416e+00 4.7333217122461313e-01 1.8441625719418842e+00 -1 1 1
1326 1 9.7134941683523834e+00 1.3918270908306751e+00 1.4250562723924578e+00 0 0 1
416 1 1.1767698264882023e+01 3.0161125111575080e+00 2.6042987535273259e+00 1 -2 0
1972 1 2.4634752656541310e+00 4.1858337009282209e+00 1.9820695655626521e+00 0 -1 0
5167 1 1.1117295016929832e+01 1.0207982129378584e+01 4.8201615330701300e+00 1 -1 0
1641 1 1.1122241619120242e+01 7.7479884749948553e+00 6.2841646158169997e+00 -2 2 1
5431 1 4.7502136137526101e+00 5.7052421610841160e+00 2.4977288205843715e+00 0 -2 1
3109 1 6.9873160122976570e+00 4.5800808723135003e+00 1.8033399286828899e+00 1 0 1
1318 1 8.9777724193288915e+00 6.0166647137390186e+00 2.5327770496536020e+00 0 1 1
6402 1 1.1329029563730723e+01 5.5159878066080932e+00 1.4646882170342086e+00 0 0 1
3048 1 1.8919602968158236e+00 9.4865560241733320e+00 2.4058806340367154e+00 3 1 1
4679 1 1.8731356578713756e+00 1.2073907848922037e+01 1.7639826109136458e+00 -1 1 1
4781 1 4.2109144253565276e+00 8.3121118455912075e+00 1.7435811261798053e+00 0 0 1
6360 1 6.2043073835681870e+00 9.9100074081261340e+00 2.9595342063115173e+00 2 1 1
4663 1 1.1258968956536441e+01 9.6883955087391485e+00 2.2107464425678574e+00 0 1 1
3466 1 8.5771318633313243e+00 8.8112933047442024e+00 2.1638943469921967e+00 2 -1 0
4800 1 2.8988093815120823e+00 1.3801290190431532e+00 5.4171072476107174e+00 0 2 1
5294 1 3.7092120723055944e+00 1.0887490556074351e+01 6.5217660171229506e+00 -1 2 0
2212 1 4.9170526498043836e+00 3.1413294772634548e+00 6.2680716361116877e+00 -1 0 0
2188 1 7.3662272380056066e+00 2.0906363390468816e+00 5.4518181499680525e+00 2 0 1
5404 1 8.7638317975001350e+00 6.5824303701938049e+00 5.2759811998219055e+00 -2 -1 1
4947 1 1.1729453231417200e+01 2.9604166594827390e+00 5.2482342082226268e+00 0 -1 0
6214 1 9.2184491182539166e+00 3.8916595842919115e+00 6.1834180780539647e+00 0 3 1
5157 1 2.2805850857168588e+00 6.4036084472391837e+00 6.0992045179934165e+00 1 1 0
455 1 1.9634576255286311e+00 8.9789363555826061e+00 5.3618836853268173e+00 2 0 0
3559 1 4.6431574063106851e+00 5.6101296827353462e+00 5.2414146905268435e+00 1 2 0
1607 1 6.4704076502712358e+00 7.3175463227045876e+00 6.3089996966894448e+00 1 1 1
1263 1 4.9314595709487541e-01 2.3439831493229732e+00 6.5974240908872472e+00 -1 1 1
1505 1 1.2158668679733276e+01 3.1904896027716095e-01 5.9257801797655212e+00 1 1 1
6423 1 3.0500454487891204e-01 4.9274314853954380e+00 5.5993286439846628e+00 2 0 1
119 1 7.5362252605553701e+00 1.2040936320716392e+01 6.6281946875090814e+00 1 0 0
45 1 6.6272137016486876e-01 1.0870720240216514e-01 2.0338992954097943e+00 1 0 1
5212 1 2.7555132077249169e+00 1.7364880747249003e+00 9.9725150662215469e+00 0 0 0
4510 1 1.1651859073977075e+01 4.5452705055286807e-01 1.3560704119307971e+01 1 1 1
4744 1 4.5801819287584467e+00 3.3758502060976081e+00 9.0512713687492869e+00 0 0 1
1868 1 7.0523418254365025e+00 2.4835513837152368e+00 9.6616891311487834e+00 -1 0 1
1685 1 1.1529063097116433e+01 3.0567702501228764e+00 9.8584392504297735e+00 0 1 0
2030 1 9.2654544072830376e+00 3.9558723367835014e+00 8.8627403253993293e+00 2 1 0
5376 1 6.3829861544483588e+00 1.0239707962790812e+01 1.3023822204606946e+01 2 1 0
436 1 2.0695780037841751e+00 6.6393201515182820e+00 8.9408695978648929e+00 -1 2 0
3710 1 1.1773303561256919e+01 5.2414188255306404e-01 8.7854225922814013e+00 -2 1 1
2017 1 4.6705564571760423e+00 5.8483071448307680e+00 9.6989575250926752e+00 0 -1 1
3223 1 6.7778405716214056e+00 7.6089530422237619e+00 9.1177321395899682e+00 0 -2 1
4700 1 9.1525267726264214e+00 6.5399077043428964e+00 1.0004804925811493e+01 0 -1 1
3395 1 1.9195422743814166e+00 9.6015094419251632e+00 9.9225061864198558e+00 3 0 0
81 1 4.2924278629000714e+00 1.1373876111428842e+01 9.2118392591409055e+00 0 1 1
5226 1 6.7405207362337016e+00 1.0374940799565911e+01 9.9823521312705310e+00 0 1 0
4864 1 1.1310105743346904e+01 8.2151120937587390e+00 8.9246319139000132e+00 0 1 1
3089 1 1.0632698076344081e+01 1.1058614043395368e+01 9.8943673076166689e+00 -1 0 1
3687 1 2.5057048545793519e+00 1.9069109990849322e+00 1.2923247937223797e+01 0 1 1
299 1 1.1035648654214747e+01 1.0961552842774070e+01 1.2499249884534709e+01 0 0 0
6364 1 4.8074025405441594e+00 3.4172909925138266e+00 1.3592395500298714e+01 -1 0 1
3506 1 6.8933260821734628e+00 2.0910014622951665e+00 1.2465349060087247e+01 0 1 0
4957 1 3.8164629494856989e-01 2.8248011476952914e+00 9.2579965142227341e+00 1 0 0
4780 1 1.1371953304954710e+01 2.9953130356023028e+00 1.2485636750657331e+01 2 0 1
2899 1 8.9732697550044573e+00 3.7582813338217465e+00 1.3585028471965822e+01 -2 1 1
6135 1 2.4975691953880093e+00 6.8295799426466033e+00 1.3355716723320464e+01 0 1 1
1876 1 1.0927467201901923e+01 8.2006885612422131e+00 1.3246446829717536e+01 0 2 0
3513 1 4.6915813646115847e+00 5.9094700560166444e+00 1.2359953756363481e+01 1 1 0
2867 1 6.7478593537173044e+00 7.6788428362858205e+00 1.3455974025379724e+01 1 0 1
3106 1 8.9634376771754809e+00 6.3454420850221336e+00 1.2666135641089134e+01 1 -1 1
5231 1 2.1369393993563390e+00 9.4787405947074657e+00 1.2794051398490812e+01 0 1 0
1356 1 3.9402275415118191e+00 1.1368939413070871e+01 1.3934409389556434e+01 0 1 1
517 1 8.6258837088995790e+00 1.1827771684759407e+01 1.3324223221848390e+01 1 0 1
6384 1 1.1928385653777898e+01 5.5696986143684679e-01 2.0660749967825979e+01 0 1 1
5101 1 4.7556111492158264e+00 3.3434801403426002e+00 1.6340946030163870e+01 0 0 1
2997 1 4.7741667726930457e+00 5.2062783183390937e-01 1.7006686747763389e+01 0 0 1
3741 1 8.7752475759950901e+00 9.6644560551860170e+00 2.0130443614981761e+01 -1 1 1
6163 1 9.3981741347331358e+00 1.2316871640278972e+00 1.7035328153380966e+01 0 0 1
3360 1 2.0215440657427299e+00 4.3245158530238337e+00 1.7131287488462746e+01 -2 1 1
5035 1 2.4573198472139981e+00 6.9687498861212624e+00 1.6113429890514830e+01 -2 -1 0
3376 1 6.7443887218162821e+00 5.1231773877521105e+00 1.7289489873790096e+01 0 1 0
3322 1 6.7018970499975632e+00 7.8311481490223542e+00 1.6435799272629488e+01 2 -1 0
6287 1 8.8857133989630359e+00 4.0432240620648825e+00 1.6472974198274937e+01 1 1 1
1830 1 1.1080919066159012e+01 5.6966354184837087e+00 1.6731817421285097e+01 0 2 0
2875 1 1.1054566749868606e+01 8.4919224345906059e+00 1.5848346158908010e+01 0 2 1
6217 1 3.9551049300998686e+00 1.1516935608812432e+01 1.6634311255786312e+01 1 -1 1
3402 1 4.2233761276643236e+00 8.8599601238932539e+00 1.7038794215769411e+01 1 0 0
6182 1 8.6124695000170952e+00 9.3473763605656703e+00 1.7229654358205050e+01 0 1 1
466 1 1.1922085905029276e+01 5.0874542423124769e-01 1.6188383219628388e+01 0 3 1
1743 1 6.3727475655315313e-01 3.8449852642568366e-02 1.9859778497122964e+01 0 1 0
5411 1 5.0010313273656264e+00 5.8454399248487443e-01 1.9895214399239933e+01 2 0 1
417 1 4.8170483142866436e+00 3.3062560825345870e+00 2.0573638000735148e+01 1 1 0
4605 1 1.1163659491194192e+01 8.3186217357523979e+00 2.0753696469767931e+01 1 1 1
5098 1 9.3802510188551675e+00 1.5411455141434642e+00 1.9831493539208839e+01 0 0 1
4879 1 9.0765594114403072e+00 4.0886225274896706e+00 2.0503840015039110e+01 1 1 0
5414 1 2.4258095135855440e+00 4.4127967686740881e+00 1.9755526314267104e+01 -2 1 1
5033 1 2.3101358443943982e+00 6.9743873154750471e+00 2.0658955836762274e+01 1 3 0
3578 1 6.6871047970837898e+00 7.9700130183929891e+00 2.1131844492874581e+01 0 -2 0
1870 1 6.7220456697314077e+00 5.2411799568582005e+00 1.9868124488852406e+01 2 1 1
4770 1 1.1029384561899736e+01 5.7577627108363956e+00 1.9503203623083216e+01 1 1 0
4950 1 4.3328132060784386e+00 1.1360796307380703e+01 2.0996384636458743e+01 1 0 0
2956 1 4.2706333219825527e+00 8.9199956011042953e+00 1.9923559353877618e+01 1 1 1
3289 1 1.1673279651984840e-01 2.6924951666064159e+00 1.6353398014972122e+01 2 -1 0
1726 1 4.6459311738877362e-01 2.7129088049421966e+00 2.0558226688152256e+01 -1 1 1
249 1 7.9690219955914188e-02 7.9998671629028122e+00 1.9910757836660199e+01 1 1 0
354 1 5.2453618811079583e-01 1.5405527676131506e-01 1.7168697861284663e+01 2 0 0
4660 1 8.2381243302241316e+00 1.1889813356429629e+01 1.5978199008314585e+01 -2 -1 1
1422 1 1.9666412546063661e+00 1.2119428253263671e+01 1.9901687397678348e+01 0 -1 1
750 2 9.8440000000000012e+00 8.5251540748539956e+00 2.6717706487127440e+01 0 0 0
6285 1 4.7692176805971966e+00 3.6283671458592401e+00 2.3429471168200610e+01 1 2 0
6109 1 5.1095978500925137e+00 8.9264700273931152e-01 2.4264401372165576e+01 1 0 1
5140 1 9.3619057286012808e+00 1.9497330508364119e+00 2.4360034825075548e+01 -1 0 0
1498 1 2.2554719118607855e-01 3.3247264257582876e-01 2.4161652799723257e+01 1 -1 1
6106 1 2.2684942182835663e+00 4.2223515898402848e+00 2.4315999766914633e+01 1 3 1
1720 1 2.3980847294765839e+00 6.9501937363786830e+00 2.3382348844409574e+01 -1 1 0
4522 1 6.6539123016750779e+00 5.1026597156402911e+00 2.4573751371951953e+01 0 0 1
1442 1 6.4177509063129081e+00 7.7360261047883210e+00 2.3812811601932452e+01 1 1 0
3517 1 9.1297538986263138e+00 4.5265714034391298e+00 2.3367852245233991e+01 1 2 0
4511 1 1.1272224934464173e+01 6.0384844973388763e+00 2.4371222406025101e+01 1 0 1
4502 1 4.0174306243843070e+00 1.1541589426471308e+01 2.3652000944258376e+01 0 0 0
1440 1 4.2008575794337544e+00 8.8988562426165103e+00 2.4457796640169018e+01 0 -1 1
3256 1 1.1083164553293415e+01 8.4841771332057405e+00 2.3639719125547728e+01 1 -1 0
4543 1 8.6353184721536405e+00 9.4732948582070424e+00 2.4350627298408906e+01 2 1 1
793 2 1.1074500000000002e+01 1.0656442593567498e+01 2.6717706487127440e+01 0 0 0
572 2 0.0000000000000000e+00 2.8417180249513345e+00 2.6717706487127440e+01 0 0 0
574 2 0.0000000000000000e+00 0.0000000000000000e+00 2.6717706487127440e+01 0 0 0
576 2 1.2305000000000001e+00 7.1042950623783474e-01 2.6717706487127440e+01 0 0 0
583 2 1.2305000000000001e+00 2.1312885187134998e+00 2.6717706487127440e+01 0 0 0
585 2 2.4610000000000003e+00 2.8417180249513345e+00 2.6717706487127440e+01 0 0 0
587 2 2.4610000000000003e+00 0.0000000000000000e+00 2.6717706487127440e+01 0 0 0
589 2 3.6915000000000004e+00 7.1042950623783474e-01 2.6717706487127440e+01 0 0 0
604 2 3.6914999999999996e+00 2.1312885187134998e+00 2.6717706487127440e+01 0 0 0
606 2 4.9220000000000006e+00 2.8417180249513332e+00 2.6717706487127440e+01 0 0 0
608 2 4.9220000000000006e+00 0.0000000000000000e+00 2.6717706487127440e+01 0 0 0
610 2 6.1524999999999999e+00 7.1042950623783407e-01 2.6717706487127440e+01 0 0 0
633 2 6.1524999999999999e+00 2.1312885187134989e+00 2.6717706487127440e+01 0 0 0
635 2 7.3829999999999991e+00 2.8417180249513345e+00 2.6717706487127440e+01 0 0 0
637 2 7.3829999999999991e+00 0.0000000000000000e+00 2.6717706487127440e+01 0 0 0
639 2 8.6134999999999984e+00 7.1042950623783407e-01 2.6717706487127440e+01 0 0 0
670 2 8.6134999999999984e+00 2.1312885187135002e+00 2.6717706487127440e+01 0 0 0
672 2 9.8440000000000012e+00 2.8417180249513332e+00 2.6717706487127440e+01 0 0 0
674 2 9.8440000000000012e+00 0.0000000000000000e+00 2.6717706487127440e+01 0 0 0
676 2 1.1074500000000002e+01 7.1042950623783330e-01 2.6717706487127440e+01 0 0 0
715 2 1.1074500000000002e+01 2.1312885187135002e+00 2.6717706487127440e+01 0 0 0
579 2 0.0000000000000000e+00 4.2625770374269996e+00 2.6717706487127440e+01 0 0 0
581 2 1.2305000000000001e+00 4.9730065436648339e+00 2.6717706487127440e+01 0 0 0
596 2 1.2305000000000001e+00 6.3938655561404980e+00 2.6717706487127440e+01 0 0 0
600 2 2.4610000000000003e+00 4.2625770374269996e+00 2.6717706487127440e+01 0 0 0
602 2 3.6914999999999996e+00 4.9730065436648339e+00 2.6717706487127440e+01 0 0 0
625 2 3.6914999999999996e+00 6.3938655561404980e+00 2.6717706487127440e+01 0 0 0
577 2 0.0000000000000000e+00 7.1042950623783341e+00 2.6717706487127440e+01 0 0 0
598 2 2.4610000000000003e+00 7.1042950623783341e+00 2.6717706487127440e+01 0 0 0
629 2 4.9220000000000006e+00 4.2625770374269978e+00 2.6717706487127440e+01 0 0 0
631 2 6.1524999999999999e+00 4.9730065436648339e+00 2.6717706487127440e+01 0 0 0
662 2 6.1524999999999999e+00 6.3938655561404980e+00 2.6717706487127440e+01 0 0 0
666 2 7.3829999999999991e+00 4.2625770374269996e+00 2.6717706487127440e+01 0 0 0
627 2 4.9220000000000006e+00 7.1042950623783341e+00 2.6717706487127440e+01 0 0 0
664 2 7.3830000000000009e+00 7.1042950623783341e+00 2.6717706487127440e+01 0 0 0
668 2 8.6135000000000002e+00 4.9730065436648339e+00 2.6717706487127440e+01 0 0 0
707 2 8.6135000000000002e+00 6.3938655561404980e+00 2.6717706487127440e+01 0 0 0
711 2 9.8440000000000012e+00 4.2625770374270004e+00 2.6717706487127440e+01 0 0 0
713 2 1.1074500000000002e+01 4.9730065436648339e+00 2.6717706487127440e+01 0 0 0
754 2 1.1074500000000002e+01 6.3938655561404980e+00 2.6717706487127440e+01 0 0 0
709 2 9.8440000000000012e+00 7.1042950623783341e+00 2.6717706487127440e+01 0 0 0
592 2 0.0000000000000000e+00 8.5251540748539991e+00 2.6717706487127440e+01 0 0 0
594 2 1.2305000000000001e+00 9.2355835810918343e+00 2.6717706487127440e+01 0 0 0
621 2 2.4610000000000003e+00 8.5251540748539991e+00 2.6717706487127440e+01 0 0 0
623 2 3.6915000000000004e+00 9.2355835810918343e+00 2.6717706487127440e+01 0 0 0
590 2 0.0000000000000000e+00 1.1366872099805333e+01 2.6717706487127440e+01 0 0 0
617 2 1.2305000000000001e+00 1.0656442593567498e+01 2.6717706487127440e+01 0 0 0
619 2 2.4610000000000003e+00 1.1366872099805333e+01 2.6717706487127440e+01 0 0 0
654 2 3.6914999999999996e+00 1.0656442593567499e+01 2.6717706487127440e+01 0 0 0
656 2 4.9220000000000006e+00 1.1366872099805333e+01 2.6717706487127440e+01 0 0 0
699 2 6.1524999999999999e+00 1.0656442593567499e+01 2.6717706487127440e+01 0 0 0
701 2 7.3829999999999991e+00 1.1366872099805333e+01 2.6717706487127440e+01 0 0 0
658 2 4.9220000000000006e+00 8.5251540748539991e+00 2.6717706487127440e+01 0 0 0
660 2 6.1524999999999999e+00 9.2355835810918343e+00 2.6717706487127440e+01 0 0 0
703 2 7.3830000000000009e+00 8.5251540748539991e+00 2.6717706487127440e+01 0 0 0
752 2 1.1074500000000002e+01 9.2355835810918343e+00 2.6717706487127440e+01 0 0 0
746 2 8.6134999999999984e+00 1.0656442593567498e+01 2.6717706487127440e+01 0 0 0
705 2 8.6134999999999984e+00 9.2355835810918343e+00 2.6717706487127440e+01 0 0 0
795 2 1.2304999999999998e+01 1.1366872099805333e+01 2.6717706487127440e+01 0 0 0
748 2 9.8440000000000012e+00 1.1366872099805333e+01 2.6717706487127440e+01 0 0 0
1808 1 1.1614018630994636e+01 6.3217972304697445e-01 2.3478917423869181e+01 1 -1 0
6189 1 1.0877302555450198e-01 8.1526651849215881e+00 2.4287694258268367e+01 0 1 1
573 2 0.0000000000000000e+00 1.4208590124756650e+00 3.0030999999996801e+01 0 0 0
575 2 0.0000000000000000e+00 0.0000000000000000e+00 3.0030999999996801e+01 0 0 0
584 2 1.2305000000000001e+00 2.1312885187134998e+00 3.0030999999996801e+01 0 0 0
586 2 2.4610000000000003e+00 1.4208590124756650e+00 3.0030999999996801e+01 0 0 0
588 2 2.4610000000000003e+00 0.0000000000000000e+00 3.0030999999996801e+01 0 0 0
605 2 3.6914999999999996e+00 2.1312885187134998e+00 3.0030999999996801e+01 0 0 0
582 2 1.2305000000000001e+00 3.5521475311891644e+00 3.0030999999996801e+01 0 0 0
603 2 3.6914999999999996e+00 3.5521475311891644e+00 3.0030999999996801e+01 0 0 0
901 2 0.0000000000000000e+00 2.8417180249513345e+00 3.3344293512875964e+01 0 0 0
902 2 0.0000000000000000e+00 0.0000000000000000e+00 3.3344293512875964e+01 0 0 0
903 2 1.2305000000000001e+00 7.1042950623783474e-01 3.3344293512875964e+01 0 0 0
907 2 1.2305000000000001e+00 2.1312885187134998e+00 3.3344293512875964e+01 0 0 0
908 2 2.4610000000000003e+00 2.8417180249513345e+00 3.3344293512875964e+01 0 0 0
909 2 2.4610000000000003e+00 0.0000000000000000e+00 3.3344293512875964e+01 0 0 0
910 2 3.6915000000000004e+00 7.1042950623783474e-01 3.3344293512875964e+01 0 0 0
918 2 3.6914999999999996e+00 2.1312885187134998e+00 3.3344293512875964e+01 0 0 0
607 2 4.9220000000000006e+00 1.4208590124756650e+00 3.0030999999996801e+01 0 0 0
609 2 4.9220000000000006e+00 0.0000000000000000e+00 3.0030999999996801e+01 0 0 0
634 2 6.1524999999999999e+00 2.1312885187134989e+00 3.0030999999996801e+01 0 0 0
636 2 7.3829999999999991e+00 1.4208590124756659e+00 3.0030999999996801e+01 0 0 0
638 2 7.3829999999999991e+00 0.0000000000000000e+00 3.0030999999996801e+01 0 0 0
632 2 6.1524999999999999e+00 3.5521475311891644e+00 3.0030999999996801e+01 0 0 0
919 2 4.9220000000000006e+00 2.8417180249513332e+00 3.3344293512875964e+01 0 0 0
920 2 4.9220000000000006e+00 0.0000000000000000e+00 3.3344293512875964e+01 0 0 0
921 2 6.1524999999999999e+00 7.1042950623783407e-01 3.3344293512875964e+01 0 0 0
933 2 6.1524999999999999e+00 2.1312885187134989e+00 3.3344293512875964e+01 0 0 0
934 2 7.3829999999999991e+00 2.8417180249513345e+00 3.3344293512875964e+01 0 0 0
935 2 7.3829999999999991e+00 0.0000000000000000e+00 3.3344293512875964e+01 0 0 0
671 2 8.6134999999999984e+00 2.1312885187135002e+00 3.0030999999996801e+01 0 0 0
673 2 9.8440000000000012e+00 1.4208590124756659e+00 3.0030999999996801e+01 0 0 0
675 2 9.8440000000000012e+00 0.0000000000000000e+00 3.0030999999996801e+01 0 0 0
716 2 1.1074500000000002e+01 2.1312885187135002e+00 3.0030999999996801e+01 0 0 0
669 2 8.6134999999999984e+00 3.5521475311891657e+00 3.0030999999996801e+01 0 0 0
714 2 1.1074500000000002e+01 3.5521475311891644e+00 3.0030999999996801e+01 0 0 0
936 2 8.6134999999999984e+00 7.1042950623783407e-01 3.3344293512875964e+01 0 0 0
952 2 8.6134999999999984e+00 2.1312885187135002e+00 3.3344293512875964e+01 0 0 0
953 2 9.8440000000000012e+00 2.8417180249513332e+00 3.3344293512875964e+01 0 0 0
954 2 9.8440000000000012e+00 0.0000000000000000e+00 3.3344293512875964e+01 0 0 0
955 2 1.1074500000000002e+01 7.1042950623783330e-01 3.3344293512875964e+01 0 0 0
975 2 1.1074500000000002e+01 2.1312885187135002e+00 3.3344293512875964e+01 0 0 0
578 2 0.0000000000000000e+00 5.6834360499026637e+00 3.0030999999996801e+01 0 0 0
580 2 0.0000000000000000e+00 4.2625770374269996e+00 3.0030999999996801e+01 0 0 0
597 2 1.2305000000000001e+00 6.3938655561404980e+00 3.0030999999996801e+01 0 0 0
599 2 2.4610000000000003e+00 5.6834360499026637e+00 3.0030999999996801e+01 0 0 0
601 2 2.4610000000000003e+00 4.2625770374269996e+00 3.0030999999996801e+01 0 0 0
626 2 3.6914999999999996e+00 6.3938655561404980e+00 3.0030999999996801e+01 0 0 0
595 2 1.2305000000000001e+00 7.8147245686161639e+00 3.0030999999996801e+01 0 0 0
624 2 3.6914999999999996e+00 7.8147245686161639e+00 3.0030999999996801e+01 0 0 0
905 2 0.0000000000000000e+00 4.2625770374269996e+00 3.3344293512875964e+01 0 0 0
906 2 1.2305000000000001e+00 4.9730065436648339e+00 3.3344293512875964e+01 0 0 0
914 2 1.2305000000000001e+00 6.3938655561404980e+00 3.3344293512875964e+01 0 0 0
916 2 2.4610000000000003e+00 4.2625770374269996e+00 3.3344293512875964e+01 0 0 0
917 2 3.6914999999999996e+00 4.9730065436648339e+00 3.3344293512875964e+01 0 0 0
929 2 3.6914999999999996e+00 6.3938655561404980e+00 3.3344293512875964e+01 0 0 0
904 2 0.0000000000000000e+00 7.1042950623783341e+00 3.3344293512875964e+01 0 0 0
915 2 2.4610000000000003e+00 7.1042950623783341e+00 3.3344293512875964e+01 0 0 0
628 2 4.9220000000000006e+00 5.6834360499026637e+00 3.0030999999996801e+01 0 0 0
630 2 4.9220000000000006e+00 4.2625770374269978e+00 3.0030999999996801e+01 0 0 0
663 2 6.1524999999999999e+00 6.3938655561404980e+00 3.0030999999996801e+01 0 0 0
665 2 7.3829999999999991e+00 5.6834360499026637e+00 3.0030999999996801e+01 0 0 0
667 2 7.3829999999999991e+00 4.2625770374269996e+00 3.0030999999996801e+01 0 0 0
661 2 6.1524999999999999e+00 7.8147245686161639e+00 3.0030999999996801e+01 0 0 0
931 2 4.9220000000000006e+00 4.2625770374269978e+00 3.3344293512875964e+01 0 0 0
932 2 6.1524999999999999e+00 4.9730065436648339e+00 3.3344293512875964e+01 0 0 0
948 2 6.1524999999999999e+00 6.3938655561404980e+00 3.3344293512875964e+01 0 0 0
950 2 7.3829999999999991e+00 4.2625770374269996e+00 3.3344293512875964e+01 0 0 0
930 2 4.9220000000000006e+00 7.1042950623783341e+00 3.3344293512875964e+01 0 0 0
949 2 7.3830000000000009e+00 7.1042950623783341e+00 3.3344293512875964e+01 0 0 0
708 2 8.6135000000000002e+00 6.3938655561404980e+00 3.0030999999996801e+01 0 0 0
710 2 9.8440000000000012e+00 5.6834360499026637e+00 3.0030999999996801e+01 0 0 0
712 2 9.8440000000000012e+00 4.2625770374270004e+00 3.0030999999996801e+01 0 0 0
755 2 1.1074500000000002e+01 6.3938655561404980e+00 3.0030999999996801e+01 0 0 0
706 2 8.6135000000000002e+00 7.8147245686161639e+00 3.0030999999996801e+01 0 0 0
753 2 1.1074500000000002e+01 7.8147245686161639e+00 3.0030999999996801e+01 0 0 0
951 2 8.6135000000000002e+00 4.9730065436648339e+00 3.3344293512875964e+01 0 0 0
971 2 8.6135000000000002e+00 6.3938655561404980e+00 3.3344293512875964e+01 0 0 0
973 2 9.8440000000000012e+00 4.2625770374270004e+00 3.3344293512875964e+01 0 0 0
974 2 1.1074500000000002e+01 4.9730065436648339e+00 3.3344293512875964e+01 0 0 0
995 2 1.1074500000000002e+01 6.3938655561404980e+00 3.3344293512875964e+01 0 0 0
972 2 9.8440000000000012e+00 7.1042950623783341e+00 3.3344293512875964e+01 0 0 0
591 2 0.0000000000000000e+00 9.9460130873296642e+00 3.0030999999996801e+01 0 0 0
593 2 0.0000000000000000e+00 8.5251540748539991e+00 3.0030999999996801e+01 0 0 0
620 2 2.4610000000000003e+00 9.9460130873296642e+00 3.0030999999996801e+01 0 0 0
622 2 2.4610000000000003e+00 8.5251540748539991e+00 3.0030999999996801e+01 0 0 0
616 2 1.2305000000000001e+00 1.2077301606043163e+01 3.0030999999996801e+01 0 0 0
618 2 1.2305000000000001e+00 1.0656442593567498e+01 3.0030999999996801e+01 0 0 0
653 2 3.6914999999999996e+00 1.2077301606043163e+01 3.0030999999996801e+01 0 0 0
655 2 3.6914999999999996e+00 1.0656442593567499e+01 3.0030999999996801e+01 0 0 0
912 2 0.0000000000000000e+00 8.5251540748539991e+00 3.3344293512875964e+01 0 0 0
913 2 1.2305000000000001e+00 9.2355835810918343e+00 3.3344293512875964e+01 0 0 0
927 2 2.4610000000000003e+00 8.5251540748539991e+00 3.3344293512875964e+01 0 0 0
928 2 3.6915000000000004e+00 9.2355835810918343e+00 3.3344293512875964e+01 0 0 0
911 2 0.0000000000000000e+00 1.1366872099805333e+01 3.3344293512875964e+01 0 0 0
925 2 1.2305000000000001e+00 1.0656442593567498e+01 3.3344293512875964e+01 0 0 0
926 2 2.4610000000000003e+00 1.1366872099805333e+01 3.3344293512875964e+01 0 0 0
944 2 3.6914999999999996e+00 1.0656442593567499e+01 3.3344293512875964e+01 0 0 0
657 2 4.9220000000000006e+00 9.9460130873296642e+00 3.0030999999996801e+01 0 0 0
659 2 4.9220000000000006e+00 8.5251540748539991e+00 3.0030999999996801e+01 0 0 0
702 2 7.3830000000000009e+00 9.9460130873296642e+00 3.0030999999996801e+01 0 0 0
704 2 7.3830000000000009e+00 8.5251540748539991e+00 3.0030999999996801e+01 0 0 0
698 2 6.1524999999999999e+00 1.2077301606043163e+01 3.0030999999996801e+01 0 0 0
700 2 6.1524999999999999e+00 1.0656442593567499e+01 3.0030999999996801e+01 0 0 0
946 2 4.9220000000000006e+00 8.5251540748539991e+00 3.3344293512875964e+01 0 0 0
947 2 6.1524999999999999e+00 9.2355835810918343e+00 3.3344293512875964e+01 0 0 0
969 2 7.3830000000000009e+00 8.5251540748539991e+00 3.3344293512875964e+01 0 0 0
945 2 4.9220000000000006e+00 1.1366872099805333e+01 3.3344293512875964e+01 0 0 0
967 2 6.1524999999999999e+00 1.0656442593567499e+01 3.3344293512875964e+01 0 0 0
968 2 7.3829999999999991e+00 1.1366872099805333e+01 3.3344293512875964e+01 0 0 0
749 2 9.8440000000000012e+00 9.9460130873296642e+00 3.0030999999996801e+01 0 0 0
751 2 9.8440000000000012e+00 8.5251540748539956e+00 3.0030999999996801e+01 0 0 0
745 2 8.6135000000000002e+00 1.2077301606043163e+01 3.0030999999996801e+01 0 0 0
747 2 8.6134999999999984e+00 1.0656442593567498e+01 3.0030999999996801e+01 0 0 0
792 2 1.1074500000000002e+01 1.2077301606043163e+01 3.0030999999996801e+01 0 0 0
794 2 1.1074500000000002e+01 1.0656442593567498e+01 3.0030999999996801e+01 0 0 0
970 2 8.6134999999999984e+00 9.2355835810918343e+00 3.3344293512875964e+01 0 0 0
993 2 9.8440000000000012e+00 8.5251540748539956e+00 3.3344293512875964e+01 0 0 0
994 2 1.1074500000000002e+01 9.2355835810918343e+00 3.3344293512875964e+01 0 0 0
991 2 8.6134999999999984e+00 1.0656442593567498e+01 3.3344293512875964e+01 0 0 0
992 2 9.8440000000000012e+00 1.1366872099805333e+01 3.3344293512875964e+01 0 0 0
1015 2 1.1074500000000002e+01 1.0656442593567498e+01 3.3344293512875964e+01 0 0 0
1016 2 1.2304999999999998e+01 1.1366872099805333e+01 3.3344293512875964e+01 0 0 0
5446 1 2.6638001535139457e+00 2.5905747659154108e+00 3.5871750905553320e+01 1 0 0
65 1 5.5140293771859650e-01 7.3754320505930104e-01 3.6243818860913727e+01 2 -1 -1
3380 1 5.3197255076299355e+00 1.6747880395610495e+00 3.6381966466750953e+01 -1 0 -1
493 1 7.4665866987864220e+00 3.1980198553547607e+00 3.5379691273387216e+01 0 1 0
509 1 9.8921086277958814e+00 2.0356220579129944e+00 3.6167075339737124e+01 0 -1 0
1939 1 8.6629515434355557e+00 1.0149797419040267e+01 3.6168307043694064e+01 -2 1 -1
220 1 1.9892359717208350e+00 5.0430976340607874e+00 3.6394259990603864e+01 1 0 -1
2929 1 4.3460751097277335e+00 6.4637427360683199e+00 3.5783599180806192e+01 0 1 -1
235 1 6.9658886809574279e+00 5.8404163637782576e+00 3.6421595469263671e+01 0 2 -1
1583 1 1.1809064621691498e+01 6.2325986534368676e+00 3.5969489033592829e+01 0 0 0
5390 1 9.2954249884807041e+00 7.5841308516071395e+00 3.5744961727010967e+01 1 0 0
1942 1 1.5118858449054444e+00 1.0436511146346467e+01 3.6243256663229843e+01 -1 0 -1
6146 1 3.9771529382529760e+00 9.4785487554750887e+00 3.6167073521425920e+01 1 0 0
363 1 6.2003007621598236e+00 1.1382901827518875e+01 3.6210495693140764e+01 -1 1 -1
6381 1 1.0978812130732811e+01 1.1791578408675685e+01 3.6753648040286812e+01 2 -1 0
4866 1 1.2169199315079339e+01 3.6174958547004263e+00 3.5730598449879281e+01 0 -2 0
3551 1 2.9988212203647544e+00 2.0143756571677169e+00 3.9810249353594308e+01 1 1 -1
4941 1 8.7196588302901878e-01 7.6504027169851352e-01 3.8890924263577062e+01 -1 0 -1
5366 1 5.4616147061912406e+00 1.5462849840740926e+00 3.8981094179230503e+01 1 -1 -1
5024 1 7.6978590560051581e+00 2.9390249749033353e+00 3.9760841010709434e+01 1 1 -1
5063 1 1.0054939812548994e+01 2.2391526506730823e+00 3.8912107532186546e+01 1 1 0
3494 1 1.1999327463986020e+01 1.1279689034748605e+01 4.2348705573067996e+01 0 0 -1
2014 1 2.3007673399305717e+00 4.9363513820523099e+00 3.9176729090138267e+01 0 -1 -1
4566 1 4.3500692522376445e+00 6.8707077985372491e+00 3.9070935923207344e+01 0 3 0
1335 1 6.8129707839186482e+00 5.6624049490023767e+00 3.9208588647270737e+01 1 2 0
15 1 9.3634443040160349e+00 7.1152562514764206e+00 3.9393703271756031e+01 0 1 0
4705 1 2.6490497852256290e-01 1.0879390514084692e+01 4.2842829293004854e+01 1 1 0
6141 1 1.4308640279896196e+00 1.0394329814514997e+01 3.9170074769869338e+01 0 1 0
2932 1 3.9621824024612868e+00 9.4686331046861110e+00 3.8978320296577124e+01 0 1 0
112 1 6.3971032470676947e+00 1.1211128058054536e+01 3.9027118008281903e+01 2 1 0
3716 1 9.0124356244967618e+00 9.7906231581561851e+00 3.9040094151038552e+01 1 0 -1
3077 1 1.1195987891782107e+01 1.1521303087004378e+01 3.9660778674442561e+01 0 0 -1
5086 1 3.3028945761249617e+00 1.9637866153061327e+00 4.2626638194250951e+01 0 1 -1
255 1 7.9367365245701404e-01 3.1061368066541433e+00 4.3147202289197239e+01 1 -1 -1
5050 1 7.7575548782080244e+00 2.9991685516048618e+00 4.2437919668618747e+01 3 -1 -1
164 1 5.2776049276931225e+00 3.8899152339168617e+00 4.3131262968128297e+01 1 0 -1
1649 1 1.1962538183688878e+01 8.7740703352751197e+00 4.3545512681057303e+01 1 0 -1
1704 1 7.2133390766112502e+00 1.0478829877447287e+01 4.1959162653816264e+01 2 1 0
188 1 4.0442991179234283e-01 5.8164866289602966e+00 4.1955978952809723e+01 0 -2 0
2027 1 2.6201059652986034e+00 7.1992285831776472e+00 4.3037879857386315e+01 0 1 -1
505 1 5.1930861145713925e+00 6.6837743379988996e+00 4.1978402579607462e+01 0 -1 0
1636 1 7.2906884985714822e+00 8.0263935030599143e+00 4.2716058108122859e+01 0 1 -1
510 1 9.5943210575629099e+00 4.8940110532566630e+00 4.2972811373656256e+01 1 -3 -1
1638 1 9.9224397428223838e+00 7.2783147161662001e+00 4.2036556582319761e+01 -1 2 -1
1438 1 2.5064106093846843e+00 9.7430462590483113e+00 4.1928748040649623e+01 0 0 0
4876 1 4.6658017623713812e+00 1.1095266089568964e+01 4.3097691163352941e+01 -1 -1 -1
2083 1 1.1898904945685141e+01 6.5046509634703691e+00 3.8729864403990995e+01 0 0 -1
3653 1 7.6938203945940256e+00 3.1100534724769163e-01 4.3108230742473452e+01 0 1 -1
2904 1 1.2208603103365773e+01 3.9486215462904721e+00 3.9605642980630790e+01 0 1 0
1637 1 1.2058639433525180e+01 1.1167033638704345e+00 4.3203549149897725e+01 -1 0 -1
289 1 1.1846390168900497e+01 3.6252016253940922e+00 4.2338821988651979e+01 1 -1 -1
4922 1 9.5035132341864301e+00 1.1631665282007441e+01 4.3382972274673698e+01 -1 1 0
3023 1 5.7505677889165041e-01 3.3516505130365974e+00 4.5598529822486434e+01 -2 1 0
5021 1 7.8797035270712334e-01 4.8764964951766326e-01 4.6573623466028579e+01 -2 0 0
570 1 5.2406785220875989e+00 1.1868984874826434e+00 4.6784247260579264e+01 0 2 0
2910 1 5.1901875929784138e+00 3.8498880699331623e+00 4.6004010308053040e+01 -1 1 0
376 1 2.6047613114812407e-02 8.1726653081651310e+00 4.6693049300642279e+01 1 1 -1
1750 1 9.8905319783370924e+00 1.5474761838669164e+00 4.6768376813691717e+01 -1 1 -1
3791 1 1.1627990597536799e+01 1.0855726470961798e+01 5.0500481143850543e+01 0 0 0
5418 1 2.7325825050543298e+00 4.6397725792301712e+00 4.6899577056661307e+01 0 2 -1
1859 1 2.3804688747700604e+00 7.0674855074472829e+00 4.5955932370997765e+01 1 2 0
6462 1 7.4196071450700112e+00 5.2218312622379894e+00 4.6682029499773321e+01 1 2 -1
4989 1 7.2141149233727218e+00 7.8461344617038753e+00 4.5740839753053905e+01 0 -1 0