
# Create simulation box and atoms

read_data data.ML_graphite_m500atm_240K
  orthogonal box = (0 0 2.16312) to (49.22 49.0196 57.8989)
  4 by 4 by 8 MPI processor grid
  reading atoms ...
  6489 atoms
  reading velocities ...
  6489 velocities
group water type 1
3729 atoms in group water
group graphite type 2
2760 atoms in group graphite

# Define potential

pair_style sw
pair_coeff * * MLC_e.sw mW C


# Fix graphite atoms in place

fix 5 graphite setforce 0.0 0.0 0.0
velocity graphite set 0.0 0.0 0.0


# Equilibration of molecular water

# Add velocity/set timestep

velocity	    water create ${TEMP} ${SEED} rot yes dist gaussian
velocity	    water create 240 ${SEED} rot yes dist gaussian
velocity	    water create 240 11811 rot yes dist gaussian
timestep	    5.0

# Define output

compute			1 water msd
compute			3 water temp
thermo	    	50
thermo_style	custom step temp press vol etotal ke pe c_1[4] c_3

# Neighbor lists

neigh_modify    delay 0 every 1 check yes

# Set fixes

fix             1 water momentum 10 linear 1 1 1 rescale
fix             2 water nve
fix             3 water temp/csvr ${TEMP} ${TEMP} 500.0 ${SEED}
fix             3 water temp/csvr 240 ${TEMP} 500.0 ${SEED}
fix             3 water temp/csvr 240 240 500.0 ${SEED}
fix             3 water temp/csvr 240 240 500.0 11811
fix             4 water press/berendsen z ${PRES} ${PRES} 1000.0 modulus 20000
fix             4 water press/berendsen z -500 ${PRES} 1000.0 modulus 20000
fix             4 water press/berendsen z -500 -500 1000.0 modulus 20000

# Run 0.5 ns equilibration

dump		    1 all atom 2000 ${DIR}/eq.${NAME}-${TEMP}.dump
dump		    1 all atom 2000 run_17/eq.${NAME}-${TEMP}.dump
dump		    1 all atom 2000 run_17/eq.het_freeze_17-${TEMP}.dump
dump		    1 all atom 2000 run_17/eq.het_freeze_17-240.dump

reset_timestep  0

run	            100000
Neighbor list info ...
  update every 1 steps, delay 0 steps, check yes
  max neighbors/atom: 2000, page size: 100000
  master list distance cutoff = 6.67472
  ghost atom cutoff = 6.67472
  binsize = 3.33736, bins = 15 15 17
  1 neighbor lists, perpetual/occasional/extra = 1 0 0
  (1) pair sw, perpetual
      attributes: full, newton on
      pair build: full/bin/atomonly
      stencil: full/bin/3d
      bin: standard
Per MPI rank memory allocation (min/avg/max) = 4.068 | 4.178 | 4.493 Mbytes
Step Temp Press Volume TotEng KinEng PotEng c_1[4] c_3 
       0    137.90382   -585.46729    134476.24   -35583.071    2666.9904   -38250.061            0          240 
      50    140.62856   -610.57691    134537.43   -35574.619    2719.6854   -38294.305   0.52124745    244.74198 
     100    140.13759   -401.05558    134638.83   -35554.672    2710.1902   -38264.862   0.84444109    243.88752 
     150    134.87187   -574.98241    134709.06   -35620.852     2608.354   -38229.206    1.0277038    234.72336 
     200    138.78368   -724.53486    134755.75   -35643.508    2684.0064   -38327.514     1.183064    241.53125 
     250    141.84627   -638.04404    134819.24    -35619.84    2743.2353   -38363.075    1.3739699    246.86121 
     300    140.49548   -400.85852    134843.16   -35633.664    2717.1118   -38350.776    1.5582683    244.51038 
     350    140.32032   -676.20876    134941.15   -35691.886    2713.7243    -38405.61    1.7196404    244.20554 
     400    140.81931   -491.05627    134961.86   -35671.862    2723.3744   -38395.236    1.8950913    245.07395 
     450    140.31331   -611.91034     135054.3   -35650.912    2713.5886   -38364.501    2.0708543    244.19333 
     500    135.71504    -528.5287    135093.85   -35743.496    2624.6605   -38368.157    2.3031103    236.19077 
     550    137.10286   -492.86724    135125.27   -35751.796    2651.5002   -38403.296    2.4511041    238.60605 
     600    138.08184   -618.66806    135198.59   -35746.522    2670.4331   -38416.955    2.6144422    240.30981 
     650    135.30235   -345.96094    135194.32   -35740.244    2616.6791   -38356.923    2.8075762    235.47254 
     700    139.18439   -413.71047       135284    -35661.45     2691.756   -38353.206    2.9734275    242.22863 
     750    141.16797   -690.69673    135352.31   -35647.298    2730.1174   -38377.415    3.1230075    245.68074 
     800    137.71953   -444.43137    135382.12   -35602.513    2663.4262   -38265.939    3.2416369    239.67926 
     850    142.53348   -592.41541    135399.91   -35641.413    2756.5255   -38397.938    3.3965564    248.05719 
     900    135.24579    -771.9668    135417.86   -35660.489    2615.5854   -38276.075    3.5510389    235.37412 
     950    139.04704   -610.41272    135407.77   -35673.676    2689.0997   -38362.776    3.7372652     241.9896 
    1000    137.86794   -978.64615    135404.43   -35638.821    2666.2964   -38305.117    3.9286205    239.93755 
    1050    141.54647   -725.67448    135338.65    -35582.07    2737.4374   -38319.507    4.0561847    246.33946 
    1100    140.18355   -751.34405    135336.01    -35560.64    2711.0791   -38271.719    4.2339866     243.9675 
    1150     141.0974   -406.08209    135320.28   -35537.864    2728.7526   -38266.616    4.3929983    245.55793 
    1200    140.79014   -614.72051    135404.86   -35517.952    2722.8103   -38240.762    4.6018172    245.02319 
    1250    141.11921   -464.66607    135471.58   -35583.182    2729.1742   -38312.356    4.7664825    245.59587 
    1300    138.76027   -801.69146    135479.62   -35592.747    2683.5536     -38276.3    4.9984474    241.49051 
    1350    138.43536   -544.21238     135508.5    -35624.67    2677.2701    -38301.94    5.1574794    240.92506 
    1400    139.63608   -807.14624    135509.02   -35622.616    2700.4913   -38323.108    5.3474145    243.01472 
    1450    138.72687   -983.83547    135478.16   -35659.649    2682.9077   -38342.556    5.5440352    241.43238 
    1500    141.43528   -473.76658    135478.93   -35658.842    2735.2869   -38394.128    5.7579627    246.14594 
    1550    140.39123   -900.70353    135514.52   -35657.825    2715.0956   -38372.921    5.9525285    244.32895 
    1600    138.47901   -646.76705    135524.67   -35606.843    2678.1141   -38284.957    6.1771444    241.00102 
    1650    137.21724    -607.4097    135534.14   -35663.588    2653.7122     -38317.3     6.367605    238.80511 
    1700     138.3249   -544.32942     135558.9   -35653.767    2675.1339   -38328.901    6.4501237    240.73283 
    1750    137.75531   -872.84306    135602.21   -35699.619    2664.1183   -38363.738    6.5633349    239.74154 
    1800    136.47397   -854.98521    135652.17   -35679.665    2639.3378   -38319.003    6.7560132    237.51157 
    1850    138.09718   -737.95034    135637.51   -35690.833    2670.7298   -38361.563    6.9413712    240.33651 
    1900    133.34826   -715.73954    135657.98   -35696.469    2578.8881   -38275.357    7.1729595    232.07176 
    1950    137.30891   -616.09499    135696.63    -35686.99    2655.4851   -38342.475    7.3421858    238.96465 
    2000    138.09469   -598.52522    135746.38   -35611.553    2670.6816   -38282.235    7.5727185    240.33218 
    2050     137.7267   -850.81422    135735.11   -35646.671    2663.5649   -38310.236    7.6742937    239.69175 
    2100    137.67805   -905.08435    135735.34   -35628.223     2662.624   -38290.847    7.8441786    239.60708 
    2150    139.23811   -944.49013    135705.12   -35616.179    2692.7948   -38308.973     8.085976    242.32211 
    2200    138.76131   -871.90713    135608.97   -35618.424    2683.5738   -38301.998    8.3449787    241.49233 
    2250    139.03852   -596.81352    135667.31   -35624.381    2688.9349   -38313.316     8.470053    241.97476 
    2300    138.63564   -947.49608    135732.37   -35625.774    2681.1433   -38306.917    8.6306431    241.27361 
    2350    138.13017   -756.77788    135716.45   -35640.226    2671.3678   -38311.594    8.7692778    240.39392 
    2400    139.62646   -1026.6849    135736.37   -35636.203    2700.3053   -38336.508    8.9391136    242.99798 
    2450    137.67032   -974.25501    135632.49   -35715.194    2662.4746   -38377.668    8.9855764    239.59363 
    2500    136.44596    -917.1243    135515.03       -35771    2638.7961   -38409.796    9.0799954    237.46282 
    2550    136.95305   -1018.6642    135481.04    -35790.81     2648.603   -38439.413     9.239154    238.34534 
    2600    137.62724   -1014.2196    135461.95   -35751.671    2661.6414   -38413.313     9.423096    239.51865 
    2650    137.33605   -1109.6041    135296.67   -35714.767    2656.0099   -38370.777    9.5917277    239.01188 
    2700    139.36042    -832.9019    135177.67   -35677.639    2695.1602   -38372.799    9.7064486    242.53498 
    2750     136.8444   -734.80455     135106.8   -35713.629    2646.5018    -38360.13    9.8913147    238.15625 
    2800    135.84051   -1042.9158    135093.91   -35764.615     2627.087   -38391.702    9.9975626    236.40913 
    2850    138.16601   -753.01203    135032.35   -35768.536     2672.061   -38440.597    10.103187     240.4563 
    2900    138.33383   -774.87983    135009.54   -35746.722    2675.3064   -38422.029    10.234582    240.74836 
    2950    136.65935    -609.3422    135010.29   -35702.094    2642.9229   -38345.017    10.480294    237.83419 
    3000    137.75662   -915.44102    135020.32   -35714.102    2664.1436   -38378.245    10.615717    239.74382 
    3050    136.78593   -597.43273     135041.7   -35693.034    2645.3709   -38338.405    10.666828    238.05448 
    3100    136.68495   -860.35058    135011.29   -35658.675     2643.418   -38302.093     10.83343    237.87875 
    3150    137.28786   -776.20883    134989.55   -35669.434    2655.0779   -38324.512    11.040634    238.92801 
    3200    137.52264   -766.57827    134908.13   -35737.522    2659.6184    -38397.14    11.130438     239.3366 
    3250    136.08745   -785.12186    134919.11   -35720.125    2631.8627   -38351.988    11.229795    236.83889 
    3300    137.07752   -635.16585    134919.76   -35729.453    2651.0101   -38380.463    11.342917    238.56195 
    3350     136.4114   -732.61492    134851.45   -35721.549    2638.1276   -38359.677    11.531668    237.40266 
    3400    135.91876   -808.20036    134825.16   -35759.101    2628.6002   -38387.702    11.714951    236.54531 
    3450    138.65202   -712.83441     134957.6   -35700.206    2681.4601   -38381.666    11.909355    241.30212 
    3500    135.30486   -964.63121    134958.67   -35728.382    2616.7278    -38345.11    12.043456    235.47692 
    3550    138.62464   -425.61963    134954.25   -35669.089    2680.9307    -38350.02    12.190205    241.25448 
    3600    137.57511   -636.00189    135074.51   -35692.603    2660.6332   -38353.237     12.39252    239.42793 
    3650    137.78395   -636.85004    135063.43   -35697.915     2664.672   -38362.587    12.554827    239.79137 
    3700    135.72038    -331.5466    135192.41   -35681.183    2624.7636   -38305.947    12.795206    236.20005 
    3750    137.13549   -734.72841    135212.44   -35646.539    2652.1313    -38298.67    12.952383    238.66284 
    3800    135.27421   -771.11814    135162.39   -35661.031     2616.135   -38277.166    12.954635    235.42357 
    3850     137.7415   -861.05395    135154.76   -35610.075    2663.8511   -38273.926    13.153927     239.7175 
    3900    138.00351   -605.00401    135090.97   -35668.825    2668.9183   -38337.743    13.301452    240.17349 
    3950    137.62814   -641.68555    135127.35   -35639.291    2661.6589    -38300.95    13.448191    239.52022 
    4000    137.66482   -546.59488    135113.27   -35633.106    2662.3681   -38295.474    13.562315    239.58405 
    4050    138.15706   -718.89704    135133.79   -35577.324    2671.8879   -38249.212    13.780003    240.44072 
    4100    138.08029   -590.33048    135153.68   -35598.271    2670.4032   -38268.674    13.864785    240.30712 
    4150    137.96395   -852.40126    135231.62   -35661.139    2668.1532   -38329.292     14.01464    240.10465 
    4200    138.97692   -855.12975    135172.16   -35641.083    2687.7436   -38328.826    14.260926    241.86756 
    4250    135.55505   -940.43899    135055.31   -35640.948    2621.5662   -38262.514     14.29887    235.91232 
    4300    137.04293   -821.77434    134970.09   -35636.246    2650.3412   -38286.587    14.482206    238.50176 
    4350    137.11246   -735.19932    135015.12   -35615.623    2651.6859   -38267.309    14.628365    238.62276 
    4400    137.63073   -767.31796    134901.51    -35597.56     2661.709   -38259.269    14.764778    239.52473 
    4450    139.98892   -737.83131    134942.45   -35594.179    2707.3152   -38301.494    14.828725    243.62879 
    4500    138.56799   -496.11581    134887.65   -35551.155    2679.8351    -38230.99    15.056617    241.15588 
    4550    136.65567   -508.80136    134885.23   -35580.979    2642.8517    -38223.83    15.171738    237.82778 
    4600    138.76076   -564.47972    134885.48   -35548.958    2683.5631   -38232.521    15.212724    241.49137 
    4650    136.88245   -832.83909    134847.04       -35598    2647.2375   -38245.237    15.387285    238.22246 
    4700    137.28572   -735.33209    134874.37   -35610.086    2655.0366   -38265.122    15.526333    238.92429 
    4750    139.38738   -750.17624    134829.65   -35608.999    2695.6817   -38304.681     15.76373    242.58191 
    4800    138.89203   -849.61283    134762.21   -35561.742    2686.1018   -38247.844    15.916476    241.71982 
    4850    138.78271   -606.74663     134654.2   -35595.185    2683.9876   -38279.172    16.190505    241.52956 
    4900    137.26281   -596.03996    134565.78   -35652.666    2654.5935    -38307.26    16.437241    238.88442 
    4950    137.57533    -709.3352    134607.36   -35652.936    2660.6374   -38313.574    16.702612    239.42831 
    5000     135.7695   -627.23019     134655.7   -35684.566    2625.7136    -38310.28    16.978228    236.28554 
    5050    137.56822   -638.82889    134678.04   -35692.203       2660.5   -38352.703     17.21625    239.41594 
    5100    138.89442   -832.55242    134653.25   -35659.569     2686.148   -38345.717    17.515102    241.72398 
    5150    138.15293   -854.29437    134708.03   -35638.343    2671.8079   -38310.151    17.722113    240.43353 
    5200    140.06412   -649.20482    134738.69   -35612.809    2708.7695   -38321.579    17.893706    243.75966 
    5250    136.74404   -756.50015    134837.78   -35590.957    2644.5607   -38235.517    18.061541    237.98157 
    5300    137.58081   -891.03962     134771.1   -35583.501    2660.7434   -38244.245    18.333256    239.43784 
    5350    139.00309   -698.30964    134790.58   -35563.661    2688.2496    -38251.91    18.511071    241.91309 
    5400    137.85672   -818.97278    134685.13   -35592.158    2666.0794   -38258.237     18.69572    239.91802 
    5450    135.81788     -957.975    134641.19   -35610.905    2626.6494   -38237.555    19.021977    236.36975 
    5500    134.96199   -631.43358    134695.88   -35648.199    2610.0969   -38258.296    19.140291    234.88021 
    5550    135.26742   -559.68708    134746.24   -35648.912    2616.0036   -38264.915    19.247393    235.41175 
    5600    136.25646   -727.87958    134829.53   -35626.337    2635.1311   -38261.468    19.501561    237.13302 
    5650    137.29954   -655.64274    134872.84   -35629.233    2655.3039   -38284.536    19.749508    238.94834 
    5700    138.41137   -828.23537    134865.65   -35565.577    2676.8062   -38242.383    19.978411    240.88331 
    5750    135.68079   -916.93267    134890.63   -35584.403    2623.9981   -38208.401    20.393198    236.13116 
    5800    137.70209   -866.94511    134806.59   -35589.953    2663.0889   -38253.042    20.537129    239.64891 
    5850    135.64452     -543.143    134801.17   -35563.742    2623.2966   -38187.039     20.62967    236.06804 
    5900    137.17551   -803.90564    134769.17   -35498.922    2652.9051   -38151.827    20.756048    238.73248 
    5950    141.54686   -904.33207    134688.01   -35507.762    2737.4449   -38245.206    20.838016    246.34013 
    6000    139.61015    -1053.992    134573.78   -35502.062      2699.99   -38202.052    20.904147     242.9696 
    6050    138.94836   -724.50547    134420.55    -35513.92    2687.1911   -38201.111    21.056545    241.81785 
    6100    139.01798   -1058.8318    134404.98    -35500.23    2688.5375   -38188.767     21.22108    241.93901 
    6150    139.29693   -743.61232    134361.46   -35463.641    2693.9323   -38157.573    21.403322    242.42448 
    6200    141.38784   -1025.7918    134369.94    -35479.02    2734.3695    -38213.39    21.652136    246.06339 
    6250    140.67373   -1044.7337    134334.71   -35537.238     2720.559   -38257.797    21.825957    244.82059 
    6300    138.45617   -477.00168    134323.54   -35554.551    2677.6725   -38232.223    21.866412    240.96128 
    6350     139.0186   -685.63841    134397.87   -35537.426    2688.5495   -38225.975    22.049881    241.94009 
    6400     138.6455   -579.95406    134376.18   -35557.968     2681.334   -38239.302    22.167365    241.29077 
    6450    137.77216   -806.25899    134313.03   -35583.342     2664.444   -38247.786    22.217247    239.77086 
    6500    138.78686   -790.02163    134258.47    -35619.88    2684.0678   -38303.948    22.346652    241.53679 
    6550    139.15088   -818.66356    134225.51   -35586.014    2691.1078   -38277.122    22.582509    242.17031 
    6600    139.56957   -718.43153    134292.12   -35567.826    2699.2051   -38267.031    22.689714    242.89898 
    6650    137.94156   -697.67558    134321.53   -35580.277    2667.7202   -38247.998    22.800234    240.06568 
    6700    140.88665   -898.75181    134397.49   -35535.992    2724.6767   -38260.668    23.018696    245.19114 
    6750    141.24856   -596.74923    134492.02   -35482.471    2731.6759   -38214.147    23.446472    245.82099 
    6800     139.3819   -492.40298    134580.37   -35494.218    2695.5756   -38189.793    23.702163    242.57236 
    6850    137.23038   -513.05108    134660.44   -35510.157    2653.9664   -38164.124    23.885329    238.82799 
    6900    137.86034    -700.1708       134718   -35492.299    2666.1494   -38158.448    24.171089    239.92432 
    6950    141.84825   -496.23836    134738.84   -35503.448    2743.2736   -38246.722     24.18184    246.86466 
    7000     137.9504   -617.51422    134838.05   -35529.966    2667.8911   -38197.857    24.403594    240.08106 
    7050    140.98508   -429.15035    134972.84   -35478.816    2726.5803   -38205.397     24.62791    245.36245 
    7100    137.78319   -468.61279    135187.66   -35501.336    2664.6575   -38165.993    24.779309    239.79007 
    7150    141.05864   -1022.4648    135246.35   -35568.196    2728.0029   -38296.199    24.888391    245.49046 
    7200    137.71297   -970.81503    135188.65   -35554.869    2663.2993   -38218.168     25.05383    239.66785 
    7250    136.06136   -1043.1668    135052.32   -35558.328    2631.3581   -38189.686    25.429575    236.79349 
    7300    134.20315   -862.87153    134992.32   -35603.706    2595.4212   -38199.127    25.614584    233.55956 
    7350    138.37293   -666.06504    134966.43   -35601.838    2676.0627     -38277.9    25.928097    240.81641 
    7400     137.5807   -653.97738     135113.9   -35604.741    2660.7413   -38265.483    26.059121    239.43765 
    7450    136.65809   -772.17257    135096.51   -35602.671    2642.8985   -38245.569    26.207918    237.83199 
    7500    138.36338   -767.75792    134957.36   -35560.349    2675.8779   -38236.227    26.344344    240.79979 
    7550    138.66538    -522.4202    134911.08   -35553.651    2681.7185    -38235.37    26.583736    241.32537 
    7600    136.60861   -722.31246    134891.81   -35597.925    2641.9416   -38239.867    26.991629    237.74588 
    7650    137.52631   -813.08958    134786.29    -35672.62    2659.6895   -38332.309    27.229581      239.343 
    7700    133.71396   -887.84321    134820.07   -35626.593    2585.9605   -38212.554    27.335165     232.7082 
    7750    139.10921    -810.6829     134772.2   -35595.591     2690.302   -38285.893     27.46383    242.09779 
    7800    135.55993   -618.94379    134819.17   -35615.453    2621.6608   -38237.114    27.517992    235.92083 
    7850    137.69407   -594.46105    134881.62   -35599.852    2662.9339   -38262.785    27.789844    239.63496 
    7900    137.18479   -653.73723    134858.45    -35583.91    2653.0847   -38236.995    27.950483    238.74864 
    7950    139.69895   -766.71353    134796.44   -35534.336    2701.7072   -38236.043    28.166469    243.12414 
    8000    142.75287   -495.52158    134904.34    -35545.06    2760.7685   -38305.829    28.396959    248.43901 
    8050     139.8807   -856.33546    135009.83   -35548.557    2705.2223   -38253.779    28.616038    243.44045 
    8100    138.63445   -640.28048    135040.63    -35550.73    2681.1204    -38231.85    28.753617    241.27154 
    8150    137.43085   -802.92466    134984.78    -35535.84    2657.8433   -38193.684    28.802591    239.17686 
    8200    137.95491   -842.09229    134853.21   -35577.842    2667.9783    -38245.82    28.883041     240.0889 
    8250    136.80301   -950.40652     134769.8   -35557.922    2645.7011   -38203.623    28.962554     238.0842 
    8300     137.6356   -518.16871    134680.08   -35597.505    2661.8031   -38259.308    28.941211     239.5332 
    8350    134.20014   -969.17858    134664.46    -35626.49    2595.3631   -38221.853     29.17442    233.55433 
    8400    134.94164   -609.72674    134610.89   -35591.354    2609.7033   -38201.057      29.4684    234.84479 
    8450    139.39176   -474.25236    134702.25   -35620.644    2695.7663    -38316.41    29.687264    242.58952 
    8500     137.7358   -712.08751    134733.26   -35591.239    2663.7408    -38254.98    29.929586    239.70758 
    8550    137.21818    -1101.906    134629.99   -35569.699    2653.7304   -38223.429    30.126243    238.80674 
    8600    136.99247   -1079.9841    134602.72   -35531.398    2649.3654   -38180.764    30.407482    238.41394 
    8650    137.74821   -904.65875    134526.65   -35542.145     2663.981   -38206.126    30.655915    239.72919 
    8700    136.72392   -1145.4134     134469.2   -35528.082    2644.1716   -38172.254    30.582334    237.94656 
    8750    141.37636   -721.45145    134490.04   -35454.822    2734.1474   -38188.969    30.779479     246.0434 
    8800    138.40767   -799.65816    134558.13   -35449.631    2676.7346   -38126.365     31.12143    240.87687 
    8850    139.55322   -609.03446    134542.53   -35467.129    2698.8889   -38166.018    31.221865    242.87052 
    8900    139.87289   -601.06888    134646.03   -35502.581    2705.0712   -38207.652    31.423428    243.42686 
    8950    141.81117   -796.70339     134762.3   -35448.556    2742.5564   -38191.112    31.648575    246.80012 
    9000    140.14846    -904.5169     134841.2   -35460.666    2710.4006   -38171.066     31.69532    243.90645 
    9050    138.56047   -985.66986    134740.55   -35522.391    2679.6896    -38202.08    31.798324     241.1428 
    9100     140.6347   -689.31717    134650.95   -35472.096    2719.8041     -38191.9    31.901879    244.75266 
    9150    141.60615   -568.82235    134734.12    -35504.15    2738.5916   -38242.741    32.192546    246.44333 
    9200     140.3657   -540.14989    134831.44   -35526.322    2714.6019   -38240.923    32.395063    244.28452 
    9250    139.49282   -663.39305    134859.48   -35559.107    2697.7208   -38256.828    32.681306     242.7654 
    9300    137.32641   -835.66308    134910.02   -35620.499    2655.8235   -38276.323    32.975863    238.99511 
    9350    138.89983   -863.46252    134805.87   -35657.002    2686.2526   -38343.254     33.11162    241.73339 
    9400    137.04351   -835.79368    134838.05   -35635.261    2650.3523   -38285.613     33.27559    238.50276 
    9450    138.59204   -841.47536    134804.81   -35585.904    2680.3001   -38266.204    33.420138    241.19773 
    9500    138.30425   -671.75436    134804.56   -35545.161    2674.7345   -38219.896    33.488133    240.69689 
    9550    141.04588   -875.59106    134708.99   -35456.701    2727.7562   -38184.457    33.671115    245.46826 
    9600    141.57652   -732.76193    134712.08   -35464.606    2738.0186   -38202.625    33.912684    246.39176 
    9650    140.14306   -628.65766    134700.63   -35423.619    2710.2961   -38133.915    33.943006    243.89704 
    9700    138.14036   -631.50037     134715.2   -35488.334    2671.5649   -38159.898    34.070604    240.41166 
    9750    140.75422    -948.0668    134737.03   -35505.746    2722.1157   -38227.862    34.179971    244.96067 
    9800    139.65301   -739.87883     134638.4    -35529.11    2700.8188   -38229.929    34.249279    243.04419 
    9850    137.38771   -652.86135    134617.88   -35515.694    2657.0089   -38172.703    34.404595    239.10178 
    9900    140.97049    -550.2052    134574.73   -35471.682    2726.2982    -38197.98    34.374565    245.33705 
    9950    138.46757   -694.43158    134619.07   -35461.097     2677.893    -38138.99    34.440286    240.98111 
   10000    141.42112   -866.58656    134572.53     -35468.1    2735.0131   -38203.113    34.669583    246.12131 
   10050    141.23273   -633.61446    134584.41   -35484.649    2731.3698   -38216.019    34.731624    245.79345 
   10100    139.93218       -508.3    134631.99   -35509.064    2706.2177   -38215.281    34.974958    243.53003 
   10150    139.46333    -445.5876    134669.81    -35550.49    2697.1504    -38247.64     35.24545    242.71408 
   10200     140.2424    -627.3153    134743.17   -35578.589    2712.2172   -38290.807    35.449835    244.06993 
   10250    139.85818   -678.69944     134806.2   -35601.279    2704.7866   -38306.066    35.579053    243.40125 
   10300    141.25458   -760.97623    134896.17   -35591.013    2731.7922   -38322.805    35.684382    245.83146 
   10350    139.96624   -784.91027    134949.77   -35610.949    2706.8765   -38317.825     35.72613    243.58932 
   10400    139.00674   -721.77291    134989.33   -35659.079    2688.3202   -38347.399    35.896021    241.91946 
   10450    138.78007   -699.69694    134989.14   -35671.024    2683.9366    -38354.96    36.169168    241.52497 
   10500    140.48462    -784.6728     135017.8   -35723.043    2716.9016   -38439.944    36.281574    244.49147 
   10550    139.60535   -715.55974    135120.35   -35736.986     2699.897   -38436.883    36.534776    242.96124 
   10600    137.17439   -1038.8164    135156.82   -35699.981    2652.8834   -38352.864    36.697301    238.73053 
   10650     137.5913   -757.28461    135025.86   -35707.904    2660.9464    -38368.85    36.756656    239.45611 
   10700    139.47905   -651.55142    135009.58   -35660.328    2697.4545   -38357.783    36.871684    242.74144 
   10750    141.21537   -902.02598    135038.43   -35681.062     2731.034   -38412.096     36.95813    245.76323 
   10800      137.197   -814.68233    135016.97   -35694.813    2653.3207   -38348.134    37.169657    238.76988 
   10850    136.66144   -680.96535    135003.29   -35702.084    2642.9633   -38345.048    37.263165    237.83782 
   10900    136.86383   -664.83869    135090.25   -35706.778    2646.8775   -38353.656    37.314949    238.19006 
   10950    136.82044   -686.63389    135161.72   -35735.912    2646.0383    -38381.95    37.438694    238.11454 
   11000    137.47873   -662.46828     135222.7   -35757.557    2658.7694   -38416.327    37.543279     239.2602 
   11050    137.15884   -770.73211    135270.27   -35716.792    2652.5827   -38369.375    37.710859    238.70347 
   11100    135.52929   -813.80981    135292.14   -35731.302    2621.0682    -38352.37    37.965775     235.8675 
   11150    140.37833   -596.49763    135305.85    -35753.43    2714.8461   -38468.276    38.217186    244.30649 
   11200    138.84044   -877.23214     135323.5   -35738.558    2685.1041   -38423.662     38.41564    241.63004 
   11250    136.49841   -648.80038    135258.94   -35740.525    2639.8104   -38380.335     38.75788     237.5541 
   11300    137.38756   -665.90275    135294.01   -35794.427    2657.0062   -38451.433    38.866444    239.10153 
   11350    137.48265   -751.81706     135290.1   -35823.112    2658.8451   -38481.957    39.136703    239.26702 
   11400    135.75971   -542.04725    135242.49   -35855.939    2625.5243   -38481.463    39.431621    236.26851 
   11450    135.92537   -680.55006    135262.34   -35846.644     2628.728   -38475.372    39.633942    236.55681 
   11500    135.55864   -481.48525    135310.01   -35869.173    2621.6357   -38490.808    39.921817    235.91858 
   11550     134.3662    -755.0653    135263.01   -35823.919    2598.5746   -38422.494    39.882921    233.84333 
   11600    136.28932   -700.06944    135221.77   -35831.075    2635.7667   -38466.842    39.833448    237.19021 
   11650    138.44978   -756.57807    135220.61   -35787.519    2677.5489   -38465.068    39.995446    240.95015 
   11700    135.69947   -792.52348    135186.54   -35831.438    2624.3593   -38455.797     40.21357    236.16367 
   11750    137.64716   -618.78265     135154.5   -35813.026    2662.0266   -38475.053    40.156383    239.55331 
   11800    133.50331    -693.1181    135196.99   -35804.629    2581.8866   -38386.516    40.395293    232.34159 
   11850    136.98021   -573.33639    135187.93   -35806.639    2649.1281   -38455.767    40.564767     238.3926 
   11900     136.5822   -828.18974    135240.48   -35810.941    2641.4308   -38452.371    40.681101    237.69992 
   11950    135.40095   -625.30259    135281.52   -35823.877     2618.586   -38442.463    40.784184    235.64414 
   12000    135.93227   -760.68612    135265.19   -35835.254    2628.8616   -38464.115    40.813677    236.56883 
   12050    137.82035   -592.90692    135316.21   -35836.552     2665.376   -38501.928    40.884676    239.85472 
   12100    135.42491   -702.46443    135291.45   -35863.127    2619.0495   -38482.177    41.066074    235.68585 
   12150    137.18244   -894.82851    135314.14   -35846.184    2653.0391   -38499.223    41.087347    238.74454 
   12200    134.69948   -616.96416     135269.6   -35889.259    2605.0201   -38494.279    41.190895    234.42335 
   12250    138.33863   -596.00895    135257.69   -35848.952    2675.3993   -38524.351    41.334479    240.75671 
   12300    133.83996   -736.22435    135267.44   -35852.927    2588.3974   -38441.324    41.364616    232.92749 
   12350     136.8046   -650.90399    135237.76   -35818.961    2645.7319   -38464.693    41.531317    238.08697 
   12400    136.64347   -718.08896    135251.59   -35785.392    2642.6158   -38428.008    41.834343    237.80655 
   12450    137.18012   -742.77773     135255.3   -35776.384    2652.9943   -38429.379    41.819548    238.74051 
   12500    137.10432   -781.68273       135314   -35768.945    2651.5285   -38420.473    41.925758     238.6086 
   12550    136.75673   -620.56482    135420.11   -35715.752    2644.8061   -38360.558     42.13883    238.00366 
   12600    136.26114   -513.78209    135555.09   -35755.091    2635.2217   -38390.313    42.424317    237.14116 
   12650    135.23347   -765.42769    135624.11   -35763.903    2615.3471    -38379.25    42.719225    235.35267 
   12700    138.14734   -731.01893    135694.29   -35718.571    2671.6999   -38390.271    42.887419    240.42381 
   12750    138.32408   -704.95083    135631.32    -35713.47     2675.118   -38388.588    42.921045     240.7314 
   12800     135.5905   -715.89911    135564.43   -35781.777    2622.2519   -38404.029    42.985366    235.97403 
   12850    135.84725   -868.75191    135564.38    -35803.08    2627.2173   -38430.298    43.314102    236.42086 
   12900    138.60635   -890.57101    135473.17   -35798.525     2680.577   -38479.102    43.642863    241.22265 
   12950    136.08616   -748.79002    135531.44   -35784.136    2631.8376   -38415.974    43.712259    236.83664 
   13000    133.66525   -748.99674    135404.04   -35814.989    2585.0186   -38400.007    43.837331    232.62343 
   13050    138.34773   -769.09018     135274.4   -35763.752    2675.5754   -38439.328    43.909926    240.77256 
   13100    138.06071   -493.68301    135354.63   -35770.642    2670.0245   -38440.667    44.054913    240.27304 
   13150    137.65732   -486.38251     135426.9   -35744.875    2662.2232   -38407.098    44.031267    239.57101 
   13200    141.28411   -503.57591    135517.23   -35709.453    2732.3634   -38441.817    44.324118    245.88286 
   13250    138.74127   -835.66974    135587.24   -35682.425    2683.1861   -38365.611    44.448183    241.45744 
   13300    138.90861   -505.29115    135696.91   -35680.906    2686.4225   -38367.329     44.44786    241.74868 
   13350    139.78413    -981.8679     135719.5   -35700.982    2703.3545   -38404.337    44.472266    243.27237 
   13400    139.46674   -707.62251    135679.65   -35682.957    2697.2163   -38380.173    44.549732    242.72001 
   13450    137.47894   -790.32181    135717.25   -35704.041    2658.7734   -38362.814    44.564721    239.26056 
   13500    137.69659    -908.4296    135687.61   -35724.383    2662.9827   -38387.366    44.488481    239.63935 
   13550    137.36006   -749.25203    135724.92   -35726.972    2656.4743   -38383.446     44.52564    239.05367 
   13600    134.70634   -730.45649    135695.11     -35705.9    2605.1526   -38311.052    44.702866    234.43528 
   13650    138.51442   -683.37212    135787.63   -35660.311    2678.7991    -38339.11    45.011957    241.06266 
   13700    137.88542   -633.65875    135820.69    -35664.83    2666.6344   -38331.464    45.323366    239.96797 
   13750    139.15696   -730.99291    135812.11    -35653.26    2691.2255   -38344.485    45.348065    242.18089 
   13800     139.0616   -636.31341    135703.59   -35649.675    2689.3812   -38339.056    45.550794    242.01493 
   13850    138.74661   -740.52894    135727.01   -35649.031    2683.2894    -38332.32    45.605606    241.46674 
   13900    138.60844   -751.62933    135694.43   -35669.314    2680.6172   -38349.931    45.808794    241.22627 
   13950    139.37853   -520.24394    135662.52   -35633.923    2695.5106   -38329.434    45.798981    242.56651 
   14000    142.02172   -646.48387    135667.65   -35607.734    2746.6285   -38354.363    46.127253    247.16656 
   14050    137.98728    -888.0976    135613.97    -35615.06    2668.6045   -38283.665    46.207617    240.14525 
   14100    140.76732   -654.29998    135533.48   -35627.835    2722.3689   -38350.204    46.488399    244.98346 
   14150     137.5346    -872.8465     135591.8   -35699.936    2659.8497   -38359.785    46.763426    239.35742 
   14200    139.16233   -494.55612    135614.88   -35715.164    2691.3294   -38406.493    47.050797    242.19024 
   14250    141.52482    -606.7596    135628.87   -35699.827    2737.0186   -38436.845     47.18565    246.30178 
   14300    136.16639   -669.10308     135618.4   -35735.487    2633.3893   -38368.876    47.196034    236.97628 
   14350    137.84205   -525.47005    135665.76   -35690.663    2665.7958   -38356.459    47.464731     239.8925 
   14400    135.99561   -783.57694    135727.04   -35709.763    2630.0865   -38339.849     47.63773    236.67905 
   14450    137.39251   -562.90745    135738.17   -35694.522    2657.1018   -38351.624    47.735639    239.11014 
   14500    138.00367   -763.14175    135727.23   -35649.478    2668.9213   -38318.399    47.916331    240.17376 
   14550    136.83857   -783.65994    135664.28   -35647.874     2646.389   -38294.263    48.058287     238.1461 
   14600    136.69231   -871.87922    135602.59   -35710.395    2643.5602   -38353.956    48.191707    237.89154 
   14650    135.42571     -741.669    135559.87   -35756.897     2619.065   -38375.962    48.286102    235.68724 
   14700    134.09796   -971.45258    135449.05   -35805.178     2593.387   -38398.565    48.217301     233.3765 
   14750    135.26626   -846.53317    135360.73     -35854.9    2615.9812   -38470.881    48.300626    235.40973 
   14800    133.00896   -1146.2368    135225.84   -35816.665    2572.3262   -38388.991    48.359061    231.48126 
   14850    133.51525   -803.49738    135119.31   -35857.388    2582.1176   -38439.506     48.50088    232.36238 
   14900    136.21841   -724.32627    135084.03   -35823.929    2634.3954   -38458.325    48.535678    237.06681 
   14950    138.79953    -817.5774     135054.7   -35795.444    2684.3129   -38479.757    48.759493    241.55884 
   15000    138.39019   -882.61841    135035.74   -35775.646    2676.3964   -38452.042    49.096553    240.84644 
   15050    141.68694   -662.93016    135053.23    -35749.25     2740.154   -38489.404    49.318379    246.58393 
   15100    136.85567   -837.78059    135029.22   -35753.196    2646.7196   -38399.916    49.699024    238.17585 
   15150    137.45562   -639.67631       135011   -35778.139    2658.3223   -38436.462    49.833171    239.21997 
   15200    137.30826   -589.72615    135015.39   -35786.049    2655.4725   -38441.521    49.936139    238.96352 
   15250     137.1232   -621.67964    135111.89   -35792.038    2651.8936   -38443.932    50.152651    238.64145 
   15300    135.06719   -830.55334    135231.42   -35823.456    2612.1314   -38435.588    50.400237    235.06329 
   15350    136.57127   -661.02635    135261.41   -35820.928    2641.2195   -38462.147    50.625556     237.6809 
   15400     138.8679   -863.87051     135296.9   -35750.558    2685.6351   -38436.193    50.696435    241.67782 
   15450    137.88701   -716.77891    135297.62   -35785.248    2666.6652   -38451.913    50.785943    239.97073 
   15500     136.2313   -622.42566    135357.75   -35783.726    2634.6446   -38418.371    50.941138    237.08924 
   15550    136.55782   -1018.0492    135285.22    -35763.94    2640.9593   -38404.899     51.21834    237.65749 
   15600    138.00294   -758.91039    135237.42   -35740.971    2668.9073   -38409.878    51.431708     240.1725 
   15650    138.42988   -791.73803    135259.44   -35769.838     2677.164   -38447.002    51.558784    240.91552 
   15700    134.54357   -822.29793     135364.8   -35835.107    2602.0048   -38437.112    51.892022    234.15201 
   15750    136.98137   -495.42445    135430.49   -35860.026    2649.1505   -38509.177    52.042985    238.39461 
   15800    136.22017   -436.88282    135511.88   -35869.964    2634.4293   -38504.393    52.125126    237.06986 
   15850    138.48795   -726.75477    135542.13   -35830.831     2678.287   -38509.118    52.397724    241.01658 
   15900    136.92975   -740.18356     135530.5   -35842.608    2648.1522    -38490.76    52.615584    238.30477 
   15950    134.90532   -629.70801     135489.2   -35863.351    2609.0009   -38472.352    52.840024    234.78158 
   16000    135.36462   -659.66529    135575.09   -35875.338    2617.8835   -38493.222    53.011104    235.58091 
   16050    140.37507   -652.13076    135577.88   -35820.445     2714.783   -38535.228    53.124122    244.30082 
   16100     136.1104   -494.67464    135595.68   -35796.266    2632.3065   -38428.573    53.251204    236.87883 
   16150    137.25142   -745.73528    135626.74   -35809.693    2654.3733   -38464.066    53.359995     238.8646 
   16200    139.93018   -772.73514    135612.28   -35771.765    2706.1791   -38477.944    53.445917    243.52655 
   16250    137.99519   -946.86569    135519.03   -35723.088    2668.7574   -38391.846     53.71574    240.15901 
   16300    141.44661   -630.42555    135449.73   -35686.701     2735.506   -38422.207     53.86417    246.16566 
   16350    138.25718   -759.76128    135449.33     -35696.4    2673.8242   -38370.224    54.021361    240.61497 
   16400    140.05431   -457.60833     135435.7   -35681.229    2708.5798   -38389.809    54.105662    243.74259 
   16450    135.59115   -526.60132    135488.54    -35755.87    2622.2644   -38378.134    54.288061    235.97515 
   16500    137.78818   -774.25873    135441.11   -35746.745    2664.7539   -38411.499    54.365297    239.79875 
   16550    134.25353   -962.45204    135354.34   -35796.141    2596.3956   -38392.537    54.401864    233.64724 
   16600    137.95761   -665.69923     135304.8   -35789.328    2668.0306   -38457.359    54.479963    240.09361 
   16650     138.3342   -776.44676    135229.02   -35720.689    2675.3136   -38396.002    54.623193      240.749 
   16700    139.65842   -903.94671    135238.77   -35728.062    2700.9233   -38428.985    54.769538    243.05359 
   16750    139.34637   -560.22757    135210.71   -35728.107    2694.8885   -38422.996    54.641641    242.51053 
   16800    139.12383    -799.1849    135237.61   -35746.043    2690.5847   -38436.628    54.930355    242.12323 
   16850    137.27564   -916.70934    135264.77   -35768.499    2654.8416   -38423.341    55.072981    238.90674 
   16900    138.66569   -690.54068    135202.22   -35735.999    2681.7246   -38417.724    55.050092    241.32592 
   16950    137.70264   -834.56013    135240.84   -35777.586    2663.0995   -38440.686    55.333861    239.64987 
   17000    138.60079   -615.37749    135280.61   -35693.771    2680.4693    -38374.24    55.275373    241.21296 
   17050    137.53448   -866.47147    135342.76   -35690.701    2659.8474   -38350.548    55.338272    239.35721 
   17100    137.81875    -847.3029    135407.14   -35715.972    2665.3451   -38381.317    55.442966    239.85194 
   17150    137.44073   -816.62642     135390.9   -35715.617    2658.0343   -38373.652     55.59568    239.19405 
   17200    139.00084   -713.52624     135468.7   -35760.272    2688.2061   -38448.479    55.569859    241.90919 
   17250    136.63161   -767.40821    135430.03   -35776.912    2642.3864   -38419.299    55.672349    237.78591 
   17300    135.25838   -798.30715    135400.04   -35836.425    2615.8288   -38452.254    55.675639    235.39602 
   17350    136.17655   -724.31521    135343.61   -35813.512    2633.5859   -38447.097    55.728872    236.99396 
   17400    135.17299    -750.8261    135319.62   -35790.251    2614.1774   -38404.428    55.885555    235.24741 
   17450    137.39906   -644.76148    135327.41   -35803.682    2657.2286    -38460.91    55.956897    239.12155 
   17500     136.5648   -864.77432    135290.52   -35808.718    2641.0944   -38449.812    56.091587    237.66965 
   17550    136.72146   -637.82553    135320.06   -35773.244     2644.124   -38417.368    56.424862    237.94228 
   17600     135.2491   -871.98919    135269.72   -35818.976    2615.6494   -38434.625    56.368703    235.37988 
   17650    136.66291   -558.89937     135316.6   -35830.738    2642.9918    -38473.73    56.693422    237.84039 
   17700    135.38608   -872.25126    135336.69   -35795.168    2618.2984   -38413.467    56.769436    235.61826 
   17750    136.86969   -660.99691     135379.3   -35834.251    2646.9908   -38481.241    56.866541    238.20026 
   17800    137.04192   -686.02991    135403.78   -35840.057    2650.3215   -38490.379    56.995974    238.49999 
   17850    136.72829   -563.95999    135470.37   -35874.325    2644.2561   -38518.581    57.143682    237.95417 
   17900    137.01128   -870.90106    135459.37   -35885.802    2649.7291   -38535.531     57.14284    238.44667 
   17950    136.13627   -670.89447    135444.94   -35884.605    2632.8068   -38517.412    57.214517    236.92385 
   18000    137.73327     -585.033    135529.35   -35865.458    2663.6919    -38529.15    57.338704    239.70318 
   18050    136.74977   -623.79619    135603.09   -35862.743    2644.6717   -38507.415    57.568672    237.99156 
   18100    138.87779   -705.04272    135650.23   -35824.969    2685.8264   -38510.796    57.757968    241.69504 
   18150     138.3383   -728.62907    135707.79   -35786.038    2675.3929   -38461.431    57.778822    240.75613 
   18200    136.17173   -613.69069     135661.5   -35767.509    2633.4926   -38401.001      58.1533    236.98556 
   18250    141.21984   -750.34783    135712.09    -35758.11    2731.1205    -38489.23    58.407158    245.77101 
   18300    135.35482   -489.24895    135768.91   -35750.028     2617.694   -38367.722     58.68903    235.56386 
   18350    139.86482   -649.17898    135852.81   -35708.685    2704.9151     -38413.6    58.869535    243.41281 
   18400    137.97038   -728.84801    135905.02   -35731.709    2668.2776   -38399.987    59.143281    240.11584 
   18450    135.19023   -786.38819    135830.41   -35701.027    2614.5109   -38315.538    59.343289    235.27742 
   18500    142.09649    -738.1485    135809.37    -35678.07    2748.0744   -38426.144    59.409432    247.29668 
   18550    139.71716   -785.64436    135872.33   -35673.059    2702.0593   -38375.119    59.720831    243.15582 
   18600       138.27    -799.9798    135916.07   -35732.803     2674.072   -38406.875    59.909391    240.63727 
   18650    137.88396   -915.45026     135876.7   -35725.401    2666.6062   -38392.007    59.876537    239.96543 
   18700    137.76927   -852.52854     135887.2   -35709.701    2664.3882   -38374.089    60.089308    239.76583 
   18750    140.93221   -1041.9208    135939.92   -35671.024    2725.5579   -38396.582    60.414578    245.27043 
   18800    139.11158    -1001.721    135887.41   -35698.615    2690.3478   -38388.963    60.386971    242.10192 
   18850    137.08873   -1002.3292     135868.3   -35699.411    2651.2269   -38350.638    60.524485    238.58146 
   18900    134.68881   -919.94366    135785.91   -35723.069    2604.8137   -38327.883    60.462897    234.40478 
   18950    137.62408   -1088.4374    135592.18   -35720.423    2661.5804   -38382.004    60.527622    239.51316 
   19000     139.0204   -1001.7065    135492.48    -35719.89    2688.5843   -38408.475    60.593105    241.94322 
   19050    137.68378   -580.04978    135536.72   -35721.644    2662.7348   -38384.379    60.776651    239.61705 
   19100    138.27195   -611.92097    135537.18    -35732.25    2674.1097    -38406.36    60.856696    240.64066 
   19150    138.08684   -736.13672     135582.9   -35733.952    2670.5299   -38404.481    60.987299    240.31852 
   19200    137.68078   -564.43803    135572.97   -35753.819    2662.6767   -38416.495    61.210823    239.61182 
   19250    137.32622   -703.33476     135594.4   -35732.192    2655.8199   -38388.011    61.234681    238.99478 
   19300    137.26985   -588.86969    135635.31   -35747.853    2654.7296   -38402.582    61.338628    238.89666 
   19350    137.49892    -779.3695    135686.63     -35732.9    2659.1597    -38392.06    61.558961    239.29532 
   19400    138.29229   -730.69075    135702.88   -35703.413    2674.5032   -38377.916    61.750996    240.67607 
   19450    134.63928   -862.40592    135717.48   -35730.535    2603.8557   -38334.391    61.931813    234.31857 
   19500    137.48355   -800.71985    135731.68   -35709.851    2658.8625   -38368.714    62.198557    239.26858 
   19550    139.12663   -653.74728    135710.58   -35682.927    2690.6389   -38373.565    62.294187    242.12811 
   19600    138.26409   -760.53554    135815.76     -35764.7    2673.9578   -38438.658    62.536939    240.62699 
   19650    138.56526   -666.72067    135812.23   -35761.167    2679.7823   -38440.949    62.424959    241.15114 
   19700    138.21854   -444.81897     135926.2   -35733.415    2673.0769   -38406.492    62.652525    240.54772 
   19750    139.75632    -877.2062    135942.94   -35711.688    2702.8167   -38414.505     62.77096    243.22398 
   19800    137.96794   -731.85302    135947.99   -35736.989    2668.2303   -38405.219    62.757501    240.11158 
   19850    136.58097   -703.36225    135869.22   -35774.738    2641.4071   -38416.145    62.858584    237.69779 
   19900    137.04258   -794.08294    135859.32   -35759.543    2650.3344   -38409.877    62.979038    238.50115 
   19950    138.25368   -803.60953    135850.38   -35799.213    2673.7565    -38472.97    63.205282    240.60888 
   20000    135.43412   -608.35964    135809.36    -35827.73    2619.2275   -38446.958    63.172756    235.70187 
   20050    137.07795   -642.51958    135883.83   -35803.044    2651.0183   -38454.062    63.113719    238.56269 
   20100    134.05813   -680.34047    135960.67   -35844.155    2592.6166   -38436.771    62.973527    233.30718 
   20150      133.841   -785.86477    135884.32   -35886.427    2588.4174   -38474.845    63.023756    232.92929 
   20200    135.79959   -832.89095     135822.6   -35893.407    2626.2955   -38519.702    63.029479    236.33791 
   20250    134.47847   -935.99721    135782.89   -35881.612    2600.7459   -38482.358    63.283113    234.03872 
   20300    135.59354   -749.98607    135746.54   -35863.215    2622.3106   -38485.526    63.354326    235.97931 
   20350    136.17743   -785.24934    135731.45   -35881.688    2633.6028    -38515.29    63.443097    236.99548 
   20400    137.20162    -725.5537    135683.27   -35847.887    2653.4101   -38501.297    63.573855    238.77792 
   20450    136.11639   -745.36383     135769.9     -35851.6    2632.4224   -38484.023     63.63332    236.88926 
   20500    136.43244   -1058.7042    135691.01   -35878.865    2638.5346     -38517.4    63.734009    237.43929 
   20550    137.49044   -649.09207    135707.78   -35810.548    2658.9958   -38469.543    64.087837    239.28058 
   20600     135.2434   -550.33196    135741.92   -35813.693    2615.5391   -38429.232    64.294385    235.36994 
   20650    135.87577   -611.94079    135780.26   -35750.957    2627.7689   -38378.726    64.651869    236.47049 
   20700    138.36225   -530.01116    135839.19   -35770.347    2675.8562   -38446.203    64.837306    240.79783 
   20750    135.86128   -647.74858    135879.02   -35793.126    2627.4886   -38420.614    65.103363    236.44528 
   20800    136.22863    -705.3519    135885.12    -35800.05    2634.5931   -38434.643    65.214223     237.0846 
   20850    137.39703   -797.02065    135794.87   -35742.828    2657.1893   -38400.017    65.532961    239.11801 
   20900    138.27256   -743.73313     135737.4   -35792.309    2674.1215    -38466.43    65.713351    240.64173 
   20950    137.47574   -810.91608    135687.69   -35778.116    2658.7114   -38436.827    65.738844    239.25498 
   21000    136.78337   -527.85677    135674.28   -35780.058    2645.3214   -38425.379    65.831185    238.05003 
   21050    136.76805   -587.65367    135701.95   -35805.905    2645.0251    -38450.93    65.882197    238.02336 
   21100    135.04761   -796.34757    135673.06   -35796.554    2611.7526   -38408.306    65.876333     235.0292 
   21150    136.19582   -782.45513    135547.01   -35814.236    2633.9585   -38448.195    65.795947    237.02749 
   21200    138.03048   -657.78401    135549.92   -35757.585    2669.4398   -38427.025    65.880751    240.22042 
   21250    138.58036   -604.07683    135591.89   -35742.434    2680.0742   -38422.508    66.160038     241.1774 
   21300    138.52601    -827.7669    135656.65   -35709.178    2679.0231   -38388.201    66.299775    241.08282 
   21350    137.22469    -716.9049    135626.62   -35729.229    2653.8562   -38383.085    66.495726    238.81807 
   21400    137.68042   -699.60927    135666.49   -35791.612    2662.6699   -38454.282    66.659561    239.61121 
   21450     134.2033   -732.99364    135642.45   -35789.298    2595.4241   -38384.722     66.99999    233.55982 
   21500     135.7457   -777.17231    135633.18   -35790.263    2625.2533   -38415.517    67.149213    236.24412 
   21550     135.6623   -604.31772    135639.75    -35797.83    2623.6405   -38421.471     67.02658    236.09899 
   21600    136.94576   -741.65812    135685.82   -35844.878    2648.4618    -38493.34    67.148117    238.33263 
   21650     136.2379   -834.75433     135749.3   -35854.505    2634.7724   -38489.278      67.2472    237.10073 
   21700     136.1407   -707.11687    135613.46   -35885.309    2632.8925   -38518.202     67.25571    236.93156 
   21750    134.93213   -746.09187    135560.26   -35891.746    2609.5193   -38501.265    67.495245    234.82823 
   21800    134.76533   -764.25791    135429.24   -35923.709    2606.2935   -38530.003    67.651146    234.53795 
   21850     138.7108   -831.10638    135326.35   -35894.009    2682.5969   -38576.606    67.481457    241.40441 
   21900    135.90621   -717.82645    135192.17    -35880.71    2628.3575   -38509.067     67.76444    236.52346 
   21950    137.24455   -843.77455    135179.51   -35805.777    2654.2404   -38460.017    67.830207    238.85264 
   22000     135.4222   -832.18121    135164.39   -35844.237    2618.9971   -38463.234    67.981725    235.68113 
   22050    136.27116   -982.94036    135181.02   -35853.895    2635.4156   -38489.311    68.035708    237.15861 
   22100    135.04066   -502.23202    135159.13   -35843.002    2611.6182   -38454.621    68.157702    235.01711 
   22150    136.08042   -604.38795    135258.22   -35849.603    2631.7267    -38481.33    68.372317    236.82665 
   22200    136.99304   -838.28882    135223.92   -35786.256    2649.3764   -38435.632    68.648996    238.41493 
   22250    137.06915   -768.80906    135140.05   -35784.004    2650.8482   -38434.852    68.837532    238.54738 
   22300    134.88591   -561.65587    135147.26   -35781.947    2608.6254   -38390.572    69.211074    234.74779 
   22350      136.132   -720.41304    135166.33   -35825.328    2632.7242   -38458.052       69.325    236.91642 
   22400     135.8267   -506.67017    135258.23   -35815.509    2626.8199   -38442.329     69.35232    236.38509 
   22450    134.33514   -610.86825    135219.06   -35831.196    2597.9739    -38429.17    69.561866    233.78927 
   22500    134.24793   -973.00653    135214.25   -35793.632    2596.2872   -38389.919    69.688301    233.63749 
   22550    139.35341   -919.24257    135234.12   -35737.369    2695.0247   -38432.394    69.880128    242.52278 
   22600    139.51765    -657.1827    135184.79   -35744.566     2698.201   -38442.767    70.040616    242.80861 
   22650    137.74707   -900.63163     135055.5   -35802.232    2663.9588    -38466.19    70.209703     239.7272 
   22700    136.43842   -942.61752    134973.17   -35787.027    2638.6502   -38425.677    70.200246     237.4497 
   22750    138.99607   -876.71025     134907.3   -35751.155    2688.1139   -38439.269    70.564709    241.90089 
   22800    138.29485    -881.7435    134900.18   -35749.175    2674.5527   -38423.727    70.776988    240.68053 
   22850    136.17388   -891.44773    134889.14    -35728.73    2633.5342   -38362.264    70.876721    236.98931 
   22900    134.71533   -846.37795    134810.25   -35744.436    2605.3265   -38349.763    71.191878    234.45092 
   22950    135.24414   -644.62855    134731.72   -35729.878    2615.5535   -38345.431    71.298016    235.37124 
   23000    134.96758   -786.59962    134710.89   -35767.441    2610.2049   -38377.646    71.334314    234.88993 
   23050    136.65033   -619.29289    134711.21   -35798.517    2642.7484   -38441.265    71.608615    237.81849 
   23100    138.97614     -636.522    134696.19   -35730.406    2687.7285   -38418.134    71.630505    241.86621 
   23150     133.0851   -362.48693    134789.68   -35716.723    2573.7988   -38290.522    72.004507    231.61378 
   23200    136.24265   -773.41047     134881.2   -35717.007    2634.8641   -38351.871    71.960404    237.10899 
   23250    140.46584   -823.10236    134948.54   -35739.461    2716.5385       -38456    72.041481    244.45879 
   23300    136.43073   -819.92336    134952.19   -35724.047    2638.5015   -38362.549    72.218044    237.43631 
   23350    133.57351   -516.57064    134988.02   -35709.652    2583.2442   -38292.896    72.186601    232.46376 
   23400    137.88465   -705.01999     134968.7    -35676.71    2666.6195    -38343.33    72.321098    239.96663 
   23450    137.96245   -804.62271    134877.01   -35665.144    2668.1241   -38333.268    72.137734    240.10203 
   23500    136.16283   -625.74729    134846.44   -35699.837    2633.3204   -38333.157    72.250559    236.97007 
   23550    137.48827   -744.11572    134810.55   -35715.658    2658.9537   -38374.611    72.513938    239.27679 
   23600    136.67411   -241.57397    134896.63   -35682.076    2643.2083   -38325.285    72.965974    237.85987 
   23650    139.18139   -799.20226    134992.66   -35748.597    2691.6979   -38440.295    73.195234    242.22341 
   23700    136.96899   -954.68958    134923.82   -35727.412    2648.9111   -38376.323    73.282692    238.37306 
   23750     138.4381   -583.71209    134899.91   -35722.223     2677.323   -38399.546    73.263549    240.92982 
   23800    136.05777   -609.90322    134932.31   -35733.609    2631.2887   -38364.898    73.453356    236.78724 
   23850    133.93487   -835.55844    134930.04   -35729.597    2590.2328   -38319.829    73.685165    233.09266 
   23900    138.29779   -699.39613    134872.36   -35735.715    2674.6095   -38410.325    74.003502    240.68564 
   23950    137.69733   -708.15132    134782.17   -35729.066    2662.9969   -38392.063    73.959302    239.64063 
   24000    138.78811   -656.25649    134770.55   -35746.446    2684.0921   -38430.538    74.072461    241.53897 
   24050    135.03345   -673.10115    134786.78   -35791.932    2611.4787   -38403.411    74.017204    235.00456 
   24100    136.51353   -780.63097     134835.8   -35744.086    2640.1027   -38384.189    74.371926    237.58041 
   24150    138.81603   -1035.4425    134810.13   -35677.809    2684.6321   -38362.441    74.403156    241.58756 
   24200    136.58255   -912.63115    134739.06   -35720.025    2641.4376   -38361.463     74.46834    237.70053 
   24250    138.52158   -715.06582    134749.54   -35650.886    2678.9374   -38329.824    74.664635    241.07511 
   24300    138.95576   -714.35013    134711.59   -35654.599    2687.3342   -38341.933    74.657643    241.83073 
   24350    137.17872   -543.21169    134715.62    -35672.01    2652.9672   -38324.977    74.503142    238.73807 
   24400    137.30901   -678.13597    134724.65    -35754.87    2655.4869   -38410.357    74.606921    238.96482 
   24450     136.1377   -942.30097    134683.55   -35751.599    2632.8345   -38384.433    74.606376    236.92635 
   24500    137.01931   -699.17306    134639.32   -35747.938    2649.8843   -38397.823    74.695599    238.46064 
   24550    139.05286   -464.18102     134701.6   -35711.064    2689.2121   -38400.276    74.805806    241.99971 
   24600    135.07763   -642.63182    134861.01   -35682.791    2612.3332   -38295.124    75.063896    235.08145 
   24650    135.69704   -781.99345    134848.86   -35717.328    2624.3123    -38341.64    75.086524    236.15944 
   24700    138.54898   -928.49592    134836.55    -35683.52    2679.4674   -38362.988     75.01438    241.12279 
   24750    136.03448   -575.21557    134750.09   -35739.139    2630.8383   -38369.978    75.231274    236.74671 
   24800    137.89456    -895.6922    134791.56   -35767.302    2666.8113   -38434.114    75.534217    239.98388 
   24850    137.94154   -521.48217    134930.45   -35773.213    2667.7198   -38440.933    75.854721    240.06564 
   24900    133.43752   -602.76041     134896.3    -35772.76    2580.6144   -38353.374    75.997557     232.2271 
   24950    137.48319   -855.27328    134914.37   -35741.214    2658.8556    -38400.07    76.010296    239.26796 
   25000    138.43542   -785.74538    134908.61   -35703.171    2677.2711   -38380.442    76.287462    240.92516 
   25050    138.82786   -741.40743    134902.97    -35689.57    2684.8609   -38374.431     76.69094    241.60815 
   25100    136.91263    -610.9685    134996.57   -35675.567    2647.8211   -38323.388    76.853777    238.27498 
   25150    140.26826   -425.45543    135064.48   -35621.785    2712.7174   -38334.503     76.96604    244.11493 
   25200    137.49405   -464.49982    135194.23   -35614.484    2659.0656   -38273.549    77.194859    239.28686 
   25250    139.35021    -678.8304    135264.68   -35610.694    2694.9628   -38305.657    77.257575    242.51721 
   25300    138.53986   -717.25623    135301.93   -35601.887     2679.291   -38281.178    77.404036    241.10692 
   25350    142.62963   -925.74795    135279.03    -35613.75    2758.3851   -38372.135    77.331554    248.22453 
   25400    139.18504   -872.58505    135293.53   -35637.931    2691.7684   -38329.699     77.53425    242.22975 
   25450    138.91142   -918.13461    135171.14   -35643.049    2686.4768   -38329.526    77.503466    241.75357 
   25500    138.64191   -919.70745    135083.73   -35665.869    2681.2646   -38347.134    77.564505    241.28453 
   25550    139.96652   -819.60714    135021.37   -35594.887     2706.882   -38301.769    77.709257    243.58981 
   25600    139.84288   -846.29871    134944.05   -35589.826    2704.4908   -38294.317     77.72532    243.37463 
   25650    139.61194   -803.98328    134841.72   -35625.311    2700.0246   -38325.336    77.818122    242.97272 
   25700    139.34159    -764.7898    134824.98   -35585.797     2694.796   -38280.593    78.038658     242.5022 
   25750     138.6016   -573.33217    134840.01   -35610.899    2680.4851   -38291.384    78.242467    241.21438 
   25800    140.16595   -578.14156    134800.69   -35627.856    2710.7388   -38338.594    78.452962    243.93688 
   25850    138.40932   -1043.2609    134816.32   -35672.263    2676.7665    -38349.03    78.763814    240.87974 
   25900    140.07813   -1049.4064    134703.15   -35626.236    2709.0404   -38335.276    78.967322    243.78404 
   25950    137.14339   -621.34298    134740.53   -35628.087     2652.284   -38280.371    78.978934    238.67658 
   26000    138.45629   -629.75285    134810.61   -35731.564    2677.6748   -38409.239    79.012864    240.96148 
   26050    138.25082    -809.1676    134903.04   -35739.094    2673.7012   -38412.795    79.001599     240.6039 
   26100    136.57087    -789.0773    134922.26   -35760.357    2641.2118   -38401.569    79.337557    237.68021 
   26150    137.23545   -584.59589    135016.37   -35782.809    2654.0644   -38436.874    79.620833    238.83681 
   26200    140.17209   -411.85282    135017.51   -35747.153    2710.8576    -38458.01    79.989026    243.94757 
   26250    135.92695   -517.91355    135098.08   -35745.943    2628.7586   -38374.701    80.363888    236.55955 
   26300    135.72386     -563.743    135208.31   -35796.211     2624.831   -38421.042    80.648297    236.20612 
   26350    135.78816   -825.05801    135222.95   -35781.186    2626.0745    -38407.26    81.129533    236.31802 
   26400    135.59441   -446.82608    135232.16   -35723.218    2622.3274   -38345.545    81.402288    235.98082 
   26450    138.54095   -775.20236    135176.73   -35717.839     2679.312   -38397.151    81.529654    241.10881 
   26500    136.80549   -656.58812    135263.95   -35715.908    2645.7491   -38361.658    81.627078    238.08852 
   26550    139.18493   -772.71382    135279.96   -35680.207    2691.7663   -38371.973    81.883131    242.22956 
   26600    140.19896    -771.2021    135238.64   -35672.487    2711.3772   -38383.864    82.061765    243.99433 
   26650     138.9942   -631.32528    135153.49   -35733.415    2688.0778   -38421.493    82.181274    241.89764 
   26700    136.23287   -804.36486    135244.86   -35759.513     2634.675   -38394.188    82.472002    237.09197 
   26750     140.3751   -602.50496    135210.87   -35769.924    2714.7836   -38484.708    82.383111    244.30087 
   26800    138.08016   -806.41261    135255.25   -35781.031    2670.4006   -38451.432    82.458197    240.30689 
   26850    139.04729   -875.61357    135280.89   -35725.002    2689.1045   -38414.107     82.78556    241.99003 
   26900    137.35258   -609.39336    135236.72   -35724.155    2656.3295   -38380.484    82.874735    239.04064 
   26950    138.67897   -699.09291    135225.89   -35677.297    2681.9812   -38359.278    82.949395    241.34901 
   27000    138.33479    -774.1772     135204.6   -35662.527    2675.3251   -38337.852    83.287241    240.75004 
   27050    137.91022   -725.49624    135197.28   -35680.451    2667.1142   -38347.565    83.482557    240.01114 
   27100    138.88068   -644.56126    135156.86   -35712.077    2685.8824    -38397.96    83.716766    241.70007 
   27150    139.76531   -500.42282    135158.41   -35645.906    2702.9905   -38348.896    83.906943    243.23962 
   27200    139.57802   -602.97777    135177.05   -35676.535    2699.3686   -38375.903     84.20277    242.91368 
   27250    138.79632   -481.48666    135265.25   -35690.593    2684.2509   -38374.844    84.352759    241.55326 
   27300    136.73443   -666.84053    135262.02   -35756.826    2644.3748   -38401.201    84.663357    237.96485 
   27350    141.51976   -614.70843    135287.64    -35672.49    2736.9207   -38409.411    84.767265    246.29297 
   27400    137.95399   -602.34056    135381.22   -35723.346    2667.9607   -38391.307    84.859958    240.08732 
   27450    140.52565     -596.903    135376.64   -35726.176    2717.6952   -38443.871    85.249663    244.56288 
   27500    135.31479   -697.44327    135322.28   -35786.127    2616.9198   -38403.047    85.504031    235.49419 
   27550    137.96263   -646.80098    135335.75   -35806.189    2668.1276   -38474.317    85.726679    240.10234 
   27600    137.36483   -550.34238    135329.98    -35777.88    2656.5665   -38434.447    85.756731    239.06197 
   27650    137.05073   -846.91682    135368.44   -35792.137    2650.4919   -38442.629    85.908991    238.51532 
   27700    135.29586    -791.9271    135380.44   -35740.438    2616.5537   -38356.992    86.290627    235.46125 
   27750    137.74129   -544.65255    135360.93   -35782.951    2663.8471   -38446.798    86.369489    239.71714 
   27800     133.9487   -521.43261    135387.73   -35794.905    2590.5004   -38385.406    86.534876    233.11674 
   27850    139.38193   -685.49893    135420.99   -35746.757    2695.5763   -38442.333    86.865889    242.57242 
   27900    139.01786   -532.08206    135324.58   -35718.507    2688.5354   -38407.043    87.104519    241.93882 
   27950    140.26114   -618.91456    135370.89   -35737.064    2712.5797   -38449.643    87.306413    244.10255 
   28000    140.19034   -726.22568    135482.11   -35734.375    2711.2104   -38445.586    87.550938    243.97932 
   28050    136.34362   -594.71833    135486.22   -35774.327    2636.8168   -38411.144    87.961768    237.28471 
   28100     138.7941    -373.4078    135529.13   -35761.694     2684.208   -38445.902    88.027636     241.5494 
   28150    138.64078   -525.70349    135563.88   -35777.732    2681.2428   -38458.975    88.006158    241.28257 
   28200    139.43078    -482.5981    135615.32   -35747.582     2696.521   -38444.103    88.223975    242.65743 
   28250    139.99503   -544.96931     135645.2   -35712.476    2707.4332   -38419.909    88.291566    243.63942 
   28300    140.63096   -729.77216    135679.64   -35685.071    2719.7319   -38404.803    88.408898    244.74616 
   28350    139.27279   -776.69732    135590.09   -35732.795    2693.4656    -38426.26    88.179733    242.38248 
   28400    139.00375   -629.68814    135503.07   -35697.554    2688.2625   -38385.817     88.48319    241.91426 
   28450    138.77968   -702.17061    135529.51   -35700.535    2683.9289   -38384.463    88.427543    241.52429 
   28500    142.19483   -976.55861    135532.96   -35729.156    2749.9763   -38479.133    88.563184    247.46783 
   28550    138.08201   -601.30862    135495.52   -35762.098    2670.4365   -38432.534    88.819008    240.31011 
   28600    138.15469   -485.04641    135539.87   -35823.926    2671.8419   -38495.768    89.009612    240.43659 
   28650    138.59783   -857.65019    135523.33   -35796.977    2680.4122   -38477.389    89.021645    241.20781 
   28700    138.96734   -517.08827    135540.36    -35745.22    2687.5582   -38432.778    89.188362    241.85088 
   28750    139.16968    -731.0973    135537.79   -35724.661    2691.4713   -38416.132     89.11051    242.20302 
   28800    137.87684   -477.77675    135563.45   -35740.887    2666.4684   -38407.356    89.145575    239.95303 
   28850    137.87672   -293.58127    135609.17   -35701.754    2666.4662   -38368.221    89.163518    239.95283 
   28900    138.69278   -589.01946    135726.33   -35705.866    2682.2483   -38388.114    89.354457    241.37305 
   28950    136.84856   -619.44753    135784.96   -35749.982    2646.5821   -38396.564    89.651895    238.16348 
   29000    136.51351   -633.62921    135825.74   -35708.156    2640.1025   -38348.259    89.770266    237.58039 
   29050    135.59667   -643.96861    135778.37   -35716.791    2622.3712   -38339.162    90.049985    235.98476 
   29100    136.68444   -529.53369    135835.18   -35711.289    2643.4081   -38354.698    90.101519    237.87785 
   29150    136.07128   -734.57424    135824.55   -35682.012    2631.5499   -38313.562    90.111878    236.81075 
   29200    139.09754   -768.08323    135667.91   -35690.677    2690.0762   -38380.754    89.921159    242.07747 
   29250    135.16301   -864.76102    135525.05   -35734.169    2613.9845   -38348.153    90.345025    235.23005 
   29300     135.9511   -748.01143    135415.13   -35691.432    2629.2257   -38320.658    90.377618    236.60159 
   29350    139.79696   -684.92082    135379.24   -35675.455    2703.6027   -38379.058    90.551812    243.29471 
   29400     134.5481    -831.5512     135391.2   -35722.562    2602.0924   -38324.654    90.650847     234.1599 
   29450     139.2746   -732.61904    135376.43   -35636.672    2693.5006   -38330.172    90.633087    242.38563 
   29500    137.69433   -776.60424    135410.92   -35619.782     2662.939   -38282.721     90.55671    239.63542 
   29550    140.20766   -836.14382    135418.34   -35577.593    2711.5455   -38289.138    90.644127    244.00947 
   29600    136.47078   -779.46636    135410.86   -35643.429    2639.2761   -38282.705      90.8293    237.50602 
   29650    138.48086   -572.94033    135292.15   -35666.914    2678.1501   -38345.065     91.20006    241.00425 
   29700    139.33464    -525.5249    135347.01   -35659.319    2694.6616    -38353.98    91.366698    242.49011 
   29750    138.98678   -892.13595    135344.56    -35682.85    2687.9343   -38370.784    91.790405    241.88472 
   29800    139.98659   -875.44819    135339.98   -35691.785      2707.27   -38399.055    92.081649    243.62473 
   29850    136.89246    -704.2572    135179.56   -35778.912    2647.4312   -38426.343    92.250745    238.23989 
   29900     135.9045   -566.91921    135172.09   -35784.171    2628.3244   -38412.496    92.315225    236.52049 
   29950    138.40222   -598.68141    135143.75   -35780.427    2676.6291   -38457.056    92.596423    240.86738 
   30000    132.91274   -876.66628    135113.75   -35797.941    2570.4653   -38368.406    92.752163     231.3138 
   30050    135.61315   -727.31911    135161.84    -35756.87    2622.6899    -38379.56    92.621014    236.01344 
   30100    135.47993   -1144.5564    135208.22   -35752.194    2620.1134   -38372.307    93.011519    235.78159 
   30150     134.6349   -686.20638     135215.6   -35741.154     2603.771   -38344.925    93.016248    234.31095 
   30200    134.97649   -737.01257    135192.11   -35754.351    2610.3773   -38364.728    93.344557    234.90544 
   30250    138.85419   -698.37673    135239.62   -35719.837    2685.3701   -38405.207    93.585284    241.65397 
   30300    136.31068   -540.87029    135308.87   -35765.121    2636.1797   -38401.301    93.820796    237.22738 
   30350    137.07821   -796.40479    135338.47   -35720.227    2651.0234   -38371.251    94.029701    238.56314 
   30400    135.02992   -635.79276    135355.06   -35687.739    2611.4106   -38299.149    93.875253    234.99842 
   30450    138.34886   -713.24214    135404.97   -35628.428    2675.5972   -38304.025    94.012283    240.77452 
   30500    138.96128   -809.18635    135375.64   -35638.976    2687.4411   -38326.418    94.348014    241.84034 
   30550    138.79174   -615.74813    135349.23   -35683.628    2684.1623    -38367.79    94.660788    241.54529 
   30600    138.06388   -772.19833    135335.29   -35710.933    2670.0859   -38381.019    94.950658    240.27856 
   30650    135.17856   -797.27824    135339.08    -35731.92    2614.2853   -38346.205    95.161763    235.25712 
   30700    135.18971    -483.5691    135376.09    -35768.26    2614.5009   -38382.761    95.294866    235.27652 
   30750    137.95576   -847.75087    135434.12   -35743.646    2667.9948   -38411.641    95.266584    240.09039 
   30800    136.28066   -439.84435    135501.47   -35784.243    2635.5992   -38419.842    95.175296    237.17514 
   30850    138.04233    -749.9202    135559.99   -35740.733    2669.6691   -38410.402    95.178521    240.24106 
   30900    138.92497   -661.99525    135520.66     -35711.2    2686.7389   -38397.939    95.657149    241.77715 
   30950    139.11847   -778.73368    135644.12    -35718.94    2690.4811   -38409.421    96.024785    242.11391 
   31000    139.22283   -810.14473    135696.41   -35705.293    2692.4992   -38397.792    96.186539    242.29552 
   31050    137.69779   -996.77241    135649.82   -35747.434    2663.0059   -38410.439     96.41148    239.64144 
   31100    136.18587   -879.03467    135547.77   -35745.802    2633.7661   -38379.568    96.762547    237.01018 
   31150    136.56569   -992.60835    135468.97   -35707.035    2641.1115   -38348.147    97.033529    237.67119 
   31200    139.25516   -861.26714    135468.07   -35739.844    2693.1245   -38432.968    96.998935    242.35178 
   31250    136.71076   -826.71873    135473.25   -35687.636    2643.9171   -38331.553    96.947624    237.92366 
   31300    138.00208   -983.09672    135442.81   -35700.897    2668.8905   -38369.788    97.138215    240.17099 
   31350    137.90255    -858.6916    135394.35   -35736.937    2666.9657   -38403.902    97.437172    239.99778 
   31400    136.11575   -814.59246    135399.74   -35756.051    2632.4099   -38388.461    97.645871    236.88814 
   31450    138.05902   -721.06168    135407.49   -35682.301    2669.9918   -38352.293    97.774405    240.27009 
   31500    140.38352   -888.58297    135375.05   -35726.505    2714.9464   -38441.451    97.846056    244.31552 
   31550    139.26653   -740.53231    135389.96   -35762.455    2693.3445   -38455.799     98.18744    242.37158 
   31600    133.51914   -550.50049    135354.99   -35789.833    2582.1927   -38372.026    98.507652    232.36914 
   31650    139.05765   -475.68685    135424.12   -35791.282    2689.3047   -38480.586     98.70004    242.00805 
   31700    136.60968   -725.13532    135438.55   -35738.507    2641.9623   -38380.469    98.808815    237.74774 
   31750     139.2779   -401.82105    135380.23   -35790.346    2693.5643    -38483.91    98.943719    242.39137 
   31800    139.58698   -749.26152    135376.11    -35745.62    2699.5417   -38445.161     98.96742    242.92927 
   31850    136.28083   -806.22136    135279.82   -35748.839    2635.6026   -38384.442    99.007719    237.17544 
   31900    138.64293   -520.16564    135211.66   -35763.059    2681.2844   -38444.343     99.48083    241.28631 
   31950    134.73296   -638.37886    135246.79   -35775.912    2605.6676   -38381.579    99.662187    234.48162 
   32000    135.24982   -490.73365    135236.65   -35777.747    2615.6633    -38393.41    99.806094    235.38113 
   32050    134.80867   -500.07098    135244.34   -35780.265    2607.1317   -38387.396    99.902056    234.61337 
   32100    134.87452   -622.97917    135220.27   -35769.711    2608.4051   -38378.116    100.16654    234.72797 
   32150    134.99855   -593.28416    135237.83   -35767.767    2610.8039   -38378.571    100.57005    234.94383 
   32200    139.64854   -895.37534    135209.36   -35725.125    2700.7323   -38425.857    100.71267    243.03641 
   32250    137.28407   -668.04968    135211.15   -35704.993    2655.0047   -38359.998     101.1177    238.92142 
   32300    137.60617   -1038.9188    135159.03   -35676.895    2661.2339   -38338.129    101.39837    239.48198 
   32350    135.57428    -1260.593    135098.49   -35772.199    2621.9382   -38394.137    101.69369     235.9458 
   32400    136.36672   -835.27928    135063.19   -35742.295    2637.2635   -38379.558    102.12128    237.32491 
   32450    138.58164   -914.67331    135044.18   -35745.305    2680.0991   -38425.404    102.25328    241.17964 
   32500    136.48462    -898.7922    135000.65   -35717.868    2639.5437   -38357.412     102.6026     237.5301 
   32550    136.27511   -718.78149    134931.23   -35710.552    2635.4918   -38346.044    102.71277    237.16547 
   32600    137.14769    -718.5347    134889.48   -35693.194    2652.3672   -38345.561    103.02678    238.68407 
   32650    139.51266   -706.27068    134909.47   -35659.815    2698.1044   -38357.919    103.31323    242.79992 
   32700    138.17494   -723.76209    134929.06   -35687.711    2672.2337   -38359.944    103.55299    240.47184 
   32750    140.55353   -682.00317    134965.26   -35606.995    2718.2344    -38325.23    103.70723     244.6114 
   32800    139.61389   -756.58292    134983.38   -35613.639    2700.0623   -38313.702    103.59303    242.97611 
   32850    139.49834   -498.80592    135051.31   -35654.602    2697.8276    -38352.43     103.7138    242.77502 
   32900    136.83156   -967.02429    135065.99   -35611.217    2646.2534    -38257.47    103.75967     238.1339 
   32950    138.64361    -713.6887     135006.5   -35668.364    2681.2975   -38349.661    104.05258    241.28749 
   33000    140.14384   -648.99441    134910.92   -35651.469    2710.3113    -38361.78    104.31601    243.89841 
   33050    137.18959    -700.0627    134990.16   -35663.735    2653.1776   -38316.913    104.26297      238.757 
   33100    139.03191   -625.58283    135097.09   -35654.761    2688.8071   -38343.568    104.72811    241.96326 
   33150    140.87038   -574.93019    135104.46   -35641.999    2724.3621   -38366.362     104.8289    245.16283 
   33200    137.30466   -789.30933       134965       -35715    2655.4028   -38370.403    104.84674    238.95725 
   33250    141.61805   -806.53599    134898.99   -35684.416    2738.8217   -38423.238    104.99362    246.46403 
   33300    141.25912   -682.57529    134975.41   -35693.949    2731.8801   -38425.829    105.30134    245.83937 
   33350    135.74079   -914.69168    134955.51    -35745.68    2625.1585   -38370.838     105.4155    236.23559 
   33400    136.27114   -668.89539    134950.43    -35762.49    2635.4151   -38397.905    105.72388    237.15857 
   33450    137.48892   -559.43905    135018.27   -35753.278    2658.9664   -38412.244    105.90196    239.27793 
   33500    139.46511   -823.03933    135094.73   -35745.672    2697.1849   -38442.857    106.19555    242.71718 
   33550      138.606   -856.32753    135059.93   -35749.103      2680.57   -38429.673    106.31408    241.22202 
   33600    136.93741   -755.71498    135108.08   -35748.508    2648.3004   -38396.808    106.00823    238.31811 
   33650    136.66747   -858.88922    135087.61   -35738.678    2643.0799   -38381.758    106.06954    237.84832 
   33700    139.14198   -684.37796    135101.43   -35735.698    2690.9357   -38426.634    105.98819    242.15482 
   33750    135.55176   -836.52115     135086.3   -35722.717    2621.5026   -38344.219    106.10301     235.9066 
   33800    135.87632   -780.14699    135073.21   -35751.498    2627.7794   -38379.278    106.42865    236.47144 
   33850    138.29638   -1055.9574    134943.37     -35741.5    2674.5821   -38416.082    106.52828    240.68318 
   33900    136.90791   -752.39019    134811.12   -35720.377      2647.73   -38368.107    106.56249    238.26678 
   33950    140.31014   -884.35793    134805.47   -35602.886    2713.5274   -38316.413    106.60551    244.18783 
[...]
   92000    139.12033   -740.36141    135053.05   -35722.453    2690.5171    -38412.97    271.43488    242.11715 
   92050    137.91162   -1033.2554    135044.26    -35749.53    2667.1411   -38416.671    271.36801    240.01357 
   92100    138.53103   -701.22405    135006.28   -35740.011    2679.1202   -38419.131    271.54929    241.09155 
   92150    138.88723   -730.02873    135040.51   -35744.418     2686.009   -38430.427    271.74226    241.71147 
   92200    134.86797   -702.39939    135139.14    -35757.18    2608.2785   -38365.459    272.22873    234.71657 
   92250    137.77306   -565.38771    135183.64   -35798.895    2664.4615   -38463.356    272.50396    239.77243 
   92300     139.2489   -653.24295    135250.29   -35785.777    2693.0034   -38478.781    272.68234    242.34089 
   92350     138.9305   -833.62642    135294.76   -35783.779    2686.8457   -38470.625    272.58071    241.78676 
   92400    136.10419    -614.6245    135292.54   -35766.748    2632.1865   -38398.934    272.88392    236.86803 
   92450    138.61181   -544.65038    135300.91   -35769.547    2680.6826   -38450.229    273.01453    241.23215 
   92500    136.15738    -868.3428    135247.47   -35741.402     2633.215   -38374.617    272.92456    236.96059 
   92550    135.57898   -884.12787     135176.9   -35781.138    2622.0291   -38403.168    272.69775    235.95397 
   92600    136.11157   -852.33468    135096.13   -35732.615     2632.329   -38364.944    272.75653    236.88086 
   92650    138.60409   -689.20458    135088.32   -35757.768    2680.5332   -38438.301     272.6822     241.2187 
   92700    139.44899   -433.93469     135104.4   -35758.291     2696.873   -38455.164      272.874    242.68911 
   92750    137.11136   -755.27215     135219.7   -35762.494    2651.6645   -38414.158    273.17156    238.62084 
   92800      134.575   -780.26549    135212.17   -35768.238    2602.6126   -38370.851    272.97306    234.20671 
   92850      133.531   -600.30542    135247.17   -35719.124    2582.4223   -38301.546    272.88056     232.3898 
   92900     139.6576   -315.71337    135250.97   -35703.749    2700.9076   -38404.656    272.89967    243.05218 
   92950    138.50347   -477.49401     135288.6   -35737.581    2678.5873   -38416.169    273.35507     241.0436 
   93000    136.33903   -599.55965    135307.14   -35732.867     2636.728   -38369.595    273.57274    237.27672 
   93050    135.05295   -594.00678    135401.14   -35795.421    2611.8559   -38407.277    273.61015     235.0385 
   93100    138.25945   -980.95075    135411.46   -35693.398    2673.8681   -38367.266    273.80917    240.61892 
   93150    139.75516   -580.87576    135426.73   -35669.919    2702.7943   -38372.713    273.96564    243.22196 
   93200    138.61696   -710.65542    135407.74    -35652.85    2680.7821   -38333.632    274.11215     241.2411 
   93250    138.97562   -970.24832    135424.81   -35585.961    2687.7183    -38273.68     273.9938    241.86529 
   93300    140.51414   -577.90308    135467.04   -35584.563    2717.4725   -38302.035    274.21449    244.54284 
   93350    138.79694   -1039.3351    135432.68    -35643.31    2684.2627   -38327.573    274.49616    241.55433 
   93400    141.34965   -673.11868    135407.78    -35618.66     2733.631   -38352.291    275.18721    245.99693 
   93450    139.75341   -556.60616    135383.68   -35665.397    2702.7605   -38368.157    274.88766    243.21892 
   93500    139.18628   -669.52697    135486.97   -35658.308    2691.7924     -38350.1    275.01882    242.23191 
   93550    136.71244   -562.42898    135428.26   -35651.818    2643.9496   -38295.768    275.21544    237.92658 
   93600    135.71424   -789.23369    135414.62   -35704.621     2624.645   -38329.266    275.23076    236.18938 
   93650    136.85919   -557.81143    135445.88   -35678.562    2646.7877    -38325.35     274.9745    238.18198 
   93700     135.5146   -752.96404    135370.74   -35658.274    2620.7839   -38279.058    274.99416    235.84193 
   93750    139.13217   -473.03763    135376.65    -35623.33     2690.746   -38314.076    275.51644    242.13774 
   93800    135.60424   -622.79013    135338.86   -35612.786    2622.5176   -38235.304    275.69752    235.99794 
   93850    138.87363   -702.97198    135344.32   -35637.955    2685.7459   -38323.701    275.59656    241.68779 
   93900    137.87276   -740.31071    135315.75   -35654.415    2666.3896   -38320.804    275.82128    239.94594 
   93950    136.56768   -562.53644    135340.23   -35680.917      2641.15   -38322.067    276.06351    237.67465 
   94000    141.66409   -684.51338    135350.16    -35632.51     2739.712   -38372.222    276.31803    246.54416 
   94050    140.76386    -814.6356    135365.07     -35592.2     2722.302   -38314.502    276.65146    244.97745 
   94100    142.00434   -577.35464    135347.23   -35563.729    2746.2923   -38310.021    276.65866    247.13631 
   94150    140.36018   -785.69183    135311.09   -35570.706    2714.4952   -38285.201    276.39769    244.27491 
   94200    140.74386   -813.54368    135296.12   -35561.584    2721.9152   -38283.499    276.53606    244.94264 
   94250    138.74586   -839.31782    135309.57   -35631.076    2683.2749   -38314.351     276.7186    241.46543 
   94300    136.80408   -688.91299    135294.97   -35642.953    2645.7219   -38288.675    276.86631    238.08607 
   94350    137.68107   -757.38077    135353.64   -35707.139    2662.6824   -38369.821    276.85066    239.61233 
   94400     137.4928   -716.83774    135437.19   -35738.945    2659.0414   -38397.987    276.58061    239.28468 
   94450    139.24752   -959.57491    135461.65   -35723.932    2692.9768   -38416.909    276.85295     242.3385 
   94500    137.79725   -822.44735       135461   -35691.486    2664.9293   -38356.415    277.25205    239.81453 
   94550    140.27728   -997.18444    135455.01   -35612.029    2712.8919   -38324.921    277.31888    244.13064 
   94600    135.90072    -853.1568    135460.71   -35696.395    2628.2515   -38324.647    277.21793    236.51392 
   94650    137.15004   -667.03322    135426.87   -35678.165    2652.4127   -38330.578    277.25197    238.68817 
   94700    138.19097   -637.66788    135473.59    -35748.97    2672.5436   -38421.514    277.28102    240.49973 
   94750    137.14569   -730.49337    135473.44   -35741.766    2652.3285   -38394.094    277.65311    238.68059 
   94800    138.82545   -1103.0158    135407.16    -35733.82    2684.8142   -38418.634    277.87318    241.60395 
   94850    137.04837   -778.92311    135360.59   -35729.933    2650.4463   -38380.379    278.20963    238.51121 
   94900    139.22757   -720.62185    135330.82   -35709.713    2692.5909   -38402.304    278.01159    242.30377 
   94950    139.25125   -812.76776    135283.56   -35737.075     2693.049   -38430.124    278.00759    242.34499 
   95000     137.9247   -839.37904    135237.91   -35690.746    2667.3942    -38358.14    278.57867    240.03634 
   95050    139.31822   -784.00491     135167.2   -35730.476     2694.344    -38424.82    279.20209    242.46153 
   95100    136.21406   -719.21243    135130.44       -35742    2634.3113   -38376.311    279.28126    237.05924 
   95150     140.7856   -835.48026     135175.7   -35698.429    2722.7226   -38421.152    279.67461    245.01529 
   95200    137.66265    -704.9635    135200.68   -35705.876    2662.3262   -38368.202    279.88954    239.58028 
   95250    138.07836   -543.74312    135203.66   -35695.887    2670.3658   -38366.253    279.94341    240.30375 
   95300    141.08392   -895.38706    135153.29   -35681.574    2728.4918   -38410.065    280.36723    245.53446 
   95350    138.17434   -537.11761    135163.03   -35688.918    2672.2221    -38361.14    280.45209     240.4708 
   95400    137.68965   -525.81706    135179.69   -35708.721    2662.8483    -38371.57    281.05556    239.62726 
   95450    137.25433   -805.81478    135142.85   -35687.169    2654.4296   -38341.599    281.10985    238.86967 
   95500    136.76754   -754.24656    135106.85   -35683.834    2645.0152   -38328.849    281.47038    238.02247 
   95550    138.29616   -684.27628    135183.17   -35675.015     2674.578   -38349.593    281.64777     240.6828 
   95600    138.94051   -537.87222     135212.3   -35655.508    2687.0394   -38342.547    281.82704     241.8042 
   95650    138.70741    -728.1868    135169.62   -35676.791    2682.5314   -38359.323    282.13288    241.39852 
   95700     141.8129   -808.26531     135183.4   -35666.274    2742.5899   -38408.864    282.49698    246.80313 
   95750     139.2103   -536.37638    135286.22    -35666.49    2692.2569   -38358.747    282.57009    242.27371 
   95800    139.83111   -520.44246    135407.99   -35664.001    2704.2632   -38368.264    282.74475    243.35415 
   95850    139.19847   -889.16396    135425.89   -35691.912    2692.0282    -38383.94    282.89428    242.25313 
   95900    138.68322    -366.2188    135503.83   -35682.846    2682.0635   -38364.909    283.00584    241.35642 
   95950    141.24866   -920.77261    135471.55   -35640.826    2731.6779   -38372.504    283.50246    245.82117 
   96000    138.92964   -827.53624    135497.66   -35635.622    2686.8291   -38322.451    283.49086    241.78527 
   96050    140.12073   -568.17904    135569.86   -35644.562    2709.8642   -38354.426    283.77342    243.85818 
   96100    138.21015   -631.29833    135536.91   -35624.267    2672.9145   -38297.181    284.29381    240.53311 
   96150    140.97183   -908.56592     135530.3   -35628.841    2726.3241   -38355.165    284.58396    245.33938 
   96200    135.87831   -733.87735    135425.61   -35615.616    2627.8179   -38243.434    284.56878     236.4749 
   96250    137.57686   -671.90458    135432.86   -35647.655    2660.6672   -38308.322    284.50549    239.43098 
   96300    138.45783   -841.45327    135420.78   -35628.278    2677.7047   -38305.983    285.04203    240.96417 
   96350    137.34562   -621.86988       135371   -35682.449     2656.195   -38338.644    284.93999    239.02854 
   96400    137.96362   -741.58996    135466.31     -35651.9    2668.1467   -38320.047    284.98476    240.10406 
   96450    137.06807   -532.41887    135478.33   -35689.321    2650.8273   -38340.149     284.9882     238.5455 
   96500    140.03741   -892.48256    135447.53   -35669.263    2708.2529   -38377.516    285.17738    243.71318 
   96550     139.8819   -708.25042    135494.29   -35650.772    2705.2453   -38356.017    285.35274    243.44253 
   96600    137.66197   -783.41157    135514.13   -35703.129    2662.3131   -38365.443    285.24861     239.5791 
   96650    138.08503   -871.20981    135484.14   -35719.857    2670.4949   -38390.352    285.32682    240.31537 
   96700    136.94573   -838.22064    135419.54   -35722.117    2648.4613   -38370.578    285.59001    238.33259 
   96750    137.26485   -700.50187    135398.11    -35747.67    2654.6329   -38402.303    286.03685    238.88796 
   96800    138.73839   -938.28145    135363.42   -35749.299    2683.1304    -38432.43    286.43214    241.45243 
   96850    135.74811   -923.16511     135329.9   -35708.475    2625.2999   -38333.775    286.29246    236.24831 
   96900    138.58253   -815.22588    135266.21   -35699.283    2680.1163   -38379.399    286.40465    241.18119 
   96950    137.26996    -787.8412    135267.98   -35710.422    2654.7317   -38365.154    286.52713    238.89685 
   97000    139.57016   -844.72697    135280.42   -35702.917    2699.2165   -38402.134    286.76416        242.9 
   97050    136.81113   -591.18644    135313.68   -35753.711    2645.8582   -38399.569     286.7845    238.09834 
   97100    140.40885   -753.66932    135378.22   -35694.122    2715.4364   -38409.558    287.16107    244.35961 
   97150    136.46819   -690.45003    135332.78   -35770.212    2639.2259   -38409.438    287.11282     237.5015 
   97200    137.63328   -745.93061    135293.61   -35758.318    2661.7583   -38420.076    287.27237    239.52917 
   97250    136.09996   -859.29864    135230.44   -35747.422    2632.1045   -38379.526    287.78502    236.86066 
   97300    137.76945   -843.79903    135181.97   -35788.043    2664.3917   -38452.435    288.08276    239.76615 
   97350    137.19055   -862.39309    135177.54   -35794.738     2653.196   -38447.934    288.43617    238.75866 
   97400    136.15739   -897.47321    135179.49   -35842.695    2633.2153    -38475.91    288.57729    236.96062 
   97450    133.92555   -609.10686    135162.04   -35831.194    2590.0525   -38421.246    288.92211    233.07643 
   97500    135.13276   -652.38079    135199.17   -35759.975    2613.3994   -38373.374     289.1179     235.1774 
   97550    134.79418   -712.61981    135261.39   -35777.564    2606.8514   -38384.416      289.421    234.58815 
   97600    137.16882    -736.5212    135296.42   -35791.213    2652.7758   -38443.989    289.26003    238.72085 
   97650    134.80382   -726.54243    135309.21   -35872.398    2607.0378   -38479.436    289.20534    234.60492 
   97700    134.15942   -665.35736    135333.98   -35840.488    2594.5756   -38435.064    289.10047    233.48346 
   97750    137.03431   -687.69467    135394.55   -35826.294    2650.1745   -38476.468    289.43874    238.48676 
   97800    134.27784    -900.7234    135373.14   -35892.556    2596.8656   -38489.421    289.91903    233.68954 
   97850    136.20072   -865.21646    135412.42   -35846.338    2634.0531   -38480.392    290.00047    237.03601 
   97900    134.85864   -774.84866    135339.27   -35860.135     2608.098   -38468.233    289.68344    234.70033 
   97950    137.03439   -794.74686    135387.16   -35794.707     2650.176   -38444.883    289.91132    238.48689 
   98000    134.67384   -819.22133    135453.26   -35818.975    2604.5242   -38423.499    289.91831    234.37872 
   98050    137.58641   -796.96287    135431.76   -35759.268    2660.8519   -38420.119    289.73944     239.4476 
   98100    135.93952   -782.95881    135370.88   -35779.211    2629.0017   -38408.212    290.04703    236.58143 
   98150    138.95987   -581.20082    135448.43   -35747.708    2687.4138   -38435.122    290.88478    241.83789 
   98200    138.06895   -702.16118    135488.49   -35716.531    2670.1839   -38386.715    291.20078    240.28738 
   98250    139.23373   -664.45972    135483.68   -35731.876    2692.7101   -38424.586    291.20585     242.3145 
   98300    135.57437   -805.15415    135484.79   -35736.159    2621.9399   -38358.099    291.24971    235.94595 
   98350    136.77281   -1287.4682    135438.04   -35769.799    2645.1172   -38414.916    291.17033    238.03165 
   98400    137.15295   -763.51084    135415.27   -35700.295    2652.4689   -38352.764    291.29403    238.69322 
   98450     135.0309   -539.00825    135495.34   -35702.953    2611.4295   -38314.382    291.38492    235.00013 
   98500    137.24635   -537.79557    135524.68   -35685.197    2654.2752   -38339.472    291.59922    238.85577 
   98550    138.27061   -835.78945    135454.72   -35713.957    2674.0839   -38388.041     291.1442    240.63834 
   98600    139.33819   -792.14506    135459.57    -35731.99    2694.7304   -38426.721    291.18071     242.4963 
   98650    136.16662   -650.38938    135443.27   -35684.401    2633.3938   -38317.794    291.26363    236.97667 
   98700    138.83226   -820.75575    135463.79   -35635.766    2684.9458   -38320.712    291.18905    241.61579 
   98750    139.06613   -943.48464    135398.21   -35633.195    2689.4689   -38322.664    291.12391    242.02282 
   98800    139.22589   -874.69269    135309.72   -35603.428    2692.5585   -38295.987    291.05074    242.30085 
   98850    138.10289   -767.98866    135288.93   -35621.405    2670.8402   -38292.246    291.07326    240.34644 
   98900    138.32882   -916.54381    135343.17   -35660.137    2675.2097   -38335.347    291.24101    240.73965 
   98950    137.50886   -607.35631    135265.65   -35619.677    2659.3519   -38279.029    291.43499    239.31262 
   99000    138.31308   -730.80926    135297.17   -35656.552    2674.9051   -38331.457    291.87804    240.71224 
   99050    137.58411   -450.91681    135366.62   -35651.692    2660.8073     -38312.5    291.86333    239.44359 
   99100    135.40204   -835.08228    135313.99   -35654.041    2618.6072   -38272.648    291.90843    235.64605 
   99150    134.78618   -802.29267    135271.96    -35652.92    2606.6968   -38259.617    292.01922    234.57424 
   99200    140.39888   -771.66141     135337.6   -35685.903    2715.2435   -38401.147    292.30081    244.34226 
   99250     137.3988   -805.98758    135276.14   -35656.087    2657.2235    -38313.31    292.19817    239.12109 
   99300    137.80876   -762.99354    135315.14   -35633.081    2665.1519   -38298.233     292.3063    239.83456 
   99350    135.91813   -522.89649    135323.92    -35630.26     2628.588   -38258.848    292.54405    236.54421 
   99400    137.77658   -513.67363    135384.35   -35672.848    2664.5295   -38337.377    292.97205    239.77855 
   99450    137.65131   -931.19013    135376.41   -35657.817     2662.107   -38319.924     293.1785    239.56055 
   99500    138.88544   -668.53507    135335.91   -35660.335    2685.9743   -38346.309    293.66672    241.70835 
   99550    134.69253   -717.86862    135436.88   -35667.554    2604.8856    -38272.44     293.9276    234.41125 
   99600    139.71119    -631.5332    135515.47   -35714.778    2701.9439   -38416.722    293.62733    243.14544 
   99650    136.04786   -685.19369     135523.1   -35745.511     2631.097   -38376.608    293.85705    236.76999 
   99700    134.51878   -801.76557    135530.03   -35722.931    2601.5254   -38324.457    293.99261    234.10887 
   99750    135.86847   -766.73326    135560.21   -35714.949    2627.6277   -38342.577    293.63817    236.45779 
   99800    138.73263   -835.03678    135527.84   -35732.056    2683.0192   -38415.075     293.8068    241.44242 
   99850    135.41839   -894.54363    135578.45   -35739.359    2618.9234   -38358.282    293.85015     235.6745 
   99900    137.04249   -858.89829    135596.17   -35712.185    2650.3326   -38362.518     294.0188    238.50098 
   99950    136.03125   -968.64828    135526.29   -35672.421    2630.7757   -38303.196     294.4461    236.74108 
  100000    137.25092   -832.60615    135359.96   -35736.011    2654.3636   -38390.375    294.26881    238.86373 
Loop time of 50.5925 on 128 procs for 100000 steps with 6489 atoms

Performance: 853.882 ns/day, 0.028 hours/ns, 1976.579 timesteps/s
96.5% CPU use with 128 MPI tasks x no OpenMP threads

MPI task timing breakdown:
Section |  min time  |  avg time  |  max time  |%varavg| %total
---------------------------------------------------------------
Pair    | 5.4433     | 12.89      | 34.532     | 303.6 | 25.48
Neigh   | 0.4434     | 0.94856    | 2.8991     |  81.3 |  1.87
Comm    | 5.7467     | 14.888     | 38.255     | 303.0 | 29.43
Output  | 0.16499    | 0.16769    | 0.17625    |   0.4 |  0.33
Modify  | 3.6525     | 20.945     | 36.973     | 336.5 | 41.40
Other   |            | 0.7535     |            |       |  1.49

Nlocal:    50.6953 ave 137 max 28 min
Histogram: 94 2 0 7 9 0 0 0 3 13
Nghost:    571.43 ave 965 max 386 min
Histogram: 64 0 1 31 0 0 0 0 16 16
Neighs:    0 ave 0 max 0 min
Histogram: 128 0 0 0 0 0 0 0 0 0
FullNghs:  4061.95 ave 17172 max 1146 min
Histogram: 96 0 0 3 13 0 0 0 2 14

Total # of neighbors = 519930
Ave neighs/atom = 80.1248
Neighbor list builds = 5993
Dangerous builds = 0

write_data		${DIR}/data.eq-${NAME}-${TEMP}
write_data		run_17/data.eq-${NAME}-${TEMP}
write_data		run_17/data.eq-het_freeze_17-${TEMP}
write_data		run_17/data.eq-het_freeze_17-240
undump          1

reset_timestep  0

unfix           2
unfix           3
unfix           4


################################################
#######         Run Simulation         #########
################################################

log				${DIR}/log.run_${NAME}
log				run_17/log.run_${NAME}
log				run_17/log.run_het_freeze_17
