LAMMPS data file via write_data, version 16 Mar 2018, timestep = 100000

6328 atoms
2 atom types

0.0000000000000000e+00 4.9219999999999999e+01 xlo xhi
0.0000000000000000e+00 4.9019635930410494e+01 ylo yhi
3.7010037890209198e+00 5.6360996210979209e+01 zlo zhi

Masses

1 18.015
2 12.01

Atoms # atomic

3080 1 1.6236338212952641e+00 1.0471365209670251e+01 7.2097602819738977e+00 0 1 1
2874 1 2.5081499734213897e+00 1.4748363475081399e+00 4.5041284393429271e+00 1 1 0
1818 1 1.3037596576442165e+00 3.9131934247808786e+00 5.6251069229206347e+00 1 0 0
219 1 1.0889507378503637e+01 1.2585695423702601e+00 4.8476299193858008e+00 1 0 1
5284 1 6.1258527210272407e+00 8.2766634139935480e+00 1.3342599596961577e+01 1 1 1
3196 1 1.1260022849682578e+01 9.2790564101281046e+00 1.1498350879579004e+01 1 1 0
3690 1 4.9377525929523678e+00 1.4522567754300177e+01 9.5949842359914399e+00 1 1 1
6000 1 8.6267815161462043e+00 1.0005548300485874e+01 1.3925015335291807e+01 -1 0 1
4804 1 1.3954406698169981e+00 1.4164649897434085e+01 1.1721294488382828e+01 0 1 1
1320 1 6.7919490280370001e+00 6.3055728527083170e+00 4.7390363692301580e+00 0 -1 1
3294 1 9.2992567694573545e+00 4.7681547454895430e+00 4.3171921995400400e+00 1 0 0
4867 1 3.1140347827969230e+00 5.7304905843621432e+00 6.6322100989340225e+00 0 2 0
1659 1 3.2304578702041269e+00 1.0143740755617804e+01 5.2043185481390895e+00 1 1 0
1825 1 8.4549698864635694e+00 8.3891685198066881e+00 9.0720888593885611e+00 0 1 0
5160 1 4.7942753654163965e+00 8.4021862304191810e+00 6.5940885906877025e+00 0 -1 0
409 1 7.3288025276931732e+00 9.2341172720321225e+00 4.9602831090263813e+00 0 2 0
1505 1 1.1011375952237377e+00 1.5140569969273667e+01 7.4534717496760656e+00 1 1 1
4759 1 7.4038681579885912e+00 3.3290644891768884e-01 1.2428867987849914e+01 1 0 1
5162 1 8.7585538613310412e+00 1.2948783737291807e+01 7.1053752052859656e+00 0 0 0
200 1 4.9578288200694196e+00 5.9185797925696071e-01 3.8643399876770577e+00 0 0 0
163 1 3.4676788321941956e+00 4.3859460237336556e+00 1.2373609636645625e+01 0 1 1
5233 1 5.7696025258897627e+00 1.6430276143634313e+00 1.0313645281117989e+01 0 0 0
1651 1 1.9019347149206565e+00 3.2155554688581707e+00 8.5771835027804979e+00 0 1 0
446 1 5.9194074410839308e+00 4.5166221512154943e+00 6.6977869983369489e+00 -1 1 1
3614 1 7.0090073347161326e+00 1.8566288133664097e+00 7.3660021270870288e+00 2 0 0
1530 1 8.0101920981345653e+00 3.8968395628789678e+00 1.0348062557442917e+01 0 -1 0
4775 1 9.5554397896540664e+00 3.1294127663464653e+00 6.5194219264775946e+00 -1 0 1
4913 1 1.1842930112938927e+01 5.2433851799891915e+00 1.0548882100406399e+01 0 1 0
3617 1 1.4903868770056916e+00 7.5378803727296280e+00 7.8165409726326942e+00 0 0 0
1506 1 5.1680227094903042e-01 5.4394415484511205e+00 9.6730955358591721e+00 0 0 0
3603 1 5.1578817265361838e+00 5.5859874777536644e+00 9.3312295509185894e+00 0 1 1
6186 1 2.7396854591036837e+00 9.1047243951557597e+00 1.0047194195449125e+01 1 1 0
3214 1 5.6274787346916630e+00 8.3678450182416668e+00 9.3247642423304633e+00 1 0 0
4433 1 1.2103984135978838e+01 1.5551961404009704e+01 1.0335850264406059e+01 -1 0 1
3569 1 3.2662032214137757e+00 8.4756667232780476e+00 1.2684641717730504e+01 1 0 0
3648 1 3.6248868744249356e+00 1.2133654089752646e+01 1.0900267334386673e+01 0 0 0
192 1 9.3110558313120233e+00 9.7980625060467581e+00 6.7695148311514508e+00 1 1 0
1428 1 8.5148515807078482e+00 1.1979828939724714e+01 9.9567406914870205e+00 -1 0 1
3652 1 1.1858797203259574e+01 3.6666902248885456e+00 8.0460168630877309e+00 0 0 0
4455 1 8.5736077569201505e+00 1.5953851142995861e+01 5.1700547571018225e+00 0 0 1
345 1 6.4249585591452956e+00 1.5433462972647929e+01 6.9165709834851175e+00 1 1 0
119 1 8.0367644784729748e+00 1.4723952450066580e+01 9.8840080924864502e+00 0 1 0
1466 1 2.6831297771232929e+00 1.2953529636321045e+01 8.2456240552572062e+00 1 1 0
2046 1 1.0621877870733265e+01 1.5195157106651534e+01 8.0212993276295066e+00 0 1 1
3260 1 1.0952042152201223e+01 1.0713514080212068e+01 9.1226434630715207e+00 1 1 1
3097 1 1.2181798406203361e+01 1.7475694491167169e+00 1.0248248376003708e+01 0 1 0
1669 1 3.2510895536661120e+00 2.2349186495111866e+00 1.0810352816282307e+01 1 1 0
211 1 7.0252009036000125e+00 1.6098386286812833e+01 1.3519075882383150e+01 1 0 0
1675 1 9.3589225725588356e+00 1.5511787117302760e+00 9.2584202993356772e+00 0 0 0
1408 1 9.1053861664655678e+00 1.3902962212829134e+01 1.3987670532443133e+01 1 0 0
1353 1 4.0325412609379576e+00 1.4566557651748111e+01 6.3419761023152530e+00 1 0 1
51 1 1.2778643641795251e+00 6.4708235121388293e+00 1.2098069707757826e+01 1 0 1
2927 1 6.2744535816999951e+00 5.9037128475628817e+00 1.2055824083014466e+01 0 1 1
3382 1 1.0123179015017611e+01 1.2796488009412268e+01 4.3056833621765316e+00 1 1 0
3144 1 1.1500732337050433e+01 1.5052044822303596e+01 4.5699225712077913e+00 1 0 1
3186 1 8.3668017966402832e+00 5.4664053787423184e+00 8.3594045726071613e+00 1 1 0
6091 1 3.7150158448173589e+00 1.2970283891169689e+01 3.8410277152224688e+00 0 1 0
6325 1 6.1544541519869913e+00 1.0535288580689400e+01 1.1119121280344535e+01 0 -1 0
214 1 1.1716356496776021e+01 8.9749266672239134e+00 5.4491671289251880e+00 0 0 0
5193 1 9.8371197567332995e+00 5.1360472550119818e+00 1.2207960630370215e+01 1 0 0
1337 1 1.0158793861309329e+01 1.1888973731520437e+01 1.2322039929704061e+01 0 0 1
5104 1 8.8962784603567950e+00 7.9686410789526700e+00 1.1745417093023287e+01 0 1 0
3054 1 6.4652192119826308e+00 1.3268848791103011e+01 1.2289956502957702e+01 1 1 0
6157 1 3.6186440636224866e+00 1.2959627127893851e+01 1.3870466010188462e+01 1 1 1
4407 1 7.4728961624672330e+00 1.3760681372544342e+01 3.7283731572362768e+00 1 0 1
109 1 2.8174871128082271e+00 3.8599604530848235e+00 1.7740738059689711e+01 1 1 1
5027 1 1.0230477880914726e+00 1.4330989677166485e+01 1.8684320223718515e+01 1 0 0
6290 1 4.8807656263679338e+00 4.6348954227557613e+00 1.5006280472934444e+01 1 0 1
1630 1 2.8822487731470052e+00 3.2921962497000540e-01 1.9442061569028819e+01 0 2 0
5012 1 1.1600590468061711e+01 7.6504416750840303e+00 1.5907347104532377e+01 0 0 0
4993 1 9.1277529262725086e+00 5.9563011978550220e+00 1.6245463477979307e+01 0 0 0
5114 1 1.7783878367114481e+00 7.3080476330177815e+00 1.6086613794066480e+01 1 -1 1
3559 1 1.7703574799561852e+00 4.8776522286430026e+00 1.5177627488366337e+01 1 1 0
372 1 6.7141633902956972e+00 7.9538427179246405e+00 1.6014980461650573e+01 0 0 1
3414 1 4.8866297200789548e+00 1.3517328320855858e+01 2.3982885454499886e+01 1 0 0
3437 1 2.3021872513689621e+00 1.0299178207585461e+01 1.4700228306257918e+01 -1 1 0
4883 1 4.4746932823109171e+00 1.1588180274478216e+01 1.8827122602875981e+01 1 0 1
1662 1 4.4703710541535946e+00 9.8751072809736513e+00 1.6216603002789412e+01 0 1 0
6173 1 9.6101227000003711e+00 9.5983263075034717e+00 1.6726683800525045e+01 1 1 1
6224 1 1.0955051807420110e+01 1.1608048620110871e+01 1.7633716012530790e+01 0 0 0
3342 1 2.5147423649942651e+00 1.4960971198587867e+01 2.4222538353559372e+01 1 -1 1
4787 1 4.3252948684748399e-01 1.5914669082282407e+01 1.4642384615670753e+01 1 0 1
3069 1 6.9445234311867097e+00 1.3956470029679503e+01 1.6176478669136849e+01 0 -1 1
161 1 2.0384402071627781e+00 2.4378046309737372e-01 2.4256847015607335e+01 0 0 0
6082 1 7.0972146932156184e+00 1.2435951470408336e+01 2.0335872260107816e+01 1 0 1
3180 1 8.7511591245292646e+00 1.3098537846606986e+01 1.8208780679323013e+01 0 0 1
4819 1 7.9899097713095613e-01 1.5010371532073303e+00 1.8107877840481692e+01 -1 1 1
3510 1 1.2049766510381936e+00 7.1701906746405104e+00 2.3758347297454311e+01 1 0 0
3078 1 5.5978170973549828e+00 5.1595285459513791e+00 1.8966820889576148e+01 0 0 1
1778 1 5.7779501998214071e+00 3.7187319820852509e+00 2.4286390355518023e+01 -2 1 0
4597 1 4.4213388715701880e+00 6.2747312540110887e+00 2.1377163711364542e+01 0 2 0
10 1 4.3026000177403745e+00 6.5194958307335806e+00 1.6885188127336377e+01 0 0 0
4604 1 8.3687107572562667e+00 4.8268564800709450e+00 1.9056520857047005e+01 1 0 1
4607 1 9.1907072994121073e+00 7.3393864302907934e+00 1.9952384486690878e+01 0 0 0
1634 1 1.0454485413049639e+01 1.9710634045447095e+00 1.8418876906012848e+01 0 1 0
4504 1 2.0320174439430136e+00 1.1349467329587036e+01 1.9837738147672450e+01 0 1 1
5075 1 6.4649231527508642e+00 1.1667237179378878e+01 1.4618584835293818e+01 0 -1 0
1919 1 1.1820613934809753e+01 1.1375232845828940e+01 2.0176196865154150e+01 1 -1 1
3299 1 7.7886858536749930e+00 9.3417051291240458e+00 1.8571909344779151e+01 1 -1 0
6243 1 3.6278151075783081e+00 9.3897929003526013e+00 2.1707562868571930e+01 0 0 0
4955 1 6.3375587438315346e+00 1.0324211255707429e+01 2.1989186454965136e+01 0 0 1
5082 1 1.2188550807952309e+01 8.5351202942876603e-01 1.5040176258260200e+01 0 0 0
5141 1 4.3224624400676896e+00 1.3836269938462872e+01 1.7025741514806430e+01 0 0 0
1589 1 4.7807556870414194e+00 1.0722964754991992e+01 2.4499887377403038e+01 0 0 1
5110 1 3.5489014053342989e+00 1.5568186277659404e+01 1.9273946286028107e+01 0 -1 0
6217 1 9.6251515283242810e+00 1.2541901510871792e+01 2.1591872391191600e+01 0 -1 1
3226 1 1.0118189635067992e+01 1.5594569640061170e+01 1.9076295407055511e+01 1 0 1
4493 1 2.9341469214036455e+00 2.7659128762487333e+00 2.4376331579303145e+01 1 1 1
1954 1 3.7958817118108348e+00 3.6429402098238892e+00 2.1756348967099495e+01 0 0 0
1517 1 1.2165715882834780e+01 1.1573358549795135e+01 2.4162578647291514e+01 0 0 1
387 1 8.0324308703201694e+00 2.4577951896907604e+00 2.3656847594718460e+01 0 1 0
3089 1 1.1005960290172636e+01 4.1495821171938987e+00 1.7128446561610801e+01 1 0 1
1860 1 7.4164056585479221e+00 1.4971056881293345e+01 2.4275461953603156e+01 0 0 0
342 1 1.0336351208467848e+01 5.4252098139707894e-01 2.1819145171670709e+01 0 0 0
3043 1 8.0199660781079860e+00 1.1268870637878829e+00 1.7291884749481845e+01 1 0 1
4450 1 5.0601717859763404e+00 2.1418828952051783e+00 1.7047437726608837e+01 0 2 1
3055 1 1.3580878489088197e+00 4.0383636839206911e+00 2.0385375929785489e+01 0 0 0
1993 1 7.7296389231041163e+00 1.0565951771590621e+01 2.4726674389752418e+01 1 -1 0
3545 1 6.0628286821696840e+00 6.4539951766550967e+00 2.4123686308692285e+01 0 -1 0
246 1 8.5360274623254799e+00 2.3913185902688552e+00 2.0681160428545407e+01 1 1 0
5039 1 9.1170095247566820e+00 8.1818468540109777e+00 2.4249789596682440e+01 1 0 0
1605 1 1.2079388344415912e+01 3.0411529851084826e+00 2.1313177532557621e+01 -1 1 0
5178 1 8.7555482247950511e+00 5.3287152400099416e+00 2.4588375955419920e+01 0 1 0
1914 1 1.5045786408179265e+00 6.9890346340670577e+00 2.0958663792636319e+01 0 -1 1
3090 1 1.6176045214953623e+00 1.0654880275568305e+01 2.3920283775494173e+01 0 2 1
3584 1 3.6966426593131740e+00 7.8479881555009694e+00 2.4466352953619896e+01 -1 0 1
3465 1 5.6627661200375490e-02 9.6725004109975288e+00 2.1284425958138247e+01 0 0 0
6189 1 7.6945975842804248e+00 4.5547190661892545e+00 1.4288550529351285e+01 1 1 1
1894 1 7.5666891148006368e+00 7.9710900782974390e+00 2.2083864178543827e+01 0 1 0
293 1 1.1510261694449550e+01 4.7178755137152839e+00 2.3761658194358262e+01 0 0 0
6041 1 9.6432565044439720e+00 1.2834084880222710e+01 2.4472178503459716e+01 1 -1 1
1708 1 5.3668604056276301e+00 1.9818409765110641e+00 1.9905373800938637e+01 -1 1 0
3597 1 1.1423186057315958e+01 8.6700632009220158e+00 2.0756514790565809e+01 0 1 1
1358 1 1.1907002350978505e+01 1.6297889500853962e+01 1.6936935156388497e+01 0 1 0
4622 1 1.5998128514362540e+00 1.3389959396619153e+01 2.2123318444268119e+01 -1 1 1
3588 1 4.7045382936788975e+00 1.3931439419812410e+01 2.1275912036782341e+01 0 0 0
4766 1 1.1638913586273631e+01 8.7892123194833758e+00 2.3754732577624409e+01 0 1 1
2103 1 1.2193423407489124e+01 1.8279017707170664e+00 2.4233224584167740e+01 -1 0 1
2811 1 7.9468072035506045e+00 1.5295909522819768e+01 2.1577645628554379e+01 0 0 1
4774 1 5.2405858068860711e-01 4.4203265599302091e+00 2.4357512664074317e+01 2 1 1
267 1 1.1177957046281053e+01 1.5499194770503690e+01 2.1841248038340392e+01 0 1 1
3519 1 1.6696078502119921e-01 6.6892738073729783e+00 1.8347025471177989e+01 0 0 0
4724 1 8.6185109756127165e+00 1.9218798706228184e+00 1.4503073035278234e+01 1 0 1
303 1 8.7034934770067285e-01 6.5268464845821939e-02 1.5539211654638319e+01 0 0 0
1852 1 3.1245954813638801e+00 1.5950087581931713e+01 1.4957356933920552e+01 0 1 1
1952 1 1.1154098713109638e+01 3.5213493285044817e+00 1.4317837589159229e+01 0 0 0
3695 1 7.0425339574178656e+00 3.2288242305497761e-02 2.0901343700926624e+01 1 0 0
5100 1 1.1500838505839575e+01 1.5393502678084584e+01 1.4243767379039406e+01 0 0 0
552 2 0.0000000000000000e+00 2.8417180249513345e+00 2.6888506850438450e+01 0 0 0
554 2 0.0000000000000000e+00 0.0000000000000000e+00 2.6888506850438450e+01 0 0 0
556 2 1.2305000000000001e+00 7.1042950623783474e-01 2.6888506850438450e+01 0 0 0
563 2 1.2305000000000001e+00 2.1312885187134998e+00 2.6888506850438450e+01 0 0 0
565 2 2.4610000000000003e+00 2.8417180249513345e+00 2.6888506850438450e+01 0 0 0
567 2 2.4610000000000003e+00 0.0000000000000000e+00 2.6888506850438450e+01 0 0 0
569 2 3.6915000000000004e+00 7.1042950623783474e-01 2.6888506850438450e+01 0 0 0
584 2 3.6914999999999996e+00 2.1312885187134998e+00 2.6888506850438450e+01 0 0 0
586 2 4.9220000000000006e+00 2.8417180249513332e+00 2.6888506850438450e+01 0 0 0
588 2 4.9220000000000006e+00 0.0000000000000000e+00 2.6888506850438450e+01 0 0 0
590 2 6.1524999999999999e+00 7.1042950623783407e-01 2.6888506850438450e+01 0 0 0
613 2 6.1524999999999999e+00 2.1312885187134989e+00 2.6888506850438450e+01 0 0 0
615 2 7.3829999999999991e+00 2.8417180249513345e+00 2.6888506850438450e+01 0 0 0
617 2 7.3829999999999991e+00 0.0000000000000000e+00 2.6888506850438450e+01 0 0 0
619 2 8.6134999999999984e+00 7.1042950623783407e-01 2.6888506850438450e+01 0 0 0
650 2 8.6134999999999984e+00 2.1312885187135002e+00 2.6888506850438450e+01 0 0 0
652 2 9.8440000000000012e+00 2.8417180249513332e+00 2.6888506850438450e+01 0 0 0
654 2 9.8440000000000012e+00 0.0000000000000000e+00 2.6888506850438450e+01 0 0 0
656 2 1.1074500000000002e+01 7.1042950623783330e-01 2.6888506850438450e+01 0 0 0
695 2 1.1074500000000002e+01 2.1312885187135002e+00 2.6888506850438450e+01 0 0 0
559 2 0.0000000000000000e+00 4.2625770374269996e+00 2.6888506850438450e+01 0 0 0
561 2 1.2305000000000001e+00 4.9730065436648339e+00 2.6888506850438450e+01 0 0 0
576 2 1.2305000000000001e+00 6.3938655561404980e+00 2.6888506850438450e+01 0 0 0
580 2 2.4610000000000003e+00 4.2625770374269996e+00 2.6888506850438450e+01 0 0 0
582 2 3.6914999999999996e+00 4.9730065436648339e+00 2.6888506850438450e+01 0 0 0
605 2 3.6914999999999996e+00 6.3938655561404980e+00 2.6888506850438450e+01 0 0 0
557 2 0.0000000000000000e+00 7.1042950623783341e+00 2.6888506850438450e+01 0 0 0
578 2 2.4610000000000003e+00 7.1042950623783341e+00 2.6888506850438450e+01 0 0 0
609 2 4.9220000000000006e+00 4.2625770374269978e+00 2.6888506850438450e+01 0 0 0
611 2 6.1524999999999999e+00 4.9730065436648339e+00 2.6888506850438450e+01 0 0 0
642 2 6.1524999999999999e+00 6.3938655561404980e+00 2.6888506850438450e+01 0 0 0
646 2 7.3829999999999991e+00 4.2625770374269996e+00 2.6888506850438450e+01 0 0 0
607 2 4.9220000000000006e+00 7.1042950623783341e+00 2.6888506850438450e+01 0 0 0
644 2 7.3830000000000009e+00 7.1042950623783341e+00 2.6888506850438450e+01 0 0 0
648 2 8.6135000000000002e+00 4.9730065436648339e+00 2.6888506850438450e+01 0 0 0
687 2 8.6135000000000002e+00 6.3938655561404980e+00 2.6888506850438450e+01 0 0 0
691 2 9.8440000000000012e+00 4.2625770374270004e+00 2.6888506850438450e+01 0 0 0
693 2 1.1074500000000002e+01 4.9730065436648339e+00 2.6888506850438450e+01 0 0 0
734 2 1.1074500000000002e+01 6.3938655561404980e+00 2.6888506850438450e+01 0 0 0
689 2 9.8440000000000012e+00 7.1042950623783341e+00 2.6888506850438450e+01 0 0 0
572 2 0.0000000000000000e+00 8.5251540748539991e+00 2.6888506850438450e+01 0 0 0
574 2 1.2305000000000001e+00 9.2355835810918343e+00 2.6888506850438450e+01 0 0 0
601 2 2.4610000000000003e+00 8.5251540748539991e+00 2.6888506850438450e+01 0 0 0
603 2 3.6915000000000004e+00 9.2355835810918343e+00 2.6888506850438450e+01 0 0 0
570 2 0.0000000000000000e+00 1.1366872099805333e+01 2.6888506850438450e+01 0 0 0
597 2 1.2305000000000001e+00 1.0656442593567498e+01 2.6888506850438450e+01 0 0 0
599 2 2.4610000000000003e+00 1.1366872099805333e+01 2.6888506850438450e+01 0 0 0
634 2 3.6914999999999996e+00 1.0656442593567499e+01 2.6888506850438450e+01 0 0 0
638 2 4.9220000000000006e+00 8.5251540748539991e+00 2.6888506850438450e+01 0 0 0
640 2 6.1524999999999999e+00 9.2355835810918343e+00 2.6888506850438450e+01 0 0 0
683 2 7.3830000000000009e+00 8.5251540748539991e+00 2.6888506850438450e+01 0 0 0
636 2 4.9220000000000006e+00 1.1366872099805333e+01 2.6888506850438450e+01 0 0 0
679 2 6.1524999999999999e+00 1.0656442593567499e+01 2.6888506850438450e+01 0 0 0
681 2 7.3829999999999991e+00 1.1366872099805333e+01 2.6888506850438450e+01 0 0 0
685 2 8.6134999999999984e+00 9.2355835810918343e+00 2.6888506850438450e+01 0 0 0
730 2 9.8440000000000012e+00 8.5251540748539956e+00 2.6888506850438450e+01 0 0 0
732 2 1.1074500000000002e+01 9.2355835810918343e+00 2.6888506850438450e+01 0 0 0
726 2 8.6134999999999984e+00 1.0656442593567498e+01 2.6888506850438450e+01 0 0 0
728 2 9.8440000000000012e+00 1.1366872099805333e+01 2.6888506850438450e+01 0 0 0
773 2 1.1074500000000002e+01 1.0656442593567498e+01 2.6888506850438450e+01 0 0 0
775 2 1.2304999999999998e+01 1.1366872099805333e+01 2.6888506850438450e+01 0 0 0
593 2 0.0000000000000000e+00 1.2787731112280996e+01 2.6888506850438450e+01 0 0 0
595 2 1.2305000000000001e+00 1.3498160618518829e+01 2.6888506850438450e+01 0 0 0
630 2 2.4610000000000003e+00 1.2787731112280996e+01 2.6888506850438450e+01 0 0 0
632 2 3.6915000000000004e+00 1.3498160618518829e+01 2.6888506850438450e+01 0 0 0
591 2 0.0000000000000000e+00 1.5629449137232333e+01 2.6888506850438450e+01 0 0 0
626 2 1.2305000000000001e+00 1.4919019630994494e+01 2.6888506850438450e+01 0 0 0
628 2 2.4610000000000003e+00 1.5629449137232328e+01 2.6888506850438450e+01 0 0 0
671 2 3.6915000000000004e+00 1.4919019630994494e+01 2.6888506850438450e+01 0 0 0
675 2 4.9220000000000006e+00 1.2787731112280996e+01 2.6888506850438450e+01 0 0 0
677 2 6.1524999999999990e+00 1.3498160618518829e+01 2.6888506850438450e+01 0 0 0
722 2 7.3829999999999991e+00 1.2787731112280996e+01 2.6888506850438450e+01 0 0 0
673 2 4.9220000000000006e+00 1.5629449137232333e+01 2.6888506850438450e+01 0 0 0
718 2 6.1524999999999990e+00 1.4919019630994494e+01 2.6888506850438450e+01 0 0 0
720 2 7.3829999999999991e+00 1.5629449137232333e+01 2.6888506850438450e+01 0 0 0
724 2 8.6135000000000002e+00 1.3498160618518835e+01 2.6888506850438450e+01 0 0 0
769 2 9.8440000000000012e+00 1.2787731112280996e+01 2.6888506850438450e+01 0 0 0
771 2 1.1074500000000002e+01 1.3498160618518829e+01 2.6888506850438450e+01 0 0 0
765 2 8.6135000000000002e+00 1.4919019630994494e+01 2.6888506850438450e+01 0 0 0
767 2 9.8440000000000012e+00 1.5629449137232328e+01 2.6888506850438450e+01 0 0 0
807 2 1.1074500000000002e+01 1.4919019630994494e+01 2.6888506850438450e+01 0 0 0
553 2 0.0000000000000000e+00 1.4208590124756650e+00 3.0031000000000120e+01 0 0 0
555 2 0.0000000000000000e+00 0.0000000000000000e+00 3.0031000000000120e+01 0 0 0
564 2 1.2305000000000001e+00 2.1312885187134998e+00 3.0031000000000120e+01 0 0 0
566 2 2.4610000000000003e+00 1.4208590124756650e+00 3.0031000000000120e+01 0 0 0
568 2 2.4610000000000003e+00 0.0000000000000000e+00 3.0031000000000120e+01 0 0 0
585 2 3.6914999999999996e+00 2.1312885187134998e+00 3.0031000000000120e+01 0 0 0
562 2 1.2305000000000001e+00 3.5521475311891644e+00 3.0031000000000120e+01 0 0 0
583 2 3.6914999999999996e+00 3.5521475311891644e+00 3.0031000000000120e+01 0 0 0
587 2 4.9220000000000006e+00 1.4208590124756650e+00 3.0031000000000120e+01 0 0 0
589 2 4.9220000000000006e+00 0.0000000000000000e+00 3.0031000000000120e+01 0 0 0
614 2 6.1524999999999999e+00 2.1312885187134989e+00 3.0031000000000120e+01 0 0 0
616 2 7.3829999999999991e+00 1.4208590124756659e+00 3.0031000000000120e+01 0 0 0
618 2 7.3829999999999991e+00 0.0000000000000000e+00 3.0031000000000120e+01 0 0 0
612 2 6.1524999999999999e+00 3.5521475311891644e+00 3.0031000000000120e+01 0 0 0
651 2 8.6134999999999984e+00 2.1312885187135002e+00 3.0031000000000120e+01 0 0 0
653 2 9.8440000000000012e+00 1.4208590124756659e+00 3.0031000000000120e+01 0 0 0
655 2 9.8440000000000012e+00 0.0000000000000000e+00 3.0031000000000120e+01 0 0 0
696 2 1.1074500000000002e+01 2.1312885187135002e+00 3.0031000000000120e+01 0 0 0
649 2 8.6134999999999984e+00 3.5521475311891657e+00 3.0031000000000120e+01 0 0 0
694 2 1.1074500000000002e+01 3.5521475311891644e+00 3.0031000000000120e+01 0 0 0
558 2 0.0000000000000000e+00 5.6834360499026637e+00 3.0031000000000120e+01 0 0 0
560 2 0.0000000000000000e+00 4.2625770374269996e+00 3.0031000000000120e+01 0 0 0
577 2 1.2305000000000001e+00 6.3938655561404980e+00 3.0031000000000120e+01 0 0 0
579 2 2.4610000000000003e+00 5.6834360499026637e+00 3.0031000000000120e+01 0 0 0
581 2 2.4610000000000003e+00 4.2625770374269996e+00 3.0031000000000120e+01 0 0 0
606 2 3.6914999999999996e+00 6.3938655561404980e+00 3.0031000000000120e+01 0 0 0
575 2 1.2305000000000001e+00 7.8147245686161639e+00 3.0031000000000120e+01 0 0 0
604 2 3.6914999999999996e+00 7.8147245686161639e+00 3.0031000000000120e+01 0 0 0
608 2 4.9220000000000006e+00 5.6834360499026637e+00 3.0031000000000120e+01 0 0 0
610 2 4.9220000000000006e+00 4.2625770374269978e+00 3.0031000000000120e+01 0 0 0
643 2 6.1524999999999999e+00 6.3938655561404980e+00 3.0031000000000120e+01 0 0 0
645 2 7.3829999999999991e+00 5.6834360499026637e+00 3.0031000000000120e+01 0 0 0
647 2 7.3829999999999991e+00 4.2625770374269996e+00 3.0031000000000120e+01 0 0 0
641 2 6.1524999999999999e+00 7.8147245686161639e+00 3.0031000000000120e+01 0 0 0
688 2 8.6135000000000002e+00 6.3938655561404980e+00 3.0031000000000120e+01 0 0 0
690 2 9.8440000000000012e+00 5.6834360499026637e+00 3.0031000000000120e+01 0 0 0
692 2 9.8440000000000012e+00 4.2625770374270004e+00 3.0031000000000120e+01 0 0 0
735 2 1.1074500000000002e+01 6.3938655561404980e+00 3.0031000000000120e+01 0 0 0
686 2 8.6135000000000002e+00 7.8147245686161639e+00 3.0031000000000120e+01 0 0 0
733 2 1.1074500000000002e+01 7.8147245686161639e+00 3.0031000000000120e+01 0 0 0
571 2 0.0000000000000000e+00 9.9460130873296642e+00 3.0031000000000120e+01 0 0 0
573 2 0.0000000000000000e+00 8.5251540748539991e+00 3.0031000000000120e+01 0 0 0
600 2 2.4610000000000003e+00 9.9460130873296642e+00 3.0031000000000120e+01 0 0 0
602 2 2.4610000000000003e+00 8.5251540748539991e+00 3.0031000000000120e+01 0 0 0
596 2 1.2305000000000001e+00 1.2077301606043163e+01 3.0031000000000120e+01 0 0 0
598 2 1.2305000000000001e+00 1.0656442593567498e+01 3.0031000000000120e+01 0 0 0
633 2 3.6914999999999996e+00 1.2077301606043163e+01 3.0031000000000120e+01 0 0 0
635 2 3.6914999999999996e+00 1.0656442593567499e+01 3.0031000000000120e+01 0 0 0
637 2 4.9220000000000006e+00 9.9460130873296642e+00 3.0031000000000120e+01 0 0 0
639 2 4.9220000000000006e+00 8.5251540748539991e+00 3.0031000000000120e+01 0 0 0
682 2 7.3830000000000009e+00 9.9460130873296642e+00 3.0031000000000120e+01 0 0 0
684 2 7.3830000000000009e+00 8.5251540748539991e+00 3.0031000000000120e+01 0 0 0
678 2 6.1524999999999999e+00 1.2077301606043163e+01 3.0031000000000120e+01 0 0 0
680 2 6.1524999999999999e+00 1.0656442593567499e+01 3.0031000000000120e+01 0 0 0
729 2 9.8440000000000012e+00 9.9460130873296642e+00 3.0031000000000120e+01 0 0 0
731 2 9.8440000000000012e+00 8.5251540748539956e+00 3.0031000000000120e+01 0 0 0
725 2 8.6135000000000002e+00 1.2077301606043163e+01 3.0031000000000120e+01 0 0 0
727 2 8.6134999999999984e+00 1.0656442593567498e+01 3.0031000000000120e+01 0 0 0
772 2 1.1074500000000002e+01 1.2077301606043163e+01 3.0031000000000120e+01 0 0 0
774 2 1.1074500000000002e+01 1.0656442593567498e+01 3.0031000000000120e+01 0 0 0
594 2 0.0000000000000000e+00 1.2787731112280996e+01 3.0031000000000120e+01 0 0 0
631 2 2.4610000000000003e+00 1.2787731112280996e+01 3.0031000000000120e+01 0 0 0
592 2 0.0000000000000000e+00 1.4208590124756663e+01 3.0031000000000120e+01 0 0 0
627 2 1.2305000000000001e+00 1.4919019630994494e+01 3.0031000000000120e+01 0 0 0
629 2 2.4610000000000003e+00 1.4208590124756663e+01 3.0031000000000120e+01 0 0 0
672 2 3.6915000000000004e+00 1.4919019630994494e+01 3.0031000000000120e+01 0 0 0
676 2 4.9220000000000006e+00 1.2787731112280996e+01 3.0031000000000120e+01 0 0 0
723 2 7.3829999999999991e+00 1.2787731112280996e+01 3.0031000000000120e+01 0 0 0
674 2 4.9220000000000006e+00 1.4208590124756663e+01 3.0031000000000120e+01 0 0 0
719 2 6.1524999999999990e+00 1.4919019630994494e+01 3.0031000000000120e+01 0 0 0
721 2 7.3830000000000009e+00 1.4208590124756663e+01 3.0031000000000120e+01 0 0 0
770 2 9.8440000000000012e+00 1.2787731112280996e+01 3.0031000000000120e+01 0 0 0
766 2 8.6135000000000002e+00 1.4919019630994494e+01 3.0031000000000120e+01 0 0 0
768 2 9.8440000000000012e+00 1.4208590124756663e+01 3.0031000000000120e+01 0 0 0
806 2 1.1074500000000002e+01 1.6339878643470161e+01 3.0031000000000120e+01 0 0 0
808 2 1.1074500000000002e+01 1.4919019630994494e+01 3.0031000000000120e+01 0 0 0
810 2 1.2304999999999998e+01 1.4208590124756658e+01 3.0031000000000120e+01 0 0 0
881 2 0.0000000000000000e+00 2.8417180249513345e+00 3.3173493149562240e+01 0 0 0
882 2 0.0000000000000000e+00 0.0000000000000000e+00 3.3173493149562240e+01 0 0 0
883 2 1.2305000000000001e+00 7.1042950623783474e-01 3.3173493149562240e+01 0 0 0
887 2 1.2305000000000001e+00 2.1312885187134998e+00 3.3173493149562240e+01 0 0 0
888 2 2.4610000000000003e+00 2.8417180249513345e+00 3.3173493149562240e+01 0 0 0
889 2 2.4610000000000003e+00 0.0000000000000000e+00 3.3173493149562240e+01 0 0 0
890 2 3.6915000000000004e+00 7.1042950623783474e-01 3.3173493149562240e+01 0 0 0
898 2 3.6914999999999996e+00 2.1312885187134998e+00 3.3173493149562240e+01 0 0 0
899 2 4.9220000000000006e+00 2.8417180249513332e+00 3.3173493149562240e+01 0 0 0
900 2 4.9220000000000006e+00 0.0000000000000000e+00 3.3173493149562240e+01 0 0 0
901 2 6.1524999999999999e+00 7.1042950623783407e-01 3.3173493149562240e+01 0 0 0
913 2 6.1524999999999999e+00 2.1312885187134989e+00 3.3173493149562240e+01 0 0 0
914 2 7.3829999999999991e+00 2.8417180249513345e+00 3.3173493149562240e+01 0 0 0
915 2 7.3829999999999991e+00 0.0000000000000000e+00 3.3173493149562240e+01 0 0 0
916 2 8.6134999999999984e+00 7.1042950623783407e-01 3.3173493149562240e+01 0 0 0
932 2 8.6134999999999984e+00 2.1312885187135002e+00 3.3173493149562240e+01 0 0 0
933 2 9.8440000000000012e+00 2.8417180249513332e+00 3.3173493149562240e+01 0 0 0
934 2 9.8440000000000012e+00 0.0000000000000000e+00 3.3173493149562240e+01 0 0 0
935 2 1.1074500000000002e+01 7.1042950623783330e-01 3.3173493149562240e+01 0 0 0
955 2 1.1074500000000002e+01 2.1312885187135002e+00 3.3173493149562240e+01 0 0 0
885 2 0.0000000000000000e+00 4.2625770374269996e+00 3.3173493149562240e+01 0 0 0
886 2 1.2305000000000001e+00 4.9730065436648339e+00 3.3173493149562240e+01 0 0 0
894 2 1.2305000000000001e+00 6.3938655561404980e+00 3.3173493149562240e+01 0 0 0
896 2 2.4610000000000003e+00 4.2625770374269996e+00 3.3173493149562240e+01 0 0 0
897 2 3.6914999999999996e+00 4.9730065436648339e+00 3.3173493149562240e+01 0 0 0
909 2 3.6914999999999996e+00 6.3938655561404980e+00 3.3173493149562240e+01 0 0 0
884 2 0.0000000000000000e+00 7.1042950623783341e+00 3.3173493149562240e+01 0 0 0
895 2 2.4610000000000003e+00 7.1042950623783341e+00 3.3173493149562240e+01 0 0 0
911 2 4.9220000000000006e+00 4.2625770374269978e+00 3.3173493149562240e+01 0 0 0
912 2 6.1524999999999999e+00 4.9730065436648339e+00 3.3173493149562240e+01 0 0 0
928 2 6.1524999999999999e+00 6.3938655561404980e+00 3.3173493149562240e+01 0 0 0
930 2 7.3829999999999991e+00 4.2625770374269996e+00 3.3173493149562240e+01 0 0 0
910 2 4.9220000000000006e+00 7.1042950623783341e+00 3.3173493149562240e+01 0 0 0
929 2 7.3830000000000009e+00 7.1042950623783341e+00 3.3173493149562240e+01 0 0 0
931 2 8.6135000000000002e+00 4.9730065436648339e+00 3.3173493149562240e+01 0 0 0
951 2 8.6135000000000002e+00 6.3938655561404980e+00 3.3173493149562240e+01 0 0 0
953 2 9.8440000000000012e+00 4.2625770374270004e+00 3.3173493149562240e+01 0 0 0
954 2 1.1074500000000002e+01 4.9730065436648339e+00 3.3173493149562240e+01 0 0 0
975 2 1.1074500000000002e+01 6.3938655561404980e+00 3.3173493149562240e+01 0 0 0
952 2 9.8440000000000012e+00 7.1042950623783341e+00 3.3173493149562240e+01 0 0 0
892 2 0.0000000000000000e+00 8.5251540748539991e+00 3.3173493149562240e+01 0 0 0
893 2 1.2305000000000001e+00 9.2355835810918343e+00 3.3173493149562240e+01 0 0 0
907 2 2.4610000000000003e+00 8.5251540748539991e+00 3.3173493149562240e+01 0 0 0
908 2 3.6915000000000004e+00 9.2355835810918343e+00 3.3173493149562240e+01 0 0 0
891 2 0.0000000000000000e+00 1.1366872099805333e+01 3.3173493149562240e+01 0 0 0
905 2 1.2305000000000001e+00 1.0656442593567498e+01 3.3173493149562240e+01 0 0 0
906 2 2.4610000000000003e+00 1.1366872099805333e+01 3.3173493149562240e+01 0 0 0
924 2 3.6914999999999996e+00 1.0656442593567499e+01 3.3173493149562240e+01 0 0 0
926 2 4.9220000000000006e+00 8.5251540748539991e+00 3.3173493149562240e+01 0 0 0
927 2 6.1524999999999999e+00 9.2355835810918343e+00 3.3173493149562240e+01 0 0 0
949 2 7.3830000000000009e+00 8.5251540748539991e+00 3.3173493149562240e+01 0 0 0
925 2 4.9220000000000006e+00 1.1366872099805333e+01 3.3173493149562240e+01 0 0 0
947 2 6.1524999999999999e+00 1.0656442593567499e+01 3.3173493149562240e+01 0 0 0
948 2 7.3829999999999991e+00 1.1366872099805333e+01 3.3173493149562240e+01 0 0 0
950 2 8.6134999999999984e+00 9.2355835810918343e+00 3.3173493149562240e+01 0 0 0
973 2 9.8440000000000012e+00 8.5251540748539956e+00 3.3173493149562240e+01 0 0 0
974 2 1.1074500000000002e+01 9.2355835810918343e+00 3.3173493149562240e+01 0 0 0
971 2 8.6134999999999984e+00 1.0656442593567498e+01 3.3173493149562240e+01 0 0 0