LAMMPS data file via write_data, version 16 Mar 2018, timestep = 8000000

6328 atoms
2 atom types

0.0000000000000000e+00 4.9219999999999999e+01 xlo xhi
0.0000000000000000e+00 4.9019635930410494e+01 ylo yhi
1.9549768700007348e+00 5.8107023130008884e+01 zlo zhi

Masses

1 18.015
2 12.01

Atoms # atomic

2009 1 1.6087646922122421e+00 2.1063870370209674e+00 5.1519053373098362e+00 -1 1 0
2118 1 1.7338493856083814e+00 2.3926696263850173e+00 2.3279714325996554e+00 5 -1 0
413 1 5.8241027000688685e+00 3.1169422654739267e+00 2.5405668805420509e+00 4 0 0
1864 1 5.6763932396211052e+00 3.1216045459520738e+00 5.2657792355676687e+00 2 2 0
4560 1 9.9130689158726035e+00 3.6851381753303496e+00 5.1652009000481840e+00 0 3 1
1629 1 9.9910964859562270e+00 3.8611763112347259e+00 2.5826757864047969e+00 1 5 0
3446 1 2.8715373693021489e+00 6.4844556921558008e+00 2.6363922063911174e+00 -3 1 1
1519 1 3.1710745812890564e+00 6.6271077392754183e+00 5.1769466548117373e+00 -1 -2 1
3092 1 7.1553906921218227e+00 7.3310051562778664e+00 5.0752613355542060e+00 3 0 1
1786 1 7.2741541031597627e+00 7.3929015858818223e+00 2.5448051654311170e+00 4 -1 1
5137 1 1.1375660421410865e+01 8.3203411301085257e+00 2.5555659043647934e+00 3 -2 0
287 1 5.8805619250981866e-01 7.5466792474158799e+00 5.9347532534901486e+00 -1 0 0
1952 1 4.4525447714150550e+00 1.1327610643907150e+01 5.5585854845855671e+00 1 -3 0
6118 1 1.2903447650919375e-01 1.0098562706705755e+01 5.2350320351335196e+00 1 0 0
438 1 1.1615793297610068e+01 7.7510036705555025e+00 5.4076562109530428e+00 2 -1 1
294 1 8.6413514286786750e+00 1.1788163492140693e+01 2.3447945399462147e+00 4 0 0
4525 1 8.8143420449762147e+00 1.1523210716442962e+01 5.1000651635835004e+00 3 -1 1
5157 1 1.4413768321591967e+00 1.4679459802237817e+01 5.1549056602137879e+00 -2 -1 0
2845 1 1.5061219727070312e+00 1.4558312108732395e+01 2.3943779439590833e+00 -4 -2 1
5319 1 8.0348477570824102e+00 1.4207274176954510e+01 1.2762527999164719e+01 1 0 1
2880 1 6.0231646215503867e+00 1.5343443625155125e+01 2.3972464097606405e+00 5 2 1
6056 1 5.6338309808361080e+00 1.5018517601182833e+01 5.0796514766816294e+00 2 -3 1
3094 1 5.4652260135029564e+00 5.7313549506914798e+00 1.2522253332437383e+01 -1 1 0
4649 1 6.5010834807121327e+00 6.2057846732264721e-01 6.0918096955347867e+00 0 4 1
4595 1 3.4276238100876544e+00 4.2701241300677300e+00 6.1055700253480829e+00 -4 1 0
5011 1 3.1459764234908780e+00 4.0791642297335100e+00 8.8874109579415013e+00 3 -2 1
6078 1 1.0320585073338574e+01 1.6121206300649543e+01 2.3365863956678830e+00 -1 -4 1
5038 1 1.2055844917586059e+01 5.5015653190045768e+00 9.0779764371047662e+00 1 -2 0
1378 1 1.0658561165563825e+01 1.0473252537068232e+00 6.1092814519107552e+00 2 2 1
1328 1 1.0540586378101837e+01 1.3455222058943317e+00 9.0070543619887360e+00 3 -2 1
5062 1 8.0828082461588284e+00 1.4438000391334352e+01 1.0099084953332305e+01 -3 0 0
3392 1 4.6662388859254594e-01 7.5777694515590106e+00 8.8104981456774727e+00 0 1 1
3182 1 7.5812901077161392e+00 4.6962874419554002e+00 6.3165424076022285e+00 2 -1 0
3318 1 7.7313652397406729e+00 4.7313318488971685e+00 9.1482426753418444e+00 3 2 0
6212 1 3.5168181121297430e+00 1.3835565003921158e+01 1.2886792325429322e+01 3 3 1
2818 1 3.7632995060614389e+00 1.3865390584146329e+01 1.0191316979176804e+01 3 -1 1
2930 1 1.9448564211024360e+00 1.2227091974936185e+01 9.0599033312700463e+00 4 0 1
5001 1 1.8959800748023241e+00 1.2186974503521933e+01 6.4474497195727380e+00 3 0 1
4636 1 5.0469415544935678e+00 8.3152277177277085e+00 9.1822998300745482e+00 0 -5 1
1650 1 4.9295935902364878e+00 8.5425216524235683e+00 6.5184483120164831e+00 0 -3 0
2149 1 9.2550433123651317e+00 9.1854723744290077e+00 8.8817345190127277e+00 2 4 0
2809 1 9.0894848827741104e+00 8.9228049430016636e+00 6.2583500256749165e+00 0 3 1
3000 1 1.0041040172391817e+01 1.6082113566794710e+01 5.1197486008821755e+00 -4 -2 1
2121 1 6.6654095624310363e+00 1.2839835421669852e+01 6.2086403148330982e+00 3 2 1
2796 1 6.2219804075959848e+00 1.2901954031069721e+01 9.1542267716418806e+00 -1 2 1
107 1 1.0583057574143753e+01 1.3460504539869492e+01 6.3875516076560706e+00 6 1 1
364 1 1.0337677005813012e+01 1.3745695556167048e+01 9.1010268240598933e+00 1 2 1
3167 1 3.8887609442871849e+00 1.6733978626564132e+00 1.2467520638113248e+01 -1 -1 1
6242 1 3.6519246925688429e+00 1.7398206850594899e+00 9.8707426558344586e+00 0 -1 1
4799 1 7.9890491013195772e+00 2.3213933461046250e+00 1.2796719964450503e+01 0 -1 1
4765 1 8.1027096366766020e+00 2.3040671760643461e+00 1.0133240294299203e+01 2 -1 0
2824 1 8.5439269577189558e-01 4.8449307158401478e+00 1.2421456409912501e+01 -3 -1 1
3249 1 8.5079349863962184e-01 4.9909654125905121e+00 9.7614361059702510e+00 0 -1 0
253 1 5.1854393838263952e+00 5.7075215448599321e+00 9.8048231206632117e+00 -2 -1 0
5228 1 3.4272273138470727e-01 1.0152529946158671e+01 2.4994440766836816e+00 0 -4 1
251 1 9.8423712585484182e+00 6.3647322338091508e+00 1.2835649285936684e+01 1 -4 0
4997 1 9.5877684218325108e+00 6.6116561455312484e+00 1.0003812985293145e+01 -3 4 0
3307 1 2.4261222525345896e+00 8.9383161178917057e+00 1.2568486627562676e+01 3 0 0
3441 1 2.3501059870162293e+00 9.4095834309675368e+00 9.7880733865033100e+00 -5 1 0
284 1 6.8143797325047313e+00 1.0080443016834600e+01 1.2687382522951555e+01 2 0 1
1803 1 6.9297193058966196e+00 1.0229895353151115e+01 1.0025161968671137e+01 3 0 0
4447 1 1.1063708202644317e+01 1.1059047059512961e+01 9.8243726649460434e+00 -1 -1 1
5124 1 1.1030008295812266e+01 1.1027321696007084e+01 1.2699390919879150e+01 -4 1 0
2076 1 6.1421448419941171e+00 8.0359112929591170e-01 8.8483199357682345e+00 0 0 1
3711 1 1.1920176212355145e+01 5.2128263626578715e+00 6.1900438849940054e+00 1 2 1
3520 1 4.3075645411807386e+00 1.1132649321623035e+01 2.7308089755026836e+00 2 1 0
106 1 3.3337566187192325e+00 4.1006292695709465e+00 1.6173074451461495e+01 -1 2 0
6314 1 3.4448224306605564e+00 4.0965163621553105e+00 1.3446450975014551e+01 7 -2 1
2040 1 8.3106725822689231e+00 1.4176000625168694e+01 2.0501673471882832e+01 -1 -2 0
1665 1 9.2511882596747981e+00 9.0440938847450756e+00 1.3851885200120439e+01 1 2 0
1936 1 1.0566873983167913e+01 7.6285728494429517e-01 1.6088862468648809e+01 5 2 0
2834 1 1.5096291752627815e+00 1.4326297916255957e+01 2.4101913116232900e+01 3 -2 0
2147 1 4.2324807081475430e-01 7.6619231272363733e+00 1.6297747070595548e+01 1 -3 0
3195 1 1.0677654306058839e+01 1.3434281898775545e+01 1.3496945892067339e+01 -4 0 0
369 1 7.6562019953504414e+00 4.6719883723058029e+00 1.6624879971934597e+01 3 2 0
1637 1 1.0098145694133031e+01 3.7765637339104496e+00 2.4403315655258677e+01 2 0 0
3171 1 4.3213454374158872e-01 7.3798698026029239e+00 1.3514548513226686e+01 0 3 1
4549 1 6.2205011270930193e+00 1.5015046665000209e+01 2.3917773223548814e+01 0 0 1
6306 1 1.9418943835222993e+00 1.1574907978340395e+01 1.3565934029273913e+01 -2 0 1
4583 1 5.0213311880270934e+00 8.2091610180894232e+00 1.6370385773457048e+01 -1 0 1
377 1 9.8683222587135386e+00 1.5855492967256820e+01 1.6832759967945368e+01 -1 0 0
4521 1 9.5024404826279607e+00 8.8816160970328895e+00 1.6490457600423227e+01 7 2 1
295 1 8.5641838996477517e+00 1.1675492149847063e+01 2.4270805661180383e+01 0 -2 0
2975 1 5.0878043676985261e+00 8.2816388688425704e+00 1.3570041058933770e+01 1 3 1
6098 1 2.1711007227902983e+00 1.1514761850831013e+01 1.6109945517174573e+01 4 1 1
6309 1 1.4190711218651508e+00 1.4388621242479141e+01 1.6772638276244159e+01 -3 -2 1
1981 1 6.1071036773269807e+00 1.2574365075977399e+01 1.6213306051652545e+01 0 5 0
3438 1 1.0484791039120504e+01 1.5957876739959183e+01 2.4234013861608879e+01 0 0 0
4790 1 1.0635442866030688e+01 1.3192860382936079e+01 1.6200131283073013e+01 -1 -2 0
2945 1 6.1012385098802833e+00 1.2604939124582966e+01 1.3437973267079911e+01 5 -4 1
477 1 1.4057769300727245e+00 2.3351971421799296e+00 1.7136600280347977e+01 -1 1 0
1310 1 1.2156488149960256e+00 2.2805489961230143e+00 1.9880014102900180e+01 2 1 1
286 1 5.6147557609555916e+00 2.9218875319443862e+00 1.7153552732986221e+01 -1 2 0
1506 1 5.6670907541011690e+00 2.7660471833297744e+00 1.9986609232251176e+01 0 -2 0
4748 1 1.0072731575640859e+01 3.7487007872131746e+00 1.9922844697050930e+01 4 -1 1
6207 1 1.0258909310513864e+01 3.4875204487747915e+00 1.6990120022987700e+01 -1 1 0
3372 1 2.7412250722589095e+00 6.7611302387525845e+00 1.6974972722497981e+01 1 -1 0
272 1 2.8002879965115972e+00 6.6297756243491834e+00 1.9717863004194541e+01 2 0 0
4414 1 7.4407101950721559e+00 7.3419979695714996e+00 1.7272573745487485e+01 -2 0 0
5082 1 7.2264485533224310e+00 7.2109469279700029e+00 1.9976980108810288e+01 0 -3 0
4482 1 8.5724766120765796e+00 1.4352679217376036e+01 2.3230626505255884e+01 2 3 1
1628 1 2.4760312887580991e+00 9.2044936126484043e+00 2.0818924919949016e+01 1 -1 0
6021 1 4.3869640589173624e+00 1.0867205302429422e+01 1.9970176462983360e+01 0 4 1
1731 1 4.5493442010598528e+00 1.0635398115563586e+01 1.7319680187977596e+01 1 0 0
2814 1 1.1776421676772806e+01 8.1819283441881616e+00 1.9749152522131673e+01 0 5 1
1667 1 1.2109750298923529e+01 8.1918241009835331e+00 1.7125715011973952e+01 -1 2 0
5306 1 8.6024211201243936e+00 1.1368899488741180e+01 1.6809124337342695e+01 -1 0 1
349 1 8.7613858106590392e+00 1.1570524880717755e+01 1.9507719342441376e+01 1 4 0
6026 1 1.5070221123453540e+00 1.4380834684363503e+01 1.9444099637289135e+01 4 -1 1
1825 1 5.5688603502739191e+00 1.5158941246373056e+01 1.6983303150333704e+01 3 -1 0
4725 1 5.8254029875554298e+00 1.5399668749568997e+01 1.9666076347851117e+01 1 -1 0
1729 1 6.1560896348730818e+00 4.4312205777495073e-01 1.6059519970512881e+01 2 1 1
4700 1 9.9538706317477632e-02 9.9597265088433318e+00 1.9751775269387455e+01 4 0 1
2990 1 3.5846787862973208e+00 1.2540895873811944e+00 2.0696207801164256e+01 1 -3 1
5039 1 3.7592694508027789e+00 1.4017406824816334e+00 2.3432833972107993e+01 3 -2 0
4673 1 6.8556412753643672e+00 7.0544000259744584e+00 2.4196023587340065e+01 5 -5 1
198 1 8.0976782028495720e+00 2.0672188968177085e+00 2.0622936648838369e+01 0 2 0
1695 1 8.0011573536344276e+00 1.8530679581069587e+00 2.3570328495275081e+01 4 -4 0
4586 1 1.2086317785477434e+01 5.5517001275492710e+00 1.6490975341561999e+01 -2 -3 0
5074 1 1.0059384813813097e+01 1.6159724084267307e+01 1.9529275820762390e+01 0 -1 0
6241 1 1.0104498924738077e+00 4.9634484553867200e+00 2.0597663662786058e+01 1 -2 0
2976 1 9.3052691744052063e-01 4.9283348859710578e+00 2.3547645389062204e+01 0 -2 1
1568 1 4.0875072664159831e+00 1.3316888410098217e+01 2.3503538647076574e+01 2 -1 1
1353 1 5.1596691581579117e+00 5.5349023536652995e+00 2.0570183413390538e+01 -2 -1 1
528 1 4.8707340243534683e+00 5.4883071853277299e+00 2.3503465424324865e+01 1 -2 1
3343 1 9.7834091445172167e+00 6.3681798552791564e+00 2.0844024156768835e+01 -4 -1 0
1445 1 9.4411400020421095e+00 6.3803946411777099e+00 2.3526378152427299e+01 -1 2 1
3389 1 2.4826595432551208e+00 9.1540165802825069e+00 2.3442908938859414e+01 3 2 0
4982 1 2.0428500783293098e+00 7.2353408700742680e-02 1.3765377481702213e+01 5 2 0
5053 1 6.7165328084567735e+00 9.8242754882234991e+00 2.0717069549204108e+01 3 5 0
3279 1 7.0438779649820722e+00 9.7454022424433955e+00 2.3418098285013119e+01 1 0 1
3153 1 4.0430699487339652e+00 1.3474265276155093e+01 2.0632237290808131e+01 0 1 1
1279 1 1.1186934594233291e+01 1.0883545075305927e+01 2.3719966475269473e+01 -1 -4 1
3472 1 1.1091883817176162e+01 1.0625748989699314e+01 2.0724272970136635e+01 -4 -2 0
227 1 1.1633444316689852e+01 8.2935334308390978e+00 2.4344581150532214e+01 0 1 0
3275 1 6.0453137385435358e+00 4.0285622082678457e-01 1.3481982023940068e+01 0 -2 1
1736 1 7.6225152334622983e+00 4.9359134575749364e+00 1.3933784036383551e+01 0 1 1
4857 1 4.5171213885425860e+00 1.0840223507424762e+01 2.3986479197720968e+01 3 2 0
6152 1 1.0508751985344952e+01 9.1454021455453405e-01 1.3456774031491840e+01 3 2 0
307 1 1.3922203176324324e+00 2.4706863147737956e+00 2.4395903102677085e+01 -4 0 0
1548 1 5.6794171304661116e+00 3.1892656427635844e+00 2.4407933675530018e+01 -1 -2 1
552 2 0.0000000000000000e+00 2.8417180249513345e+00 2.6680118000403922e+01 0 0 0
554 2 0.0000000000000000e+00 0.0000000000000000e+00 2.6680118000403922e+01 0 0 0
556 2 1.2305000000000001e+00 7.1042950623783474e-01 2.6680118000403922e+01 0 0 0
563 2 1.2305000000000001e+00 2.1312885187134998e+00 2.6680118000403922e+01 0 0 0
565 2 2.4610000000000003e+00 2.8417180249513345e+00 2.6680118000403922e+01 0 0 0
567 2 2.4610000000000003e+00 0.0000000000000000e+00 2.6680118000403922e+01 0 0 0
569 2 3.6915000000000004e+00 7.1042950623783474e-01 2.6680118000403922e+01 0 0 0
584 2 3.6914999999999996e+00 2.1312885187134998e+00 2.6680118000403922e+01 0 0 0
586 2 4.9220000000000006e+00 2.8417180249513332e+00 2.6680118000403922e+01 0 0 0
588 2 4.9220000000000006e+00 0.0000000000000000e+00 2.6680118000403922e+01 0 0 0
590 2 6.1524999999999999e+00 7.1042950623783407e-01 2.6680118000403922e+01 0 0 0
613 2 6.1524999999999999e+00 2.1312885187134989e+00 2.6680118000403922e+01 0 0 0
615 2 7.3829999999999991e+00 2.8417180249513345e+00 2.6680118000403922e+01 0 0 0
617 2 7.3829999999999991e+00 0.0000000000000000e+00 2.6680118000403922e+01 0 0 0
994 2 1.1074500000000002e+01 1.3498160618518829e+01 3.3381881999623040e+01 0 0 0
619 2 8.6134999999999984e+00 7.1042950623783407e-01 2.6680118000403922e+01 0 0 0
650 2 8.6134999999999984e+00 2.1312885187135002e+00 2.6680118000403922e+01 0 0 0
652 2 9.8440000000000012e+00 2.8417180249513332e+00 2.6680118000403922e+01 0 0 0
654 2 9.8440000000000012e+00 0.0000000000000000e+00 2.6680118000403922e+01 0 0 0
656 2 1.1074500000000002e+01 7.1042950623783330e-01 2.6680118000403922e+01 0 0 0
695 2 1.1074500000000002e+01 2.1312885187135002e+00 2.6680118000403922e+01 0 0 0
559 2 0.0000000000000000e+00 4.2625770374269996e+00 2.6680118000403922e+01 0 0 0
561 2 1.2305000000000001e+00 4.9730065436648339e+00 2.6680118000403922e+01 0 0 0
576 2 1.2305000000000001e+00 6.3938655561404980e+00 2.6680118000403922e+01 0 0 0
580 2 2.4610000000000003e+00 4.2625770374269996e+00 2.6680118000403922e+01 0 0 0
582 2 3.6914999999999996e+00 4.9730065436648339e+00 2.6680118000403922e+01 0 0 0
605 2 3.6914999999999996e+00 6.3938655561404980e+00 2.6680118000403922e+01 0 0 0
557 2 0.0000000000000000e+00 7.1042950623783341e+00 2.6680118000403922e+01 0 0 0
578 2 2.4610000000000003e+00 7.1042950623783341e+00 2.6680118000403922e+01 0 0 0
609 2 4.9220000000000006e+00 4.2625770374269978e+00 2.6680118000403922e+01 0 0 0
611 2 6.1524999999999999e+00 4.9730065436648339e+00 2.6680118000403922e+01 0 0 0
642 2 6.1524999999999999e+00 6.3938655561404980e+00 2.6680118000403922e+01 0 0 0
646 2 7.3829999999999991e+00 4.2625770374269996e+00 2.6680118000403922e+01 0 0 0
607 2 4.9220000000000006e+00 7.1042950623783341e+00 2.6680118000403922e+01 0 0 0
644 2 7.3830000000000009e+00 7.1042950623783341e+00 2.6680118000403922e+01 0 0 0
648 2 8.6135000000000002e+00 4.9730065436648339e+00 2.6680118000403922e+01 0 0 0
687 2 8.6135000000000002e+00 6.3938655561404980e+00 2.6680118000403922e+01 0 0 0
691 2 9.8440000000000012e+00 4.2625770374270004e+00 2.6680118000403922e+01 0 0 0
693 2 1.1074500000000002e+01 4.9730065436648339e+00 2.6680118000403922e+01 0 0 0
734 2 1.1074500000000002e+01 6.3938655561404980e+00 2.6680118000403922e+01 0 0 0
689 2 9.8440000000000012e+00 7.1042950623783341e+00 2.6680118000403922e+01 0 0 0
572 2 0.0000000000000000e+00 8.5251540748539991e+00 2.6680118000403922e+01 0 0 0
574 2 1.2305000000000001e+00 9.2355835810918343e+00 2.6680118000403922e+01 0 0 0
601 2 2.4610000000000003e+00 8.5251540748539991e+00 2.6680118000403922e+01 0 0 0
603 2 3.6915000000000004e+00 9.2355835810918343e+00 2.6680118000403922e+01 0 0 0
570 2 0.0000000000000000e+00 1.1366872099805333e+01 2.6680118000403922e+01 0 0 0
597 2 1.2305000000000001e+00 1.0656442593567498e+01 2.6680118000403922e+01 0 0 0
599 2 2.4610000000000003e+00 1.1366872099805333e+01 2.6680118000403922e+01 0 0 0
634 2 3.6914999999999996e+00 1.0656442593567499e+01 2.6680118000403922e+01 0 0 0
638 2 4.9220000000000006e+00 8.5251540748539991e+00 2.6680118000403922e+01 0 0 0
640 2 6.1524999999999999e+00 9.2355835810918343e+00 2.6680118000403922e+01 0 0 0
683 2 7.3830000000000009e+00 8.5251540748539991e+00 2.6680118000403922e+01 0 0 0
636 2 4.9220000000000006e+00 1.1366872099805333e+01 2.6680118000403922e+01 0 0 0
679 2 6.1524999999999999e+00 1.0656442593567499e+01 2.6680118000403922e+01 0 0 0
681 2 7.3829999999999991e+00 1.1366872099805333e+01 2.6680118000403922e+01 0 0 0
685 2 8.6134999999999984e+00 9.2355835810918343e+00 2.6680118000403922e+01 0 0 0
730 2 9.8440000000000012e+00 8.5251540748539956e+00 2.6680118000403922e+01 0 0 0
732 2 1.1074500000000002e+01 9.2355835810918343e+00 2.6680118000403922e+01 0 0 0
726 2 8.6134999999999984e+00 1.0656442593567498e+01 2.6680118000403922e+01 0 0 0
728 2 9.8440000000000012e+00 1.1366872099805333e+01 2.6680118000403922e+01 0 0 0
773 2 1.1074500000000002e+01 1.0656442593567498e+01 2.6680118000403922e+01 0 0 0
775 2 1.2304999999999998e+01 1.1366872099805333e+01 2.6680118000403922e+01 0 0 0
1012 2 1.1074500000000002e+01 1.4919019630994494e+01 3.3381881999623040e+01 0 0 0
593 2 0.0000000000000000e+00 1.2787731112280996e+01 2.6680118000403922e+01 0 0 0
595 2 1.2305000000000001e+00 1.3498160618518829e+01 2.6680118000403922e+01 0 0 0
630 2 2.4610000000000003e+00 1.2787731112280996e+01 2.6680118000403922e+01 0 0 0
632 2 3.6915000000000004e+00 1.3498160618518829e+01 2.6680118000403922e+01 0 0 0
591 2 0.0000000000000000e+00 1.5629449137232333e+01 2.6680118000403922e+01 0 0 0
626 2 1.2305000000000001e+00 1.4919019630994494e+01 2.6680118000403922e+01 0 0 0
628 2 2.4610000000000003e+00 1.5629449137232328e+01 2.6680118000403922e+01 0 0 0
671 2 3.6915000000000004e+00 1.4919019630994494e+01 2.6680118000403922e+01 0 0 0
675 2 4.9220000000000006e+00 1.2787731112280996e+01 2.6680118000403922e+01 0 0 0
677 2 6.1524999999999990e+00 1.3498160618518829e+01 2.6680118000403922e+01 0 0 0
722 2 7.3829999999999991e+00 1.2787731112280996e+01 2.6680118000403922e+01 0 0 0
673 2 4.9220000000000006e+00 1.5629449137232333e+01 2.6680118000403922e+01 0 0 0
718 2 6.1524999999999990e+00 1.4919019630994494e+01 2.6680118000403922e+01 0 0 0
720 2 7.3829999999999991e+00 1.5629449137232333e+01 2.6680118000403922e+01 0 0 0
724 2 8.6135000000000002e+00 1.3498160618518835e+01 2.6680118000403922e+01 0 0 0
769 2 9.8440000000000012e+00 1.2787731112280996e+01 2.6680118000403922e+01 0 0 0
771 2 1.1074500000000002e+01 1.3498160618518829e+01 2.6680118000403922e+01 0 0 0
765 2 8.6135000000000002e+00 1.4919019630994494e+01 2.6680118000403922e+01 0 0 0
767 2 9.8440000000000012e+00 1.5629449137232328e+01 2.6680118000403922e+01 0 0 0
807 2 1.1074500000000002e+01 1.4919019630994494e+01 2.6680118000403922e+01 0 0 0
553 2 0.0000000000000000e+00 1.4208590124756650e+00 3.0031000000004902e+01 0 0 0
555 2 0.0000000000000000e+00 0.0000000000000000e+00 3.0031000000004902e+01 0 0 0
564 2 1.2305000000000001e+00 2.1312885187134998e+00 3.0031000000004902e+01 0 0 0
566 2 2.4610000000000003e+00 1.4208590124756650e+00 3.0031000000004902e+01 0 0 0
568 2 2.4610000000000003e+00 0.0000000000000000e+00 3.0031000000004902e+01 0 0 0
585 2 3.6914999999999996e+00 2.1312885187134998e+00 3.0031000000004902e+01 0 0 0
562 2 1.2305000000000001e+00 3.5521475311891644e+00 3.0031000000004902e+01 0 0 0
583 2 3.6914999999999996e+00 3.5521475311891644e+00 3.0031000000004902e+01 0 0 0
587 2 4.9220000000000006e+00 1.4208590124756650e+00 3.0031000000004902e+01 0 0 0
589 2 4.9220000000000006e+00 0.0000000000000000e+00 3.0031000000004902e+01 0 0 0
614 2 6.1524999999999999e+00 2.1312885187134989e+00 3.0031000000004902e+01 0 0 0
616 2 7.3829999999999991e+00 1.4208590124756659e+00 3.0031000000004902e+01 0 0 0
618 2 7.3829999999999991e+00 0.0000000000000000e+00 3.0031000000004902e+01 0 0 0
612 2 6.1524999999999999e+00 3.5521475311891644e+00 3.0031000000004902e+01 0 0 0
651 2 8.6134999999999984e+00 2.1312885187135002e+00 3.0031000000004902e+01 0 0 0
653 2 9.8440000000000012e+00 1.4208590124756659e+00 3.0031000000004902e+01 0 0 0
655 2 9.8440000000000012e+00 0.0000000000000000e+00 3.0031000000004902e+01 0 0 0
696 2 1.1074500000000002e+01 2.1312885187135002e+00 3.0031000000004902e+01 0 0 0
649 2 8.6134999999999984e+00 3.5521475311891657e+00 3.0031000000004902e+01 0 0 0
694 2 1.1074500000000002e+01 3.5521475311891644e+00 3.0031000000004902e+01 0 0 0
558 2 0.0000000000000000e+00 5.6834360499026637e+00 3.0031000000004902e+01 0 0 0
560 2 0.0000000000000000e+00 4.2625770374269996e+00 3.0031000000004902e+01 0 0 0
577 2 1.2305000000000001e+00 6.3938655561404980e+00 3.0031000000004902e+01 0 0 0
579 2 2.4610000000000003e+00 5.6834360499026637e+00 3.0031000000004902e+01 0 0 0
581 2 2.4610000000000003e+00 4.2625770374269996e+00 3.0031000000004902e+01 0 0 0
606 2 3.6914999999999996e+00 6.3938655561404980e+00 3.0031000000004902e+01 0 0 0
575 2 1.2305000000000001e+00 7.8147245686161639e+00 3.0031000000004902e+01 0 0 0
604 2 3.6914999999999996e+00 7.8147245686161639e+00 3.0031000000004902e+01 0 0 0
608 2 4.9220000000000006e+00 5.6834360499026637e+00 3.0031000000004902e+01 0 0 0
610 2 4.9220000000000006e+00 4.2625770374269978e+00 3.0031000000004902e+01 0 0 0
643 2 6.1524999999999999e+00 6.3938655561404980e+00 3.0031000000004902e+01 0 0 0
645 2 7.3829999999999991e+00 5.6834360499026637e+00 3.0031000000004902e+01 0 0 0
647 2 7.3829999999999991e+00 4.2625770374269996e+00 3.0031000000004902e+01 0 0 0
641 2 6.1524999999999999e+00 7.8147245686161639e+00 3.0031000000004902e+01 0 0 0
688 2 8.6135000000000002e+00 6.3938655561404980e+00 3.0031000000004902e+01 0 0 0
690 2 9.8440000000000012e+00 5.6834360499026637e+00 3.0031000000004902e+01 0 0 0
692 2 9.8440000000000012e+00 4.2625770374270004e+00 3.0031000000004902e+01 0 0 0
735 2 1.1074500000000002e+01 6.3938655561404980e+00 3.0031000000004902e+01 0 0 0
686 2 8.6135000000000002e+00 7.8147245686161639e+00 3.0031000000004902e+01 0 0 0
733 2 1.1074500000000002e+01 7.8147245686161639e+00 3.0031000000004902e+01 0 0 0
571 2 0.0000000000000000e+00 9.9460130873296642e+00 3.0031000000004902e+01 0 0 0
573 2 0.0000000000000000e+00 8.5251540748539991e+00 3.0031000000004902e+01 0 0 0
600 2 2.4610000000000003e+00 9.9460130873296642e+00 3.0031000000004902e+01 0 0 0
602 2 2.4610000000000003e+00 8.5251540748539991e+00 3.0031000000004902e+01 0 0 0
596 2 1.2305000000000001e+00 1.2077301606043163e+01 3.0031000000004902e+01 0 0 0
598 2 1.2305000000000001e+00 1.0656442593567498e+01 3.0031000000004902e+01 0 0 0
633 2 3.6914999999999996e+00 1.2077301606043163e+01 3.0031000000004902e+01 0 0 0
635 2 3.6914999999999996e+00 1.0656442593567499e+01 3.0031000000004902e+01 0 0 0
637 2 4.9220000000000006e+00 9.9460130873296642e+00 3.0031000000004902e+01 0 0 0
639 2 4.9220000000000006e+00 8.5251540748539991e+00 3.0031000000004902e+01 0 0 0
682 2 7.3830000000000009e+00 9.9460130873296642e+00 3.0031000000004902e+01 0 0 0
684 2 7.3830000000000009e+00 8.5251540748539991e+00 3.0031000000004902e+01 0 0 0
678 2 6.1524999999999999e+00 1.2077301606043163e+01 3.0031000000004902e+01 0 0 0
680 2 6.1524999999999999e+00 1.0656442593567499e+01 3.0031000000004902e+01 0 0 0
729 2 9.8440000000000012e+00 9.9460130873296642e+00 3.0031000000004902e+01 0 0 0
731 2 9.8440000000000012e+00 8.5251540748539956e+00 3.0031000000004902e+01 0 0 0
725 2 8.6135000000000002e+00 1.2077301606043163e+01 3.0031000000004902e+01 0 0 0
727 2 8.6134999999999984e+00 1.0656442593567498e+01 3.0031000000004902e+01 0 0 0
772 2 1.1074500000000002e+01 1.2077301606043163e+01 3.0031000000004902e+01 0 0 0
774 2 1.1074500000000002e+01 1.0656442593567498e+01 3.0031000000004902e+01 0 0 0
594 2 0.0000000000000000e+00 1.2787731112280996e+01 3.0031000000004902e+01 0 0 0
631 2 2.4610000000000003e+00 1.2787731112280996e+01 3.0031000000004902e+01 0 0 0
592 2 0.0000000000000000e+00 1.4208590124756663e+01 3.0031000000004902e+01 0 0 0
627 2 1.2305000000000001e+00 1.4919019630994494e+01 3.0031000000004902e+01 0 0 0
629 2 2.4610000000000003e+00 1.4208590124756663e+01 3.0031000000004902e+01 0 0 0
672 2 3.6915000000000004e+00 1.4919019630994494e+01 3.0031000000004902e+01 0 0 0
676 2 4.9220000000000006e+00 1.2787731112280996e+01 3.0031000000004902e+01 0 0 0
723 2 7.3829999999999991e+00 1.2787731112280996e+01 3.0031000000004902e+01 0 0 0
674 2 4.9220000000000006e+00 1.4208590124756663e+01 3.0031000000004902e+01 0 0 0
719 2 6.1524999999999990e+00 1.4919019630994494e+01 3.0031000000004902e+01 0 0 0
721 2 7.3830000000000009e+00 1.4208590124756663e+01 3.0031000000004902e+01 0 0 0
770 2 9.8440000000000012e+00 1.2787731112280996e+01 3.0031000000004902e+01 0 0 0
766 2 8.6135000000000002e+00 1.4919019630994494e+01 3.0031000000004902e+01 0 0 0
768 2 9.8440000000000012e+00 1.4208590124756663e+01 3.0031000000004902e+01 0 0 0
806 2 1.1074500000000002e+01 1.6339878643470161e+01 3.0031000000004902e+01 0 0 0
808 2 1.1074500000000002e+01 1.4919019630994494e+01 3.0031000000004902e+01 0 0 0
810 2 1.2304999999999998e+01 1.4208590124756658e+01 3.0031000000004902e+01 0 0 0
881 2 0.0000000000000000e+00 2.8417180249513345e+00 3.3381881999623040e+01 0 0 0
882 2 0.0000000000000000e+00 0.0000000000000000e+00 3.3381881999623040e+01 0 0 0
883 2 1.2305000000000001e+00 7.1042950623783474e-01 3.3381881999623040e+01 0 0 0
887 2 1.2305000000000001e+00 2.1312885187134998e+00 3.3381881999623040e+01 0 0 0
888 2 2.4610000000000003e+00 2.8417180249513345e+00 3.3381881999623040e+01 0 0 0
889 2 2.4610000000000003e+00 0.0000000000000000e+00 3.3381881999623040e+01 0 0 0
890 2 3.6915000000000004e+00 7.1042950623783474e-01 3.3381881999623040e+01 0 0 0
898 2 3.6914999999999996e+00 2.1312885187134998e+00 3.3381881999623040e+01 0 0 0
899 2 4.9220000000000006e+00 2.8417180249513332e+00 3.3381881999623040e+01 0 0 0
900 2 4.9220000000000006e+00 0.0000000000000000e+00 3.3381881999623040e+01 0 0 0
901 2 6.1524999999999999e+00 7.1042950623783407e-01 3.3381881999623040e+01 0 0 0
913 2 6.1524999999999999e+00 2.1312885187134989e+00 3.3381881999623040e+01 0 0 0
914 2 7.3829999999999991e+00 2.8417180249513345e+00 3.3381881999623040e+01 0 0 0
915 2 7.3829999999999991e+00 0.0000000000000000e+00 3.3381881999623040e+01 0 0 0
916 2 8.6134999999999984e+00 7.1042950623783407e-01 3.3381881999623040e+01 0 0 0
932 2 8.6134999999999984e+00 2.1312885187135002e+00 3.3381881999623040e+01 0 0 0
933 2 9.8440000000000012e+00 2.8417180249513332e+00 3.3381881999623040e+01 0 0 0
934 2 9.8440000000000012e+00 0.0000000000000000e+00 3.3381881999623040e+01 0 0 0
935 2 1.1074500000000002e+01 7.1042950623783330e-01 3.3381881999623040e+01 0 0 0
955 2 1.1074500000000002e+01 2.1312885187135002e+00 3.3381881999623040e+01 0 0 0
970 2 8.6135000000000002e+00 1.3498160618518835e+01 3.3381881999623040e+01 0 0 0
885 2 0.0000000000000000e+00 4.2625770374269996e+00 3.3381881999623040e+01 0 0 0
886 2 1.2305000000000001e+00 4.9730065436648339e+00 3.3381881999623040e+01 0 0 0
894 2 1.2305000000000001e+00 6.3938655561404980e+00 3.3381881999623040e+01 0 0 0
896 2 2.4610000000000003e+00 4.2625770374269996e+00 3.3381881999623040e+01 0 0 0
897 2 3.6914999999999996e+00 4.9730065436648339e+00 3.3381881999623040e+01 0 0 0
909 2 3.6914999999999996e+00 6.3938655561404980e+00 3.3381881999623040e+01 0 0 0
884 2 0.0000000000000000e+00 7.1042950623783341e+00 3.3381881999623040e+01 0 0 0
895 2 2.4610000000000003e+00 7.1042950623783341e+00 3.3381881999623040e+01 0 0 0
911 2 4.9220000000000006e+00 4.2625770374269978e+00 3.3381881999623040e+01 0 0 0
912 2 6.1524999999999999e+00 4.9730065436648339e+00 3.3381881999623040e+01 0 0 0
928 2 6.1524999999999999e+00 6.3938655561404980e+00 3.3381881999623040e+01 0 0 0
930 2 7.3829999999999991e+00 4.2625770374269996e+00 3.3381881999623040e+01 0 0 0
910 2 4.9220000000000006e+00 7.1042950623783341e+00 3.3381881999623040e+01 0 0 0
929 2 7.3830000000000009e+00 7.1042950623783341e+00 3.3381881999623040e+01 0 0 0
931 2 8.6135000000000002e+00 4.9730065436648339e+00 3.3381881999623040e+01 0 0 0
951 2 8.6135000000000002e+00 6.3938655561404980e+00 3.3381881999623040e+01 0 0 0
953 2 9.8440000000000012e+00 4.2625770374270004e+00 3.3381881999623040e+01 0 0 0
954 2 1.1074500000000002e+01 4.9730065436648339e+00 3.3381881999623040e+01 0 0 0
975 2 1.1074500000000002e+01 6.3938655561404980e+00 3.3381881999623040e+01 0 0 0
952 2 9.8440000000000012e+00 7.1042950623783341e+00 3.3381881999623040e+01 0 0 0
892 2 0.0000000000000000e+00 8.5251540748539991e+00 3.3381881999623040e+01 0 0 0
893 2 1.2305000000000001e+00 9.2355835810918343e+00 3.3381881999623040e+01 0 0 0
907 2 2.4610000000000003e+00 8.5251540748539991e+00 3.3381881999623040e+01 0 0 0
908 2 3.6915000000000004e+00 9.2355835810918343e+00 3.3381881999623040e+01 0 0 0
891 2 0.0000000000000000e+00 1.1366872099805333e+01 3.3381881999623040e+01 0 0 0
905 2 1.2305000000000001e+00 1.0656442593567498e+01 3.3381881999623040e+01 0 0 0
906 2 2.4610000000000003e+00 1.1366872099805333e+01 3.3381881999623040e+01 0 0 0
924 2 3.6914999999999996e+00 1.0656442593567499e+01 3.3381881999623040e+01 0 0 0
991 2 8.6135000000000002e+00 1.4919019630994494e+01 3.3381881999623040e+01 0 0 0
926 2 4.9220000000000006e+00 8.5251540748539991e+00 3.3381881999623040e+01 0 0 0
927 2 6.1524999999999999e+00 9.2355835810918343e+00 3.3381881999623040e+01 0 0 0
949 2 7.3830000000000009e+00 8.5251540748539991e+00 3.3381881999623040e+01 0 0 0
925 2 4.9220000000000006e+00 1.1366872099805333e+01 3.3381881999623040e+01 0 0 0
947 2 6.1524999999999999e+00 1.0656442593567499e+01 3.3381881999623040e+01 0 0 0
948 2 7.3829999999999991e+00 1.1366872099805333e+01 3.3381881999623040e+01 0 0 0
950 2 8.6134999999999984e+00 9.2355835810918343e+00 3.3381881999623040e+01 0 0 0
973 2 9.8440000000000012e+00 8.5251540748539956e+00 3.3381881999623040e+01 0 0 0
974 2 1.1074500000000002e+01 9.2355835810918343e+00 3.3381881999623040e+01 0 0 0
971 2 8.6134999999999984e+00 1.0656442593567498e+01 3.3381881999623040e+01 0 0 0
972 2 9.8440000000000012e+00 1.1366872099805333e+01 3.3381881999623040e+01 0 0 0
995 2 1.1074500000000002e+01 1.0656442593567498e+01 3.3381881999623040e+01 0 0 0