LAMMPS data file via write_data, version 16 Mar 2018, timestep = 100000

6337 atoms
2 atom types

0.0000000000000000e+00 4.9219999999999999e+01 xlo xhi
0.0000000000000000e+00 4.9019635930410494e+01 ylo yhi
2.5836058626889056e+00 5.7478394137309543e+01 zlo zhi

Masses

1 18.015
2 12.01

Atoms # atomic

1614 1 3.1742680711335969e+00 1.9842325933534812e+00 5.1092271385979515e+00 0 0 1
4899 1 6.0943365214163148e+00 9.6368041048553650e+00 7.9222936944339004e+00 0 0 0
3041 1 9.5753515542917853e+00 8.7696213308318427e+00 2.6609501654523182e+00 0 0 1
108 1 8.5743296083015323e+00 7.7827790981065359e+00 8.6522808205790795e+00 0 0 0
5051 1 2.4544342619857025e+00 3.0626771843096110e+00 2.6829695121351995e+00 0 1 0
3131 1 1.6247281384351517e+00 6.1485158629508625e+00 4.6292808426465148e+00 0 0 1
482 1 7.1847983909479121e+00 3.4817779361654009e+00 4.4075702215512305e+00 0 1 1
2009 1 9.5042750753765937e+00 5.2326721694701970e+00 5.0401878430785025e+00 0 0 0
2007 1 3.3631443532767245e+00 1.0927587718918428e+01 9.0030650702241708e+00 1 0 0
3445 1 3.9789599725139819e+00 9.6659692568332467e+00 3.1937659570563253e+00 0 1 0
2858 1 5.0665015340262656e+00 8.3341839263636626e+00 5.7534996427091274e+00 0 1 1
3634 1 7.7379547867509393e+00 7.2274074711662859e+00 4.4186083183562612e+00 1 0 1
544 1 1.3259443664003008e+00 8.7241765406929233e+00 3.4636546526398764e+00 0 1 0
1264 1 9.2449045554668903e+00 8.9161542613602389e+00 6.0495089946214318e+00 0 0 1
3412 1 8.6270290246865216e+00 1.1603620805410353e+01 5.8993824121721925e+00 1 0 0
3532 1 2.5752709072916224e+00 1.0258599422065108e+01 6.2872376300823403e+00 0 1 0
2846 1 1.3677322101461984e+00 1.7391650520208020e+00 7.3692314970701611e+00 0 1 1
3499 1 9.3853228965160493e+00 4.7967242790897924e+00 7.7670753805553989e+00 0 1 0
184 1 7.8071634981341305e+00 7.4419532912097608e-01 3.7901024485827346e+00 0 0 0
1981 1 5.4356696837154628e+00 1.2201128536052255e+00 8.3550283107855456e+00 0 0 0
91 1 1.0630913670741131e+00 7.0766555992369744e+00 8.3743446769257233e+00 0 1 0
4949 1 1.2089539424178353e+01 8.9307361764275637e+00 5.2328113212154843e+00 1 0 0
1644 1 3.6130463783658406e+00 5.9091042119307966e+00 6.5909340145392488e+00 0 0 0
2871 1 5.1431811120105841e+00 3.3437433949700415e+00 6.5356717821873351e+00 -1 0 1
4424 1 1.3940537178029064e-01 9.4550204950112793e+00 7.1299268552099759e+00 0 0 1
2899 1 9.2062010190162127e+00 2.0870463913577719e+00 8.0018079678126757e+00 0 0 1
1629 1 1.0298317027607466e+01 1.2099931131258082e+01 8.0827352003459190e+00 0 0 0
3094 1 6.2055297728878085e-02 4.4386744880355948e+00 2.7129838789121856e+00 0 0 0
4472 1 1.2223759630891248e+01 4.7425366471223009e+00 4.9014973456808359e+00 0 0 0
4961 1 1.1059782167181913e+01 5.3094169657326007e-01 1.4404407872195982e+01 1 0 0
424 1 4.4452963328610338e+00 5.6601081625110981e+00 1.6214830839853171e+01 1 0 0
4970 1 1.2919756899273465e+00 5.6052847174164899e+00 1.4450375259147709e+01 1 1 0
3578 1 1.6387648065831459e+00 7.5190216386852793e-01 1.5420992373309032e+01 0 0 1
351 1 1.1825767977259503e+01 5.2558622457700892e+00 1.0625553391975741e+01 0 0 1
4612 1 3.9341460187561941e+00 5.6093533854969220e+00 1.3522474489202894e+01 -1 1 1
1750 1 7.2885052723262049e+00 9.8367520965654887e+00 1.2431385998027496e+01 0 0 0
5157 1 6.4736679843415583e+00 2.1119090313594113e+00 1.2840077346711052e+01 0 0 0
1627 1 8.0549294144914061e+00 4.7490473334655309e-01 1.4565709539231721e+01 0 0 1
1273 1 1.1021925433563343e+01 3.2568269604703435e+00 1.3364883978814103e+01 1 0 1
1562 1 1.0988258796373625e+01 7.0284094501989101e+00 1.3252730295203895e+01 1 1 0
4814 1 5.5859370634277949e+00 7.6163990449040213e+00 1.2249236434925775e+01 1 0 0
182 1 1.0208543489246889e+01 9.1932882883459932e+00 1.4884332837232588e+01 0 1 1
5014 1 3.7410952954860281e+00 8.4382987871141300e+00 1.0314701876004506e+01 1 1 0
1697 1 7.6918786666949277e+00 9.6736806770055868e+00 1.5323835168526127e+01 1 0 1
155 1 6.6833865736264624e+00 6.1840377491980005e+00 1.0107846563788259e+01 1 0 1
6180 1 2.2434230178977970e+00 3.5792448507104813e+00 1.1087322318163288e+01 1 0 1
6306 1 1.0835865922130894e+01 8.1651265163255431e+00 1.0270437819670732e+01 0 0 0
5050 1 2.1610350968414198e+00 8.4062341530702138e+00 1.2658767908240485e+01 1 0 0
4689 1 9.2085674438412486e+00 4.2864377328382606e+00 1.0748980412601892e+01 1 0 1
3464 1 3.4354356469542147e+00 2.7952640692359116e+00 1.3533611416749643e+01 0 1 1
1534 1 7.1596297148928985e+00 4.7319729732406079e+00 1.2832322503013513e+01 2 1 1
6026 1 6.2124514785438718e+00 1.1639601374413781e+01 1.0191861250982308e+01 0 1 1
4920 1 2.7217619055309643e+00 1.0960715904746015e+00 9.8794777116372501e+00 1 0 0
168 1 1.2010407751709018e+00 1.1119272237318159e+01 1.5324755683247732e+01 1 1 1
172 1 7.6183964497324741e+00 1.6249583419320353e+00 1.0005032363737977e+01 1 0 1
1984 1 9.8438239509930909e+00 1.0671284970350289e+01 1.1217609534482369e+01 0 1 0
309 1 9.5551687034991577e+00 5.1028419745983502e+00 1.4480486643643696e+01 -1 1 0
4743 1 1.0920218526734427e+01 1.1370742405898481e+01 1.3489238910928943e+01 1 0 1
325 1 1.3082554108899527e+00 8.2057245504827492e+00 1.5995580453314624e+01 1 -1 0
4720 1 1.0579438177797649e+00 1.1532245709339355e+01 1.0445210788182930e+01 1 1 1
3358 1 2.7048780472736862e+00 1.1092123951663105e+01 1.2720516932984017e+01 1 -1 0
551 1 1.1128393741634026e+01 9.0883782804169588e-01 9.8082788982117624e+00 0 0 1
4865 1 6.8182624426186926e+00 6.7845527565859216e+00 1.5198893678920445e+01 0 1 0
316 1 5.2372172635488603e+00 1.2022668170556175e+01 1.2710280671618399e+01 0 0 0
3535 1 3.6086129015869006e+00 5.5802346204883557e+00 9.5373573976513235e+00 0 1 0
4907 1 1.9685140468463940e+00 3.4337136757857114e+00 1.6452395800539811e+01 0 0 0
5021 1 1.0367156233632535e+00 3.1907875896048643e+00 1.9345946532699507e+01 1 1 0
5191 1 7.5403645730883149e+00 6.5107733205994056e-01 1.8602041216697071e+01 -1 1 0
212 1 7.4907523651508185e+00 4.0853961623680428e+00 1.9349771987429570e+01 0 0 0
105 1 1.1610849087418186e+01 1.6422582187710091e+00 1.6923099008776845e+01 1 0 0
2863 1 1.2231954944545153e+01 1.1272354436820981e+01 1.8910562259099656e+01 1 0 1
6127 1 3.2643574902260553e+00 7.9310724196740185e+00 2.1820333442396898e+01 1 1 0
5103 1 3.2144395479710757e+00 7.4269823134245057e+00 1.7715045916722609e+01 0 -1 0
4950 1 5.8105402290904369e+00 7.3694758684143693e+00 2.0116421519141824e+01 0 0 0
312 1 2.9940552184586045e+00 1.3572390136188095e+00 2.2828225049888488e+01 1 0 0
4946 1 1.0603227348929435e+01 5.3187686905243599e+00 1.9254915501561776e+01 0 1 0
3475 1 2.4208510688507894e+00 1.0137554240325070e+01 2.0105326688886837e+01 1 0 0
246 1 7.7649151853993237e+00 8.9789443318380400e+00 1.8200880410231655e+01 0 0 0
4856 1 4.8895557002712593e+00 9.6194644037670543e+00 1.8312118012820534e+01 1 0 1
4881 1 1.0855040008825144e+01 8.6214591960389715e+00 2.1589522919604558e+01 1 0 1
4542 1 4.8040786618005962e+00 3.4542041055598917e-02 1.8542104170674730e+01 0 0 1
3463 1 9.4228437100480971e+00 1.0300943628129875e+01 2.0174239837292905e+01 0 0 0
199 1 3.7941461943863217e+00 2.0556564712351149e+00 1.9752444049367700e+01 -1 1 0
1383 1 9.7144143395904852e+00 3.9131763710337455e+00 1.6970215679524777e+01 0 1 0
3135 1 5.3616853699692824e+00 3.6621144252150559e+00 1.7587694270006764e+01 0 1 1
443 1 8.5328003336639018e+00 1.5720379049830553e+00 2.0812143676253132e+01 1 0 1
4986 1 2.8027160327075187e+00 5.6325671539841222e+00 1.9685356876327734e+01 0 0 0
1839 1 7.3430308373718178e-01 6.3438294158300392e+00 2.1535266909224717e+01 1 1 0
3520 1 5.2827803432592990e+00 4.3784023200203652e+00 2.0886917190974827e+01 1 0 0
4497 1 8.6799527361509874e+00 6.1761316848215237e+00 2.1365996544232111e+01 -1 0 1
294 1 1.1162631552149046e+01 3.1586052844582042e+00 2.0896946821289877e+01 -1 1 0
3025 1 6.8018777525957255e+00 9.7623520781898616e+00 2.1316316740977658e+01 1 1 1
3516 1 7.5811500945839594e-01 6.6684321823045412e-01 2.0830984874351124e+01 0 0 0
3263 1 7.5211445716443386e+00 2.5001770362914000e+00 1.6417405881625520e+01 1 0 0
4877 1 5.0817447528785857e-02 8.3098546291108022e+00 2.4135836398280489e+01 1 1 1
3505 1 2.7577294974923015e+00 3.8552431772114981e+00 2.4688145958684743e+01 1 1 0
1784 1 7.5918049586778888e+00 9.7012091958241931e-01 2.3461432173489165e+01 1 1 0
148 1 7.3257315612078244e+00 3.4279775299662081e+00 2.4539566721414609e+01 0 1 0
3275 1 7.5923908611565771e+00 9.5137735646598518e+00 2.4140380502571261e+01 0 0 0
493 1 5.2358126379198833e-01 5.3840369690517349e+00 2.4276188605521309e+01 0 1 1
156 1 5.1567588804570148e+00 5.0482358578316200e+00 2.3915468394337250e+01 0 1 0
3493 1 2.5398450169085933e+00 1.1716605368945276e+01 2.4204186139355411e+01 1 1 0
734 2 1.1074500000000002e+01 9.2355835810918343e+00 2.6869778704051168e+01 0 0 0
1830 1 9.8834638611120784e+00 8.0055560554429235e+00 2.4340913420004245e+01 0 1 1
5048 1 2.7958084295471561e+00 8.9170806686745490e+00 2.4279064119104003e+01 1 0 1
777 2 1.2304999999999998e+01 1.1366872099805333e+01 2.6869778704051168e+01 0 0 0
3571 1 9.3765291859940847e-01 7.4876382508437270e-02 2.4410929391013628e+01 1 0 0
1819 1 5.2491421638870799e+00 7.4869057041022566e+00 2.4410690480635147e+01 0 1 0
554 2 0.0000000000000000e+00 2.8417180249513345e+00 2.6869778704051168e+01 0 0 0
556 2 0.0000000000000000e+00 0.0000000000000000e+00 2.6869778704051168e+01 0 0 0
558 2 1.2305000000000001e+00 7.1042950623783474e-01 2.6869778704051168e+01 0 0 0
565 2 1.2305000000000001e+00 2.1312885187134998e+00 2.6869778704051168e+01 0 0 0
567 2 2.4610000000000003e+00 2.8417180249513345e+00 2.6869778704051168e+01 0 0 0
569 2 2.4610000000000003e+00 0.0000000000000000e+00 2.6869778704051168e+01 0 0 0
571 2 3.6915000000000004e+00 7.1042950623783474e-01 2.6869778704051168e+01 0 0 0
586 2 3.6914999999999996e+00 2.1312885187134998e+00 2.6869778704051168e+01 0 0 0
588 2 4.9220000000000006e+00 2.8417180249513332e+00 2.6869778704051168e+01 0 0 0
590 2 4.9220000000000006e+00 0.0000000000000000e+00 2.6869778704051168e+01 0 0 0
592 2 6.1524999999999999e+00 7.1042950623783407e-01 2.6869778704051168e+01 0 0 0
615 2 6.1524999999999999e+00 2.1312885187134989e+00 2.6869778704051168e+01 0 0 0
617 2 7.3829999999999991e+00 2.8417180249513345e+00 2.6869778704051168e+01 0 0 0
619 2 7.3829999999999991e+00 0.0000000000000000e+00 2.6869778704051168e+01 0 0 0
621 2 8.6134999999999984e+00 7.1042950623783407e-01 2.6869778704051168e+01 0 0 0
652 2 8.6134999999999984e+00 2.1312885187135002e+00 2.6869778704051168e+01 0 0 0
654 2 9.8440000000000012e+00 2.8417180249513332e+00 2.6869778704051168e+01 0 0 0
656 2 9.8440000000000012e+00 0.0000000000000000e+00 2.6869778704051168e+01 0 0 0
658 2 1.1074500000000002e+01 7.1042950623783330e-01 2.6869778704051168e+01 0 0 0
697 2 1.1074500000000002e+01 2.1312885187135002e+00 2.6869778704051168e+01 0 0 0
561 2 0.0000000000000000e+00 4.2625770374269996e+00 2.6869778704051168e+01 0 0 0
563 2 1.2305000000000001e+00 4.9730065436648339e+00 2.6869778704051168e+01 0 0 0
578 2 1.2305000000000001e+00 6.3938655561404980e+00 2.6869778704051168e+01 0 0 0
582 2 2.4610000000000003e+00 4.2625770374269996e+00 2.6869778704051168e+01 0 0 0
584 2 3.6914999999999996e+00 4.9730065436648339e+00 2.6869778704051168e+01 0 0 0
607 2 3.6914999999999996e+00 6.3938655561404980e+00 2.6869778704051168e+01 0 0 0
559 2 0.0000000000000000e+00 7.1042950623783341e+00 2.6869778704051168e+01 0 0 0
580 2 2.4610000000000003e+00 7.1042950623783341e+00 2.6869778704051168e+01 0 0 0
611 2 4.9220000000000006e+00 4.2625770374269978e+00 2.6869778704051168e+01 0 0 0
613 2 6.1524999999999999e+00 4.9730065436648339e+00 2.6869778704051168e+01 0 0 0
644 2 6.1524999999999999e+00 6.3938655561404980e+00 2.6869778704051168e+01 0 0 0
648 2 7.3829999999999991e+00 4.2625770374269996e+00 2.6869778704051168e+01 0 0 0
609 2 4.9220000000000006e+00 7.1042950623783341e+00 2.6869778704051168e+01 0 0 0
646 2 7.3830000000000009e+00 7.1042950623783341e+00 2.6869778704051168e+01 0 0 0
650 2 8.6135000000000002e+00 4.9730065436648339e+00 2.6869778704051168e+01 0 0 0
689 2 8.6135000000000002e+00 6.3938655561404980e+00 2.6869778704051168e+01 0 0 0
693 2 9.8440000000000012e+00 4.2625770374270004e+00 2.6869778704051168e+01 0 0 0
695 2 1.1074500000000002e+01 4.9730065436648339e+00 2.6869778704051168e+01 0 0 0
736 2 1.1074500000000002e+01 6.3938655561404980e+00 2.6869778704051168e+01 0 0 0
691 2 9.8440000000000012e+00 7.1042950623783341e+00 2.6869778704051168e+01 0 0 0
574 2 0.0000000000000000e+00 8.5251540748539991e+00 2.6869778704051168e+01 0 0 0
576 2 1.2305000000000001e+00 9.2355835810918343e+00 2.6869778704051168e+01 0 0 0
603 2 2.4610000000000003e+00 8.5251540748539991e+00 2.6869778704051168e+01 0 0 0
605 2 3.6915000000000004e+00 9.2355835810918343e+00 2.6869778704051168e+01 0 0 0
572 2 0.0000000000000000e+00 1.1366872099805333e+01 2.6869778704051168e+01 0 0 0
599 2 1.2305000000000001e+00 1.0656442593567498e+01 2.6869778704051168e+01 0 0 0
601 2 2.4610000000000003e+00 1.1366872099805333e+01 2.6869778704051168e+01 0 0 0
636 2 3.6914999999999996e+00 1.0656442593567499e+01 2.6869778704051168e+01 0 0 0
640 2 4.9220000000000006e+00 8.5251540748539991e+00 2.6869778704051168e+01 0 0 0
642 2 6.1524999999999999e+00 9.2355835810918343e+00 2.6869778704051168e+01 0 0 0
685 2 7.3830000000000009e+00 8.5251540748539991e+00 2.6869778704051168e+01 0 0 0
638 2 4.9220000000000006e+00 1.1366872099805333e+01 2.6869778704051168e+01 0 0 0
681 2 6.1524999999999999e+00 1.0656442593567499e+01 2.6869778704051168e+01 0 0 0
683 2 7.3829999999999991e+00 1.1366872099805333e+01 2.6869778704051168e+01 0 0 0
728 2 8.6134999999999984e+00 1.0656442593567498e+01 2.6869778704051168e+01 0 0 0
730 2 9.8440000000000012e+00 1.1366872099805333e+01 2.6869778704051168e+01 0 0 0
687 2 8.6134999999999984e+00 9.2355835810918343e+00 2.6869778704051168e+01 0 0 0
732 2 9.8440000000000012e+00 8.5251540748539956e+00 2.6869778704051168e+01 0 0 0
775 2 1.1074500000000002e+01 1.0656442593567498e+01 2.6869778704051168e+01 0 0 0
5285 1 9.5269321974513108e+00 5.3556830914840790e+00 2.3911381481714059e+01 -1 0 0
3527 1 1.1663341169997045e+01 3.5914076032782969e+00 2.3742427395928562e+01 0 0 0
477 1 1.0685843887963445e+01 1.1912944228697347e+01 2.4517349043632834e+01 1 0 0
555 2 0.0000000000000000e+00 1.4208590124756650e+00 3.0030999999999260e+01 0 0 0
557 2 0.0000000000000000e+00 0.0000000000000000e+00 3.0030999999999260e+01 0 0 0
566 2 1.2305000000000001e+00 2.1312885187134998e+00 3.0030999999999260e+01 0 0 0
568 2 2.4610000000000003e+00 1.4208590124756650e+00 3.0030999999999260e+01 0 0 0
570 2 2.4610000000000003e+00 0.0000000000000000e+00 3.0030999999999260e+01 0 0 0
587 2 3.6914999999999996e+00 2.1312885187134998e+00 3.0030999999999260e+01 0 0 0
564 2 1.2305000000000001e+00 3.5521475311891644e+00 3.0030999999999260e+01 0 0 0
585 2 3.6914999999999996e+00 3.5521475311891644e+00 3.0030999999999260e+01 0 0 0
883 2 0.0000000000000000e+00 2.8417180249513345e+00 3.3192221295942133e+01 0 0 0
884 2 0.0000000000000000e+00 0.0000000000000000e+00 3.3192221295942133e+01 0 0 0
885 2 1.2305000000000001e+00 7.1042950623783474e-01 3.3192221295942133e+01 0 0 0
889 2 1.2305000000000001e+00 2.1312885187134998e+00 3.3192221295942133e+01 0 0 0
890 2 2.4610000000000003e+00 2.8417180249513345e+00 3.3192221295942133e+01 0 0 0
891 2 2.4610000000000003e+00 0.0000000000000000e+00 3.3192221295942133e+01 0 0 0
892 2 3.6915000000000004e+00 7.1042950623783474e-01 3.3192221295942133e+01 0 0 0
900 2 3.6914999999999996e+00 2.1312885187134998e+00 3.3192221295942133e+01 0 0 0
589 2 4.9220000000000006e+00 1.4208590124756650e+00 3.0030999999999260e+01 0 0 0
591 2 4.9220000000000006e+00 0.0000000000000000e+00 3.0030999999999260e+01 0 0 0
616 2 6.1524999999999999e+00 2.1312885187134989e+00 3.0030999999999260e+01 0 0 0
618 2 7.3829999999999991e+00 1.4208590124756659e+00 3.0030999999999260e+01 0 0 0
620 2 7.3829999999999991e+00 0.0000000000000000e+00 3.0030999999999260e+01 0 0 0
614 2 6.1524999999999999e+00 3.5521475311891644e+00 3.0030999999999260e+01 0 0 0
901 2 4.9220000000000006e+00 2.8417180249513332e+00 3.3192221295942133e+01 0 0 0
902 2 4.9220000000000006e+00 0.0000000000000000e+00 3.3192221295942133e+01 0 0 0
903 2 6.1524999999999999e+00 7.1042950623783407e-01 3.3192221295942133e+01 0 0 0
915 2 6.1524999999999999e+00 2.1312885187134989e+00 3.3192221295942133e+01 0 0 0
916 2 7.3829999999999991e+00 2.8417180249513345e+00 3.3192221295942133e+01 0 0 0
917 2 7.3829999999999991e+00 0.0000000000000000e+00 3.3192221295942133e+01 0 0 0
653 2 8.6134999999999984e+00 2.1312885187135002e+00 3.0030999999999260e+01 0 0 0
655 2 9.8440000000000012e+00 1.4208590124756659e+00 3.0030999999999260e+01 0 0 0
657 2 9.8440000000000012e+00 0.0000000000000000e+00 3.0030999999999260e+01 0 0 0
698 2 1.1074500000000002e+01 2.1312885187135002e+00 3.0030999999999260e+01 0 0 0
651 2 8.6134999999999984e+00 3.5521475311891657e+00 3.0030999999999260e+01 0 0 0
696 2 1.1074500000000002e+01 3.5521475311891644e+00 3.0030999999999260e+01 0 0 0
918 2 8.6134999999999984e+00 7.1042950623783407e-01 3.3192221295942133e+01 0 0 0
934 2 8.6134999999999984e+00 2.1312885187135002e+00 3.3192221295942133e+01 0 0 0
935 2 9.8440000000000012e+00 2.8417180249513332e+00 3.3192221295942133e+01 0 0 0
936 2 9.8440000000000012e+00 0.0000000000000000e+00 3.3192221295942133e+01 0 0 0
937 2 1.1074500000000002e+01 7.1042950623783330e-01 3.3192221295942133e+01 0 0 0
957 2 1.1074500000000002e+01 2.1312885187135002e+00 3.3192221295942133e+01 0 0 0
560 2 0.0000000000000000e+00 5.6834360499026637e+00 3.0030999999999260e+01 0 0 0
562 2 0.0000000000000000e+00 4.2625770374269996e+00 3.0030999999999260e+01 0 0 0
579 2 1.2305000000000001e+00 6.3938655561404980e+00 3.0030999999999260e+01 0 0 0
581 2 2.4610000000000003e+00 5.6834360499026637e+00 3.0030999999999260e+01 0 0 0
583 2 2.4610000000000003e+00 4.2625770374269996e+00 3.0030999999999260e+01 0 0 0
608 2 3.6914999999999996e+00 6.3938655561404980e+00 3.0030999999999260e+01 0 0 0
577 2 1.2305000000000001e+00 7.8147245686161639e+00 3.0030999999999260e+01 0 0 0
606 2 3.6914999999999996e+00 7.8147245686161639e+00 3.0030999999999260e+01 0 0 0
887 2 0.0000000000000000e+00 4.2625770374269996e+00 3.3192221295942133e+01 0 0 0
888 2 1.2305000000000001e+00 4.9730065436648339e+00 3.3192221295942133e+01 0 0 0
896 2 1.2305000000000001e+00 6.3938655561404980e+00 3.3192221295942133e+01 0 0 0
898 2 2.4610000000000003e+00 4.2625770374269996e+00 3.3192221295942133e+01 0 0 0
899 2 3.6914999999999996e+00 4.9730065436648339e+00 3.3192221295942133e+01 0 0 0
911 2 3.6914999999999996e+00 6.3938655561404980e+00 3.3192221295942133e+01 0 0 0
886 2 0.0000000000000000e+00 7.1042950623783341e+00 3.3192221295942133e+01 0 0 0
897 2 2.4610000000000003e+00 7.1042950623783341e+00 3.3192221295942133e+01 0 0 0
610 2 4.9220000000000006e+00 5.6834360499026637e+00 3.0030999999999260e+01 0 0 0
612 2 4.9220000000000006e+00 4.2625770374269978e+00 3.0030999999999260e+01 0 0 0
645 2 6.1524999999999999e+00 6.3938655561404980e+00 3.0030999999999260e+01 0 0 0
647 2 7.3829999999999991e+00 5.6834360499026637e+00 3.0030999999999260e+01 0 0 0
649 2 7.3829999999999991e+00 4.2625770374269996e+00 3.0030999999999260e+01 0 0 0
643 2 6.1524999999999999e+00 7.8147245686161639e+00 3.0030999999999260e+01 0 0 0
913 2 4.9220000000000006e+00 4.2625770374269978e+00 3.3192221295942133e+01 0 0 0
914 2 6.1524999999999999e+00 4.9730065436648339e+00 3.3192221295942133e+01 0 0 0
930 2 6.1524999999999999e+00 6.3938655561404980e+00 3.3192221295942133e+01 0 0 0
932 2 7.3829999999999991e+00 4.2625770374269996e+00 3.3192221295942133e+01 0 0 0
912 2 4.9220000000000006e+00 7.1042950623783341e+00 3.3192221295942133e+01 0 0 0
931 2 7.3830000000000009e+00 7.1042950623783341e+00 3.3192221295942133e+01 0 0 0
690 2 8.6135000000000002e+00 6.3938655561404980e+00 3.0030999999999260e+01 0 0 0
692 2 9.8440000000000012e+00 5.6834360499026637e+00 3.0030999999999260e+01 0 0 0
694 2 9.8440000000000012e+00 4.2625770374270004e+00 3.0030999999999260e+01 0 0 0
737 2 1.1074500000000002e+01 6.3938655561404980e+00 3.0030999999999260e+01 0 0 0
688 2 8.6135000000000002e+00 7.8147245686161639e+00 3.0030999999999260e+01 0 0 0
735 2 1.1074500000000002e+01 7.8147245686161639e+00 3.0030999999999260e+01 0 0 0
933 2 8.6135000000000002e+00 4.9730065436648339e+00 3.3192221295942133e+01 0 0 0
953 2 8.6135000000000002e+00 6.3938655561404980e+00 3.3192221295942133e+01 0 0 0
955 2 9.8440000000000012e+00 4.2625770374270004e+00 3.3192221295942133e+01 0 0 0
956 2 1.1074500000000002e+01 4.9730065436648339e+00 3.3192221295942133e+01 0 0 0
977 2 1.1074500000000002e+01 6.3938655561404980e+00 3.3192221295942133e+01 0 0 0
954 2 9.8440000000000012e+00 7.1042950623783341e+00 3.3192221295942133e+01 0 0 0
573 2 0.0000000000000000e+00 9.9460130873296642e+00 3.0030999999999260e+01 0 0 0
575 2 0.0000000000000000e+00 8.5251540748539991e+00 3.0030999999999260e+01 0 0 0
602 2 2.4610000000000003e+00 9.9460130873296642e+00 3.0030999999999260e+01 0 0 0
604 2 2.4610000000000003e+00 8.5251540748539991e+00 3.0030999999999260e+01 0 0 0
598 2 1.2305000000000001e+00 1.2077301606043163e+01 3.0030999999999260e+01 0 0 0
600 2 1.2305000000000001e+00 1.0656442593567498e+01 3.0030999999999260e+01 0 0 0
635 2 3.6914999999999996e+00 1.2077301606043163e+01 3.0030999999999260e+01 0 0 0
637 2 3.6914999999999996e+00 1.0656442593567499e+01 3.0030999999999260e+01 0 0 0
894 2 0.0000000000000000e+00 8.5251540748539991e+00 3.3192221295942133e+01 0 0 0
895 2 1.2305000000000001e+00 9.2355835810918343e+00 3.3192221295942133e+01 0 0 0
909 2 2.4610000000000003e+00 8.5251540748539991e+00 3.3192221295942133e+01 0 0 0
910 2 3.6915000000000004e+00 9.2355835810918343e+00 3.3192221295942133e+01 0 0 0
893 2 0.0000000000000000e+00 1.1366872099805333e+01 3.3192221295942133e+01 0 0 0
907 2 1.2305000000000001e+00 1.0656442593567498e+01 3.3192221295942133e+01 0 0 0
908 2 2.4610000000000003e+00 1.1366872099805333e+01 3.3192221295942133e+01 0 0 0
926 2 3.6914999999999996e+00 1.0656442593567499e+01 3.3192221295942133e+01 0 0 0
639 2 4.9220000000000006e+00 9.9460130873296642e+00 3.0030999999999260e+01 0 0 0
641 2 4.9220000000000006e+00 8.5251540748539991e+00 3.0030999999999260e+01 0 0 0
684 2 7.3830000000000009e+00 9.9460130873296642e+00 3.0030999999999260e+01 0 0 0
686 2 7.3830000000000009e+00 8.5251540748539991e+00 3.0030999999999260e+01 0 0 0
680 2 6.1524999999999999e+00 1.2077301606043163e+01 3.0030999999999260e+01 0 0 0
682 2 6.1524999999999999e+00 1.0656442593567499e+01 3.0030999999999260e+01 0 0 0
928 2 4.9220000000000006e+00 8.5251540748539991e+00 3.3192221295942133e+01 0 0 0
929 2 6.1524999999999999e+00 9.2355835810918343e+00 3.3192221295942133e+01 0 0 0
951 2 7.3830000000000009e+00 8.5251540748539991e+00 3.3192221295942133e+01 0 0 0
927 2 4.9220000000000006e+00 1.1366872099805333e+01 3.3192221295942133e+01 0 0 0
949 2 6.1524999999999999e+00 1.0656442593567499e+01 3.3192221295942133e+01 0 0 0
950 2 7.3829999999999991e+00 1.1366872099805333e+01 3.3192221295942133e+01 0 0 0
731 2 9.8440000000000012e+00 9.9460130873296642e+00 3.0030999999999260e+01 0 0 0
733 2 9.8440000000000012e+00 8.5251540748539956e+00 3.0030999999999260e+01 0 0 0
727 2 8.6135000000000002e+00 1.2077301606043163e+01 3.0030999999999260e+01 0 0 0
729 2 8.6134999999999984e+00 1.0656442593567498e+01 3.0030999999999260e+01 0 0 0
774 2 1.1074500000000002e+01 1.2077301606043163e+01 3.0030999999999260e+01 0 0 0
776 2 1.1074500000000002e+01 1.0656442593567498e+01 3.0030999999999260e+01 0 0 0
952 2 8.6134999999999984e+00 9.2355835810918343e+00 3.3192221295942133e+01 0 0 0
975 2 9.8440000000000012e+00 8.5251540748539956e+00 3.3192221295942133e+01 0 0 0
976 2 1.1074500000000002e+01 9.2355835810918343e+00 3.3192221295942133e+01 0 0 0
973 2 8.6134999999999984e+00 1.0656442593567498e+01 3.3192221295942133e+01 0 0 0
974 2 9.8440000000000012e+00 1.1366872099805333e+01 3.3192221295942133e+01 0 0 0
997 2 1.1074500000000002e+01 1.0656442593567498e+01 3.3192221295942133e+01 0 0 0
998 2 1.2304999999999998e+01 1.1366872099805333e+01 3.3192221295942133e+01 0 0 0
2154 1 2.7081733902331173e+00 4.0543100446510483e+00 3.5690093046395006e+01 2 1 0
6069 1 9.4541106356086164e+00 1.0908322971435764e+01 3.5816419530730897e+01 0 1 -1
5178 1 5.3663398741057282e+00 2.4570905795288800e+00 3.5941900326861209e+01 1 0 -1
3510 1 8.2090644056224509e+00 3.3781500441505163e+00 3.5763762654403422e+01 1 1 -1
3137 1 9.3870327577422561e+00 7.7442094660928307e-01 3.6061782456992042e+01 0 1 0
2850 1 1.2208491293319585e+00 8.3259542377264069e+00 3.6163484663150193e+01 0 0 0
2972 1 3.4006461354234947e+00 6.8071040268539216e+00 3.5364332145532678e+01 0 -1 0
6296 1 1.0409173358249250e+01 5.8902227819246802e+00 3.6469405731809715e+01 -1 0 0
60 1 5.6987609424401500e+00 8.0368192002663594e+00 3.6340370885581905e+01 1 0 -1
4769 1 2.3307312025348432e+00 1.1108273558849367e+01 3.5940474947291570e+01 0 0 0
4728 1 2.6373013663381522e+00 7.0768483923301584e-01 3.5446208386121477e+01 1 1 -1
1840 1 4.8179932845788764e+00 1.0577945148969986e+01 3.6629993956756053e+01 1 1 0
536 1 1.3936452183503767e-01 3.1916942100771299e+00 3.6467861064422223e+01 0 1 0
4495 1 8.5265138246409879e+00 8.4250252271745367e+00 3.5837643004191719e+01 0 0 -1
4803 1 1.2042139709781713e+01 1.4790432200161702e-01 3.6106353698619436e+01 0 1 -1
2993 1 3.9389412593515152e+00 2.1775561466393132e+00 4.1208008420966820e+01 0 0 -1
4548 1 1.2277480328672709e+01 4.5967497438664767e-01 4.1866595213908482e+01 0 0 0
1373 1 1.2968959569264879e-01 7.4928418962243271e+00 3.8880098152198826e+01 0 1 0
3083 1 9.7326298375860247e+00 3.7297207567354573e+00 3.8515857383695163e+01 -1 0 0
2029 1 1.0166987795022626e+01 1.9424668532491769e+00 4.2912812904830304e+01 0 1 0
1406 1 2.9862455060911786e+00 4.4492455918507421e+00 3.8650422324632970e+01 0 -1 0
2842 1 7.4761651157057081e+00 4.3369201709304681e+00 3.9938744242041622e+01 -1 1 0
3457 1 4.4581227925826576e+00 6.8003255510043656e+00 3.8667068874843693e+01 0 0 -1
6262 1 5.4660257812386233e+00 2.4387700952516758e+00 3.8908866661641312e+01 1 1 -1
3696 1 6.6416687359825586e+00 6.9835307043447008e+00 4.0063877464653501e+01 0 0 0
3689 1 4.3255105201724930e+00 1.0519250247304079e+01 3.9051525926641034e+01 1 1 0
515 1 2.6383932496374070e+00 8.3774698822009324e+00 4.0062483915257530e+01 0 0 0
6271 1 9.3359813750171661e+00 1.0737116114763555e+01 3.8654431598083249e+01 1 0 -1
4655 1 5.1765403136655284e+00 1.0755215749279383e+01 4.1877580155328175e+01 0 0 0
210 1 9.0837515963144888e+00 7.6582760768410267e+00 3.8817729375653990e+01 0 -1 -1
2026 1 6.6998461815728385e+00 2.5253957117577301e+00 4.2091698812840669e+01 0 1 0
5185 1 1.0524777588800564e+01 4.0911179466251539e+00 4.1277846891710325e+01 1 1 -1
1452 1 1.1224803209176267e+01 6.3306444652124112e+00 4.2620664884004675e+01 0 0 0
3095 1 2.1998591184693570e+00 4.3874033524094393e+00 4.1819436924117632e+01 1 1 0
514 1 5.1130042469547284e-02 4.8704991739277004e+00 3.8881342127885915e+01 0 0 0
76 1 9.6980049365619116e+00 7.1294132485341610e-01 3.8868491665024081e+01 0 0 -1
3051 1 7.5851200228748654e+00 9.1612732944012176e+00 4.2505836276473467e+01 1 1 0
2032 1 2.8677728078798519e+00 7.1598052344459662e+00 4.2433979113513715e+01 1 0 -1
2089 1 1.0955788137386268e+01 8.0922541146028184e+00 4.0611231609512771e+01 0 0 0
6226 1 5.4575740121131684e+00 7.0412629099348099e+00 4.3034280935406009e+01 1 1 -1
2971 1 1.0630308240055715e+01 9.7046901120271691e+00 4.2798132792226362e+01 0 0 0
3317 1 1.6997030997751064e+00 1.1923615268192615e+01 3.8777019816990141e+01 1 0 -1
56 1 7.0981599315992279e+00 1.2185497810669771e+01 3.8734281587789795e+01 0 1 0
1693 1 3.5541333728307429e+00 3.8108159795427810e-02 4.3331132308791247e+01 0 -1 -1
6188 1 1.6351800823396594e+00 1.2363501495169791e+00 4.4953001267403621e+01 1 0 0
1687 1 2.6172840224733172e+00 4.1864837813281852e+00 4.4700623889815837e+01 0 0 0
1389 1 1.1720690608777364e+00 8.6918178718607297e+00 4.4406489507272376e+01 -1 0 0
2974 1 5.3960916165313630e+00 1.6914472689207061e+00 4.8484134704366824e+01 1 0 0
1544 1 5.0483619290767932e+00 4.6928770695023241e+00 4.6010943541788421e+01 0 1 0
1812 1 7.2114629846872971e+00 6.8846896607357948e+00 4.8598993390471982e+01 0 1 -1
1664 1 1.1361516318460517e+01 6.5916095310677454e+00 4.7846402176480808e+01 -1 1 -1
6156 1 9.2229989166750279e+00 3.1319606048310544e+00 4.5299847669701400e+01 0 0 0
4895 1 9.2240868455603930e-01 5.9562930187648400e+00 4.6103663197135162e+01 1 1 -1
3210 1 1.8627435288523742e+00 8.4700654881412802e+00 4.7755794193333600e+01 -1 0 -1
1599 1 5.9680571095824515e+00 1.0708603729384953e+01 4.9377863972622187e+01 0 0 0
540 1 4.5349056784632147e+00 7.4940682937207193e+00 4.7114038060384836e+01 1 1 0
4494 1 9.5506060445688963e+00 5.2123212185916472e+00 4.9550701267284580e+01 1 0 -1
6073 1 8.7840116959791708e+00 7.1405415386140305e+00 4.4317729755586413e+01 0 0 -1
3111 1 1.1804863809017550e+00 9.2927721402726213e+00 5.0485277333308602e+01 0 0 0
2018 1 7.5419823285944831e+00 1.0566251725508383e+01 4.6693773903929355e+01 1 0 -1
4565 1 3.6452700892004342e+00 1.0983527694099246e+01 4.7763159986564872e+01 1 0 0
1394 1 9.1432676286761385e+00 8.2995256777484929e+00 4.6972859545557661e+01 1 0 0
1876 1 1.1503152680636330e+01 9.2924272099989604e+00 4.5750045088090395e+01 0 1 -1
4978 1 8.1818807915661509e+00 1.5339823576654401e+00 4.7352527908664790e+01 1 1 -1
4725 1 7.0055314051324427e+00 4.5993762749872289e+00 4.3929722510925693e+01 0 1 0
2968 1 9.7470746947305962e+00 2.3278560628691833e+00 4.9469067482366007e+01 1 0 0
6200 1 3.1115183442187164e+00 3.6117792047776220e-01 4.7280876320869105e+01 1 0 -1
6316 1 5.3453701895859798e+00 4.1434177073487124e+00 4.9890200321987493e+01 1 0 -1
4809 1 1.2143644609180141e+01 1.0454109746655564e+00 4.8805851397466739e+01 1 1 -1
4679 1 1.1351767218889576e+01 7.9047535412038494e-01 4.6138375499417570e+01 1 1 0
4662 1 1.9651743515429324e-01 5.1371391192339297e+00 4.8531732871947938e+01 0 1 0
5111 1 3.2169464963260044e+00 1.0445406236819831e+01 4.4005776652761483e+01 0 1 -1
5995 1 5.3024048713522864e+00 9.1145142908041716e+00 4.5153871196165923e+01 1 0 0