LAMMPS data file via write_data, version 16 Mar 2018, timestep = 6000000

6337 atoms
2 atom types

0.0000000000000000e+00 4.9219999999999999e+01 xlo xhi
0.0000000000000000e+00 4.9019635930410494e+01 ylo yhi
1.2172770249279559e+00 5.8844722975068322e+01 zlo zhi

Masses

1 18.015
2 12.01

Atoms # atomic

5250 1 2.7445098294734454e+00 1.4979181606448138e+00 3.8480934183817288e+00 2 0 1
1626 1 6.5055095433910175e+00 1.3931907127496086e+00 3.3014304894945514e+00 2 -2 0
3311 1 1.1389463141781322e+01 3.8551832114027151e-01 3.8615011522957521e+00 1 2 0
6118 1 1.1583061308455990e+01 2.8873457128366593e+00 2.7942994116972959e+00 1 -1 0
4984 1 2.5885251285618800e+00 4.1497963890609819e+00 2.8588992550570538e+00 -3 3 0
1324 1 7.3860067403045987e-02 8.4591753421367066e+00 2.7158163556006292e+00 2 -1 1
3603 1 7.2315778058767952e+00 3.9907275663959298e+00 2.8161196266430264e+00 1 1 1
3027 1 5.0875857791519508e+00 5.8713677702288303e+00 3.6590649299269056e+00 3 1 1
395 1 9.7664208235462056e+00 4.8399721679815872e+00 3.9477622761209963e+00 2 -2 0
6059 1 9.6933351388427660e+00 7.5979769131863915e+00 2.8736353666150061e+00 -3 -1 0
486 1 1.1951627904917343e+01 8.4490144489683523e+00 3.9397167026970319e+00 4 0 1
4905 1 2.4156388671801547e+00 9.8663165146045557e+00 3.5855894683499812e+00 0 2 1
189 1 4.7028233516210225e+00 8.6558750305660261e+00 2.7059666774958835e+00 0 0 0
3419 1 7.4862415429240698e+00 9.0779285920693624e+00 3.8629654569829737e+00 0 -4 0
4517 1 7.6329849300331905e+00 1.1708043557653586e+01 2.7775128470957471e+00 -1 2 1
2974 1 1.2048707649096906e+01 6.1944084304532376e+00 7.1955555902445223e+00 3 0 1
1971 1 2.1149118351777241e+00 1.6349105267956694e+00 6.6601446735286327e+00 1 4 0
1236 1 7.6895340346981564e+00 9.2436496459214030e+00 6.5221315901830774e+00 -2 -1 0
3115 1 4.5951204468956970e+00 2.9546567141831610e+00 7.2596337174892769e+00 1 -1 0
521 1 6.8269319865963389e+00 1.6813413224793514e+00 6.2714862473810893e+00 -3 3 1
1472 1 1.1185721844017820e+01 1.0494475011789317e+00 6.4605343107227808e+00 -2 1 0
368 1 8.9955831671749120e+00 2.7824816665507939e+00 7.5389334955108893e+00 -3 0 0
5047 1 9.9271434508991359e+00 1.0308542166260835e+01 7.2949168405004627e+00 -1 1 0
5328 1 2.6202982693978969e+00 6.8015028815564484e+00 6.9950293133168868e+00 2 0 0
5067 1 7.2105260185202669e+00 6.6875944337558044e+00 7.4844121295543511e+00 -1 1 1
2998 1 4.9699068042331804e+00 5.4689759496635295e+00 6.5149753143828990e+00 1 1 1
4552 1 9.5014620112303660e+00 5.2265781231648800e+00 6.6486362862955026e+00 1 1 1
5144 1 5.4479481610082452e+00 1.0588143756326609e+01 7.1773171010348946e+00 0 0 1
3080 1 7.6388119153239475e-01 1.1165196383659200e+01 7.1307586138069166e+00 1 0 0
3335 1 2.8867372331205967e+00 9.6025639122132116e+00 6.3056941930300301e+00 -1 1 0
1 1 1.2093924240083798e+01 8.8238941393743016e+00 6.8007562190027055e+00 -1 2 0
3286 1 1.2249993750822151e+01 1.0871192407173687e+01 3.0358989254304976e+00 -1 0 1
1798 1 1.2175139358500157e-01 5.7645763623039334e+00 3.6244844260750564e+00 2 -2 0
3383 1 2.0340267569832653e+00 2.1226792793459204e+00 1.0927578558931520e+01 0 2 0
4809 1 4.4178910280342469e+00 2.9117316966546856e+00 9.8945692000153276e+00 3 3 0
1856 1 6.5776984910106266e+00 1.5939496391643762e+00 1.0969062695136698e+01 2 2 0
4732 1 8.8814622350126218e+00 2.8136223126450397e+00 1.0242418617751394e+01 -1 2 0
4512 1 1.1316363163407457e+01 1.6965190687724288e+00 1.1130580950049019e+01 2 2 1
1899 1 2.5794057497156935e+00 7.1265894759280553e+00 9.7502465254198576e+00 3 2 1
1376 1 4.4212933380193391e+00 8.2536318566849687e+00 1.4716232365221908e+01 1 4 1
2940 1 4.6410128636023442e+00 5.5681271569852795e+00 1.0793562437608143e+01 2 1 1
6275 1 7.0343170334626990e+00 6.5183581082194957e+00 1.0285376887803441e+01 1 1 1
5042 1 9.5524838323579395e+00 5.3095469981010117e+00 1.1251399153431741e+01 2 0 0
5062 1 1.1728271957847136e+01 9.1131463065639888e+00 1.3532281129611603e+01 -1 2 0
4748 1 2.6645452403779921e+00 9.6799989162278077e+00 1.0593275200659692e+01 -2 0 1
3420 1 6.5031041782376264e-01 1.1287563704488832e+01 9.7675488001949180e+00 -2 0 0
1496 1 7.1245080456381595e+00 9.1805711216705799e+00 1.0995299287270685e+01 1 -2 1
5071 1 5.1073930547408928e+00 1.0733450677498192e+01 9.9052431895675230e+00 -1 1 0
4632 1 9.4503903474637578e+00 1.0425784826169906e+01 1.0036037849482321e+01 0 2 0
237 1 9.3246931517958132e+00 8.1709994412555211e+00 1.4524732622879737e+01 -1 3 0
1610 1 1.8393030616092358e+00 2.2928552822593344e+00 1.3694942400227179e+01 -1 1 1
3679 1 4.1190170353736004e+00 1.0822036817427638e+00 1.4886291090024789e+01 -1 2 1
1707 1 6.5073071152569764e+00 1.7280248943400016e+00 1.3758694994089970e+01 -2 2 1
1279 1 8.8337807134229482e+00 7.0855714346645460e-01 1.4640774899445594e+01 0 2 1
2924 1 1.1212952107560342e+01 1.8406729804119875e+00 1.3987398835948431e+01 -3 3 1
2072 1 2.1316437000813391e+00 4.9093391692057002e+00 1.4671010535721264e+01 -1 2 0
5324 1 6.9002671678793348e+00 9.4524167227666691e+00 1.3792782565131546e+01 3 0 1
78 1 6.7626098376997863e+00 4.2377597137120890e+00 1.4723222926073147e+01 1 -1 1
5196 1 4.7541958717381201e+00 5.7613947196667192e+00 1.3732459503348275e+01 3 -3 0
1972 1 1.1570427019408326e+01 4.4224638059306729e+00 1.4726737066650632e+01 0 2 1
4946 1 9.1504344563196529e+00 5.5131607064598951e+00 1.4057962701459330e+01 -1 1 0
5160 1 2.7826090657473759e+00 9.6915889910151911e+00 1.3423815152919042e+01 0 3 1
1366 1 1.1701850354478282e+01 6.5560707188274252e+00 9.7933163113571204e+00 0 2 1
2893 1 3.1084001985542536e-01 9.3498663886445641e+00 1.4448470689203662e+01 0 -2 1
3493 1 7.3277400798618268e+00 1.2170085858978481e+01 1.4087075960513607e+01 -1 0 0
1504 1 1.1636453406806638e+01 9.0217334842315129e+00 1.1000573539434910e+01 3 -1 1
1714 1 1.1961215760509990e+01 1.1799178709701001e+01 1.4178465079366115e+01 0 2 0
3652 1 5.2351290366321399e-02 6.5553225270534021e+00 1.3614315578743359e+01 -2 2 1
4724 1 2.2535173140091697e-01 6.0101289081576743e+00 1.0813837254789338e+01 -1 -2 1
3134 1 4.8901558429896741e-01 1.1590223319817639e+01 2.0933594417940043e+01 2 0 1
6192 1 4.3000378624618723e+00 3.4574964205669509e+00 1.8150906516389917e+01 1 2 0
4830 1 9.2635681931628842e+00 3.2185019470059775e+00 1.8180025099663290e+01 -1 3 0
1259 1 1.1717129963895072e+01 7.0114839320658611e+00 1.8166098967485564e+01 -1 1 1
1399 1 1.7891162189207819e+00 4.5619409778118145e+00 1.7589418951598272e+01 1 -1 1
4895 1 2.2727206757256573e+00 7.1616666199670211e+00 1.8034669144609893e+01 -1 2 0
5143 1 6.8151207864046830e+00 4.4219959017464676e+00 1.7542264389936644e+01 2 0 0
1325 1 7.2408382518332317e+00 7.1705112114903926e+00 1.8260026004939377e+01 1 0 0
2970 1 1.1748570515506806e+01 4.4968402556690030e+00 1.7346770787248108e+01 1 3 1
5269 1 1.2063423199476425e+01 1.2209323146432210e+01 2.0852215698793902e+01 3 -2 1
1546 1 4.9349280318137445e-01 1.1509387101275864e+01 1.7966164887557103e+01 -1 2 1
1473 1 3.9707968715045299e+00 5.8620095943860617e-01 1.7581232888817876e+01 0 0 1
3042 1 4.7059517627139948e+00 8.2980778013090930e+00 1.7506713360894761e+01 -2 -1 1
3634 1 4.9336377693525417e+00 1.1035629391812803e+01 1.7940404725009206e+01 3 1 1
1351 1 9.5470408641456679e+00 8.3123080618341216e+00 1.7282241191097832e+01 2 -3 1
3229 1 9.5889415728174026e+00 1.1067746521651669e+01 1.7467544421357736e+01 1 0 0
86 1 9.2627268765735398e+00 8.3662761616494894e+00 2.1251892181797075e+01 2 -1 0
4497 1 9.5230700845687650e+00 1.1061084342857631e+01 2.0072070759789479e+01 2 0 1
5205 1 4.6057236032196291e+00 2.9417800382085666e+00 2.0989958367782005e+01 0 -1 0
289 1 5.2673930302470087e+00 1.1147496449717783e+01 2.0590094392867851e+01 4 1 0
5077 1 9.5286029171198887e+00 2.5775757537711290e+00 2.0991247513774741e+01 1 4 0
4702 1 1.1841396634128165e+01 3.7232173784182576e+00 2.1315278997629150e+01 0 0 1
1505 1 2.1447614946420366e+00 4.3772371562496630e+00 2.1387531700807699e+01 -2 2 0
2870 1 2.3033221878340924e+00 7.2053699882040068e+00 2.0861887082219219e+01 -3 2 1
181 1 7.1504487222511459e+00 4.1357309915806573e+00 2.1099028864607021e+01 0 2 0
2886 1 6.7338474679725051e+00 6.8161582898457933e+00 2.0846285889031769e+01 -1 0 0
3641 1 1.2006835783610784e+01 6.7930815605093331e+00 2.0953632607085488e+01 0 3 1
5150 1 1.3520860364667536e-01 8.5518283169642775e+00 1.7073848901692863e+01 1 4 0
3054 1 4.7085684312697085e+00 8.5116308667735829e+00 2.1380741698816440e+01 3 -4 1
3062 1 9.1245217326774029e+00 6.0474165033527594e-01 1.7209530146998588e+01 0 -1 1
3098 1 1.1972239703496063e+01 1.2021514168754225e+01 1.6786671047951032e+01 1 0 0
5285 1 3.8419651963582174e-01 8.9831126396397174e+00 2.1644470636371029e+01 -4 -1 0
4586 1 4.0607681446139550e+00 5.8130633697342587e-02 2.1015479360371796e+01 1 -1 0
3344 1 4.8597503151763703e+00 2.7652375098064468e+00 2.3967249747622930e+01 -1 -2 0
4774 1 7.2945105317242609e+00 4.1051933602289177e+00 2.4027384373052460e+01 -1 -2 0
6012 1 9.4673738012350288e+00 2.4248811523427589e+00 2.3953592051563305e+01 0 -3 1
4617 1 1.1579997433191814e+01 3.8084808766242286e+00 2.4001680619495524e+01 0 -1 1
3592 1 2.5516419011881584e+00 4.6111055190347292e+00 2.4245231077659046e+01 2 2 0
77 1 2.0297212314341961e+00 7.3758860157300354e+00 2.4107748588254161e+01 0 -1 1
5988 1 7.0974032466458929e+00 6.7127590482481070e+00 2.3826512212094354e+01 0 -1 1
687 2 8.6134999999999984e+00 9.2355835810918343e+00 2.6712413389222387e+01 0 0 0
4722 1 9.6557954685297140e+00 8.2091396848309408e+00 2.3921317325475329e+01 1 -2 0
4747 1 7.6760428457585972e-01 1.1936492143534849e+01 2.4501617752203114e+01 0 0 0
1309 1 1.1744673571711473e+01 6.3131846213933844e+00 2.4006058852312755e+01 1 4 1
199 1 4.5363527093065930e+00 8.3337993819974159e+00 2.4075863033637965e+01 -4 0 0
3462 1 5.0741884429533393e+00 1.1059795291503084e+01 2.4342338185276706e+01 0 3 1
4932 1 9.6619332622927772e+00 1.0955188257137072e+01 2.4241170496439636e+01 0 2 0
554 2 0.0000000000000000e+00 2.8417180249513345e+00 2.6712413389222387e+01 0 0 0
556 2 0.0000000000000000e+00 0.0000000000000000e+00 2.6712413389222387e+01 0 0 0
558 2 1.2305000000000001e+00 7.1042950623783474e-01 2.6712413389222387e+01 0 0 0
565 2 1.2305000000000001e+00 2.1312885187134998e+00 2.6712413389222387e+01 0 0 0
567 2 2.4610000000000003e+00 2.8417180249513345e+00 2.6712413389222387e+01 0 0 0
569 2 2.4610000000000003e+00 0.0000000000000000e+00 2.6712413389222387e+01 0 0 0
571 2 3.6915000000000004e+00 7.1042950623783474e-01 2.6712413389222387e+01 0 0 0
586 2 3.6914999999999996e+00 2.1312885187134998e+00 2.6712413389222387e+01 0 0 0
588 2 4.9220000000000006e+00 2.8417180249513332e+00 2.6712413389222387e+01 0 0 0
590 2 4.9220000000000006e+00 0.0000000000000000e+00 2.6712413389222387e+01 0 0 0
592 2 6.1524999999999999e+00 7.1042950623783407e-01 2.6712413389222387e+01 0 0 0
615 2 6.1524999999999999e+00 2.1312885187134989e+00 2.6712413389222387e+01 0 0 0
617 2 7.3829999999999991e+00 2.8417180249513345e+00 2.6712413389222387e+01 0 0 0
619 2 7.3829999999999991e+00 0.0000000000000000e+00 2.6712413389222387e+01 0 0 0
621 2 8.6134999999999984e+00 7.1042950623783407e-01 2.6712413389222387e+01 0 0 0
652 2 8.6134999999999984e+00 2.1312885187135002e+00 2.6712413389222387e+01 0 0 0
654 2 9.8440000000000012e+00 2.8417180249513332e+00 2.6712413389222387e+01 0 0 0
656 2 9.8440000000000012e+00 0.0000000000000000e+00 2.6712413389222387e+01 0 0 0
658 2 1.1074500000000002e+01 7.1042950623783330e-01 2.6712413389222387e+01 0 0 0
697 2 1.1074500000000002e+01 2.1312885187135002e+00 2.6712413389222387e+01 0 0 0
561 2 0.0000000000000000e+00 4.2625770374269996e+00 2.6712413389222387e+01 0 0 0
563 2 1.2305000000000001e+00 4.9730065436648339e+00 2.6712413389222387e+01 0 0 0
578 2 1.2305000000000001e+00 6.3938655561404980e+00 2.6712413389222387e+01 0 0 0
582 2 2.4610000000000003e+00 4.2625770374269996e+00 2.6712413389222387e+01 0 0 0
584 2 3.6914999999999996e+00 4.9730065436648339e+00 2.6712413389222387e+01 0 0 0
607 2 3.6914999999999996e+00 6.3938655561404980e+00 2.6712413389222387e+01 0 0 0
559 2 0.0000000000000000e+00 7.1042950623783341e+00 2.6712413389222387e+01 0 0 0
580 2 2.4610000000000003e+00 7.1042950623783341e+00 2.6712413389222387e+01 0 0 0
611 2 4.9220000000000006e+00 4.2625770374269978e+00 2.6712413389222387e+01 0 0 0
613 2 6.1524999999999999e+00 4.9730065436648339e+00 2.6712413389222387e+01 0 0 0
644 2 6.1524999999999999e+00 6.3938655561404980e+00 2.6712413389222387e+01 0 0 0
648 2 7.3829999999999991e+00 4.2625770374269996e+00 2.6712413389222387e+01 0 0 0
609 2 4.9220000000000006e+00 7.1042950623783341e+00 2.6712413389222387e+01 0 0 0
646 2 7.3830000000000009e+00 7.1042950623783341e+00 2.6712413389222387e+01 0 0 0
650 2 8.6135000000000002e+00 4.9730065436648339e+00 2.6712413389222387e+01 0 0 0
689 2 8.6135000000000002e+00 6.3938655561404980e+00 2.6712413389222387e+01 0 0 0
693 2 9.8440000000000012e+00 4.2625770374270004e+00 2.6712413389222387e+01 0 0 0
695 2 1.1074500000000002e+01 4.9730065436648339e+00 2.6712413389222387e+01 0 0 0
736 2 1.1074500000000002e+01 6.3938655561404980e+00 2.6712413389222387e+01 0 0 0
691 2 9.8440000000000012e+00 7.1042950623783341e+00 2.6712413389222387e+01 0 0 0
574 2 0.0000000000000000e+00 8.5251540748539991e+00 2.6712413389222387e+01 0 0 0
576 2 1.2305000000000001e+00 9.2355835810918343e+00 2.6712413389222387e+01 0 0 0
603 2 2.4610000000000003e+00 8.5251540748539991e+00 2.6712413389222387e+01 0 0 0
605 2 3.6915000000000004e+00 9.2355835810918343e+00 2.6712413389222387e+01 0 0 0
572 2 0.0000000000000000e+00 1.1366872099805333e+01 2.6712413389222387e+01 0 0 0
599 2 1.2305000000000001e+00 1.0656442593567498e+01 2.6712413389222387e+01 0 0 0
601 2 2.4610000000000003e+00 1.1366872099805333e+01 2.6712413389222387e+01 0 0 0
636 2 3.6914999999999996e+00 1.0656442593567499e+01 2.6712413389222387e+01 0 0 0
681 2 6.1524999999999999e+00 1.0656442593567499e+01 2.6712413389222387e+01 0 0 0
638 2 4.9220000000000006e+00 1.1366872099805333e+01 2.6712413389222387e+01 0 0 0
640 2 4.9220000000000006e+00 8.5251540748539991e+00 2.6712413389222387e+01 0 0 0
683 2 7.3829999999999991e+00 1.1366872099805333e+01 2.6712413389222387e+01 0 0 0
642 2 6.1524999999999999e+00 9.2355835810918343e+00 2.6712413389222387e+01 0 0 0
685 2 7.3830000000000009e+00 8.5251540748539991e+00 2.6712413389222387e+01 0 0 0
777 2 1.2304999999999998e+01 1.1366872099805333e+01 2.6712413389222387e+01 0 0 0
732 2 9.8440000000000012e+00 8.5251540748539956e+00 2.6712413389222387e+01 0 0 0
775 2 1.1074500000000002e+01 1.0656442593567498e+01 2.6712413389222387e+01 0 0 0
728 2 8.6134999999999984e+00 1.0656442593567498e+01 2.6712413389222387e+01 0 0 0
734 2 1.1074500000000002e+01 9.2355835810918343e+00 2.6712413389222387e+01 0 0 0
730 2 9.8440000000000012e+00 1.1366872099805333e+01 2.6712413389222387e+01 0 0 0
2826 1 1.2042135937413065e+01 1.2194579849411133e+01 2.3587173761702260e+01 0 1 1
555 2 0.0000000000000000e+00 1.4208590124756650e+00 3.0030999999998190e+01 0 0 0
557 2 0.0000000000000000e+00 0.0000000000000000e+00 3.0030999999998190e+01 0 0 0
566 2 1.2305000000000001e+00 2.1312885187134998e+00 3.0030999999998190e+01 0 0 0
568 2 2.4610000000000003e+00 1.4208590124756650e+00 3.0030999999998190e+01 0 0 0
570 2 2.4610000000000003e+00 0.0000000000000000e+00 3.0030999999998190e+01 0 0 0
587 2 3.6914999999999996e+00 2.1312885187134998e+00 3.0030999999998190e+01 0 0 0
564 2 1.2305000000000001e+00 3.5521475311891644e+00 3.0030999999998190e+01 0 0 0
585 2 3.6914999999999996e+00 3.5521475311891644e+00 3.0030999999998190e+01 0 0 0
883 2 0.0000000000000000e+00 2.8417180249513345e+00 3.3349586610738214e+01 0 0 0
884 2 0.0000000000000000e+00 0.0000000000000000e+00 3.3349586610738214e+01 0 0 0
885 2 1.2305000000000001e+00 7.1042950623783474e-01 3.3349586610738214e+01 0 0 0
889 2 1.2305000000000001e+00 2.1312885187134998e+00 3.3349586610738214e+01 0 0 0
890 2 2.4610000000000003e+00 2.8417180249513345e+00 3.3349586610738214e+01 0 0 0
891 2 2.4610000000000003e+00 0.0000000000000000e+00 3.3349586610738214e+01 0 0 0
892 2 3.6915000000000004e+00 7.1042950623783474e-01 3.3349586610738214e+01 0 0 0
900 2 3.6914999999999996e+00 2.1312885187134998e+00 3.3349586610738214e+01 0 0 0
589 2 4.9220000000000006e+00 1.4208590124756650e+00 3.0030999999998190e+01 0 0 0
591 2 4.9220000000000006e+00 0.0000000000000000e+00 3.0030999999998190e+01 0 0 0
616 2 6.1524999999999999e+00 2.1312885187134989e+00 3.0030999999998190e+01 0 0 0
618 2 7.3829999999999991e+00 1.4208590124756659e+00 3.0030999999998190e+01 0 0 0
620 2 7.3829999999999991e+00 0.0000000000000000e+00 3.0030999999998190e+01 0 0 0
614 2 6.1524999999999999e+00 3.5521475311891644e+00 3.0030999999998190e+01 0 0 0
901 2 4.9220000000000006e+00 2.8417180249513332e+00 3.3349586610738214e+01 0 0 0
902 2 4.9220000000000006e+00 0.0000000000000000e+00 3.3349586610738214e+01 0 0 0
903 2 6.1524999999999999e+00 7.1042950623783407e-01 3.3349586610738214e+01 0 0 0
915 2 6.1524999999999999e+00 2.1312885187134989e+00 3.3349586610738214e+01 0 0 0
916 2 7.3829999999999991e+00 2.8417180249513345e+00 3.3349586610738214e+01 0 0 0
917 2 7.3829999999999991e+00 0.0000000000000000e+00 3.3349586610738214e+01 0 0 0
653 2 8.6134999999999984e+00 2.1312885187135002e+00 3.0030999999998190e+01 0 0 0
655 2 9.8440000000000012e+00 1.4208590124756659e+00 3.0030999999998190e+01 0 0 0
657 2 9.8440000000000012e+00 0.0000000000000000e+00 3.0030999999998190e+01 0 0 0
698 2 1.1074500000000002e+01 2.1312885187135002e+00 3.0030999999998190e+01 0 0 0
651 2 8.6134999999999984e+00 3.5521475311891657e+00 3.0030999999998190e+01 0 0 0
696 2 1.1074500000000002e+01 3.5521475311891644e+00 3.0030999999998190e+01 0 0 0
918 2 8.6134999999999984e+00 7.1042950623783407e-01 3.3349586610738214e+01 0 0 0
934 2 8.6134999999999984e+00 2.1312885187135002e+00 3.3349586610738214e+01 0 0 0
935 2 9.8440000000000012e+00 2.8417180249513332e+00 3.3349586610738214e+01 0 0 0
936 2 9.8440000000000012e+00 0.0000000000000000e+00 3.3349586610738214e+01 0 0 0
937 2 1.1074500000000002e+01 7.1042950623783330e-01 3.3349586610738214e+01 0 0 0
957 2 1.1074500000000002e+01 2.1312885187135002e+00 3.3349586610738214e+01 0 0 0
560 2 0.0000000000000000e+00 5.6834360499026637e+00 3.0030999999998190e+01 0 0 0
562 2 0.0000000000000000e+00 4.2625770374269996e+00 3.0030999999998190e+01 0 0 0
579 2 1.2305000000000001e+00 6.3938655561404980e+00 3.0030999999998190e+01 0 0 0
581 2 2.4610000000000003e+00 5.6834360499026637e+00 3.0030999999998190e+01 0 0 0
583 2 2.4610000000000003e+00 4.2625770374269996e+00 3.0030999999998190e+01 0 0 0
608 2 3.6914999999999996e+00 6.3938655561404980e+00 3.0030999999998190e+01 0 0 0
577 2 1.2305000000000001e+00 7.8147245686161639e+00 3.0030999999998190e+01 0 0 0
606 2 3.6914999999999996e+00 7.8147245686161639e+00 3.0030999999998190e+01 0 0 0
887 2 0.0000000000000000e+00 4.2625770374269996e+00 3.3349586610738214e+01 0 0 0
888 2 1.2305000000000001e+00 4.9730065436648339e+00 3.3349586610738214e+01 0 0 0
896 2 1.2305000000000001e+00 6.3938655561404980e+00 3.3349586610738214e+01 0 0 0
898 2 2.4610000000000003e+00 4.2625770374269996e+00 3.3349586610738214e+01 0 0 0
899 2 3.6914999999999996e+00 4.9730065436648339e+00 3.3349586610738214e+01 0 0 0
911 2 3.6914999999999996e+00 6.3938655561404980e+00 3.3349586610738214e+01 0 0 0
886 2 0.0000000000000000e+00 7.1042950623783341e+00 3.3349586610738214e+01 0 0 0
897 2 2.4610000000000003e+00 7.1042950623783341e+00 3.3349586610738214e+01 0 0 0
610 2 4.9220000000000006e+00 5.6834360499026637e+00 3.0030999999998190e+01 0 0 0
612 2 4.9220000000000006e+00 4.2625770374269978e+00 3.0030999999998190e+01 0 0 0
645 2 6.1524999999999999e+00 6.3938655561404980e+00 3.0030999999998190e+01 0 0 0
647 2 7.3829999999999991e+00 5.6834360499026637e+00 3.0030999999998190e+01 0 0 0
649 2 7.3829999999999991e+00 4.2625770374269996e+00 3.0030999999998190e+01 0 0 0
643 2 6.1524999999999999e+00 7.8147245686161639e+00 3.0030999999998190e+01 0 0 0
913 2 4.9220000000000006e+00 4.2625770374269978e+00 3.3349586610738214e+01 0 0 0
914 2 6.1524999999999999e+00 4.9730065436648339e+00 3.3349586610738214e+01 0 0 0
930 2 6.1524999999999999e+00 6.3938655561404980e+00 3.3349586610738214e+01 0 0 0
932 2 7.3829999999999991e+00 4.2625770374269996e+00 3.3349586610738214e+01 0 0 0
912 2 4.9220000000000006e+00 7.1042950623783341e+00 3.3349586610738214e+01 0 0 0
931 2 7.3830000000000009e+00 7.1042950623783341e+00 3.3349586610738214e+01 0 0 0
690 2 8.6135000000000002e+00 6.3938655561404980e+00 3.0030999999998190e+01 0 0 0
692 2 9.8440000000000012e+00 5.6834360499026637e+00 3.0030999999998190e+01 0 0 0
694 2 9.8440000000000012e+00 4.2625770374270004e+00 3.0030999999998190e+01 0 0 0
737 2 1.1074500000000002e+01 6.3938655561404980e+00 3.0030999999998190e+01 0 0 0
688 2 8.6135000000000002e+00 7.8147245686161639e+00 3.0030999999998190e+01 0 0 0
735 2 1.1074500000000002e+01 7.8147245686161639e+00 3.0030999999998190e+01 0 0 0
933 2 8.6135000000000002e+00 4.9730065436648339e+00 3.3349586610738214e+01 0 0 0
953 2 8.6135000000000002e+00 6.3938655561404980e+00 3.3349586610738214e+01 0 0 0
955 2 9.8440000000000012e+00 4.2625770374270004e+00 3.3349586610738214e+01 0 0 0
956 2 1.1074500000000002e+01 4.9730065436648339e+00 3.3349586610738214e+01 0 0 0
977 2 1.1074500000000002e+01 6.3938655561404980e+00 3.3349586610738214e+01 0 0 0
954 2 9.8440000000000012e+00 7.1042950623783341e+00 3.3349586610738214e+01 0 0 0
573 2 0.0000000000000000e+00 9.9460130873296642e+00 3.0030999999998190e+01 0 0 0
575 2 0.0000000000000000e+00 8.5251540748539991e+00 3.0030999999998190e+01 0 0 0
602 2 2.4610000000000003e+00 9.9460130873296642e+00 3.0030999999998190e+01 0 0 0
604 2 2.4610000000000003e+00 8.5251540748539991e+00 3.0030999999998190e+01 0 0 0
598 2 1.2305000000000001e+00 1.2077301606043163e+01 3.0030999999998190e+01 0 0 0
600 2 1.2305000000000001e+00 1.0656442593567498e+01 3.0030999999998190e+01 0 0 0
635 2 3.6914999999999996e+00 1.2077301606043163e+01 3.0030999999998190e+01 0 0 0
637 2 3.6914999999999996e+00 1.0656442593567499e+01 3.0030999999998190e+01 0 0 0
894 2 0.0000000000000000e+00 8.5251540748539991e+00 3.3349586610738214e+01 0 0 0
895 2 1.2305000000000001e+00 9.2355835810918343e+00 3.3349586610738214e+01 0 0 0
909 2 2.4610000000000003e+00 8.5251540748539991e+00 3.3349586610738214e+01 0 0 0
910 2 3.6915000000000004e+00 9.2355835810918343e+00 3.3349586610738214e+01 0 0 0
893 2 0.0000000000000000e+00 1.1366872099805333e+01 3.3349586610738214e+01 0 0 0
907 2 1.2305000000000001e+00 1.0656442593567498e+01 3.3349586610738214e+01 0 0 0
908 2 2.4610000000000003e+00 1.1366872099805333e+01 3.3349586610738214e+01 0 0 0
926 2 3.6914999999999996e+00 1.0656442593567499e+01 3.3349586610738214e+01 0 0 0
639 2 4.9220000000000006e+00 9.9460130873296642e+00 3.0030999999998190e+01 0 0 0
641 2 4.9220000000000006e+00 8.5251540748539991e+00 3.0030999999998190e+01 0 0 0
684 2 7.3830000000000009e+00 9.9460130873296642e+00 3.0030999999998190e+01 0 0 0
686 2 7.3830000000000009e+00 8.5251540748539991e+00 3.0030999999998190e+01 0 0 0
680 2 6.1524999999999999e+00 1.2077301606043163e+01 3.0030999999998190e+01 0 0 0
682 2 6.1524999999999999e+00 1.0656442593567499e+01 3.0030999999998190e+01 0 0 0
928 2 4.9220000000000006e+00 8.5251540748539991e+00 3.3349586610738214e+01 0 0 0
929 2 6.1524999999999999e+00 9.2355835810918343e+00 3.3349586610738214e+01 0 0 0
951 2 7.3830000000000009e+00 8.5251540748539991e+00 3.3349586610738214e+01 0 0 0
927 2 4.9220000000000006e+00 1.1366872099805333e+01 3.3349586610738214e+01 0 0 0
949 2 6.1524999999999999e+00 1.0656442593567499e+01 3.3349586610738214e+01 0 0 0
950 2 7.3829999999999991e+00 1.1366872099805333e+01 3.3349586610738214e+01 0 0 0
731 2 9.8440000000000012e+00 9.9460130873296642e+00 3.0030999999998190e+01 0 0 0
733 2 9.8440000000000012e+00 8.5251540748539956e+00 3.0030999999998190e+01 0 0 0
727 2 8.6135000000000002e+00 1.2077301606043163e+01 3.0030999999998190e+01 0 0 0
729 2 8.6134999999999984e+00 1.0656442593567498e+01 3.0030999999998190e+01 0 0 0
774 2 1.1074500000000002e+01 1.2077301606043163e+01 3.0030999999998190e+01 0 0 0
776 2 1.1074500000000002e+01 1.0656442593567498e+01 3.0030999999998190e+01 0 0 0
952 2 8.6134999999999984e+00 9.2355835810918343e+00 3.3349586610738214e+01 0 0 0
975 2 9.8440000000000012e+00 8.5251540748539956e+00 3.3349586610738214e+01 0 0 0
976 2 1.1074500000000002e+01 9.2355835810918343e+00 3.3349586610738214e+01 0 0 0
973 2 8.6134999999999984e+00 1.0656442593567498e+01 3.3349586610738214e+01 0 0 0
974 2 9.8440000000000012e+00 1.1366872099805333e+01 3.3349586610738214e+01 0 0 0
997 2 1.1074500000000002e+01 1.0656442593567498e+01 3.3349586610738214e+01 0 0 0
998 2 1.2304999999999998e+01 1.1366872099805333e+01 3.3349586610738214e+01 0 0 0
3257 1 2.5652450939392009e+00 3.5203308799105102e+00 3.5788251256500658e+01 2 1 -1
150 1 6.0524407877103181e-01 1.6628308983299922e+00 3.6323092566121730e+01 -2 2 0
3244 1 5.1917796076964962e+00 2.6674196746976175e+00 3.6222783914617963e+01 -1 3 0
1571 1 7.8793521392034576e+00 3.7187028034114769e+00 3.5789955457146846e+01 0 -2 -1
3215 1 1.0216759105724520e+01 2.3560423015912448e+00 3.6447137843114547e+01 -2 -1 0
1421 1 2.6660744890570136e+00 6.1887252082729267e+00 3.6692497377537336e+01 0 -4 0
3268 1 5.9511016367892866e+00 1.4638922176597269e-01 3.5870773095484509e+01 4 -1 -1
3242 1 7.4569321372013997e+00 6.5336911842991459e+00 3.5984716208984409e+01 0 -3 -1
6085 1 4.7705215615235144e+00 7.9111379423419983e+00 3.5998337072934959e+01 3 2 0
1670 1 1.2284566925255200e+01 4.0241967314256115e+00 3.5663039139405910e+01 1 1 -1
3426 1 9.7886306685135285e+00 8.1144599601827281e+00 3.5968172512039828e+01 0 0 0
3515 1 9.5016799956532711e+00 1.1119780900392565e+01 3.6053901616197564e+01 1 3 -1
3380 1 4.7171043169178057e+00 1.0550932537956173e+01 3.6299325483357904e+01 2 -4 -1
4644 1 2.4126990738220493e+00 1.1979078232734357e+01 3.5768990522568842e+01 1 0 0
496 1 3.0807700483548367e-01 1.0199704331047080e+01 3.6227572834081116e+01 -1 2 0
6204 1 7.6998875699525154e-02 7.3395524992386560e+00 3.5927682178707883e+01 1 -2 0
6286 1 7.0322719088836854e+00 1.2197782415847870e+01 3.6137345353215423e+01 0 1 0
54 1 3.3699506237863783e+00 3.5526253733903848e+00 3.9834585678639002e+01 1 -2 -1
4520 1 8.1658218426452378e-01 2.0388279378955105e+00 3.9311527265801374e+01 -1 2 0
5164 1 5.6407169671365622e+00 2.6176322506807521e+00 3.8834279064500976e+01 1 -2 -1
3572 1 7.7594291374055446e+00 4.2032691457969387e+00 3.9381881821428337e+01 0 -5 -1
449 1 1.0197740440217155e+01 3.0183531409156918e+00 3.9117505555321799e+01 0 -1 0
2962 1 2.9463056831135698e-01 1.0041366357964053e+01 3.8873591321289666e+01 -2 2 0
3289 1 2.7876094811065868e+00 6.2126696869897327e+00 3.9519404043635362e+01 -1 0 0
3467 1 2.4195305529549160e+00 1.1979357336846565e+01 4.2447361586549334e+01 1 0 -1
3295 1 7.3612118676693843e+00 6.8231940711225318e+00 3.8605641938810351e+01 0 0 -1
393 1 5.0192201087506936e+00 7.9043584352575458e+00 3.9712770669492983e+01 1 -1 0
80 1 4.7641078618670054e+00 1.0533057476234378e+01 4.3283230925190026e+01 -1 0 -1
4543 1 1.1990051257264700e+01 7.3067561261709226e+00 4.2985374715400681e+01 0 0 0
388 1 2.3035163288974152e+00 1.1967912146054145e+01 3.9859322517113554e+01 0 0 -1
1778 1 1.2011514664276355e+01 7.3253960908985656e+00 3.9180858465126789e+01 1 2 0
6295 1 4.7411155261161255e+00 1.0476261244043855e+01 3.8932605167763114e+01 2 3 0
3597 1 6.7553619193396317e+00 1.2170393701182949e+01 4.2033240822955605e+01 -1 1 -1
1740 1 9.6002509554841584e+00 8.3379654497304170e+00 3.9452968278450527e+01 -1 1 -1
394 1 9.6713139666783103e+00 1.0955188838693401e+01 3.8728329388453659e+01 -3 -2 -1
124 1 3.0622035563747203e+00 3.0808021591471735e+00 4.2581030817588157e+01 -1 4 -1
4594 1 7.3817967660642902e-01 1.8888977752000613e+00 4.3440107692292386e+01 3 1 -1
2863 1 5.7143132635286404e+00 2.4130409486786006e+00 4.3639663920826791e+01 4 0 0
4563 1 7.7304538145187260e+00 4.1528474929516914e+00 4.2294648564336939e+01 2 -3 0
3241 1 9.2565314845177280e+00 1.1003032506784756e+01 4.3254384615391203e+01 0 -1 -1
1863 1 1.0280892690292934e+01 3.0019246723611457e+00 4.2765207274418955e+01 3 -2 -1
4463 1 2.7217201995321441e+00 5.8818058583966737e+00 4.2827486347947669e+01 3 1 -1
3710 1 3.5973054300719254e-01 7.6427591678366689e+00 4.2339205579271947e+01 -1 1 0
4523 1 7.5362208193793148e+00 6.5865777720276810e+00 4.3287886093082406e+01 3 2 0
4498 1 4.9931590853794656e+00 7.9445488271658560e+00 4.2381898817040749e+01 0 -2 0
2092 1 9.5993296616427450e+00 8.2544293256828549e+00 4.2327435442546744e+01 0 3 -1
4836 1 1.0349525261390792e+01 1.9827269622585469e-01 4.2791635099206886e+01 0 0 -1
6074 1 7.2455626667993170e-02 1.0224806183511689e+01 4.3260718313041508e+01 1 0 0
6108 1 3.6844637808992747e-03 7.3164838116195918e+00 3.9589613840244240e+01 1 -2 0
300 1 1.2301294569223892e+01 4.6246492910659196e+00 3.9357655021890068e+01 1 -1 -1
2168 1 1.0158052144024033e+01 1.6980941895030099e-01 4.0123004218121338e+01 0 1 0
3281 1 2.9012363123499894e+00 3.5947684338771633e+00 4.6788218185242599e+01 3 -1 0
3448 1 5.7629899924407768e-01 2.2340676943412081e+00 4.6193262597556441e+01 1 0 -1
1301 1 5.3776192440518606e+00 2.3521496025197632e+00 4.6579812060942629e+01 -1 -1 0
2167 1 7.5457687458996450e+00 4.0337397866196678e+00 4.6922231550952958e+01 2 2 0
2024 1 9.8762452753918009e+00 2.7287053090017901e+00 4.5562315864768067e+01 3 -1 -1
39 1 9.9150709518325133e+00 2.7680870916088418e-01 4.9710375818774281e+01 2 -2 0
3276 1 2.8274574959898553e+00 6.3075839327950636e+00 4.5699447456683743e+01 1 -1 0
1910 1 4.3056356695672482e-01 7.4671416121701810e+00 4.6527657679258979e+01 -3 0 -1
4891 1 7.5271345817533257e+00 6.7967192815466460e+00 4.6160304138844410e+01 2 -1 -1
425 1 5.1360322392999960e+00 7.6916314285392513e+00 4.6825496541406281e+01 0 0 -1
1556 1 9.9044827707003105e+00 8.1915414426508875e+00 4.6881849092065693e+01 -1 1 0
318 1 2.3196269440879340e+00 1.1646195666789325e+01 4.9306691997917611e+01 2 0 -1
364 1 1.1954927184816025e+01 4.3932876013131841e+00 4.6525775710452535e+01 0 -1 -1
4734 1 2.4310290820037532e+00 1.1655970848702573e+01 4.6625806522233191e+01 3 -1 0