LAMMPS data file via write_data, version 16 Mar 2018, timestep = 100000

6750 atoms
2 atom types

0.0000000000000000e+00 4.9219999999999999e+01 xlo xhi
0.0000000000000000e+00 4.9019635930410494e+01 ylo yhi
3.4521049227280187e-01 5.9716789507726588e+01 zlo zhi

Masses

1 18.015
2 12.01

Atoms # atomic

4853 1 2.6254410982071148e+00 5.1287252694050380e+00 3.9346085750581969e+00 0 0 0
1399 1 3.4456482881593069e+00 2.3651649705112670e+00 2.4710194887814914e+00 0 1 1
3511 1 4.4489395825434492e+00 3.3494861607796567e-01 1.2153831884270799e+01 0 0 1
5251 1 5.8190341419900555e+00 6.1422281547040596e+00 3.7104179128597747e-01 0 1 1
2084 1 7.0753356730864070e+00 2.8085695081804003e+00 2.3447243492341929e+00 1 1 0
3955 1 5.4037078396452900e+00 1.1981054464908896e+00 4.1056301503389179e+00 0 0 1
1704 1 9.9165750240893011e+00 2.9620677279340506e+00 2.8845704723155725e+00 0 2 0
156 1 5.9666400560554311e-01 4.0372017736728170e+00 7.4322605539997939e+00 0 0 0
6412 1 4.6334714717065978e-01 9.3508486146013308e+00 2.8595971070968647e+00 0 0 1
3555 1 1.7379545593402539e+00 5.6453689208951374e-01 9.8383735391488134e+00 1 0 0
330 1 6.5749726755095574e+00 6.0188242026629100e+00 6.7282677444895054e+00 0 1 0
3221 1 9.2238777789423185e+00 6.5797401846508867e+00 4.8179572061017391e+00 1 1 1
5392 1 8.1050690909341050e+00 6.1957246104968950e+00 2.1840392112031495e+00 0 0 0
3604 1 7.8228968024975014e+00 6.2926850270378965e-01 6.0308285107387638e-01 1 1 0
241 1 4.2132722279757040e+00 8.9119417515594446e+00 3.6172339937635987e+00 0 0 0
3690 1 1.1625733422601900e+01 8.5814866073824732e+00 7.3754055870817004e-01 0 -2 0
4834 1 7.0676122404261417e+00 8.8225247507444120e+00 2.2271367173670278e+00 0 -1 1
3242 1 1.5786517231531547e+00 7.6773411054994085e+00 6.2336994121026823e-01 -1 1 1
1881 1 1.0001853550598259e+01 1.0968234777181632e+01 1.5639970040141820e+00 -1 0 0
6573 1 1.1352244688244683e+01 1.1765046731807592e+01 4.0953260167844521e+00 0 0 1
3403 1 2.5342356058915576e+00 1.0928349416243113e+00 1.4105598454512755e+01 2 1 0
1442 1 3.2467028096089807e+00 5.2524323625606888e+00 6.5753642160982961e+00 1 1 1
434 1 3.6906384520955036e+00 6.7994859266342917e+00 1.9254619821156433e+00 1 1 1
2261 1 2.7607223271569534e+00 7.4949227755920655e-01 5.9300515746557938e+00 1 1 1
6634 1 3.4505308848139582e+00 2.3070731777471272e+00 8.4609741385419888e+00 1 1 0
314 1 5.3951953371424883e+00 3.0012788823908361e+00 6.3652231019796233e+00 0 0 0
5522 1 5.4124285713862017e+00 2.1855533196127990e+00 1.0258459947780368e+01 2 0 0
2015 1 8.0851689463739085e+00 1.8263541100328438e+00 6.9261349624480868e+00 -1 -1 0
209 1 9.9807269185585739e+00 4.0959681365283247e+00 5.3225310913403021e+00 1 0 1
3286 1 1.9924408414353736e+00 9.9787735399519040e+00 5.1215948049663291e+00 -1 0 1
4855 1 1.0871314059282396e+01 1.1909694451819410e+01 1.3288601768956809e+01 1 1 1
5379 1 5.7999968326011482e+00 4.8811662742976312e+00 3.8623341287785036e+00 0 0 0
3847 1 5.1320400013938920e+00 9.8502784598011353e+00 7.8497881555324138e+00 1 2 1
1896 1 3.6957982611320062e+00 4.0989872300089782e+00 1.4443369028665829e+01 -1 0 0
3488 1 6.2095432183507056e+00 6.0308947216092559e+00 1.1566511019509591e+01 1 1 0
335 1 7.8146992718609143e+00 5.1781300290773205e+00 9.3623143409743381e+00 -1 -1 0
5103 1 8.0154833493651338e+00 2.6690421987467676e+00 9.3589422323603682e+00 1 1 0
2090 1 1.1063152830874470e+01 3.7838601038907473e+00 5.0214424570261662e-01 -1 1 0
6524 1 2.0962166545508656e+00 1.0841436963302089e+01 9.2576516147255887e+00 1 0 1
3015 1 8.2708546190248526e+00 1.0476759013886253e+01 5.7262085537478837e+00 -1 0 0
2151 1 6.3012323355237578e+00 8.7684926391875457e+00 5.7361358052237650e+00 1 1 0
3753 1 1.1741009744486055e+01 8.4157201532757178e+00 7.9016594591497489e+00 2 1 0
5351 1 1.0947000127171137e+01 8.9669085414504952e+00 5.5737765742314975e+00 1 1 0
169 1 9.1710675302851339e+00 9.7002047158158131e+00 1.2892598388907899e+01 0 -1 0
1544 1 1.6607778178798123e+00 9.0173623977890891e+00 1.1963470056157695e+01 0 -1 1
3495 1 7.9751377976914188e+00 1.1464330617879469e+01 3.1850469221995761e+00 2 0 0
5241 1 1.1372405638822803e+01 5.7010309230930591e+00 1.0841514390378578e+01 0 0 0
2206 1 5.6976619795633985e+00 3.8670724277643242e+00 1.2642292245190426e+01 0 0 1
1877 1 8.2019238842931586e+00 2.8497687476552822e+00 1.3552720873397353e+01 1 -1 0
5520 1 7.9807417240181957e+00 1.1701463010338724e+01 8.6734644709942028e+00 0 0 0
2201 1 2.7334845671966441e+00 8.6089098529358896e+00 7.1321356228440278e+00 -1 0 1
5501 1 2.3869420595976294e+00 6.0265056330561118e+00 1.3553977102992729e+01 1 1 0
2117 1 3.2209678830131998e+00 6.8663944501331784e+00 1.0960881692740276e+01 0 1 0
5262 1 2.0030529438174329e+00 4.4726065643579362e+00 1.0080088824808131e+01 1 -1 1
1755 1 8.3032060296777690e+00 9.4728103609104686e+00 1.0274766158834071e+01 0 0 0
386 1 9.9791497120143244e+00 4.7540582399636317e+00 1.3037616442468561e+01 0 -1 0
1754 1 8.6096693637746107e+00 6.7255112302946545e+00 1.3482629090132571e+01 -1 1 0
5106 1 1.1254238124553135e+01 5.3435188208003193e-01 3.1119903334183943e+00 -1 2 0
1948 1 9.7100840610015240e+00 7.1884429989242014e+00 9.5139393013374196e+00 2 0 0
3797 1 7.1115468518999476e+00 1.0153525426623482e+01 1.4514731695234826e+01 2 0 0
4889 1 1.0790686567565073e+01 2.4168570471216628e+00 1.0616980657794661e+01 0 1 1
4852 1 4.7782952151576010e+00 1.1827393868387967e+01 1.0856890974532279e+01 0 1 1
2113 1 5.0704150242331476e+00 8.5260651225217519e+00 1.3371062643445688e+01 1 1 0
2070 1 5.6073405631258879e+00 9.1805115940332485e+00 1.0492265379510087e+01 -1 0 0
3142 1 1.3259327682364712e+00 9.5781865623282076e+00 1.4841174467028432e+01 1 0 1
1482 1 1.0754389013294705e+00 1.3324945723861972e+00 3.5300508156040045e+00 -1 1 1
3851 1 1.0777848861731856e+01 6.3994254094115699e-01 7.8202657674865321e+00 0 1 0
3489 1 1.0500408941987120e+00 1.1742104175548736e+01 1.4970494309572204e+00 -1 -1 1
6406 1 3.7464614843903012e+00 1.1234676053525895e+01 2.2105307959390617e+00 1 0 1
1403 1 1.2590336391853013e-01 6.2401082204252365e+00 3.5300631599202550e+00 1 0 1
3218 1 2.2954694106466227e+00 1.2014848683501597e+01 1.2844548256182295e+01 0 0 1
2 1 1.2233071340978219e+01 3.4903966178975305e+00 6.8351645078777974e+00 0 1 1
5549 1 1.6318996550381826e-03 8.1978679149655438e+00 8.5295746198362803e+00 1 2 0
3042 1 8.3430698931705827e+00 8.7897969012828980e-03 1.3344152692157563e+01 0 1 0
29 1 1.2173082148118777e+01 1.1641002197843054e+01 1.7258707689911763e+01 0 0 1
3776 1 5.2081719899280063e+00 2.3549018570849110e+00 1.9368183918874134e+01 1 1 0
841 2 1.2304999999999998e+01 1.1366872099805333e+01 2.6803244379169829e+01 0 0 0
1706 1 3.2433432060057599e+00 1.2247559416917916e+01 2.2299370012715755e+01 -1 0 1
3735 1 1.1772868555351399e+01 2.2747217170199092e+00 1.6170066591325664e+01 0 1 0
1335 1 1.1479069687749412e+01 4.8007808951621547e+00 1.5380925683292123e+01 0 0 1
4897 1 2.6589644847674707e+00 2.3532051045932025e+00 1.6818519734785333e+01 0 -2 1
5329 1 4.2352681770938272e+00 5.7753677608510419e+00 1.8768100130653576e+01 0 0 0
5167 1 5.2743982156513871e+00 4.0854361841109084e+00 1.6744435449186039e+01 0 1 1
1796 1 2.7570454985135875e+00 7.3950891821252318e+00 1.5684956295893839e+01 0 1 0
4962 1 1.1406307336147153e+01 9.1981114407162092e+00 1.5479816524663226e+01 2 -1 1
227 1 7.9200256491422074e+00 2.8908165212211916e+00 1.6266358439445959e+01 1 0 0
5356 1 8.2493586544408419e+00 5.5488751184392537e+00 2.0584072494970911e+01 0 2 0
3985 1 8.2842601443508084e+00 5.2885087085764297e+00 1.7950300914609457e+01 0 0 1
3052 1 9.9769657988211851e+00 6.6873142196614097e+00 1.6744525301645481e+01 -1 1 1
751 2 8.6134999999999984e+00 9.2355835810918343e+00 2.6803244379169829e+01 0 0 0
412 1 1.9946401366057240e+00 1.0937445223160770e+01 1.8426206139967736e+01 0 0 0
3973 1 7.8666399135722731e+00 8.6343161153003702e+00 1.6975513793583268e+01 0 0 1
377 1 5.7693404378288777e+00 8.1591196303657618e+00 1.8374365841757474e+01 -1 0 1
6593 1 1.0362159912725017e+01 1.1423887766656470e+01 2.4471130013468585e+01 0 0 1
2227 1 9.7845567765317050e+00 1.0321876929994819e+01 1.8398411526142940e+01 0 1 0
6561 1 1.1149124474599887e+01 8.8442013994322526e+00 2.4251746974681648e+01 0 1 1
792 2 8.6134999999999984e+00 1.0656442593567498e+01 2.6803244379169829e+01 0 0 0
252 1 9.4529443950951131e-01 2.8020352944528280e+00 2.1870734998010082e+01 0 -1 0
61 1 1.2141191607559549e+01 7.0389406260919474e+00 1.8988472696516833e+01 2 1 1
177 1 4.2426402658906598e-01 8.4536573526979719e+00 1.8429588915496627e+01 0 0 0
3659 1 7.7000472166293275e+00 2.8081371854029977e+00 2.0973205602013941e+01 1 0 0
5436 1 4.1062174615475096e+00 3.2700024964602838e+00 2.3836984962821131e+01 0 1 0
3588 1 3.7689676343516805e+00 3.4735659728029405e-01 2.4142950264658850e+01 0 2 0
1532 1 8.3921688886528507e+00 1.2991231598327080e+00 2.4393722559934318e+01 0 0 1
3838 1 1.0031416468383652e+01 1.4242757443848577e+00 2.1405815686187704e+01 0 -1 0
5298 1 1.1026211745092457e+01 2.1767344100945807e+00 2.3809344038320820e+01 1 0 1
5076 1 2.6887808565395046e+00 6.4773033425942188e+00 2.4081199313254530e+01 1 2 1
3234 1 2.2032872720732328e+00 9.0741615808693314e+00 2.4286072721951186e+01 0 -1 1
3514 1 5.6627440131154505e-01 6.5802601454341261e+00 2.0855462757580657e+01 1 1 1
5216 1 3.3183180692721970e+00 3.3705427291780672e+00 2.1146198440333254e+01 1 1 0
5432 1 3.6929562618712923e+00 6.4118212889687012e+00 2.1562174917351342e+01 1 1 0
3448 1 7.6144634537616716e+00 5.3947754633068161e+00 2.3717586260775480e+01 1 1 0
162 1 6.6973401580892151e+00 3.0021153398665859e+00 2.3633476889669279e+01 1 0 1
2066 1 1.0131522890945797e+01 6.4292311402558253e+00 2.4641507004164438e+01 1 0 0
5377 1 4.7836089604824510e+00 1.0716844393598494e+01 1.7979495677847286e+01 1 0 0
1487 1 5.5741644085896205e+00 1.1473033878583925e+01 2.0206302821180387e+01 1 1 1
2218 1 1.2175089044839542e+01 7.4834000557235114e-01 1.9289490605791418e+01 0 0 0
3088 1 4.6814012684993660e+00 9.7295530840173452e+00 2.3110532588648510e+01 0 1 0
3124 1 5.2791275125636643e+00 7.0795397687969741e+00 2.4555171932829314e+01 1 0 1
6616 1 6.0033230532327790e+00 8.5300907411010911e+00 2.1087602357457886e+01 1 0 1
2284 1 8.7811739005763307e+00 8.2904758283287965e+00 2.1977576943926238e+01 0 -1 1
794 2 9.8440000000000012e+00 1.1366872099805333e+01 2.6803244379169829e+01 0 0 0
5449 1 1.4058406551642648e+00 5.6827571675244126e+00 1.7799176123527740e+01 2 0 0
5610 1 1.0986557451651915e+01 8.8984335122673848e+00 2.0301133733139125e+01 1 0 1
5416 1 7.2454418291820666e+00 6.7511545200116896e-01 1.7900847455144714e+01 0 2 0
618 2 0.0000000000000000e+00 2.8417180249513345e+00 2.6803244379169829e+01 0 0 0
620 2 0.0000000000000000e+00 0.0000000000000000e+00 2.6803244379169829e+01 0 0 0
622 2 1.2305000000000001e+00 7.1042950623783474e-01 2.6803244379169829e+01 0 0 0
629 2 1.2305000000000001e+00 2.1312885187134998e+00 2.6803244379169829e+01 0 0 0
631 2 2.4610000000000003e+00 2.8417180249513345e+00 2.6803244379169829e+01 0 0 0
633 2 2.4610000000000003e+00 0.0000000000000000e+00 2.6803244379169829e+01 0 0 0
635 2 3.6915000000000004e+00 7.1042950623783474e-01 2.6803244379169829e+01 0 0 0
650 2 3.6914999999999996e+00 2.1312885187134998e+00 2.6803244379169829e+01 0 0 0
652 2 4.9220000000000006e+00 2.8417180249513332e+00 2.6803244379169829e+01 0 0 0
654 2 4.9220000000000006e+00 0.0000000000000000e+00 2.6803244379169829e+01 0 0 0
656 2 6.1524999999999999e+00 7.1042950623783407e-01 2.6803244379169829e+01 0 0 0
679 2 6.1524999999999999e+00 2.1312885187134989e+00 2.6803244379169829e+01 0 0 0
681 2 7.3829999999999991e+00 2.8417180249513345e+00 2.6803244379169829e+01 0 0 0
683 2 7.3829999999999991e+00 0.0000000000000000e+00 2.6803244379169829e+01 0 0 0
685 2 8.6134999999999984e+00 7.1042950623783407e-01 2.6803244379169829e+01 0 0 0
716 2 8.6134999999999984e+00 2.1312885187135002e+00 2.6803244379169829e+01 0 0 0
718 2 9.8440000000000012e+00 2.8417180249513332e+00 2.6803244379169829e+01 0 0 0
720 2 9.8440000000000012e+00 0.0000000000000000e+00 2.6803244379169829e+01 0 0 0
722 2 1.1074500000000002e+01 7.1042950623783330e-01 2.6803244379169829e+01 0 0 0
761 2 1.1074500000000002e+01 2.1312885187135002e+00 2.6803244379169829e+01 0 0 0
623 2 0.0000000000000000e+00 7.1042950623783341e+00 2.6803244379169829e+01 0 0 0
625 2 0.0000000000000000e+00 4.2625770374269996e+00 2.6803244379169829e+01 0 0 0
627 2 1.2305000000000001e+00 4.9730065436648339e+00 2.6803244379169829e+01 0 0 0
642 2 1.2305000000000001e+00 6.3938655561404980e+00 2.6803244379169829e+01 0 0 0
644 2 2.4610000000000003e+00 7.1042950623783341e+00 2.6803244379169829e+01 0 0 0
646 2 2.4610000000000003e+00 4.2625770374269996e+00 2.6803244379169829e+01 0 0 0
648 2 3.6914999999999996e+00 4.9730065436648339e+00 2.6803244379169829e+01 0 0 0
671 2 3.6914999999999996e+00 6.3938655561404980e+00 2.6803244379169829e+01 0 0 0
673 2 4.9220000000000006e+00 7.1042950623783341e+00 2.6803244379169829e+01 0 0 0
675 2 4.9220000000000006e+00 4.2625770374269978e+00 2.6803244379169829e+01 0 0 0
677 2 6.1524999999999999e+00 4.9730065436648339e+00 2.6803244379169829e+01 0 0 0
708 2 6.1524999999999999e+00 6.3938655561404980e+00 2.6803244379169829e+01 0 0 0
710 2 7.3830000000000009e+00 7.1042950623783341e+00 2.6803244379169829e+01 0 0 0
712 2 7.3829999999999991e+00 4.2625770374269996e+00 2.6803244379169829e+01 0 0 0
714 2 8.6135000000000002e+00 4.9730065436648339e+00 2.6803244379169829e+01 0 0 0
753 2 8.6135000000000002e+00 6.3938655561404980e+00 2.6803244379169829e+01 0 0 0
755 2 9.8440000000000012e+00 7.1042950623783341e+00 2.6803244379169829e+01 0 0 0
757 2 9.8440000000000012e+00 4.2625770374270004e+00 2.6803244379169829e+01 0 0 0
759 2 1.1074500000000002e+01 4.9730065436648339e+00 2.6803244379169829e+01 0 0 0
800 2 1.1074500000000002e+01 6.3938655561404980e+00 2.6803244379169829e+01 0 0 0
636 2 0.0000000000000000e+00 1.1366872099805333e+01 2.6803244379169829e+01 0 0 0
638 2 0.0000000000000000e+00 8.5251540748539991e+00 2.6803244379169829e+01 0 0 0
640 2 1.2305000000000001e+00 9.2355835810918343e+00 2.6803244379169829e+01 0 0 0
663 2 1.2305000000000001e+00 1.0656442593567498e+01 2.6803244379169829e+01 0 0 0
665 2 2.4610000000000003e+00 1.1366872099805333e+01 2.6803244379169829e+01 0 0 0
667 2 2.4610000000000003e+00 8.5251540748539991e+00 2.6803244379169829e+01 0 0 0
669 2 3.6915000000000004e+00 9.2355835810918343e+00 2.6803244379169829e+01 0 0 0
700 2 3.6914999999999996e+00 1.0656442593567499e+01 2.6803244379169829e+01 0 0 0
745 2 6.1524999999999999e+00 1.0656442593567499e+01 2.6803244379169829e+01 0 0 0
704 2 4.9220000000000006e+00 8.5251540748539991e+00 2.6803244379169829e+01 0 0 0
702 2 4.9220000000000006e+00 1.1366872099805333e+01 2.6803244379169829e+01 0 0 0
747 2 7.3829999999999991e+00 1.1366872099805333e+01 2.6803244379169829e+01 0 0 0
706 2 6.1524999999999999e+00 9.2355835810918343e+00 2.6803244379169829e+01 0 0 0
749 2 7.3830000000000009e+00 8.5251540748539991e+00 2.6803244379169829e+01 0 0 0
796 2 9.8440000000000012e+00 8.5251540748539956e+00 2.6803244379169829e+01 0 0 0
839 2 1.1074500000000002e+01 1.0656442593567498e+01 2.6803244379169829e+01 0 0 0
798 2 1.1074500000000002e+01 9.2355835810918343e+00 2.6803244379169829e+01 0 0 0
4891 1 6.2380685578219346e+00 6.1915124973007156e+00 1.5413833521086552e+01 1 1 1
186 1 1.1066694692245493e+01 4.9351478578265224e+00 2.0449300103104193e+01 0 0 0
6381 1 1.1836551068894533e+01 4.8786453143011066e+00 2.3080416022247206e+01 0 0 1
4720 1 9.9953737428087130e+00 1.2261521357976050e-01 1.7550773422989288e+01 0 1 1
4985 1 3.1056414239402033e+00 2.7722373641999215e-01 1.9303603539216397e+01 -1 1 1
3831 1 8.0372601808903710e-02 5.5046922475296185e+00 2.3867017842804380e+01 1 1 0
5064 1 1.2864845740713604e+00 1.2085784130233014e+01 1.6074535957838108e+01 1 0 0
619 2 0.0000000000000000e+00 1.4208590124756650e+00 3.0030999999999814e+01 0 0 0
621 2 0.0000000000000000e+00 0.0000000000000000e+00 3.0030999999999814e+01 0 0 0
628 2 1.2305000000000001e+00 3.5521475311891644e+00 3.0030999999999814e+01 0 0 0
630 2 1.2305000000000001e+00 2.1312885187134998e+00 3.0030999999999814e+01 0 0 0
632 2 2.4610000000000003e+00 1.4208590124756650e+00 3.0030999999999814e+01 0 0 0
634 2 2.4610000000000003e+00 0.0000000000000000e+00 3.0030999999999814e+01 0 0 0
649 2 3.6914999999999996e+00 3.5521475311891644e+00 3.0030999999999814e+01 0 0 0
651 2 3.6914999999999996e+00 2.1312885187134998e+00 3.0030999999999814e+01 0 0 0
947 2 0.0000000000000000e+00 2.8417180249513345e+00 3.3258755620830613e+01 0 0 0
948 2 0.0000000000000000e+00 0.0000000000000000e+00 3.3258755620830613e+01 0 0 0
949 2 1.2305000000000001e+00 7.1042950623783474e-01 3.3258755620830613e+01 0 0 0
953 2 1.2305000000000001e+00 2.1312885187134998e+00 3.3258755620830613e+01 0 0 0
954 2 2.4610000000000003e+00 2.8417180249513345e+00 3.3258755620830613e+01 0 0 0
955 2 2.4610000000000003e+00 0.0000000000000000e+00 3.3258755620830613e+01 0 0 0
956 2 3.6915000000000004e+00 7.1042950623783474e-01 3.3258755620830613e+01 0 0 0
964 2 3.6914999999999996e+00 2.1312885187134998e+00 3.3258755620830613e+01 0 0 0
653 2 4.9220000000000006e+00 1.4208590124756650e+00 3.0030999999999814e+01 0 0 0
655 2 4.9220000000000006e+00 0.0000000000000000e+00 3.0030999999999814e+01 0 0 0
678 2 6.1524999999999999e+00 3.5521475311891644e+00 3.0030999999999814e+01 0 0 0
680 2 6.1524999999999999e+00 2.1312885187134989e+00 3.0030999999999814e+01 0 0 0
682 2 7.3829999999999991e+00 1.4208590124756659e+00 3.0030999999999814e+01 0 0 0
684 2 7.3829999999999991e+00 0.0000000000000000e+00 3.0030999999999814e+01 0 0 0
965 2 4.9220000000000006e+00 2.8417180249513332e+00 3.3258755620830613e+01 0 0 0
966 2 4.9220000000000006e+00 0.0000000000000000e+00 3.3258755620830613e+01 0 0 0
967 2 6.1524999999999999e+00 7.1042950623783407e-01 3.3258755620830613e+01 0 0 0
979 2 6.1524999999999999e+00 2.1312885187134989e+00 3.3258755620830613e+01 0 0 0
980 2 7.3829999999999991e+00 2.8417180249513345e+00 3.3258755620830613e+01 0 0 0
981 2 7.3829999999999991e+00 0.0000000000000000e+00 3.3258755620830613e+01 0 0 0
715 2 8.6134999999999984e+00 3.5521475311891657e+00 3.0030999999999814e+01 0 0 0
717 2 8.6134999999999984e+00 2.1312885187135002e+00 3.0030999999999814e+01 0 0 0
719 2 9.8440000000000012e+00 1.4208590124756659e+00 3.0030999999999814e+01 0 0 0
721 2 9.8440000000000012e+00 0.0000000000000000e+00 3.0030999999999814e+01 0 0 0
760 2 1.1074500000000002e+01 3.5521475311891644e+00 3.0030999999999814e+01 0 0 0
762 2 1.1074500000000002e+01 2.1312885187135002e+00 3.0030999999999814e+01 0 0 0
982 2 8.6134999999999984e+00 7.1042950623783407e-01 3.3258755620830613e+01 0 0 0
998 2 8.6134999999999984e+00 2.1312885187135002e+00 3.3258755620830613e+01 0 0 0
999 2 9.8440000000000012e+00 2.8417180249513332e+00 3.3258755620830613e+01 0 0 0
1000 2 9.8440000000000012e+00 0.0000000000000000e+00 3.3258755620830613e+01 0 0 0
1001 2 1.1074500000000002e+01 7.1042950623783330e-01 3.3258755620830613e+01 0 0 0
1021 2 1.1074500000000002e+01 2.1312885187135002e+00 3.3258755620830613e+01 0 0 0
624 2 0.0000000000000000e+00 5.6834360499026637e+00 3.0030999999999814e+01 0 0 0
626 2 0.0000000000000000e+00 4.2625770374269996e+00 3.0030999999999814e+01 0 0 0
641 2 1.2305000000000001e+00 7.8147245686161639e+00 3.0030999999999814e+01 0 0 0
643 2 1.2305000000000001e+00 6.3938655561404980e+00 3.0030999999999814e+01 0 0 0
645 2 2.4610000000000003e+00 5.6834360499026637e+00 3.0030999999999814e+01 0 0 0
647 2 2.4610000000000003e+00 4.2625770374269996e+00 3.0030999999999814e+01 0 0 0
670 2 3.6914999999999996e+00 7.8147245686161639e+00 3.0030999999999814e+01 0 0 0
672 2 3.6914999999999996e+00 6.3938655561404980e+00 3.0030999999999814e+01 0 0 0
950 2 0.0000000000000000e+00 7.1042950623783341e+00 3.3258755620830613e+01 0 0 0
951 2 0.0000000000000000e+00 4.2625770374269996e+00 3.3258755620830613e+01 0 0 0
952 2 1.2305000000000001e+00 4.9730065436648339e+00 3.3258755620830613e+01 0 0 0
960 2 1.2305000000000001e+00 6.3938655561404980e+00 3.3258755620830613e+01 0 0 0
961 2 2.4610000000000003e+00 7.1042950623783341e+00 3.3258755620830613e+01 0 0 0
962 2 2.4610000000000003e+00 4.2625770374269996e+00 3.3258755620830613e+01 0 0 0
963 2 3.6914999999999996e+00 4.9730065436648339e+00 3.3258755620830613e+01 0 0 0
975 2 3.6914999999999996e+00 6.3938655561404980e+00 3.3258755620830613e+01 0 0 0
674 2 4.9220000000000006e+00 5.6834360499026637e+00 3.0030999999999814e+01 0 0 0
676 2 4.9220000000000006e+00 4.2625770374269978e+00 3.0030999999999814e+01 0 0 0
707 2 6.1524999999999999e+00 7.8147245686161639e+00 3.0030999999999814e+01 0 0 0
709 2 6.1524999999999999e+00 6.3938655561404980e+00 3.0030999999999814e+01 0 0 0
711 2 7.3829999999999991e+00 5.6834360499026637e+00 3.0030999999999814e+01 0 0 0
713 2 7.3829999999999991e+00 4.2625770374269996e+00 3.0030999999999814e+01 0 0 0
976 2 4.9220000000000006e+00 7.1042950623783341e+00 3.3258755620830613e+01 0 0 0
977 2 4.9220000000000006e+00 4.2625770374269978e+00 3.3258755620830613e+01 0 0 0
978 2 6.1524999999999999e+00 4.9730065436648339e+00 3.3258755620830613e+01 0 0 0
994 2 6.1524999999999999e+00 6.3938655561404980e+00 3.3258755620830613e+01 0 0 0
995 2 7.3830000000000009e+00 7.1042950623783341e+00 3.3258755620830613e+01 0 0 0
996 2 7.3829999999999991e+00 4.2625770374269996e+00 3.3258755620830613e+01 0 0 0
752 2 8.6135000000000002e+00 7.8147245686161639e+00 3.0030999999999814e+01 0 0 0
754 2 8.6135000000000002e+00 6.3938655561404980e+00 3.0030999999999814e+01 0 0 0
756 2 9.8440000000000012e+00 5.6834360499026637e+00 3.0030999999999814e+01 0 0 0
758 2 9.8440000000000012e+00 4.2625770374270004e+00 3.0030999999999814e+01 0 0 0
799 2 1.1074500000000002e+01 7.8147245686161639e+00 3.0030999999999814e+01 0 0 0
801 2 1.1074500000000002e+01 6.3938655561404980e+00 3.0030999999999814e+01 0 0 0
997 2 8.6135000000000002e+00 4.9730065436648339e+00 3.3258755620830613e+01 0 0 0
1017 2 8.6135000000000002e+00 6.3938655561404980e+00 3.3258755620830613e+01 0 0 0
1018 2 9.8440000000000012e+00 7.1042950623783341e+00 3.3258755620830613e+01 0 0 0
1019 2 9.8440000000000012e+00 4.2625770374270004e+00 3.3258755620830613e+01 0 0 0
1020 2 1.1074500000000002e+01 4.9730065436648339e+00 3.3258755620830613e+01 0 0 0
1041 2 1.1074500000000002e+01 6.3938655561404980e+00 3.3258755620830613e+01 0 0 0
637 2 0.0000000000000000e+00 9.9460130873296642e+00 3.0030999999999814e+01 0 0 0
639 2 0.0000000000000000e+00 8.5251540748539991e+00 3.0030999999999814e+01 0 0 0
662 2 1.2305000000000001e+00 1.2077301606043163e+01 3.0030999999999814e+01 0 0 0
664 2 1.2305000000000001e+00 1.0656442593567498e+01 3.0030999999999814e+01 0 0 0
666 2 2.4610000000000003e+00 9.9460130873296642e+00 3.0030999999999814e+01 0 0 0
668 2 2.4610000000000003e+00 8.5251540748539991e+00 3.0030999999999814e+01 0 0 0
699 2 3.6914999999999996e+00 1.2077301606043163e+01 3.0030999999999814e+01 0 0 0
701 2 3.6914999999999996e+00 1.0656442593567499e+01 3.0030999999999814e+01 0 0 0
957 2 0.0000000000000000e+00 1.1366872099805333e+01 3.3258755620830613e+01 0 0 0
958 2 0.0000000000000000e+00 8.5251540748539991e+00 3.3258755620830613e+01 0 0 0
959 2 1.2305000000000001e+00 9.2355835810918343e+00 3.3258755620830613e+01 0 0 0
971 2 1.2305000000000001e+00 1.0656442593567498e+01 3.3258755620830613e+01 0 0 0
972 2 2.4610000000000003e+00 1.1366872099805333e+01 3.3258755620830613e+01 0 0 0
973 2 2.4610000000000003e+00 8.5251540748539991e+00 3.3258755620830613e+01 0 0 0
974 2 3.6915000000000004e+00 9.2355835810918343e+00 3.3258755620830613e+01 0 0 0
990 2 3.6914999999999996e+00 1.0656442593567499e+01 3.3258755620830613e+01 0 0 0
703 2 4.9220000000000006e+00 9.9460130873296642e+00 3.0030999999999814e+01 0 0 0
705 2 4.9220000000000006e+00 8.5251540748539991e+00 3.0030999999999814e+01 0 0 0
744 2 6.1524999999999999e+00 1.2077301606043163e+01 3.0030999999999814e+01 0 0 0
746 2 6.1524999999999999e+00 1.0656442593567499e+01 3.0030999999999814e+01 0 0 0
748 2 7.3830000000000009e+00 9.9460130873296642e+00 3.0030999999999814e+01 0 0 0
750 2 7.3830000000000009e+00 8.5251540748539991e+00 3.0030999999999814e+01 0 0 0
991 2 4.9220000000000006e+00 1.1366872099805333e+01 3.3258755620830613e+01 0 0 0
992 2 4.9220000000000006e+00 8.5251540748539991e+00 3.3258755620830613e+01 0 0 0
993 2 6.1524999999999999e+00 9.2355835810918343e+00 3.3258755620830613e+01 0 0 0
1013 2 6.1524999999999999e+00 1.0656442593567499e+01 3.3258755620830613e+01 0 0 0
1014 2 7.3829999999999991e+00 1.1366872099805333e+01 3.3258755620830613e+01 0 0 0
1015 2 7.3830000000000009e+00 8.5251540748539991e+00 3.3258755620830613e+01 0 0 0
791 2 8.6135000000000002e+00 1.2077301606043163e+01 3.0030999999999814e+01 0 0 0
793 2 8.6134999999999984e+00 1.0656442593567498e+01 3.0030999999999814e+01 0 0 0
795 2 9.8440000000000012e+00 9.9460130873296642e+00 3.0030999999999814e+01 0 0 0
797 2 9.8440000000000012e+00 8.5251540748539956e+00 3.0030999999999814e+01 0 0 0
838 2 1.1074500000000002e+01 1.2077301606043163e+01 3.0030999999999814e+01 0 0 0
840 2 1.1074500000000002e+01 1.0656442593567498e+01 3.0030999999999814e+01 0 0 0
1016 2 8.6134999999999984e+00 9.2355835810918343e+00 3.3258755620830613e+01 0 0 0
1037 2 8.6134999999999984e+00 1.0656442593567498e+01 3.3258755620830613e+01 0 0 0
1038 2 9.8440000000000012e+00 1.1366872099805333e+01 3.3258755620830613e+01 0 0 0
1039 2 9.8440000000000012e+00 8.5251540748539956e+00 3.3258755620830613e+01 0 0 0
1040 2 1.1074500000000002e+01 9.2355835810918343e+00 3.3258755620830613e+01 0 0 0
1061 2 1.1074500000000002e+01 1.0656442593567498e+01 3.3258755620830613e+01 0 0 0
1062 2 1.2304999999999998e+01 1.1366872099805333e+01 3.3258755620830613e+01 0 0 0
2116 1 8.3792266081788735e+00 5.4510530208300323e-01 4.2862885398941799e+01 1 1 -1
562 1 1.8837920711437874e+00 2.4658132020551582e-01 4.4605313208468317e+01 0 1 0
273 1 8.2864407607343349e+00 3.7455987508641240e+00 3.6497192695581347e+01 1 1 -1
3879 1 5.9056075173472600e+00 5.9192036684893745e+00 3.6488867443181476e+01 1 0 -1
1591 1 5.5572824756217845e+00 6.4958063890522464e+00 3.8939467362027202e+01 -1 0 -1
3009 1 9.2690616894765476e+00 5.9141198737580005e+00 3.8154976008124819e+01 0 1 0
5060 1 1.0967146517279723e+01 2.5080250236058763e+00 3.6030576229964041e+01 1 1 0
6607 1 5.8682203545408505e-02 9.5050209687861038e+00 3.6653429358062894e+01 0 -1 0
5331 1 2.3633110099028309e+00 3.9326106312366078e+00 3.7029906001626628e+01 0 0 -1
5673 1 3.2014619845658485e+00 6.4334705886217201e+00 3.5698631835587136e+01 1 0 0
4805 1 3.4250088584567524e+00 8.3560471494867503e+00 3.9429064020324589e+01 0 0 0
3537 1 5.2921722265062847e+00 1.0413331652933820e+01 3.6440971468508579e+01 0 -1 -1
5144 1 7.0188206694787247e+00 8.3896048029597949e+00 3.5560463518291328e+01 2 0 -1
125 1 8.2445812895560575e+00 7.3639642849845721e+00 4.0350416859359555e+01 1 0 -1
5174 1 9.8470436859293180e+00 7.7107010467845027e+00 3.5948277144079171e+01 1 0 0
2329 1 6.7334589571830090e+00 4.1456874718459416e+00 4.0162216480052635e+01 -1 1 0
157 1 4.2036460102207514e+00 1.8021913761159418e+00 4.2926553641783926e+01 0 0 -1
5020 1 2.9103726207718559e+00 8.9094773295002820e+00 3.6573634471952062e+01 1 1 0
1331 1 1.1796764662531128e+01 5.3772950794893672e+00 3.8870185202093609e+01 2 0 0
4847 1 6.3162101274685458e+00 9.6008935981250172e+00 3.8827817720451790e+01 1 -1 -1
3646 1 1.0342487236472316e+01 9.9629193946798296e+00 3.7762125015575705e+01 0 1 -1
1566 1 1.4520259801318018e+00 5.3369931200852365e+00 4.3590147916837438e+01 1 1 0
5430 1 1.2303974454153394e+01 6.6807603439313921e+00 4.4174326695957788e+01 0 0 -1
6526 1 3.4691034756072252e+00 4.5065523671712624e+00 3.9392723479585328e+01 1 0 0
4699 1 1.0048333387728228e+01 8.5880481315293995e+00 4.4353986574066866e+01 0 -1 0
3353 1 6.8288891107138605e+00 1.2671847693426990e+00 3.7186502685432288e+01 1 1 0
1792 1 4.7419804093940332e+00 4.7293073649405919e+00 4.2581900855120338e+01 0 0 -1
5254 1 3.5063998598545725e+00 1.3007892494535445e+00 4.0315207133237564e+01 0 1 0
3023 1 6.4522102751692536e+00 1.3342594440261841e+00 4.0097293259674601e+01 1 0 0
5004 1 4.4728928337334670e+00 2.2437793336862200e+00 3.5920718355536223e+01 1 0 0
3372 1 9.2802567935485367e+00 3.0028205576878100e+00 4.1673427989055384e+01 0 0 0
5042 1 1.0935529452715000e+01 6.3522697228130012e+00 4.1635219789671382e+01 0 0 -1
3048 1 2.4316100732395860e+00 7.3563151868597068e+00 4.4679543000142118e+01 2 0 0
3394 1 1.9483745668290464e+00 6.0873831790713107e+00 4.0689022245420006e+01 1 0 -1
253 1 8.5134853282134202e+00 1.0865732797107606e+01 3.9656992819313629e+01 1 -1 0
5616 1 1.1765556922070910e+01 8.7015603127703258e+00 3.9750349368190413e+01 0 1 0
5037 1 8.0398556649427011e+00 5.2399632792532920e+00 4.2798070263065298e+01 0 0 0
2322 1 7.5331537160218325e+00 7.9583837768855759e+00 4.3256266602777941e+01 -1 0 0
418 1 8.5162660235109378e-01 1.3260803977830640e+00 4.1123735115884884e+01 1 1 -1
2028 1 4.8446131071954950e+00 6.7583139501671008e+00 4.4558664998941708e+01 -1 2 -1
6723 1 2.9177468148333885e+00 9.7152860382297259e+00 4.3316339696032543e+01 -1 -2 0
2180 1 5.0532579308363257e+00 1.1045434617709233e+01 4.0609916537474959e+01 -1 1 -1
3271 1 1.9184500743267954e+00 1.0432902006708273e+01 4.0781703008729238e+01 0 -1 0
5286 1 1.1472083603454562e+01 3.1804316762558993e-01 3.6981905419954700e+01 1 2 -1
107 1 9.7167023407859752e+00 1.0451272798911605e+01 4.1963092744675933e+01 0 1 -1
4886 1 5.5306206830781202e+00 1.0010881001247848e+01 4.3094485937335222e+01 -1 0 0
1687 1 6.3621837402604386e+00 1.8849958210732487e+00 4.4628862378700532e+01 -1 0 0
272 1 1.1179773941266111e+01 1.1956481055860179e+01 3.5808839022676153e+01 1 0 -1
1558 1 1.1937974944006363e+01 3.0701395558865379e+00 4.1000955689707524e+01 1 1 0
5427 1 5.6461929197786927e-02 6.4161146575030754e+00 3.6526525008745892e+01 2 0 -1
3733 1 1.2107719452368435e+01 3.2585299279512842e-01 4.0077857736318691e+01 0 0 0
3108 1 2.8038211889580111e-02 9.1883991071304099e+00 3.9502284789340990e+01 -1 -1 0
3117 1 2.2214399245377483e+00 3.7462176351606167e+00 4.7612148769482047e+01 0 1 0