LAMMPS data file via write_data, version 16 Mar 2018, timestep = 6000000

6750 atoms
2 atom types

0.0000000000000000e+00 4.9219999999999999e+01 xlo xhi
0.0000000000000000e+00 4.9019635930410494e+01 ylo yhi
-4.6975053437101622e-03 6.0066697505327554e+01 zlo zhi

Masses

1 18.015
2 12.01

Atoms # atomic

5055 1 3.0130907822892286e+00 2.6414459119344302e-01 1.1843399588830367e-02 -1 1 0
6419 1 2.7377244096107503e+00 1.2256377013205151e-01 2.5858762102292459e+00 -3 1 1
4863 1 3.0058573140548939e-01 6.0974338562272812e-01 1.0830443913177785e+01 1 -1 1
3174 1 4.4465473408156280e+00 1.8972643026112868e+00 3.8359419531244976e+00 -1 -1 1
3836 1 7.0472097688597488e+00 8.8730917592048220e-01 2.8151527019690898e+00 0 4 0
6722 1 8.3870116733567581e+00 5.8163981278988048e+00 7.6722682165074274e-01 1 -1 1
5471 1 8.7942722426708713e+00 2.7733377020441519e+00 3.8271297600854317e+00 -1 3 0
3947 1 1.1309508619560773e+01 2.5201748804496118e+00 2.9058224600666929e+00 -1 2 1
108 1 1.0101487612023424e+01 2.1894007879281385e-01 7.5393080621221129e+00 -3 3 1
2186 1 4.1247501561542768e+00 4.6627303905853656e+00 4.9370304579998903e-01 0 2 0
3726 1 8.6512501324749047e-01 7.8419538236689599e+00 2.9533424609629551e+00 0 2 0
5501 1 1.5007537653885354e+00 5.1977836592989775e+00 3.7111824528671420e+00 2 0 0
398 1 4.2034572112483879e+00 4.6396871347942819e+00 3.0691524447037177e+00 4 1 0
1750 1 9.5129770027605054e-01 7.4870031223853122e+00 3.8618132093866164e-01 -1 -1 0
6708 1 5.9354631208999358e+00 6.3459962819552969e+00 4.0963470645186657e+00 0 2 1
5299 1 8.3331158681110136e+00 5.4663633996928223e+00 3.3360558404038643e+00 -1 3 0
532 1 1.0344256827390874e+01 7.1844594060558515e+00 4.2889341506033567e+00 0 0 0
1652 1 1.8063644536503970e-01 6.1067196048297312e-01 1.3239671134042048e+01 2 1 0
3044 1 3.5400724869676975e-01 9.4467250595893648e-01 6.4242209850226368e+00 -2 -2 1
1365 1 8.4785583736639651e+00 1.2146581103447943e+01 1.2130112576465963e+01 -1 3 1
3843 1 2.3803983405506615e+00 9.5507447692683893e+00 4.1568129372484215e+00 -2 -1 0
5122 1 5.1404313663721739e+00 8.6893814713215889e+00 5.0417797171772927e-01 1 1 0
1306 1 5.0894136605015454e+00 8.7411981680336623e+00 3.3505438699813435e+00 1 0 1
3236 1 7.1732361874628428e+00 1.0210390543747433e+01 3.8527788445079185e+00 0 0 0
4913 1 9.7613669724361891e+00 9.6089956780955337e+00 3.4610672616846836e+00 3 2 1
1868 1 9.6266372068714929e+00 9.7514445164527928e+00 9.9423286830725699e-01 -2 1 0
3707 1 1.1718822227561921e+01 1.1182128702541174e+01 4.6931440607093311e+00 2 0 0
5198 1 1.9081099442584111e+00 1.1851965304971168e+01 3.4078058653120573e+00 4 1 1
1873 1 2.1564872417968921e+00 2.4556701043842559e+00 7.1678708764062140e+00 3 3 0
5106 1 2.1914034444302768e+00 2.2833388555660963e+00 1.0060777010028721e+01 -2 -1 0
1879 1 4.7599021650956344e+00 1.9061445914499553e+00 6.3651740671213357e+00 -1 -3 0
1338 1 6.5589271566093936e+00 3.5653925032019145e+00 7.3700109270069847e+00 -1 1 1
6614 1 4.8477574026123955e+00 8.4427129449550318e+00 1.3962333056505512e+01 0 -1 1
68 1 9.0204919773699768e+00 2.7482236414210024e+00 6.6491227272443290e+00 -4 2 1
2121 1 1.5365842090944881e+00 4.9478385098160329e+00 6.3849397919071773e+00 3 0 0
4941 1 3.2752805029633167e+00 6.5945732336314640e+00 7.3007626413634421e+00 0 -1 1
2166 1 5.9788619204192299e+00 6.0302766795086118e+00 6.7069168227359892e+00 -1 0 0
3761 1 7.5967407543346770e+00 8.1441276340417925e+00 7.5390802176025691e+00 1 0 0
2119 1 1.1429591115399617e+01 4.6170612277904093e+00 7.5337610550341880e+00 3 -1 0
6677 1 1.0363768348597649e+01 7.0582656470748297e+00 7.0290656488754681e+00 2 -3 0
4964 1 1.0795982581017689e+01 4.5813221416748497e+00 9.9133884464282964e+00 2 -1 1
446 1 2.4148237863098356e+00 9.2080435296465399e+00 6.8090617987192505e+00 -2 1 0
5116 1 4.3319201213413194e+00 1.0861348326200682e+01 8.4916289961017348e+00 1 -3 0
1563 1 6.5635528057520487e+00 1.0612523329937337e+01 7.1316548434114102e+00 -1 4 0
1584 1 1.1343369463826333e+01 2.3755589330531963e+00 2.6909158068212347e-01 -3 1 0
2194 1 1.1653504864971758e+01 1.0531321989208458e+01 1.2324117275030414e+01 0 1 0
1912 1 9.3151159967636339e+00 9.7062804995194583e+00 1.3691302552789489e+01 1 0 0
1332 1 6.5084853902344477e+00 3.4806888484111913e+00 1.0121514824872687e+01 -2 0 1
6674 1 5.0580239811156753e+00 1.5350171502170111e+00 1.3406727766087295e+01 0 -1 1
46 1 4.8855222122428899e+00 1.6219917921916647e+00 1.0846617415963653e+01 -2 1 1
131 1 7.6732838749209380e+00 7.1020468017628557e-01 1.4623828287122397e+01 3 0 0
3932 1 3.2347048336910794e-01 9.0457063360821988e-01 3.7675001029854673e+00 2 0 0
6514 1 1.1307418325179173e+01 1.9136796605418962e+00 1.4234536622108394e+01 1 -2 1
59 1 8.8338578154835847e+00 2.9629979033700482e+00 1.3575281372570908e+01 0 0 0
1808 1 8.9990045264071430e+00 2.7724666819224857e+00 1.0996053928031394e+01 0 0 0
1718 1 4.1736965714210097e+00 4.0237662188445116e+00 1.4113083489990906e+01 3 2 0
6573 1 3.2238988036312159e+00 6.6494684632699466e+00 9.8095266620890111e+00 2 1 1
6349 1 8.1993143995883411e-01 7.5664870425840105e+00 1.4206412237504487e+01 -2 -2 1
2157 1 1.6890226047708681e+00 4.6035789121327877e+00 1.0966866621510587e+01 2 0 1
1470 1 1.5419711365970934e+00 4.8896203361005082e+00 1.3768970136879778e+01 -1 0 1
3901 1 5.8480913454613654e+00 5.9555655058589165e+00 1.0757378572370586e+01 -1 -2 1
3361 1 5.9791449719728371e+00 5.8114605687159102e+00 1.3429134902846213e+01 2 0 0
2104 1 8.2491978623596136e+00 5.3319380722111021e+00 1.4396463995316594e+01 5 2 0
2169 1 9.9842970768919574e+00 6.9743464563668471e+00 1.3119273702248597e+01 -2 -2 0
284 1 1.0390282099311843e+01 7.2055823516535416e+00 1.0560012212854241e+01 -1 -1 0
3062 1 2.4190724343056424e+00 9.0799694583418056e+00 1.0224003128925714e+01 2 1 1
1939 1 2.2872640472878087e+00 9.5069117998907533e+00 1.3079713763141598e+01 -1 -2 0
468 1 7.7969787598312861e+00 7.7187592121866837e+00 1.0110628729252515e+01 2 0 1
3568 1 5.0854004332349056e+00 1.1181905246093274e+01 1.1215334637003712e+01 0 -1 0
3448 1 6.7144694172107275e+00 9.2232004332190094e+00 1.2120322229954644e+01 3 -2 0
1801 1 1.0133013416608874e+01 4.2928386892311776e-01 1.0339398435524886e+01 -2 0 0
5683 1 7.0991467731982718e+00 1.2493845385389990e+00 1.5363171454655869e-01 -1 2 1
5656 1 2.1229561460680242e+00 1.1749219919296962e+01 7.4177769383590608e-01 2 2 1
3871 1 8.9120222902491832e+00 1.2214252594313995e+01 4.2839985756616272e-01 -1 1 1
3534 1 1.2057697526710918e+01 9.2112321289805461e+00 1.9175799588487052e-01 2 1 0
3529 1 4.3761198768612741e-01 8.2647048185304506e+00 2.0792578125632520e+01 -1 1 1
798 2 1.1074500000000002e+01 9.2355835810918343e+00 2.6765198650056195e+01 0 0 0
4960 1 4.8822161952998462e+00 1.6590716190482664e+00 1.7190671658123403e+01 1 1 1
3793 1 7.4642173872198745e+00 9.4548679004643310e-01 1.7228486174689067e+01 1 -2 1
6697 1 9.0218108918525015e+00 2.8221334198165864e+00 1.7669708154633231e+01 1 2 0
5328 1 1.1399147406154093e+01 2.2252197763588790e+00 1.6985099049032687e+01 3 -1 0
3400 1 1.2603209327385656e+00 5.5035817058942191e+00 1.7751350357989455e+01 -4 5 0
2285 1 4.0273599752100386e+00 4.5706476862270673e+00 1.6617464146714195e+01 4 3 0
1346 1 6.2048856440681599e-01 7.7458286912169934e+00 1.6600440058058197e+01 1 1 1
5548 1 5.8148123364119986e+00 6.4809166284710686e+00 1.7307454389425150e+01 -1 -1 1
6480 1 8.2538653433545566e+00 5.5891140632311229e+00 1.7352471157427047e+01 -1 1 1
6474 1 9.9838989568034755e+00 7.6050887672204102e+00 1.7273088550453714e+01 0 -1 1
6650 1 2.3771110139053802e+00 9.7995084408112678e+00 1.7123292774777713e+01 0 2 0
792 2 8.6134999999999984e+00 1.0656442593567498e+01 2.6765198650056195e+01 0 0 0
1384 1 4.9721780657275048e+00 8.9452595477176367e+00 1.6458071079901270e+01 -2 1 1
591 1 6.5872097071920717e+00 1.1020609307608323e+01 1.7178460515070775e+01 0 -1 1
5183 1 6.2624098733557307e+00 1.1056668237905514e+01 1.9618736742334580e+01 1 -2 0
841 2 1.2304999999999998e+01 1.1366872099805333e+01 2.6765198650056195e+01 0 0 0
4768 1 9.1411295439165219e+00 1.0179783355748446e+01 1.6503032024005858e+01 0 1 1
796 2 9.8440000000000012e+00 8.5251540748539956e+00 2.6765198650056195e+01 0 0 0
1987 1 4.3387374252496853e+00 1.6642004058169027e+00 2.3178291057722152e+01 1 -1 0
611 1 5.6007789916457096e-01 5.4348318943952267e-01 1.7482949595525952e+01 -2 -1 1
3766 1 2.5670740811331028e-01 6.3313593738141660e-01 2.0344275551267149e+01 -2 1 0
3950 1 4.5104984352377988e+00 2.1366172713709113e+00 1.9953571706079650e+01 0 3 1
322 1 6.9379779799243284e+00 7.3446182566120211e-01 2.0498881271585486e+01 -2 0 0
5259 1 6.6458633197579413e+00 1.0086442847652000e+00 2.3296490585601976e+01 2 1 0
1810 1 8.9360390254572941e+00 2.9379176704300791e+00 2.0425584888625277e+01 -1 2 0
1917 1 1.1609728355984897e+01 2.2972261686657220e+00 2.0948512861645245e+01 -2 3 1
5272 1 1.1233264931317304e+01 2.1310229528255311e+00 2.3803840304895722e+01 -3 2 0
384 1 8.6573258453263300e+00 2.8840516304980075e+00 2.3340696846708834e+01 -2 1 0
1383 1 1.4008468317661320e+00 5.6401512134811602e+00 2.0449864404197942e+01 -1 1 1
5613 1 1.1033536402287586e+01 1.2086642332648182e+01 1.6867674179878076e+01 -1 -1 0
2309 1 6.0736843676580232e-01 8.2183105693910647e+00 2.3746854098079975e+01 1 4 1
4706 1 1.5145753589035778e+00 5.3110355902996718e+00 2.3986982014534448e+01 -1 1 1
3716 1 3.8039795433033903e+00 4.4270059130234491e+00 2.3464727516887280e+01 -2 -1 1
3582 1 3.9943881000343953e+00 4.7169949792609875e+00 2.0823633842947544e+01 2 -2 0
1377 1 5.6184196887137565e+00 6.4586055054641580e+00 1.9770584620893366e+01 1 6 1
31 1 5.5768473966909502e+00 6.5316544575510314e+00 2.4301082991940284e+01 6 2 1
5203 1 7.8572308803161794e+00 5.6221273304390271e+00 2.3257538809048874e+01 -2 3 0
6655 1 8.0821034928263771e+00 5.7271668790455879e+00 2.0627195515051895e+01 6 -1 0
5452 1 9.8591337681664655e+00 8.0093304203747220e+00 1.9863440631942890e+01 2 1 0
4755 1 2.1982652857170013e+00 9.9000837267440769e+00 1.9691275234644614e+01 2 2 1
346 1 2.3609030195829641e+00 9.9405648900180346e+00 2.4338950595399989e+01 -4 -2 0
442 1 4.6270899530428808e+00 8.9376866456879398e+00 2.0562988067683438e+01 3 1 0
4952 1 4.8668778878183900e+00 9.1146168288029337e+00 2.3564556627332273e+01 -1 0 1
5396 1 6.5934246110080474e+00 1.1124944520328452e+01 2.3970102226842087e+01 2 -1 0
5059 1 9.6950514630038285e+00 7.8050529808749669e+00 2.3943721454731893e+01 1 -1 1
4838 1 9.0652398099771574e+00 1.0536232511184195e+01 2.0184850681468600e+01 -1 -2 1
5576 1 9.0438952257494876e+00 1.0290608580211106e+01 2.2981786513189643e+01 1 0 1
751 2 8.6134999999999984e+00 9.2355835810918343e+00 2.6765198650056195e+01 0 0 0
618 2 0.0000000000000000e+00 2.8417180249513345e+00 2.6765198650056195e+01 0 0 0
620 2 0.0000000000000000e+00 0.0000000000000000e+00 2.6765198650056195e+01 0 0 0
622 2 1.2305000000000001e+00 7.1042950623783474e-01 2.6765198650056195e+01 0 0 0
629 2 1.2305000000000001e+00 2.1312885187134998e+00 2.6765198650056195e+01 0 0 0
631 2 2.4610000000000003e+00 2.8417180249513345e+00 2.6765198650056195e+01 0 0 0
633 2 2.4610000000000003e+00 0.0000000000000000e+00 2.6765198650056195e+01 0 0 0
635 2 3.6915000000000004e+00 7.1042950623783474e-01 2.6765198650056195e+01 0 0 0
650 2 3.6914999999999996e+00 2.1312885187134998e+00 2.6765198650056195e+01 0 0 0
652 2 4.9220000000000006e+00 2.8417180249513332e+00 2.6765198650056195e+01 0 0 0
654 2 4.9220000000000006e+00 0.0000000000000000e+00 2.6765198650056195e+01 0 0 0
656 2 6.1524999999999999e+00 7.1042950623783407e-01 2.6765198650056195e+01 0 0 0
679 2 6.1524999999999999e+00 2.1312885187134989e+00 2.6765198650056195e+01 0 0 0
681 2 7.3829999999999991e+00 2.8417180249513345e+00 2.6765198650056195e+01 0 0 0
683 2 7.3829999999999991e+00 0.0000000000000000e+00 2.6765198650056195e+01 0 0 0
685 2 8.6134999999999984e+00 7.1042950623783407e-01 2.6765198650056195e+01 0 0 0
716 2 8.6134999999999984e+00 2.1312885187135002e+00 2.6765198650056195e+01 0 0 0
718 2 9.8440000000000012e+00 2.8417180249513332e+00 2.6765198650056195e+01 0 0 0
720 2 9.8440000000000012e+00 0.0000000000000000e+00 2.6765198650056195e+01 0 0 0
722 2 1.1074500000000002e+01 7.1042950623783330e-01 2.6765198650056195e+01 0 0 0
761 2 1.1074500000000002e+01 2.1312885187135002e+00 2.6765198650056195e+01 0 0 0
623 2 0.0000000000000000e+00 7.1042950623783341e+00 2.6765198650056195e+01 0 0 0
625 2 0.0000000000000000e+00 4.2625770374269996e+00 2.6765198650056195e+01 0 0 0
627 2 1.2305000000000001e+00 4.9730065436648339e+00 2.6765198650056195e+01 0 0 0
642 2 1.2305000000000001e+00 6.3938655561404980e+00 2.6765198650056195e+01 0 0 0
644 2 2.4610000000000003e+00 7.1042950623783341e+00 2.6765198650056195e+01 0 0 0
646 2 2.4610000000000003e+00 4.2625770374269996e+00 2.6765198650056195e+01 0 0 0
648 2 3.6914999999999996e+00 4.9730065436648339e+00 2.6765198650056195e+01 0 0 0
671 2 3.6914999999999996e+00 6.3938655561404980e+00 2.6765198650056195e+01 0 0 0
673 2 4.9220000000000006e+00 7.1042950623783341e+00 2.6765198650056195e+01 0 0 0
675 2 4.9220000000000006e+00 4.2625770374269978e+00 2.6765198650056195e+01 0 0 0
677 2 6.1524999999999999e+00 4.9730065436648339e+00 2.6765198650056195e+01 0 0 0
708 2 6.1524999999999999e+00 6.3938655561404980e+00 2.6765198650056195e+01 0 0 0
710 2 7.3830000000000009e+00 7.1042950623783341e+00 2.6765198650056195e+01 0 0 0
712 2 7.3829999999999991e+00 4.2625770374269996e+00 2.6765198650056195e+01 0 0 0
714 2 8.6135000000000002e+00 4.9730065436648339e+00 2.6765198650056195e+01 0 0 0
753 2 8.6135000000000002e+00 6.3938655561404980e+00 2.6765198650056195e+01 0 0 0
755 2 9.8440000000000012e+00 7.1042950623783341e+00 2.6765198650056195e+01 0 0 0
757 2 9.8440000000000012e+00 4.2625770374270004e+00 2.6765198650056195e+01 0 0 0
759 2 1.1074500000000002e+01 4.9730065436648339e+00 2.6765198650056195e+01 0 0 0
800 2 1.1074500000000002e+01 6.3938655561404980e+00 2.6765198650056195e+01 0 0 0
700 2 3.6914999999999996e+00 1.0656442593567499e+01 2.6765198650056195e+01 0 0 0
669 2 3.6915000000000004e+00 9.2355835810918343e+00 2.6765198650056195e+01 0 0 0
667 2 2.4610000000000003e+00 8.5251540748539991e+00 2.6765198650056195e+01 0 0 0
636 2 0.0000000000000000e+00 1.1366872099805333e+01 2.6765198650056195e+01 0 0 0
638 2 0.0000000000000000e+00 8.5251540748539991e+00 2.6765198650056195e+01 0 0 0
640 2 1.2305000000000001e+00 9.2355835810918343e+00 2.6765198650056195e+01 0 0 0
663 2 1.2305000000000001e+00 1.0656442593567498e+01 2.6765198650056195e+01 0 0 0
665 2 2.4610000000000003e+00 1.1366872099805333e+01 2.6765198650056195e+01 0 0 0
747 2 7.3829999999999991e+00 1.1366872099805333e+01 2.6765198650056195e+01 0 0 0
745 2 6.1524999999999999e+00 1.0656442593567499e+01 2.6765198650056195e+01 0 0 0
704 2 4.9220000000000006e+00 8.5251540748539991e+00 2.6765198650056195e+01 0 0 0
702 2 4.9220000000000006e+00 1.1366872099805333e+01 2.6765198650056195e+01 0 0 0
749 2 7.3830000000000009e+00 8.5251540748539991e+00 2.6765198650056195e+01 0 0 0
706 2 6.1524999999999999e+00 9.2355835810918343e+00 2.6765198650056195e+01 0 0 0
794 2 9.8440000000000012e+00 1.1366872099805333e+01 2.6765198650056195e+01 0 0 0
839 2 1.1074500000000002e+01 1.0656442593567498e+01 2.6765198650056195e+01 0 0 0
3642 1 4.2886944407822769e-01 6.6903355253442209e-01 2.3626550595221502e+01 1 0 1
3990 1 2.9687572259989938e+00 1.3220313350411747e-02 2.1039852351887795e+01 -3 2 1
3278 1 1.6125313329988222e+00 1.2228693881750038e+01 1.6370185335674730e+01 0 1 0
4856 1 1.2251626767401175e+01 7.1714187542087489e+00 2.3883069190731103e+01 -2 1 1
1547 1 1.0985020645752474e+01 1.2190601809167649e+01 2.3661545764343423e+01 -1 -1 0
619 2 0.0000000000000000e+00 1.4208590124756650e+00 3.0030999999992058e+01 0 0 0
621 2 0.0000000000000000e+00 0.0000000000000000e+00 3.0030999999992058e+01 0 0 0
628 2 1.2305000000000001e+00 3.5521475311891644e+00 3.0030999999992058e+01 0 0 0
630 2 1.2305000000000001e+00 2.1312885187134998e+00 3.0030999999992058e+01 0 0 0
632 2 2.4610000000000003e+00 1.4208590124756650e+00 3.0030999999992058e+01 0 0 0
634 2 2.4610000000000003e+00 0.0000000000000000e+00 3.0030999999992058e+01 0 0 0
649 2 3.6914999999999996e+00 3.5521475311891644e+00 3.0030999999992058e+01 0 0 0
651 2 3.6914999999999996e+00 2.1312885187134998e+00 3.0030999999992058e+01 0 0 0
947 2 0.0000000000000000e+00 2.8417180249513345e+00 3.3296801349922163e+01 0 0 0
948 2 0.0000000000000000e+00 0.0000000000000000e+00 3.3296801349922163e+01 0 0 0
949 2 1.2305000000000001e+00 7.1042950623783474e-01 3.3296801349922163e+01 0 0 0
953 2 1.2305000000000001e+00 2.1312885187134998e+00 3.3296801349922163e+01 0 0 0
954 2 2.4610000000000003e+00 2.8417180249513345e+00 3.3296801349922163e+01 0 0 0
955 2 2.4610000000000003e+00 0.0000000000000000e+00 3.3296801349922163e+01 0 0 0
956 2 3.6915000000000004e+00 7.1042950623783474e-01 3.3296801349922163e+01 0 0 0
964 2 3.6914999999999996e+00 2.1312885187134998e+00 3.3296801349922163e+01 0 0 0
653 2 4.9220000000000006e+00 1.4208590124756650e+00 3.0030999999992058e+01 0 0 0
655 2 4.9220000000000006e+00 0.0000000000000000e+00 3.0030999999992058e+01 0 0 0
678 2 6.1524999999999999e+00 3.5521475311891644e+00 3.0030999999992058e+01 0 0 0
680 2 6.1524999999999999e+00 2.1312885187134989e+00 3.0030999999992058e+01 0 0 0
682 2 7.3829999999999991e+00 1.4208590124756659e+00 3.0030999999992058e+01 0 0 0
684 2 7.3829999999999991e+00 0.0000000000000000e+00 3.0030999999992058e+01 0 0 0
965 2 4.9220000000000006e+00 2.8417180249513332e+00 3.3296801349922163e+01 0 0 0
966 2 4.9220000000000006e+00 0.0000000000000000e+00 3.3296801349922163e+01 0 0 0
967 2 6.1524999999999999e+00 7.1042950623783407e-01 3.3296801349922163e+01 0 0 0
979 2 6.1524999999999999e+00 2.1312885187134989e+00 3.3296801349922163e+01 0 0 0
980 2 7.3829999999999991e+00 2.8417180249513345e+00 3.3296801349922163e+01 0 0 0
981 2 7.3829999999999991e+00 0.0000000000000000e+00 3.3296801349922163e+01 0 0 0
715 2 8.6134999999999984e+00 3.5521475311891657e+00 3.0030999999992058e+01 0 0 0
717 2 8.6134999999999984e+00 2.1312885187135002e+00 3.0030999999992058e+01 0 0 0
719 2 9.8440000000000012e+00 1.4208590124756659e+00 3.0030999999992058e+01 0 0 0
721 2 9.8440000000000012e+00 0.0000000000000000e+00 3.0030999999992058e+01 0 0 0
760 2 1.1074500000000002e+01 3.5521475311891644e+00 3.0030999999992058e+01 0 0 0
762 2 1.1074500000000002e+01 2.1312885187135002e+00 3.0030999999992058e+01 0 0 0
982 2 8.6134999999999984e+00 7.1042950623783407e-01 3.3296801349922163e+01 0 0 0
998 2 8.6134999999999984e+00 2.1312885187135002e+00 3.3296801349922163e+01 0 0 0
999 2 9.8440000000000012e+00 2.8417180249513332e+00 3.3296801349922163e+01 0 0 0
1000 2 9.8440000000000012e+00 0.0000000000000000e+00 3.3296801349922163e+01 0 0 0
1001 2 1.1074500000000002e+01 7.1042950623783330e-01 3.3296801349922163e+01 0 0 0
1021 2 1.1074500000000002e+01 2.1312885187135002e+00 3.3296801349922163e+01 0 0 0
624 2 0.0000000000000000e+00 5.6834360499026637e+00 3.0030999999992058e+01 0 0 0
626 2 0.0000000000000000e+00 4.2625770374269996e+00 3.0030999999992058e+01 0 0 0
641 2 1.2305000000000001e+00 7.8147245686161639e+00 3.0030999999992058e+01 0 0 0
643 2 1.2305000000000001e+00 6.3938655561404980e+00 3.0030999999992058e+01 0 0 0
645 2 2.4610000000000003e+00 5.6834360499026637e+00 3.0030999999992058e+01 0 0 0
647 2 2.4610000000000003e+00 4.2625770374269996e+00 3.0030999999992058e+01 0 0 0
670 2 3.6914999999999996e+00 7.8147245686161639e+00 3.0030999999992058e+01 0 0 0
672 2 3.6914999999999996e+00 6.3938655561404980e+00 3.0030999999992058e+01 0 0 0
950 2 0.0000000000000000e+00 7.1042950623783341e+00 3.3296801349922163e+01 0 0 0
951 2 0.0000000000000000e+00 4.2625770374269996e+00 3.3296801349922163e+01 0 0 0
952 2 1.2305000000000001e+00 4.9730065436648339e+00 3.3296801349922163e+01 0 0 0
960 2 1.2305000000000001e+00 6.3938655561404980e+00 3.3296801349922163e+01 0 0 0
961 2 2.4610000000000003e+00 7.1042950623783341e+00 3.3296801349922163e+01 0 0 0
962 2 2.4610000000000003e+00 4.2625770374269996e+00 3.3296801349922163e+01 0 0 0
963 2 3.6914999999999996e+00 4.9730065436648339e+00 3.3296801349922163e+01 0 0 0
975 2 3.6914999999999996e+00 6.3938655561404980e+00 3.3296801349922163e+01 0 0 0
674 2 4.9220000000000006e+00 5.6834360499026637e+00 3.0030999999992058e+01 0 0 0
676 2 4.9220000000000006e+00 4.2625770374269978e+00 3.0030999999992058e+01 0 0 0
707 2 6.1524999999999999e+00 7.8147245686161639e+00 3.0030999999992058e+01 0 0 0
709 2 6.1524999999999999e+00 6.3938655561404980e+00 3.0030999999992058e+01 0 0 0
711 2 7.3829999999999991e+00 5.6834360499026637e+00 3.0030999999992058e+01 0 0 0
713 2 7.3829999999999991e+00 4.2625770374269996e+00 3.0030999999992058e+01 0 0 0
976 2 4.9220000000000006e+00 7.1042950623783341e+00 3.3296801349922163e+01 0 0 0
977 2 4.9220000000000006e+00 4.2625770374269978e+00 3.3296801349922163e+01 0 0 0
978 2 6.1524999999999999e+00 4.9730065436648339e+00 3.3296801349922163e+01 0 0 0
994 2 6.1524999999999999e+00 6.3938655561404980e+00 3.3296801349922163e+01 0 0 0
995 2 7.3830000000000009e+00 7.1042950623783341e+00 3.3296801349922163e+01 0 0 0
996 2 7.3829999999999991e+00 4.2625770374269996e+00 3.3296801349922163e+01 0 0 0
752 2 8.6135000000000002e+00 7.8147245686161639e+00 3.0030999999992058e+01 0 0 0
754 2 8.6135000000000002e+00 6.3938655561404980e+00 3.0030999999992058e+01 0 0 0
756 2 9.8440000000000012e+00 5.6834360499026637e+00 3.0030999999992058e+01 0 0 0
758 2 9.8440000000000012e+00 4.2625770374270004e+00 3.0030999999992058e+01 0 0 0
799 2 1.1074500000000002e+01 7.8147245686161639e+00 3.0030999999992058e+01 0 0 0
801 2 1.1074500000000002e+01 6.3938655561404980e+00 3.0030999999992058e+01 0 0 0
997 2 8.6135000000000002e+00 4.9730065436648339e+00 3.3296801349922163e+01 0 0 0
1017 2 8.6135000000000002e+00 6.3938655561404980e+00 3.3296801349922163e+01 0 0 0
1018 2 9.8440000000000012e+00 7.1042950623783341e+00 3.3296801349922163e+01 0 0 0
1019 2 9.8440000000000012e+00 4.2625770374270004e+00 3.3296801349922163e+01 0 0 0
1020 2 1.1074500000000002e+01 4.9730065436648339e+00 3.3296801349922163e+01 0 0 0
1041 2 1.1074500000000002e+01 6.3938655561404980e+00 3.3296801349922163e+01 0 0 0
637 2 0.0000000000000000e+00 9.9460130873296642e+00 3.0030999999992058e+01 0 0 0
639 2 0.0000000000000000e+00 8.5251540748539991e+00 3.0030999999992058e+01 0 0 0
662 2 1.2305000000000001e+00 1.2077301606043163e+01 3.0030999999992058e+01 0 0 0
664 2 1.2305000000000001e+00 1.0656442593567498e+01 3.0030999999992058e+01 0 0 0
666 2 2.4610000000000003e+00 9.9460130873296642e+00 3.0030999999992058e+01 0 0 0
668 2 2.4610000000000003e+00 8.5251540748539991e+00 3.0030999999992058e+01 0 0 0
699 2 3.6914999999999996e+00 1.2077301606043163e+01 3.0030999999992058e+01 0 0 0
701 2 3.6914999999999996e+00 1.0656442593567499e+01 3.0030999999992058e+01 0 0 0
957 2 0.0000000000000000e+00 1.1366872099805333e+01 3.3296801349922163e+01 0 0 0
958 2 0.0000000000000000e+00 8.5251540748539991e+00 3.3296801349922163e+01 0 0 0
959 2 1.2305000000000001e+00 9.2355835810918343e+00 3.3296801349922163e+01 0 0 0
971 2 1.2305000000000001e+00 1.0656442593567498e+01 3.3296801349922163e+01 0 0 0
972 2 2.4610000000000003e+00 1.1366872099805333e+01 3.3296801349922163e+01 0 0 0
973 2 2.4610000000000003e+00 8.5251540748539991e+00 3.3296801349922163e+01 0 0 0
974 2 3.6915000000000004e+00 9.2355835810918343e+00 3.3296801349922163e+01 0 0 0
990 2 3.6914999999999996e+00 1.0656442593567499e+01 3.3296801349922163e+01 0 0 0
703 2 4.9220000000000006e+00 9.9460130873296642e+00 3.0030999999992058e+01 0 0 0
705 2 4.9220000000000006e+00 8.5251540748539991e+00 3.0030999999992058e+01 0 0 0
744 2 6.1524999999999999e+00 1.2077301606043163e+01 3.0030999999992058e+01 0 0 0
746 2 6.1524999999999999e+00 1.0656442593567499e+01 3.0030999999992058e+01 0 0 0
748 2 7.3830000000000009e+00 9.9460130873296642e+00 3.0030999999992058e+01 0 0 0
750 2 7.3830000000000009e+00 8.5251540748539991e+00 3.0030999999992058e+01 0 0 0
991 2 4.9220000000000006e+00 1.1366872099805333e+01 3.3296801349922163e+01 0 0 0
992 2 4.9220000000000006e+00 8.5251540748539991e+00 3.3296801349922163e+01 0 0 0
993 2 6.1524999999999999e+00 9.2355835810918343e+00 3.3296801349922163e+01 0 0 0
1013 2 6.1524999999999999e+00 1.0656442593567499e+01 3.3296801349922163e+01 0 0 0
1014 2 7.3829999999999991e+00 1.1366872099805333e+01 3.3296801349922163e+01 0 0 0
1015 2 7.3830000000000009e+00 8.5251540748539991e+00 3.3296801349922163e+01 0 0 0
791 2 8.6135000000000002e+00 1.2077301606043163e+01 3.0030999999992058e+01 0 0 0
793 2 8.6134999999999984e+00 1.0656442593567498e+01 3.0030999999992058e+01 0 0 0
795 2 9.8440000000000012e+00 9.9460130873296642e+00 3.0030999999992058e+01 0 0 0
797 2 9.8440000000000012e+00 8.5251540748539956e+00 3.0030999999992058e+01 0 0 0
838 2 1.1074500000000002e+01 1.2077301606043163e+01 3.0030999999992058e+01 0 0 0
840 2 1.1074500000000002e+01 1.0656442593567498e+01 3.0030999999992058e+01 0 0 0
1016 2 8.6134999999999984e+00 9.2355835810918343e+00 3.3296801349922163e+01 0 0 0
1037 2 8.6134999999999984e+00 1.0656442593567498e+01 3.3296801349922163e+01 0 0 0
1038 2 9.8440000000000012e+00 1.1366872099805333e+01 3.3296801349922163e+01 0 0 0
1039 2 9.8440000000000012e+00 8.5251540748539956e+00 3.3296801349922163e+01 0 0 0
1040 2 1.1074500000000002e+01 9.2355835810918343e+00 3.3296801349922163e+01 0 0 0
1061 2 1.1074500000000002e+01 1.0656442593567498e+01 3.3296801349922163e+01 0 0 0
1062 2 1.2304999999999998e+01 1.1366872099805333e+01 3.3296801349922163e+01 0 0 0
3064 1 1.8261684524193456e+00 2.7772904497099997e+00 3.6498579965929466e+01 2 -1 0
5141 1 1.9773317596992948e+00 2.9973270868821480e+00 3.9227018768642807e+01 0 1 -1
3196 1 1.1854830310853743e+01 1.0099067938494953e+01 3.5679280240536357e+01 -1 -2 0
5473 1 4.1131341449228627e+00 1.1676788651365781e+01 3.5474641135284344e+01 -1 -1 -1
4793 1 4.3312165176872925e+00 2.0451782222427810e+00 3.5931002862406544e+01 1 2 0
5277 1 4.6719343290496891e+00 1.9036945415597886e+00 3.9024096921788981e+01 2 1 -1
1414 1 1.1893480909386616e+01 9.7055017926493061e+00 4.2323565813322446e+01 0 0 0
4907 1 9.4841569196196307e+00 4.7985132262890856e-01 3.5796128641711519e+01 0 2 0
110 1 8.6104504930374439e+00 3.3432181747999632e+00 3.6326620185557132e+01 -1 1 -1
5207 1 8.9759633276217787e+00 3.7811275368204140e+00 3.8814278751405638e+01 1 0 -1
2218 1 9.6897113115664659e+00 1.1282303741532353e+00 3.9267624933549655e+01 -1 0 -1
299 1 9.4595230034755862e-01 5.4962916562447992e+00 3.8900135312596746e+01 1 0 -1
3521 1 5.8314828663150853e-01 5.5919207616537161e+00 3.6240165504500069e+01 1 1 0
5372 1 2.6648004589732928e+00 7.2870731342515960e+00 3.6329338948981714e+01 -3 -1 -1
5316 1 2.8442262728063210e+00 7.6707043660318632e+00 3.9438482391333281e+01 -1 1 -1
1592 1 5.8008351764941706e+00 4.2024693437944336e+00 3.6374262561066303e+01 0 -2 0
3676 1 6.3553793210943557e+00 4.1479793832812151e+00 3.9179461328657311e+01 6 0 -1
4963 1 5.4768976863945191e+00 7.0417757604105642e+00 3.9222023982609386e+01 -2 2 0
3119 1 5.3529571463598602e+00 6.8637036893087222e+00 3.6638212519483318e+01 4 1 0
5040 1 1.0248266780072488e+01 5.1800489741571978e+00 3.5601257440068821e+01 0 0 0
3976 1 1.0775623754921831e+01 5.7569546156213809e+00 3.9299507921834277e+01 3 3 0
113 1 9.9714697235871892e+00 7.9978439746153489e+00 3.6301857747899831e+01 1 -3 -1
2012 1 2.0741923097689465e+00 1.0113436661774719e+01 3.6169878857292943e+01 -2 0 0
2314 1 2.0603402024400319e+00 1.0264648468603351e+01 3.8713977002350674e+01 2 1 0
6527 1 4.0890762380464167e+00 1.1860652202838789e+01 4.2637336186901479e+01 1 -2 0
2097 1 7.3148651479512861e+00 8.7867865552838325e+00 3.6164011415025428e+01 -2 -1 -1
6560 1 6.5377992316756881e+00 1.1616339851386872e+01 3.8717666180175684e+01 2 2 -1
368 1 6.6343710045989690e+00 1.1308135265430208e+01 3.5991075607599697e+01 0 0 -1
1633 1 7.0287105106980121e+00 9.1371517750405449e+00 3.9568491955387131e+01 -1 0 0
5430 1 2.1885032591716058e+00 9.9968779655556439e+00 4.2941020015117786e+01 2 1 -1
307 1 9.5251114756860300e+00 8.1340076573936226e+00 3.9084087118822666e+01 0 -1 -1
3476 1 1.1609296937410422e+01 9.9277159546561311e+00 3.9922549516326441e+01 -1 0 0
5301 1 6.8305726825679329e+00 1.1026325999827012e+01 4.3056268983635661e+01 1 1 -1
444 1 1.8439864681493450e+00 3.2912443308593464e+00 4.1963837565728696e+01 -3 1 -1
4844 1 7.0968565746982106e+00 8.6565962391156202e+00 4.2286346712153232e+01 2 2 0
4731 1 4.2754513600634478e+00 2.3002030077155684e+00 4.2911329979395077e+01 1 0 0
3860 1 9.8967257931778949e+00 9.9766229049269506e-01 4.2321086675745704e+01 2 -1 -1
6367 1 8.7899317831954793e+00 3.6178910392187347e+00 4.3016474146384809e+01 -3 2 0
3939 1 1.1260746452253215e+01 1.2096921330597530e+01 4.3207501172706003e+01 -2 1 -1
1397 1 9.1123241541197464e-01 5.5699706459204865e+00 4.2990426796777868e+01 2 0 0
6684 1 2.8992036427052863e+00 7.2527382872674879e+00 4.2290550493828746e+01 -2 1 0
3176 1 6.3585935923837944e+00 4.1066066177724156e+00 4.2144618478178302e+01 2 -2 0
5449 1 5.4594938829128727e+00 6.6515369703278724e+00 4.3233771172151805e+01 0 -2 -1
1946 1 1.0001269551228747e+01 7.8402409290349118e+00 4.2922419958855969e+01 1 -1 -1
3671 1 1.0522353613995552e+01 5.5961692181175797e+00 4.1924438217822427e+01 -2 -2 -1
3447 1 3.9981177355114141e+00 1.1791160204336204e+01 3.9805903097780558e+01 1 -1 -1
5237 1 3.5989985929514429e-01 8.2791044658492752e-01 4.2841500252927432e+01 -1 2 0
4719 1 2.3315604838696657e-01 7.2354192945830742e-01 3.9133158095587419e+01 1 2 0
490 1 1.6973708025417633e+00 3.2078805819298366e+00 4.6267258517283025e+01 0 -2 0
5155 1 1.8498264938674434e+00 3.6178927370137224e+00 4.8935046847937940e+01 1 0 -1
154 1 1.1253722515357941e+01 1.1909542885945609e+01 5.3866336255472746e+01 1 -2 -1
6500 1 4.2223639212947983e+00 2.7703186805260631e+00 4.5670960275285424e+01 2 1 0
4798 1 7.3368872160344774e+00 1.7654796382591142e+00 5.0278619123198354e+01 1 4 0
1844 1 5.0621016277074879e+00 6.8513256764445152e-01 4.9188414975506959e+01 -1 -1 -1
5551 1 1.8936822664707045e+00 1.1911804118248352e+01 5.0372948911903350e+01 2 0 0