
# Create simulation box and atoms

read_data data.graphite_substrate_500
  orthogonal box = (0 0 -0.518223) to (49.22 49.0196 60.5802)
  4 by 4 by 4 MPI processor grid
  reading atoms ...
  6750 atoms
  reading velocities ...
  6750 velocities
group water type 1
3990 atoms in group water
group graphite type 2
2760 atoms in group graphite

# Define potential

pair_style sw
pair_coeff * * mWC.sw mW C
Reading potential file mWC.sw with DATE: 2019-02-27


# Fix graphite atoms in place

fix 5 graphite setforce 0.0 0.0 0.0
velocity graphite set 0.0 0.0 0.0


# Equilibration of molecular water

# Add velocity/set timestep

velocity	    water create ${TEMP} ${SEED} rot yes dist gaussian
velocity	    water create 225 ${SEED} rot yes dist gaussian
velocity	    water create 225 9591 rot yes dist gaussian
timestep	    5.0

# Define output

compute			1 water msd
compute			3 water temp
thermo	    	50
thermo_style	custom step temp press vol etotal ke pe c_1[4] c_3

# Neighbor lists

neigh_modify    delay 0 every 1 check yes

# Set fixes

fix             1 water momentum 10 linear 1 1 1 rescale
fix             2 water nve
fix             3 water temp/csvr ${TEMP} ${TEMP} 500.0 ${SEED}
fix             3 water temp/csvr 225 ${TEMP} 500.0 ${SEED}
fix             3 water temp/csvr 225 225 500.0 ${SEED}
fix             3 water temp/csvr 225 225 500.0 9591
fix             4 water press/berendsen z ${PRES} ${PRES} 1000.0 modulus 20000
fix             4 water press/berendsen z -500 ${PRES} 1000.0 modulus 20000
fix             4 water press/berendsen z -500 -500 1000.0 modulus 20000

# Run 0.5 ns equilibration

dump		    1 all atom 2000 ${DIR}/eq.${NAME}-${TEMP}.dump
dump		    1 all atom 2000 run_18/eq.${NAME}-${TEMP}.dump
dump		    1 all atom 2000 run_18/eq.het_freeze_18-${TEMP}.dump
dump		    1 all atom 2000 run_18/eq.het_freeze_18-225.dump

reset_timestep  0

run	            100000
Neighbor list info ...
  update every 1 steps, delay 0 steps, check yes
  max neighbors/atom: 2000, page size: 100000
  master list distance cutoff = 7.76
  ghost atom cutoff = 7.76
  binsize = 3.88, bins = 13 13 16
  1 neighbor lists, perpetual/occasional/extra = 1 0 0
  (1) pair sw, perpetual
      attributes: full, newton on
      pair build: full/bin/atomonly
      stencil: full/bin/3d
      bin: standard
Per MPI rank memory allocation (min/avg/max) = 4.083 | 4.203 | 4.508 Mbytes
Step Temp Press Volume TotEng KinEng PotEng c_1[4] c_3 
       0    132.98637   -1273.0418    147415.06    -35990.25    2675.3515   -38665.602            0          225 
      50    173.54021   -1163.4744    146951.21    -36449.89     3491.193   -39941.083   0.83841179    293.61316 
     100    164.74536   -1112.5462    146613.75   -36803.717    3314.2627    -40117.98    1.8405202    278.73313 
     150    163.28915   -1412.6173    146212.85   -37099.322    3284.9674    -40384.29    2.6426995    276.26936 
     200    158.95341   -1496.1516    145850.21   -37357.819    3197.7431   -40555.562    3.3991555     268.9337 
     250    156.24666   -1300.5203    145429.02   -37616.477    3143.2903   -40759.767    4.0753901    264.35416 
     300     154.3041   -1034.4138    145095.72   -37743.141    3104.2107   -40847.351    4.7899712    261.06753 
     350     151.4897   -1096.9551    144837.78   -37906.232    3047.5921   -40953.824    5.4831254    256.30584 
     400    150.71754   -990.48044     144570.8    -38012.99    3032.0582   -41045.049    6.1855569    254.99942 
     450    151.02433   -1053.2304    144346.43   -38135.842      3038.23   -41174.072    6.8176611    255.51848 
     500    148.44207   -1174.8629    144217.47   -38256.876    2986.2814   -41243.158     7.413367    251.14954 
     550     146.0834    -1267.124    143898.99   -38402.986    2938.8309   -41341.816    7.9159254     247.1589 
     600    137.04829   -1217.3501    143695.44   -38566.947    2757.0672   -41324.014    8.3837071    231.87237 
     650     139.6168   -920.70572    143604.16   -38635.538    2808.7392   -41444.277    8.6989389    236.21804 
     700    139.44515   -837.64319    143495.59   -38734.834    2805.2859    -41540.12    9.1981737    235.92762 
     750    138.27201   -1046.4539    143358.32   -38795.667    2781.6853   -41577.352     9.700711    233.94278 
     800    136.74715   -831.98751    143327.88   -38907.222     2751.009   -41658.231    10.069212    231.36288 
     850    137.52081   -1050.2866    143190.28   -38951.103    2766.5731   -41717.676    10.447791    232.67183 
     900    137.41396   -723.14952    143130.42   -38977.801    2764.4235   -41742.225    10.761614    232.49105 
     950    136.64165   -544.95778    143098.42   -39027.229    2748.8866   -41776.116    11.079766    231.18438 
    1000    138.32273   -1021.5536    143042.53    -39072.57    2782.7058   -41855.276    11.307644    234.02861 
    1050    136.23257   -877.75701    142910.64   -39138.309    2740.6569   -41878.966    11.732426    230.49225 
    1100    135.33962   -686.68914    142848.98   -39158.254     2722.693   -41880.947    12.155112    228.98147 
    1150    135.49303   -615.67382    142829.87   -39200.917    2725.7792   -41926.697    12.391621    229.24102 
    1200    132.83842   -805.06708       142818   -39246.778    2672.3753   -41919.154    12.675269    224.74969 
    1250    134.48962   -928.82253    142731.96   -39288.957    2705.5931    -41994.55    13.021599    227.54335 
    1300    132.74141    -627.0655    142708.01   -39276.962    2670.4236   -41947.386    13.412298    224.58556 
    1350    132.01919   -728.76045     142675.3   -39350.617    2655.8943   -42006.511    13.649325    223.36363 
    1400    133.81226   -740.81605    142635.09   -39349.119    2691.9664   -42041.085    13.909063    226.39733 
    1450    134.57976   -460.76304    142723.17   -39338.232    2707.4065   -42045.639    14.071935    227.69586 
    1500    134.53709   -813.44859    142830.15   -39381.829    2706.5481   -42088.377    14.313617    227.62367 
    1550    131.19674   -767.55483    142827.16   -39379.142    2639.3488   -42018.491    14.556305    221.97213 
    1600    130.62868   -788.41648    142758.28   -39366.912    2627.9208   -41994.833    14.798203    221.01102 
    1650    134.62558   -666.97322    142785.79   -39359.133    2708.3283   -42067.461    15.091194    227.77338 
    1700    132.27903   -582.51482    142834.45   -39377.883    2661.1216   -42039.005    15.226993    223.80325 
    1750    134.24735   -711.52452    142796.85   -39378.133    2700.7193   -42078.852    15.569629    227.13345 
    1800    134.06687   -571.14965    142844.92    -39406.28    2697.0886   -42103.369    15.823232    226.82811 
    1850    133.86809   -823.37527    142839.75   -39426.468    2693.0895   -42119.558    16.099206    226.49178 
    1900    133.80789   -821.26425    142829.05   -39430.345    2691.8784   -42122.224    16.385667    226.38993 
    1950    133.34745   -737.88148    142773.18    -39453.08    2682.6155   -42135.696     16.68676    225.61091 
    2000    134.12913   -779.56068    142809.04   -39448.453    2698.3411   -42146.794    16.961176    226.93345 
    2050     133.5729   -786.23388    142832.08   -39481.065    2687.1512   -42168.216    17.160311    225.99236 
    2100    135.62572   -821.87039    142876.58   -39445.846    2728.4486   -42174.295    17.354656    229.46552 
    2150    133.84464   -726.79006     142877.8   -39466.682    2692.6177     -42159.3    17.504821    226.45211 
    2200    134.40932   -722.14176    142925.94     -39468.3    2703.9777   -42172.277     17.64192     227.4075 
    2250    134.55596   -729.02795     142850.4   -39440.656    2706.9278   -42147.583    17.764671     227.6556 
    2300    132.73666   -557.43469    142864.53   -39428.391    2670.3279   -42098.719     17.86651    224.57751 
    2350    133.57716   -672.74239    142889.06   -39465.429    2687.2367   -42152.666    18.036768    225.99955 
    2400     134.2018   -792.19832    142857.97   -39483.138     2699.803   -42182.941    18.252278     227.0564 
    2450    138.54614   -813.38199    142909.65   -39462.757    2787.2002   -42249.957    18.472389     234.4066 
    2500    133.52623   -738.42166    142898.27   -39499.796    2686.2122   -42186.008     18.68454    225.91339 
    2550     130.0237   -582.59347    142933.41   -39522.655      2615.75   -42138.405    18.939189    219.98745 
    2600    134.70406   -764.91189    142951.83   -39467.733    2709.9073   -42177.641     19.19654    227.90617 
    2650     136.5818   -834.77388    142946.65   -39431.893    2747.6826   -42179.576    19.492723    231.08313 
    2700    136.56787   -564.56535    142977.78    -39417.57    2747.4024   -42164.973    19.615638    231.05956 
    2750    133.16452   -740.28835    142920.06   -39408.286    2678.9354   -42087.221    19.743586    225.30141 
    2800    133.56421   -676.51401    142883.96   -39416.172    2686.9762   -42103.149    19.930381    225.97765 
    2850    135.26807   -912.20698    142827.18   -39442.165    2721.2537   -42163.419    20.195479    228.86042 
    2900       135.86    -729.8908    142815.36   -39418.144    2733.1617   -42151.306    20.488276     229.8619 
    2950    134.08201   -480.38617    142844.85   -39443.263    2697.3931   -42140.656    20.634284    226.85372 
    3000    134.58965   -931.24327    142896.31    -39459.09    2707.6056   -42166.696    20.824402     227.7126 
    3050    133.55385   -685.61915    142866.09   -39479.719    2686.7678   -42166.487    20.984332    225.96012 
    3100    133.41055   -556.04406    142874.69   -39438.513    2683.8851   -42122.399     21.15413    225.71768 
    3150    134.67766   -682.61649    142940.59   -39452.025    2709.3761   -42161.401    21.317709    227.86151 
    3200    131.79454   -779.68717    142840.45   -39414.293    2651.3749   -42065.668    21.633919    222.98353 
    3250    131.96334   -770.54742    142834.43   -39448.471    2654.7708   -42103.242     21.95362    223.26914 
    3300    132.45715   -818.07881    142884.48   -39492.356    2664.7051   -42157.061    22.085941    224.10462 
    3350    133.04382   -967.69664    142760.29   -39450.977    2676.5073   -42127.484    22.360439     225.0972 
    3400    131.91435   -688.02317    142712.81   -39485.265    2653.7852    -42139.05    22.542672    223.18624 
    3450    130.36058   -544.50363    142681.05    -39509.82    2622.5273   -42132.347    22.691529    220.55743 
    3500     133.4754   -864.19122    142561.05   -39525.324    2685.1895   -42210.514    22.969647    225.82739 
    3550    132.21556   -902.26955    142431.89   -39514.686    2659.8448   -42174.531    23.437011    223.69587 
    3600    130.00702   -693.51335    142421.46   -39521.819    2615.4145   -42137.234    23.658762    219.95923 
    3650    130.35254   -754.96973    142402.91   -39487.763    2622.3654   -42110.129     23.94375    220.54381 
    3700    132.79756   -882.51779    142297.24   -39561.051    2671.5532   -42232.605    24.349143    224.68056 
    3750    131.66877   -647.11299    142217.82   -39533.925    2648.8447   -42182.769    24.629351    222.77075 
    3800    128.88551   -582.45265    142232.61    -39499.59    2592.8526   -42092.443    24.840624    218.06175 
    3850    131.77437   -569.95308    142211.16   -39471.879    2650.9692   -42122.848    25.125742    222.94942 
    3900    132.26382   -569.25146    142202.79   -39468.125    2660.8158   -42128.941    25.515886    223.77753 
    3950    132.06181   -543.77935    142268.64   -39437.285    2656.7517   -42094.037    25.709968    223.43573 
    4000    131.85643   -865.08722    142236.19   -39531.086    2652.6201   -42183.706    26.000635    223.08826 
    4050    133.07954   -591.15327    142199.31   -39517.864     2677.226    -42195.09    26.211028    225.15764 
    4100    132.09496   -696.00559    142267.61   -39523.729    2657.4186   -42181.148    26.223981    223.49182 
    4150     135.4549   -576.01353    142319.82   -39551.198    2725.0123   -42276.211    26.272625    229.17652 
    4200    131.46915   -561.51317    142409.73   -39536.889    2644.8289   -42181.718    26.383945    222.43301 
    4250    134.80362   -571.52329    142537.24   -39566.247    2711.9101   -42278.157    26.504696    228.07461 
    4300    131.87949   -805.97741    142572.09   -39609.025     2653.084   -42262.109    26.559692    223.12727 
    4350    132.86664   -680.85772    142586.31   -39589.067    2672.9428    -42262.01    26.687478    224.79743 
    4400    131.94943   -619.21263    142560.06   -39574.037     2654.491   -42228.528    26.856106    223.24561 
    4450     134.3978    -729.1995       142683   -39515.353    2703.7461   -42219.099     27.00339    227.38801 
    4500    136.22088   -755.41551    142737.47   -39580.913    2740.4218   -42321.335    27.197563    230.47248 
    4550    131.10889   -433.67273    142845.76   -39620.391    2637.5814   -42257.973    27.497128    221.82349 
    4600     133.3194   -723.92817    142878.91   -39581.266    2682.0513   -42263.317    27.723835    225.56345 
    4650    132.35194   -833.61256    142927.38   -39581.083    2662.5885   -42243.672    27.927371    223.92661 
    4700    133.37676   -755.95518    142916.84    -39582.73    2683.2053   -42265.936    28.110672    225.66051 
    4750    130.97532   -922.38474    142877.94   -39568.449    2634.8942   -42203.343    28.309026    221.59749 
    4800    134.33915   -681.36627    142824.34   -39559.485    2702.5662   -42262.052    28.543487    227.28878 
    4850    132.30807    -616.5616       142812   -39558.357    2661.7059   -42220.062    28.869014    223.85239 
    4900     134.7603   -594.50619    142827.89   -39546.351    2711.0387   -42257.389    29.124759    228.00133 
    4950    130.37952   -679.18038    142843.03   -39506.191    2622.9083   -42129.099    29.331186    220.58946 
    5000     133.1623    -643.8522    142770.56   -39561.174    2678.8908   -42240.065    29.481552    225.29766 
    5050    131.35083   -765.23648    142765.53   -39566.585    2642.4487   -42209.034    29.706538    222.23283 
    5100    133.33988    -609.2778    142746.47   -39568.313    2682.4632   -42250.776     29.97278     225.5981 
    5150    135.27655   -715.76247    142797.05   -39550.009    2721.4243   -42271.433    30.195678    228.87477 
    5200    133.11317    -574.1059    142747.12   -39511.433    2677.9025   -42189.336     30.43841    225.21454 
    5250    133.35738   -619.60756    142737.23   -39539.187    2682.8154   -42222.002    30.694553    225.62772 
    5300     133.3959    -585.7753    142704.31   -39585.586    2683.5902   -42269.176    31.112408    225.69288 
    5350    134.82598   -512.08169    142705.74     -39549.6    2712.3599    -42261.96    31.305933    228.11244 
    5400    135.21797   -627.56658     142774.3   -39590.853    2720.2458   -42311.099    31.347181    228.77565 
    5450    133.47744    -808.1828    142779.12   -39577.455    2685.2306   -42262.686    31.580367    225.83084 
    5500    131.88972   -777.66097    142719.67   -39598.605    2653.2898   -42251.895    31.895856    223.14458 
    5550    131.31708   -661.25888    142759.98   -39598.191    2641.7697   -42239.961    31.969616    222.17573 
    5600    134.34377   -452.98329    142863.75   -39567.971     2702.659    -42270.63    32.044819    227.29659 
    5650    133.86799   -648.61578     142897.6   -39570.963    2693.0876   -42264.051     32.25318    226.49162 
    5700    132.38908   -780.16954    142854.58   -39515.723    2663.3356   -42179.058    32.535361    223.98945 
    5750    132.16511   -558.67711    142843.42   -39529.395      2658.83   -42188.225    32.699203    223.61052 
    5800    131.39098    -754.4028     142793.2   -39524.522    2643.2564   -42167.778      33.1391    222.30076 
    5850    133.52581    -480.7503    142770.85   -39495.994    2686.2038   -42182.197    33.065145    225.91268 
    5900    134.40719   -682.81922    142804.21   -39517.164    2703.9349   -42221.099    33.170168     227.4039 
    5950    133.26671   -522.97812    142766.44   -39544.678    2680.9913   -42225.669    33.568306    225.47431 
    6000     131.2598   -693.30826     142703.3   -39570.274    2640.6173   -42210.891    33.866465    222.07882 
    6050    131.96639   -658.21563    142638.08   -39608.075    2654.8321   -42262.907    34.054754    223.27429 
    6100    134.79729   -451.31359    142728.63    -39520.77    2711.7828   -42232.553      34.1222    228.06391 
    6150    136.87534   -924.12631     142701.2   -39522.026    2753.5879   -42275.614    34.245136    231.57976 
    6200    131.75086   -695.84275    142615.05   -39485.301    2650.4962   -42135.798    34.528908    222.90963 
    6250    132.25781     -767.219    142556.56   -39503.876    2660.6948   -42164.571    34.729248    223.76735 
    6300    135.89887   -611.13778    142587.54   -39499.433    2733.9438   -42233.377    34.759081    229.92767 
    6350    134.20053   -634.84356    142574.35   -39488.255    2699.7775   -42188.032    34.995698    227.05425 
    6400    133.90945   -703.71222    142615.37   -39467.865    2693.9216   -42161.786    35.190703    226.56177 
    6450    135.27104   -589.23645    142679.45   -39431.242    2721.3134   -42152.555    35.397458    228.86544 
    6500    134.56827   -611.80962    142724.46   -39454.485    2707.1755    -42161.66    35.668192    227.67643 
    6550    131.35644   -653.99659    142736.29    -39507.26    2642.5614   -42149.822    35.823071    222.24232 
    6600    134.09825   -664.40906    142682.32   -39535.793    2697.7198   -42233.513    36.123539    226.88119 
    6650      131.759   -672.79323    142736.41   -39552.106      2650.66   -42202.766    36.267509    222.92341 
    6700    132.87948    -630.3919    142760.51   -39575.805    2673.2012   -42249.006    36.557014    224.81916 
    6750    134.18586   -632.62877    142716.23   -39543.779    2699.4823   -42243.261    36.596816    227.02943 
    6800    131.38714   -779.34953    142697.58   -39520.681     2643.179    -42163.86    36.724812    222.29426 
    6850    131.01859   -687.67857    142706.53   -39566.748    2635.7647   -42202.513    36.879395    221.67071 
    6900    134.71901   -598.60418    142741.49   -39527.958     2710.208   -42238.166     37.10349    227.93147 
    6950    133.45123   -810.87296    142704.39   -39548.194    2684.7033   -42232.897    37.355912    225.78649 
    7000    134.64505   -464.63548     142735.9   -39561.315      2708.72   -42270.035    37.734332    227.80632 
    7050    133.10904   -506.06191    142827.92   -39574.967    2677.8195   -42252.786    37.928205    225.20755 
    7100    135.82994   -583.55872    142877.14   -39550.668    2732.5571   -42283.225    38.286394    229.81105 
    7150    134.01596    -674.2238    142834.53   -39543.919    2696.0644   -42239.984    38.486962    226.74198 
    7200    134.21395   -643.94177     142852.3   -39551.626    2700.0475   -42251.673    38.502174    227.07696 
    7250    135.13677   -733.76894    142868.26   -39545.383    2718.6122   -42263.995    38.737831    228.63827 
    7300    133.49954   -849.39737    142819.77   -39568.955    2685.6753   -42254.631    39.025697    225.86824 
    7350     133.1918   -696.94533    142785.21   -39576.695    2679.4843   -42256.179    39.370495    225.34757 
    7400    132.40666   -886.43179    142798.42   -39543.173    2663.6894   -42206.863    39.443335     224.0192 
    7450    132.70445    -665.5893     142809.7    -39562.81    2669.6801    -42232.49    39.683522    224.52302 
    7500    135.18753   -679.09832    142847.68    -39557.29    2719.6333   -42276.924    39.731828    228.72415 
    7550    131.66874   -663.09567    142862.71   -39603.473    2648.8442   -42252.317    39.861489     222.7707 
    7600    132.69996   -610.51418    142812.22   -39642.352    2669.5897   -42311.941    40.164791    224.51542 
    7650    130.76546    -688.0782    142860.94   -39667.804    2630.6725   -42298.477    40.319092    221.24245 
    7700    130.71024   -540.52456    142842.12   -39661.461    2629.5615   -42291.023    40.264432    221.14901 
    7750    131.50916   -507.00699    142857.88   -39680.613    2645.6338   -42326.247    40.448999     222.5007 
    7800    132.53869   -794.43635    142860.52   -39681.136    2666.3454   -42347.481    40.503433    224.24258 
    7850    132.11293   -641.80614    142808.16   -39699.432    2657.7802   -42357.213    40.504897    223.52224 
    7900    132.40795   -619.26585    142853.66   -39686.636    2663.7152   -42350.352    40.675386    224.02137 
    7950    133.95463   -690.11362    142914.55   -39637.014    2694.8305   -42331.845    40.845641    226.63821 
    8000    134.87288   -644.10392       142900   -39540.264    2713.3035   -42253.567     41.11109     228.1918 
    8050    132.30369   -803.50759    142922.83   -39572.758    2661.6178   -42234.376    41.262001    223.84498 
    8100    134.58579    -726.6832    142962.59   -39573.796    2707.5279   -42281.324    41.764345    227.70607 
    8150    134.16479   -909.00267    142913.84   -39527.355    2699.0585   -42226.414     41.97291    226.99378 
    8200    134.36627   -885.87177    142834.38   -39564.649    2703.1118   -42267.761    42.224726    227.33467 
    8250    132.32189   -744.60861    142759.61   -39538.865     2661.984   -42200.849    42.497021    223.87577 
    8300     135.0675   -649.81107    142676.43   -39575.598    2717.2187   -42292.817    42.775017    228.52108 
    8350    132.46808   -801.52342    142591.36   -39583.288    2664.9248   -42248.213     42.99715     224.1231 
    8400    134.52001   -604.24131     142482.3   -39591.766    2706.2046    -42297.97    43.278419    227.59478 
    8450    138.54551   -617.14235    142522.57   -39589.752    2787.1875   -42376.939    43.604384    234.40552 
    8500    132.94236   -825.73554     142558.8   -39579.242    2674.4661   -42253.708    43.964815    224.92554 
    8550    131.06183   -812.19013    142517.65   -39591.389    2636.6347   -42228.024    44.298995    221.74387 
    8600    134.80256   -715.05167    142525.04   -39597.372    2711.8887   -42309.261    44.624648    228.07282 
    8650     133.8705   -632.57169    142561.67   -39599.914     2693.138   -42293.052    44.797704    226.49586 
    8700    133.88041   -645.23977    142550.93   -39549.389    2693.3373   -42242.727    44.981456    226.51262 
    8750    132.35689   -543.31934    142598.51   -39594.518    2662.6881   -42257.206    45.161634    223.93499 
    8800    133.22001   -816.61679    142607.71    -39561.89    2680.0517   -42241.941    45.256587    225.39529 
    8850    132.90304   -703.30734    142553.48   -39578.159    2673.6751   -42251.834    45.402311    224.85901 
    8900    135.82434   -603.53347    142537.56    -39516.39    2732.4445   -42248.835    45.557311    229.80158 
    8950     133.4467   -592.19697    142488.66   -39589.485    2684.6122   -42274.097    45.640186    225.77884 
    9000    132.50102   -562.32866     142486.4   -39562.638    2665.5876   -42228.226    45.937474    224.17884 
    9050    133.23245    -709.2285    142490.08   -39565.692    2680.3022   -42245.994    46.122019    225.41635 
    9100    134.34603   -419.89147    142502.18    -39578.88    2702.7046   -42281.585    46.307454    227.30042 
    9150    132.82603   -563.40047    142564.85   -39561.058    2672.1259   -42233.184    46.393719    224.72872 
    9200    135.88652   -622.79488    142683.53   -39569.251    2733.6953   -42302.947    46.316239    229.90678 
    9250    133.38703   -885.07697    142674.34   -39549.261    2683.4119   -42232.673    46.543722    225.67788 
    9300    132.11314   -647.63063    142690.48   -39572.396    2657.7843    -42230.18     46.79021    223.52258 
    9350    132.37073   -733.26887    142717.25   -39556.334    2662.9665     -42219.3    46.921919     223.9584 
    9400    133.55497   -688.38906    142770.49   -39575.177    2686.7904   -42261.968    47.031886    225.96202 
    9450    134.15876   -657.99219    142819.16   -39527.287    2698.9372   -42226.224    47.307737    226.98358 
    9500    131.59727   -537.02897    142906.46   -39568.826    2647.4065   -42216.233    47.489049    222.64979 
    9550    134.30565   -683.28833    142934.31   -39554.685    2701.8921   -42256.578    47.716166    227.23209 
    9600    133.68508   -614.52989    142957.89   -39577.708    2689.4078   -42267.116    47.953974    226.18215 
    9650     132.7046   -660.15043    142922.38   -39598.896    2669.6831    -42268.58      48.2344    224.52328 
    9700     132.4384   -782.62722    142902.06   -39590.228    2664.3279   -42254.556    48.617706     224.0729 
    9750    133.66002    -671.2227     142897.4   -39594.793    2688.9036   -42283.697    48.948417    226.13975 
    9800     132.7394   -673.18325    142954.09    -39589.29    2670.3831   -42259.673    49.193924    224.58215 
    9850    134.62547   -608.93267    143018.23   -39576.016    2708.3261   -42284.343    49.341411     227.7732 
    9900    134.78758    -742.5306    142965.06   -39610.705    2711.5875   -42322.292    49.647123    228.04748 
    9950    130.83842   -749.33327    142941.56   -39650.719    2632.1403   -42282.859    49.823686    221.36588 
   10000    135.01122   -582.90578    142934.88   -39651.503    2716.0864    -42367.59    49.776206    228.42585 
   10050    131.76741   -549.10205    142987.59    -39694.29    2650.8293    -42345.12    49.778827    222.93765 
   10100    132.02778   -573.96094    143025.15   -39714.171    2656.0672   -42370.238     50.02771    223.37817 
   10150     133.1777   -610.97532    142997.66   -39706.239    2679.2007    -42385.44    50.150996    225.32372 
   10200    135.15598   -698.33388    142986.33   -39700.868    2718.9986   -42419.866    50.312774    228.67076 
   10250     133.6956   -788.80023    143017.87   -39701.993    2689.6194   -42391.612    50.559033    226.19995 
   10300     132.9061    -628.8918     143047.1   -39702.996    2673.7367   -42376.733    50.607643    224.86419 
   10350    133.11449   -888.18192    143027.69   -39668.544     2677.929   -42346.473    50.755955    225.21677 
   10400    135.76898   -541.75864    142983.66   -39642.226    2731.3307   -42373.557      50.8377    229.70791 
   10450    133.78316   -560.73343    143080.64   -39647.576     2691.381   -42338.957    50.933773    226.34809 
   10500    132.56703   -578.08523    143084.98   -39622.705    2666.9156    -42289.62    51.275378    224.29053 
   10550     132.7963   -675.31632    143020.72   -39694.796    2671.5278   -42366.324    51.669956    224.67842 
   10600    131.87961   -395.94327    143128.61   -39659.607    2653.0864   -42312.693     51.76471    223.12748 
   10650    136.13841   -610.26271    143236.07   -39627.382    2738.7626   -42366.144    52.002291    230.33294 
   10700    134.11112   -531.30258     143217.5   -39615.574    2697.9787   -42313.553    52.179064    226.90297 
   10750    134.60051   -756.26934    143154.91   -39598.783    2707.8241   -42306.607    52.306715    227.73098 
   10800    135.21746   -704.35905    143004.81   -39608.443    2720.2354   -42328.678    52.488808    228.77478 
   10850    134.09835   -681.66227    142918.45   -39610.185    2697.7217   -42307.907    52.694978    226.88136 
   10900    133.03466   -661.68168    142957.88   -39636.653     2676.323   -42312.976    52.926647     225.0817 
   10950    134.31322   -380.51306    142972.62   -39639.887    2702.0446   -42341.931    53.312846    227.24491 
   11000    134.28328   -617.93032     142975.7   -39597.524    2701.4421   -42298.966    53.647051    227.19424 
   11050    134.03342   -727.46232    142969.54   -39668.852    2696.4156   -42365.268    53.798513    226.77151 
   11100    130.46505   -746.03182    142916.78   -39688.879    2624.6289   -42313.507    54.067556    220.73417 
   11150      131.371   -746.70948    142866.55   -39696.806    2642.8544    -42339.66     54.24586    222.26695 
   11200    129.23077   -574.51678    142919.11   -39730.842    2599.7984   -42330.641    54.447963     218.6459 
   11250    130.35133   -688.96303    142908.46    -39735.11    2622.3411   -42357.451    54.419691    220.54176 
   11300    134.42184   -533.15231    142865.49   -39701.614    2704.2296   -42405.844    54.738877    227.42868 
   11350    132.27004   -479.03444     142914.3   -39668.167    2660.9409   -42329.108    54.919455    223.78805 
   11400    133.65876   -537.47411    142936.54   -39693.203    2688.8784   -42382.081    54.940056    226.13762 
   11450    131.05593   -891.53067     142805.4   -39709.486     2636.516   -42346.002    54.944451    221.73389 
   11500     131.4385   -563.60288    142799.81   -39716.224    2644.2122   -42360.437    55.127436    222.38115 
   11550    132.79331    -744.3396    142789.91   -39747.375    2671.4677   -42418.843    55.110693    224.67337 
   11600     131.0562   -625.60666    142814.57   -39729.646    2636.5213   -42366.168    55.313649    221.73434 
   11650    134.83188   -616.47075    142845.96   -39698.379    2712.4785   -42410.858    55.519243    228.12242 
   11700    130.33061   -601.48476    142941.16   -39727.333    2621.9244   -42349.257    55.578654    220.50672 
   11750    130.90364   -623.14939    142916.39   -39751.943    2633.4522   -42385.395    55.699808    221.47622 
   11800    130.29579   -677.93213    142887.79   -39760.322    2621.2239   -42381.546     55.75981    220.44781 
   11850    132.97172   -581.41731    142926.81    -39724.59    2675.0568   -42399.647     55.88021    224.97522 
   11900    132.10478   -662.54374     143035.4    -39731.41    2657.6162   -42389.026    55.914568    223.50844 
   11950    134.41183    -617.5679    143076.84   -39699.299    2704.0281   -42403.327    56.091155    227.41173 
   12000    132.02705   -790.32984    143073.09   -39662.427    2656.0526    -42318.48    56.281921    223.37693 
   12050    130.77794   -627.77486    143109.94   -39712.158    2630.9235   -42343.081    56.332726    221.26355 
   12100    132.20639   -749.92819    143082.74   -39692.032    2659.6604   -42351.692    56.429363    223.68035 
   12150    131.87838   -672.37807    143013.94   -39646.317    2653.0616   -42299.379    56.727505    223.12539 
   12200    131.73347   -712.38733    142921.91   -39675.743    2650.1465    -42325.89      57.0185    222.88022 
   12250    131.87341   -693.21464    142953.97    -39641.94    2652.9617   -42294.902    57.074005    223.11699 
   12300    132.48599   -791.43748     142945.6   -39649.058    2665.2851   -42314.344    57.130053     224.1534 
   12350    130.18385   -613.70864    142969.04   -39657.971    2618.9718   -42276.943     57.34261    220.25841 
   12400    134.51062   -751.36873    142977.73   -39639.442    2706.0157   -42345.458    57.627226    227.57889 
   12450     131.0422   -834.70045    142898.13   -39707.388    2636.2399   -42343.628      57.6451    221.71066 
   12500    133.70684   -867.27816    142809.76   -39714.906    2689.8456   -42404.752    57.684065    226.21897 
   12550    130.32895   -522.63802     142835.9   -39698.712     2621.891   -42320.602    57.826482    220.50391 
   12600    131.88665    -514.9081    142876.03   -39663.055     2653.228   -42316.283    58.066693    223.13938 
   12650    131.60457    -531.6553    142961.02   -39657.417    2647.5532    -42304.97    58.231477    222.66213 
   12700    132.46373    -768.3681    142955.71   -39634.477    2664.8374   -42299.314    58.433145    224.11575 
   12750    133.89059   -746.33585    142888.33   -39621.226    2693.5422   -42314.769    58.755795    226.52985 
   12800    134.06612   -579.56559    142928.83   -39605.425    2697.0734   -42302.498    58.938555    226.82683 
   12850    133.63892   -554.03966    143010.18   -39610.475    2688.4793   -42298.954     59.19318    226.10406 
   12900    132.43232   -524.05775    143041.31   -39639.687    2664.2055   -42303.892    59.490639     224.0626 
   12950    133.40079   -638.81728    142988.81   -39675.271    2683.6886    -42358.96    59.827681    225.70116 
   13000    132.54334   -461.46867    142979.19   -39664.627    2666.4388   -42331.066    60.126287    224.25043 
   13050    133.42505   -567.47243    143062.46   -39661.321    2684.1768   -42345.498    60.465084    225.74221 
   13100    134.03638   -598.76747    143131.56   -39603.792    2696.4752   -42300.267    60.544157    226.77652 
   13150    136.98085   -677.53374    143106.12   -39606.159    2755.7105    -42361.87    60.785279    231.75828 
   13200    133.89451   -872.05319    143037.23   -39646.334     2693.621   -42339.955    61.033819    226.53648 
   13250    133.17122   -766.05634    143039.87   -39661.203    2679.0704   -42340.273    61.122365    225.31276 
   13300    132.82135   -606.23104    143109.63   -39614.743    2672.0317   -42286.775    61.509564     224.7208 
   13350    132.37517   -744.92747    143137.09   -39634.675    2663.0558   -42297.731    61.749425    223.96592 
   13400     131.6754   -717.46715    143177.15   -39656.293    2648.9782   -42305.271    61.840049    222.78197 
   13450    132.08411   -891.96749    143127.35   -39631.909    2657.2004   -42289.109    61.924773    223.47347 
   13500    132.88902   -682.55195    143162.41   -39621.303    2673.3932   -42294.696    62.023909     224.8353 
   13550    135.19424   -709.81555    143144.76   -39613.375    2719.7684   -42333.143    61.988878     228.7355 
   13600    132.10698   -504.08511    143241.73    -39659.98    2657.6605    -42317.64    62.361429    223.51216 
   13650    131.42124   -535.82593    143350.73   -39680.424    2643.8651   -42324.289    62.249611    222.35195 
   13700    135.35939   -590.96667     143459.6   -39663.215    2723.0907   -42386.306    62.138334    229.01492 
   13750    132.78235    -586.3424    143453.72    -39656.95    2671.2472   -42328.197    62.071953    224.65482 
   13800    131.43753   -820.37749    143476.39   -39664.047    2644.1929    -42308.24    62.178436    222.37952 
   13850       132.16   -590.14933    143454.21   -39608.642    2658.7271   -42267.369    62.465832    223.60186 
   13900    134.84052   -513.57755    143508.55   -39629.431    2712.6525   -42342.084    62.576051    228.13705 
   13950    134.32403    -642.5762    143587.42   -39603.618    2702.2619    -42305.88    62.613819    227.26319 
   14000     132.8809   -757.90793    143543.56   -39624.369    2673.2298   -42297.599    62.918603    224.82156 
   14050    135.63761   -744.86446    143528.16   -39565.129    2728.6879   -42293.817    62.907832    229.48565 
   14100    134.19186   -700.63417    143544.62   -39566.044     2699.603   -42265.647    62.881911    227.03958 
   14150    133.96429   -862.04529    143458.17   -39606.624    2695.0249   -42301.649     63.00509    226.65455 
   14200    132.72101   -923.36346    143355.17   -39671.478    2670.0133   -42341.492    63.076965    224.55105 
   14250       131.95   -611.64875    143311.86   -39668.554    2654.5025   -42323.057     63.34456    223.24657 
   14300    134.06777    -697.7531    143372.95   -39680.371    2697.1065   -42377.477      63.5324    226.82962 
   14350    133.74318   -988.25644    143276.14   -39678.028    2690.5767   -42368.605    64.096969    226.28045 
   14400    132.35746   -741.03289    143196.41   -39690.543    2662.6996   -42353.243    64.215073    223.93595 
   14450    131.98388    -583.4258    143209.55   -39654.238     2655.184   -42309.422    64.256042    223.30389 
   14500    131.44714   -531.33377    143262.19   -39642.539    2644.3861   -42286.925     64.15782    222.39577 
   14550    134.70474   -536.92535    143333.54   -39524.379    2709.9209     -42234.3    64.142512    227.90732 
   14600    133.89422   -656.40023    143323.58   -39581.604    2693.6153    -42275.22    64.153616      226.536 
   14650    135.08151   -726.58451    143344.66   -39564.454    2717.5005   -42281.954    64.186355    228.54477 
   14700     132.8632   -679.70218    143387.23   -39587.952    2672.8737   -42260.826    64.251354    224.79161 
   14750    132.84929   -707.38531    143339.87   -39597.906    2672.5939     -42270.5    64.415362    224.76808 
   14800    134.34133   -678.81674    143322.34   -39596.375      2702.61   -42298.985    64.357347    227.29247 
   14850    131.86261   -748.26264    143304.57   -39610.502    2652.7444   -42263.246    64.529327    223.09871 
   14900    134.35154   -785.14463    143283.27   -39595.141    2702.8155   -42297.956    64.553806    227.30975 
   14950    132.52951    -873.6478    143259.42   -39618.609    2666.1608    -42284.77    64.635483    224.22705 
   15000    134.53511   -814.26448    143292.53   -39620.422    2706.5083    -42326.93    64.815693    227.62032 
   15050    133.32459   -822.61959    143192.61   -39597.815    2682.1558   -42279.971     65.14016    225.57225 
   15100    133.24509   -874.39384    143167.82   -39607.368    2680.5563   -42287.924    65.350352    225.43772 
   15150    131.44999   -740.51002    143103.88   -39615.935    2644.4435   -42260.378    65.547738     222.4006 
   15200    133.47157   -519.97641     143065.1   -39570.955    2685.1126   -42256.068    65.586668    225.82092 
   15250    132.42957   -586.64848    143128.22   -39569.095    2664.1502   -42233.245    65.852886    224.05795 
   15300    132.59259    -820.7945    143060.24   -39586.215    2667.4297   -42253.645    66.068981    224.33376 
   15350    132.74836   -762.35386    143066.21   -39598.863    2670.5634   -42269.426    66.085324    224.59731 
   15400    134.67742   -651.53602    143103.54   -39566.232    2709.3713   -42275.603     66.31332     227.8611 
   15450    132.69394   -574.10979    143172.83   -39606.906    2669.4685   -42276.375    66.473004    224.50523 
   15500    131.95772   -645.24259    143182.76   -39627.635    2654.6576   -42282.292    66.680071    223.25962 
   15550    131.45841   -610.62453    143219.44   -39640.201    2644.6128   -42284.814    66.899663    222.41484 
   15600    133.67533   -579.46547    143283.02   -39586.638    2689.2117    -42275.85    67.174615    226.16566 
   15650    131.83969   -663.35626    143339.89   -39606.208    2652.2832   -42258.491    67.434206    223.05993 
   15700    130.12562   -764.02096    143341.13   -39658.367    2617.8005   -42276.168    67.601762     220.1599 
   15750    133.77403   -1010.3487    143173.57   -39654.388    2691.1972   -42345.585    67.756501    226.33264 
   15800    131.04584   -1049.7418    142989.15   -39629.132     2636.313   -42265.445    68.164672    221.71682 
   15850    134.62193   -825.67285    142802.07   -39602.493    2708.2548   -42310.748    68.455779     227.7672 
   15900    133.55066   -823.06672    142795.81   -39650.482    2686.7036   -42337.185    68.694175    225.95472 
   15950    135.34462   -512.14521    142801.28   -39596.901    2722.7935   -42319.695    68.955292    228.98992 
   16000    135.06818   -771.20307    142805.26   -39607.638    2717.2324    -42324.87    69.426095    228.52223 
   16050    131.39259   -679.81055     142780.2   -39632.606    2643.2887   -42275.895    69.539124    222.30348 
   16100    133.19006   -717.15304    142756.88   -39695.078    2679.4493   -42374.528    69.414611    225.34462 
   16150    135.27926   -674.45158    142775.45   -39607.333    2721.4788   -42328.812    69.658137    228.87935 
   16200    134.40683   -578.55189    142769.23   -39613.477    2703.9278   -42317.404    69.721341    227.40329 
   16250      132.951   -715.30033    142709.01   -39691.378    2674.6401   -42366.018    69.887928    224.94017 
   16300     132.1551   -734.74284    142642.53   -39681.739    2658.6284   -42340.367    69.988358    223.59357 
   16350    133.56539   -623.51885     142634.9    -39679.66    2687.0001    -42366.66    70.016324    225.97966 
   16400    133.41735   -724.90898    142657.23   -39676.569    2684.0217   -42360.591    70.194859    225.72917 
   16450    133.19945   -712.05107    142664.09     -39679.1    2679.6381   -42358.738     70.30158    225.36051 
   16500    133.03244   -619.35375    142683.46   -39674.939    2676.2783   -42351.218    70.523819    225.07794 
   16550    132.97382   -556.54439    142701.17    -39668.19     2675.099   -42343.289    70.956005    224.97876 
   16600    131.55235   -536.98477    142676.87    -39664.58    2646.5027   -42311.082    70.953797    222.57378 
   16650    133.23125   -644.27527    142706.75   -39664.046     2680.278   -42344.324    71.365214    225.41432 
   16700    131.11426   -857.66524    142733.28   -39697.614    2637.6894   -42335.303    71.565768    221.83257 
   16750    131.62543   -653.95775    142742.43   -39663.321    2647.9729   -42311.294    71.968751    222.69742 
   16800    137.05213   -570.81932    142813.32   -39655.982    2757.1444   -42413.126     71.98271    231.87887 
   16850     134.6009   -653.76879    142927.32   -39625.723    2707.8318   -42333.554    72.121934    227.73163 
   16900    133.30854   -693.90879    142936.23   -39640.259    2681.8327   -42322.092    72.152625    225.54508 
   16950      130.743   -628.55494    142924.99   -39710.727    2630.2207   -42340.948    72.428396    221.20444 
   17000    130.48816   -670.28422    142915.23   -39693.963    2625.0939   -42319.057    72.535792    220.77328 
   17050    130.24222   -469.61027    142923.74   -39685.985    2620.1461   -42306.131    72.491161    220.35716 
   17100    130.19172   -572.43874     142988.6    -39661.75    2619.1302   -42280.881    72.724165    220.27172 
   17150    133.49274   -674.72395    142988.08   -39658.825    2685.5385   -42344.363    72.899994    225.85673 
   17200    136.47715   -609.49686    143052.84   -39611.383    2745.5772   -42356.961    73.060291    230.90606 
   17250    134.17996   -751.03974     142977.5   -39640.921    2699.3637   -42340.285     73.53291    227.01945 
   17300    131.59741   -808.21251    142889.62   -39673.512    2647.4092   -42320.921     74.04474    222.65002 
   17350     133.4628   -663.23461    142863.07   -39601.192    2684.9362   -42286.128    74.467419    225.80608 
   17400    134.49482   -636.10091    142832.46   -39595.035    2705.6979   -42300.733    74.634794    227.55216 
   17450    132.39079   -727.55304    142759.45   -39637.981      2663.37   -42301.351    74.789639    223.99234 
   17500    134.38866   -699.50519    142776.34    -39627.34    2703.5621   -42330.902    74.816591    227.37254 
   17550    130.84315   -557.48322    142848.02   -39662.752    2632.2354   -42294.988    74.953685    221.37389 
   17600    130.50181   -705.67665    142916.73   -39681.147    2625.3684   -42306.516    75.134548    220.79637 
   17650    132.93656   -594.21422    142963.05   -39681.882    2674.3495   -42356.231    75.393194    224.91573 
   17700    131.19398   -796.23433    142980.85   -39721.524    2639.2933   -42360.817    75.572845    221.96746 
   17750    135.92159   -695.32979    142976.79   -39641.435    2734.4008   -42375.835    75.684255    229.96611 
   17800    133.54948   -792.38837    142888.72   -39653.487    2686.6798   -42340.167    75.830577    225.95272 
   17850     131.3199   -651.30785    142811.36   -39626.776    2641.8263   -42268.603    76.091226    222.18049 
   17900    134.89769   -676.84873    142782.89   -39617.892    2713.8025   -42331.694    76.249963    228.23377 
   17950    133.25849   -632.65244    142833.82   -39647.088    2680.8259   -42327.913    76.523658     225.4604 
   18000    131.53306   -548.51725    142878.59    -39693.75    2646.1146   -42339.864    76.828806    222.54114 
   18050    132.25971   -686.54862    142856.67   -39744.124     2660.733   -42404.857    76.814509    223.77056 
   18100     132.4143   -603.16597     142858.3   -39703.921    2663.8429   -42367.764    77.012287    224.03211 
   18150    132.71482   -424.06053    142972.82   -39682.608    2669.8886   -42352.497    77.191164    224.54056 
   18200     133.3044   -753.32663     143038.2   -39669.172    2681.7496   -42350.922    77.549378    225.53808 
   18250    132.56023   -686.28912    143100.32   -39656.338    2666.7787   -42323.116     77.42534    224.27902 
   18300     131.7003    -636.8152     143070.2    -39631.45    2649.4791   -42280.929    77.623901     222.8241 
   18350    131.57045   -791.60814    143062.57   -39626.919    2646.8669   -42273.786    77.803839    222.60441 
   18400    133.22864   -578.31185    143112.47   -39632.887    2680.2254   -42313.112    77.850784     225.4099 
   18450    136.46005   -804.26023     143071.9   -39608.067    2745.2333     -42353.3    78.094145    230.87713 
   18500    132.35627   -744.63454    143070.38   -39570.443    2662.6756   -42233.119    78.192367    223.93394 
   18550    131.70991   -730.97143    143029.56   -39589.629    2649.6725   -42239.301    78.054779    222.84036 
   18600    134.91381   -662.83428    143015.59   -39592.278    2714.1267   -42306.405    78.201556    228.26104 
   18650    133.95052   -848.04078    142979.98   -39582.004    2694.7478   -42276.752    78.605369    226.63125 
   18700    133.73755   -649.49466    142973.27   -39602.892    2690.4634   -42293.356    78.933171    226.27093 
   18750    132.45408   -645.60044    143001.23    -39650.49    2664.6433   -42315.134    79.247824    224.09942 
   18800    130.11235    -610.7131    143074.77   -39700.298    2617.5334   -42317.831    79.648793    220.13743 
   18850    133.44328   -681.45055    143111.95   -39646.451    2684.5435   -42330.995    80.026215    225.77306 
   18900     134.7629   -523.78742    143163.65   -39594.408    2711.0908   -42305.499    79.921391    228.00571 
   18950    132.61574   -680.51162    143207.37   -39636.359    2667.8953   -42304.255    80.121654    224.37293 
   19000    134.73736   -650.14037    143250.49   -39617.585    2710.5771   -42328.162    80.379369    227.96251 
   19050    130.89558   -743.20064    143225.59   -39670.321    2633.2902   -42303.611    80.382432    221.46259 
   19100    134.33749     -467.044    143235.31   -39630.357    2702.5328   -42332.889    80.674881    227.28597 
   19150    133.61575   -699.06943    143324.45    -39633.89     2688.013   -42321.903    80.921469    226.06485 
   19200    133.71723   -687.37907    143343.63   -39655.411    2690.0547   -42345.466     81.06928    226.23655 
   19250    131.81244    -356.3296    143364.68   -39645.565    2651.7351     -42297.3    81.213086    223.01383 
   19300    132.65561   -602.96299     143415.8   -39648.978    2668.6975   -42317.676    81.652762    224.44039 
   19350    133.97127   -637.42903    143456.09   -39625.192    2695.1653   -42320.358    81.847537    226.66636 
   19400     135.2786   -812.63044    143386.18   -39667.144    2721.4654    -42388.61    82.015147    228.87823 
   19450    134.62369   -690.39597    143341.89   -39689.037    2708.2904   -42397.328    82.180877     227.7702 
   19500    129.64571   -817.67717    143324.89   -39801.848    2608.1458   -42409.994    82.095345    219.34793 
   19550    130.19127   -557.30088    143319.11   -39817.393    2619.1211   -42436.514    82.122939    220.27096 
   19600    132.11675    -540.9929    143350.82   -39796.134     2657.857   -42453.991     82.24286    223.52869 
   19650    132.33795   -795.80576    143309.69   -39745.169     2662.307   -42407.476    82.409639    223.90294 
   19700    131.77952   -675.09467    143244.72   -39750.814    2651.0729   -42401.887      82.5097    222.95814 
   19750    132.17303    -667.8311    143231.25   -39779.656    2658.9892   -42438.646    82.284887    223.62391 
   19800    129.24429   -557.25051     143277.5   -39760.162    2600.0704   -42360.233     82.27902    218.66878 
   19850    129.93446   -690.55982    143262.56   -39752.108    2613.9548   -42366.063    82.139424    219.83646 
   19900    135.04041   -737.99706    143242.13   -39657.468    2716.6738   -42374.141    82.358725    228.47525 
   19950    131.79514   -579.21117    143269.55    -39669.74    2651.3871   -42321.128    82.602596    222.98456 
   20000    133.09184   -844.33502    143333.84    -39641.36    2677.4733   -42318.834    82.657196    225.17844 
   20050    134.49518    -651.3319    143280.83   -39583.142     2705.705   -42288.847    83.010691    227.55276 
   20100    135.50712   -586.33811    143362.49   -39584.295    2726.0628   -42310.358    83.126445    229.26487 
   20150    134.71234   -667.67978    143411.75   -39560.251    2710.0737   -42270.324    83.287143    227.92017 
   20200    134.74365   -643.80593    143407.59    -39556.99    2710.7036   -42267.694    83.565669    227.97315 
   20250    134.06398   -782.93025     143366.3   -39549.035    2697.0303   -42246.065    83.748173    226.82321 
   20300    135.43586   -618.80082    143356.14   -39530.321    2724.6293    -42254.95    84.003776    229.14431 
   20350    133.26244   -659.46065    143326.14   -39547.136    2680.9054   -42228.041    84.115072    225.46708 
   20400    134.44888   -524.05678    143360.89   -39499.563    2704.7735   -42204.336    84.308805    227.47442 
   20450    134.09944   -538.32663    143405.37   -39524.651    2697.7438   -42222.395    84.493354    226.88322 
   20500    133.85675     -742.309    143436.04    -39581.37    2692.8614   -42274.231    84.684479     226.4726 
   20550    133.50504   -682.62958    143494.25   -39572.768     2685.786   -42258.554    84.736064    225.87755 
   20600    133.76181   -762.96144    143462.48   -39590.365    2690.9516   -42281.317    84.772891    226.31198 
   20650    134.29578   -714.12506    143475.07   -39522.272    2701.6936   -42223.966    85.025626     227.2154 
   20700    131.68159   -715.15914    143544.08   -39546.116    2649.1026   -42195.218    85.291087    222.79243 
   20750    130.85055   -749.04101    143523.39   -39589.991    2632.3842   -42222.375    85.824278     221.3864 
   20800    131.21942     -695.122    143530.08    -39565.93     2639.805   -42205.735    86.233581     222.0105 
   20850    133.45362   -632.20031    143552.61   -39550.606    2684.7515   -42235.358    86.475453    225.79055 
   20900    131.70198   -668.38054    143612.64   -39603.586    2649.5129   -42253.099    86.577596    222.82695 
   20950    131.77116   -833.30437    143581.31   -39597.118    2650.9045   -42248.022    86.966616    222.94398 
   21000    134.36409   -712.03608    143514.02   -39549.044    2703.0678   -42252.112    87.072439    227.33096 
   21050    134.76237   -525.37325    143498.23   -39537.511    2711.0802   -42248.592    87.265665    228.00482 
   21100    132.26732   -735.14483    143523.29   -39583.173    2660.8861   -42244.059    87.267212    223.78344 
   21150    133.80427   -569.71072    143585.74   -39559.192    2691.8056   -42250.997    87.469049    226.38381 
   21200    133.10827   -781.65871    143623.38   -39513.659    2677.8039   -42191.463     87.46038    225.20625 
   21250    133.61125   -669.28806    143634.16   -39473.268    2687.9226    -42161.19    87.611419    226.05724 
   21300    132.89072   -726.12032    143576.35   -39501.322    2673.4273   -42174.749    87.947304    224.83817 
   21350    133.83313   -688.98794    143534.82    -39521.23    2692.3863   -42213.617    88.107427    226.43264 
   21400    137.83999   -654.56121    143525.72   -39514.742    2772.9942   -42287.736    88.454592    233.21185 
   21450    134.78435   -624.54266    143483.73   -39507.084    2711.5223   -42218.607    88.581739      228.042 
   21500    135.11004   -623.44032    143438.36   -39454.452    2718.0746   -42172.527    88.754402    228.59305 
   21550     135.2793   -609.96574     143430.4    -39509.27    2721.4795    -42230.75    88.908712    228.87941 
   21600    134.65442   -609.25807    143429.14   -39536.368    2708.9086   -42245.277    88.989692    227.82219 
   21650    132.96102    -703.8612    143454.29   -39532.982    2674.8416   -42207.823    89.204372    224.95711 
   21700     134.7146   -566.48953    143336.46   -39524.239    2710.1192   -42234.358    89.470521      227.924 
   21750    132.95249   -588.13817    143365.53   -39566.495    2674.6699   -42241.165    89.536723    224.94268 
   21800    133.24057   -565.05749    143365.06   -39522.647    2680.4654   -42203.112    89.429769    225.43008 
   21850    133.06042   -821.60409     143326.4   -39523.061    2676.8413   -42199.902    89.743042    225.12529 
   21900    132.42694   -854.15935    143282.46   -39492.335    2664.0972   -42156.433    89.850068     224.0535 
   21950    135.29152   -839.16789    143217.72   -39535.903    2721.7253   -42257.628    89.939798    228.90008 
   22000     135.2107   -533.09753    143168.69   -39565.921    2720.0995    -42286.02    90.094269    228.76336 
   22050    131.24249   -721.79246     143191.6   -39565.461    2640.2691    -42205.73    90.422273    222.04953 
   22100    131.54081   -759.58878    143138.53   -39557.884    2646.2705   -42204.154    90.792997    222.55425 
   22150     131.6202   -734.73001    143050.35   -39584.387    2647.8677   -42232.255    90.928254    222.68858 
   22200    132.59677   -693.47498     143027.3    -39556.47    2667.5139   -42223.984    91.197637    224.34084 
   22250    131.38499   -726.80084    143013.29   -39536.532    2643.1359   -42179.668    91.397204    222.29063 
   22300    135.26618   -596.77156    143005.77   -39488.263    2721.2156   -42209.479     91.54633    228.85722 
   22350    135.65591   -758.48844    142951.74   -39476.355    2729.0561   -42205.411    91.885606    229.51661 
   22400    133.31118   -871.29912    142907.29   -39543.685    2681.8859    -42225.57    91.845125    225.54955 
   22450    134.64427   -449.29268    142909.19   -39549.224    2708.7043   -42257.928    91.678481      227.805 
   22500    132.68202   -808.86929     142921.4    -39589.36    2669.2287   -42258.589     91.82831    224.48507 
   22550    131.89682   -542.25298    142914.66   -39606.061    2653.4326   -42259.494    91.916142    223.15659 
   22600    132.07148   -664.87331    142894.22   -39624.153    2656.9464   -42281.099    92.349485     223.4521 
   22650    134.30852   -636.68171     142960.1   -39592.908    2701.9498   -42294.858    92.517434    227.23695 
   22700    134.05462   -693.72155    142899.39   -39550.723     2696.842   -42247.565    92.757301    226.80737 
   22750    137.23893   -402.01658    142957.22   -39539.945    2760.9024   -42300.848    92.995269    232.19492 
   22800    135.17343   -577.83002     143036.6   -39510.396    2719.3497   -42229.745    93.157778    228.70029 
   22850    135.20659   -549.49731     143135.4   -39466.749    2720.0167   -42186.766    93.275352    228.75639 
   22900    137.40768   -760.26891    143261.01   -39478.387    2764.2972   -42242.685    93.425921    232.48043 
   22950    135.29822   -638.28567    143289.96   -39446.801    2721.8602   -42168.661    93.614296    228.91143 
   23000    135.53123   -620.24515     143311.8    -39416.07    2726.5477   -42142.617    93.883538    229.30566 
   23050    133.59795   -771.26065    143313.38   -39490.595    2687.6551    -42178.25    93.752951    226.03474 
   23100    133.64184   -540.12443    143329.12   -39537.279    2688.5381   -42225.817    93.860021      226.109 
   23150    132.32109   -593.49544    143385.67   -39620.036    2661.9679   -42282.004    93.930729    223.87442 
   23200    131.09046   -755.45379    143461.76   -39662.104    2637.2107   -42299.314    94.032469    221.79231 
   23250    134.44235   -646.57283    143401.77   -39637.766    2704.6422   -42342.409    94.002702    227.46338 
   23300    131.96267   -585.65104    143418.32   -39684.807    2654.7573   -42339.564     94.21784      223.268 
   23350    129.46191   -651.16014    143404.92   -39720.271    2604.4482   -42324.719    94.331621    219.03695 
   23400    128.91928   -591.14793    143367.15   -39752.443     2593.532   -42345.975    94.622822    218.11889 
   23450    133.07524   -622.24188    143397.16   -39663.778    2677.1394   -42340.918    94.781986    225.15036 
   23500    134.19653   -673.76433    143440.27   -39684.487    2699.6969   -42384.184    94.782341    227.04747 
   23550    131.84157   -565.00139    143442.58   -39681.442    2652.3211   -42333.763    94.677027    223.06311 
   23600    133.13628   -858.97741    143446.34   -39702.106    2678.3674   -42380.473    94.818235    225.25364 
   23650    135.05295   -840.46296    143399.18   -39660.226    2716.9261   -42377.152    94.944127    228.49646 
   23700    134.81619   -615.58113    143362.71   -39658.834     2712.163   -42370.997    94.915481    228.09589 
   23750    131.81491   -794.96234    143302.01   -39632.458    2651.7847   -42284.243    95.264271      223.018 
   23800    131.27063    -554.9736    143225.14   -39685.871    2640.8352   -42326.706    95.309687    222.09714 
   23850    132.15305    -492.5685    143325.73   -39655.258    2658.5873   -42313.845    95.652135    223.59011 
   23900    131.85172   -542.26701    143407.41   -39672.377    2652.5252   -42324.902    95.601927    223.08028 
   23950    131.86922    -545.2701    143379.45    -39737.88    2652.8774   -42390.758    95.934443     223.1099 
   24000    133.59951   -729.50344    143313.22   -39747.388    2687.6864   -42435.075    95.928297    226.03738 
   24050    132.27276   -604.94544    143294.14   -39762.389    2660.9956   -42423.385     96.02977    223.79265 
   24100    129.79794   -752.07724    143268.49   -39767.182    2611.2085   -42378.391    96.096718     219.6055 
   24150    132.74613   -747.88371    143257.67   -39762.919    2670.5185   -42433.438    96.285152    224.59354 
   24200    135.09165   -733.14343    143245.69   -39768.861    2717.7046   -42486.566    96.493785    228.56194 
   24250    134.47106   -710.82748     143207.7    -39753.69    2705.2198    -42458.91    96.407602    227.51196 
   24300    129.02966   -693.00258    143272.21   -39736.071    2595.7526   -42331.823    96.658845    218.30564 
   24350    132.89527   -775.54814    143277.72   -39708.634    2673.5189   -42382.153    96.781441    224.84587 
   24400    131.54897   -839.27277    143231.25   -39701.144    2646.4346   -42347.579    96.968493    222.56806 
   24450    134.34259   -722.37595    143206.27   -39704.518    2702.6353   -42407.153    96.937389    227.29459 
   24500    132.45004    -672.6778    143238.67   -39713.359    2664.5619   -42377.921     96.88621    224.09258 
   24550    133.27398   -738.06547    143326.01   -39738.805    2681.1375   -42419.943    97.077282    225.48661 
   24600    133.21602   -586.52518    143334.44   -39707.871    2679.9715   -42387.842    97.229937    225.38854 
   24650    130.32996    -848.8242    143427.68   -39722.046    2621.9112   -42343.957    96.825398    220.50561 
   24700    130.92065   -702.96222    143452.26   -39710.921    2633.7944   -42344.715     97.15956      221.505 
   24750    132.37446   -808.62597    143459.51   -39717.244    2663.0414   -42380.286    97.225539    223.96471 
   24800    133.74083    -769.2275    143414.16   -39732.559    2690.5293   -42423.088    97.460942    226.27647 
   24850    131.55845   -485.93278     143417.4   -39727.235    2646.6255    -42373.86    97.620984    222.58411 
   24900    133.85881   -596.37615    143505.73   -39730.261    2692.9029   -42423.164    97.801127    226.47609 
   24950    133.80633   -652.88529    143583.83   -39726.836    2691.8471   -42418.683    97.741315    226.38729 
   25000    133.14613   -793.24761    143534.59   -39741.393    2678.5656   -42419.959    97.961413    225.27031 
   25050     132.3567   -562.62785    143539.59   -39772.705    2662.6843   -42435.389     98.00569    223.93467 
   25100     132.2882   -750.72426    143537.36   -39781.224    2661.3062    -42442.53    98.094791    223.81877 
   25150    130.98322    -625.0724    143508.99   -39773.827    2635.0533    -42408.88    98.378517    221.61087 
   25200     134.0582   -498.06862    143534.12   -39758.787    2696.9141   -42455.701    98.419736    226.81344 
   25250    133.18254   -575.69284    143591.52   -39737.951     2679.298   -42417.249    98.578164     225.3319 
   25300    131.73803   -572.82166    143685.57   -39773.646    2650.2382   -42423.884    98.672091    222.88794 
   25350    131.66719   -432.14894    143791.26   -39779.229     2648.813   -42428.042    98.575184    222.76808 
   25400    130.56421   -488.99523    143926.66   -39747.299    2626.6238   -42373.922    98.821202    220.90194 
   25450    134.36231   -620.10011    143998.14   -39786.538     2703.032    -42489.57    98.698357    227.32796 
   25500    134.11786   -622.69808    144114.55   -39732.277    2698.1144   -42430.392     98.97023    226.91438 
   25550    130.05139   -775.96406     144135.2   -39777.426    2616.3071   -42393.733    99.292599     220.0343 
   25600    132.09066   -631.55703    144094.16   -39756.578    2657.3322   -42413.911    99.160712    223.48455 
   25650    130.19247   -826.33194    144077.09   -39773.592    2619.1454   -42392.737    99.585313      220.273 
   25700    130.10204   -772.87612    144050.57    -39780.85    2617.3261   -42398.176    99.745687       220.12 
   25750    133.40464   -762.66184    143972.38   -39749.325    2683.7661   -42433.091    99.682274    225.70767 
   25800     128.8924   -760.28992    144001.41   -39812.966    2592.9912   -42405.957    99.714195    218.07341 
   25850    131.24191   -870.53287    143963.99   -39813.972    2640.2574   -42454.229    99.674619    222.04855 
   25900    133.24264   -765.13202     143954.1   -39791.928     2680.507   -42472.435    100.13451    225.43358 
   25950     131.1346   -858.67939    143888.67   -39793.993    2638.0986   -42432.092    100.34962    221.86699 
   26000     133.7155   -687.25306    143895.09   -39804.305    2690.0199   -42494.325    100.57129    226.23363 
   26050     132.3942   -850.98808    143895.01   -39769.685    2663.4385   -42433.123    100.81915     223.9981 
   26100    135.63025   -723.66809    143907.73   -39746.429    2728.5397   -42474.968     100.7732    229.47318 
   26150    132.42134   -667.31078    143945.63    -39747.13    2663.9846   -42411.115     100.8759    224.04403 
   26200    133.15781   -696.39107     144036.3   -39751.437    2678.8004   -42430.237    100.95974    225.29006 
   26250    133.89016   -755.37663     144034.3   -39757.627    2693.5336    -42451.16     101.1864    226.52913 
   26300    131.96986    -678.3575    144057.28   -39793.374     2654.902   -42448.276    101.14206    223.28018 
   26350    133.91659   -752.29664    144002.45   -39763.659    2694.0653   -42457.724    101.20494    226.57385 
   26400    133.69012   -756.28188    144017.67   -39773.542    2689.5093   -42463.052    101.38795    226.19068 
   26450    131.51278   -950.35804    143919.41   -39788.684    2645.7066   -42434.391    101.59906    222.50682 
   26500    132.30273   -760.52861    143919.21   -39767.162    2661.5985   -42428.761     101.4253    223.84335 
   26550    133.05781   -720.71444    143922.38   -39756.534    2676.7887   -42433.322    101.54393    225.12086 
   26600    132.76389    -697.6148    144025.12   -39751.811    2670.8759   -42422.687    101.64707    224.62359 
   26650    133.50698   -655.22216    144102.99   -39783.695    2685.8249    -42469.52    101.85044    225.88082 
   26700    133.06388   -634.26373    144102.33   -39790.795    2676.9109   -42467.706    102.16682    225.13115 
   26750    131.30431   -703.70024    144228.43   -39774.989    2641.5128   -42416.502    102.68686    222.15412 
   26800    134.47755   -599.58627    144261.81    -39795.59    2705.3504   -42500.941     102.9221    227.52293 
   26850    132.96851   -925.87907     144214.8   -39821.848    2674.9924    -42496.84    103.04299    224.96979 
   26900    131.88619   -854.87306    144197.36    -39804.56    2653.2187   -42457.779     102.9686     223.1386 
   26950    134.73174   -681.71743    144181.36   -39762.852     2710.464   -42473.316    103.16754      227.953 
   27000    133.34364   -825.51271    144200.08    -39748.61     2682.539   -42431.149    103.43794    225.60447 
   27050    134.17907   -798.01243    144266.17   -39720.993    2699.3458   -42420.339    103.60587    227.01794 
   27100    131.62395   -637.87331    144298.63   -39687.249    2647.9431   -42335.192    104.03677    222.69492 
   27150    133.29588   -708.87666     144267.3   -39757.123     2681.578   -42438.701    103.99221    225.52366 
   27200     133.1269   -596.79065    144224.96    -39765.61    2678.1786   -42443.789    104.15311    225.23776 
   27250    135.02931   -775.64345    144257.59   -39783.976    2716.4504   -42500.426    104.21684    228.45646 
   27300    132.08439   -605.54164    144269.62   -39794.934     2657.206    -42452.14    104.16158    223.47394 
   27350    132.45122    -660.1649    144243.66   -39784.809    2664.5857   -42449.395    104.16563    224.09458 
   27400    133.91977   -681.22006    144182.02    -39772.99    2694.1291   -42467.119    104.34241    226.57922 
   27450    131.28901   -676.19399    144125.19   -39805.162    2641.2049   -42446.367    104.39688    222.12823 
   27500    131.25965   -671.57318    144066.41   -39813.277    2640.6142   -42453.891    104.53571    222.07855 
   27550    131.25303   -660.90536    144071.69   -39780.951    2640.4811   -42421.432    104.74176    222.06736 
   27600    132.90436   -703.81686    144033.78   -39822.264    2673.7017   -42495.965    104.96378    224.86125 
   27650    132.43609   -707.83319    144031.94   -39809.746    2664.2813   -42474.028    105.10727    224.06898 
   27700    131.77755    -520.1529    144119.05   -39821.518    2651.0332   -42472.551    105.19527     222.9548 
   27750    131.44402   -671.83516    144099.68   -39825.609    2644.3234   -42469.932    105.36261     222.3905 
   27800    132.83461   -630.55835    144082.43   -39794.629    2672.2985   -42466.928    105.60269    224.74323 
   27850    133.96538   -598.42292    144121.37   -39779.259    2695.0467   -42474.305    105.74879    226.65638 
   27900    130.54489   -652.55887    144198.64   -39788.746    2626.2351   -42414.981    105.52078    220.86925 
   27950    134.31176   -653.31454    144226.08   -39769.905     2702.015    -42471.92     105.5304    227.24243 
   28000    133.26682   -755.29165    144245.13   -39791.724    2680.9936   -42472.718    105.64684     225.4745 
   28050    132.42522   -840.96013    144230.64   -39751.706    2664.0627   -42415.768    105.86017     224.0506 
   28100    134.16817   -743.80703    144182.14   -39728.045    2699.1265   -42427.171    105.82267     226.9995 
   28150    133.34451   -711.64799    144110.16   -39779.117    2682.5565   -42461.673     105.9929    225.60594 
   28200    133.07451   -724.99614    144054.11   -39812.647    2677.1248   -42489.772    105.87733    225.14913 
   28250    135.46061   -655.60875    144026.93   -39746.798     2725.127   -42471.925    105.78718    229.18617 
   28300    133.63887   -695.31232    144074.54   -39746.086    2688.4783   -42434.564    105.88675    226.10398 
   28350    133.29234   -843.68417    143994.76    -39716.14     2681.507   -42397.647    106.11334    225.51768 
   28400    134.91735   -877.25385    143928.94   -39681.588     2714.198   -42395.786     106.3236    228.26703 
   28450      136.856    -549.7546    143981.83   -39679.822    2753.1988   -42433.021    106.51993    231.54704 
   28500     132.0221   -684.62661    143972.07   -39692.824    2655.9528   -42348.777    106.75046    223.36854 
   28550    135.21933    -668.1595    143980.83   -39704.018     2720.273   -42424.291    107.15797    228.77795 
   28600     135.1882    -705.8334     144081.4   -39694.543    2719.6468    -42414.19    107.15811    228.72528 
   28650    135.10674   -772.88775     144139.5   -39672.143    2718.0082   -42390.152    107.21521    228.58747 
   28700    139.75821   -710.58403    144123.49   -39688.752     2811.584   -42500.336      107.126     236.4573 
   28750    133.89865   -770.63291    144059.32   -39706.486    2693.7044    -42400.19    107.53166     226.5435 
   28800    135.34229   -764.39883    144045.95   -39735.405    2722.7467   -42458.152    107.63964    228.98598 
   28850    133.36879   -648.41436    144042.48   -39687.665    2683.0449   -42370.709    107.73401    225.64702 
   28900    135.14235   -709.53632    144006.02   -39654.794    2718.7245   -42373.518    107.96978    228.64772 
   28950    132.44145   -852.59131    143927.93   -39708.528    2664.3891   -42372.917    108.10096    224.07804 
   29000    131.90148    -816.3916    143908.55   -39727.045    2653.5263   -42380.571    108.27101    223.16447 
   29050    132.91595    -870.6753    143906.05   -39750.712    2673.9349   -42424.647    108.63463    224.88086 
   29100    133.05385   -953.80981     143787.7    -39684.55    2676.7091    -42361.26     108.9637    225.11417 
   29150    134.91223   -717.31132    143679.13   -39706.577    2714.0949   -42420.672    109.05567    228.25836 
   29200     131.7077   -804.50293    143628.54   -39713.398     2649.628   -42363.026    109.18579    222.83662 
   29250    132.49676   -706.36107    143675.43   -39726.615    2665.5019   -42392.117    109.28977    224.17164 
   29300    130.85731   -634.47533    143613.58   -39755.298    2632.5201   -42387.818    109.25879    221.39783 
   29350    132.57906   -681.60927    143601.71   -39770.227    2667.1575   -42437.384    109.62776    224.31087 
   29400    129.33377   -757.74976    143616.09   -39773.394    2601.8705   -42375.265    109.90436    218.82016 
   29450    128.44166   -636.06563    143631.33   -39753.245    2583.9233   -42337.168    110.05985    217.31079 
   29500    134.65601   -641.47018     143697.3   -39699.112    2708.9405   -42408.052    110.27879    227.82487 
   29550    131.14475    -721.5873    143685.06    -39765.78    2638.3029   -42404.083    110.36545    221.88417 
   29600      132.004   -701.74062    143716.48   -39756.434    2655.5888   -42412.023    110.48943    223.33793 
   29650    130.57811   -896.10038    143689.09   -39746.088    2626.9034   -42372.992    110.39915    220.92546 
   29700    131.29042   -700.07368    143699.48   -39777.595    2641.2334   -42418.828    110.45684    222.13062 
   29750    129.07703   -738.96083    143651.29   -39835.446    2596.7054   -42432.151    110.34284    218.38577 
   29800    131.71149   -640.42236    143592.98   -39815.275    2649.7042   -42464.979    110.59017    222.84303 
   29850    130.64594   -644.02386    143602.99   -39823.919    2628.2679   -42452.186    110.49092    221.04022 
   29900    131.70906   -850.33694    143541.57   -39750.698    2649.6554   -42400.354    110.74077    222.83892 
   29950    131.21287   -942.62839    143439.77   -39766.222    2639.6732   -42405.895    110.89987    221.99942 
   30000    133.64767   -766.00271    143297.46   -39806.788    2688.6552   -42495.443    111.00538    226.11886 
   30050    132.40334   -736.01222    143293.31   -39816.408    2663.6224   -42480.031    111.23878    224.01357 
   30100    130.69807   -892.05443    143242.42    -39844.79    2629.3167   -42474.107    111.26139    221.12842 
   30150    134.63501   -722.95064    143247.47   -39786.191     2708.518   -42494.709    111.42595    227.78933 
   30200    131.98757   -755.21414    143300.44   -39783.892    2655.2582    -42439.15    111.66997    223.31012 
   30250    130.71273   -664.57252    143328.78   -39828.543    2629.6117   -42458.155    111.77578    221.15323 
   30300    131.67131   -604.21241    143350.03   -39819.476    2648.8958   -42468.372    111.89098    222.77505 
   30350    129.80174   -620.09525    143461.43   -39863.371    2611.2849   -42474.656    112.00351    219.61192 
   30400    130.98885   -752.86094    143537.46   -39852.772    2635.1665   -42487.939    112.53827    221.62039 
   30450    130.54713   -707.25942    143544.42   -39820.273    2626.2801   -42446.553    112.79608    220.87304 
   30500     135.6691   -728.55961    143494.45   -39828.287    2729.3213   -42557.608    112.63253    229.53892 
   30550    132.13633   -579.32255    143455.81   -39829.632     2658.251   -42487.883    112.56299    223.56182 
   30600    128.56556    -611.1145    143392.94   -39883.812    2586.4159   -42470.228    112.98856    217.52042 
   30650    130.58019   -746.60604    143371.97   -39896.587    2626.9452   -42523.532    113.31637    220.92897 
   30700    132.55187   -761.92381    143277.62   -39876.978    2666.6106   -42543.589    113.41285    224.26487 
   30750    131.02268   -790.64617    143220.25    -39834.54     2635.847   -42470.387      113.602    221.67763 
   30800    129.32028   -712.11442    143165.36    -39827.97     2601.599   -42429.569    113.67611    218.79733 
   30850    133.47465   -791.08633    143204.57   -39787.192    2685.1744   -42472.367    114.12239    225.82612 
   30900    132.97083   -657.03312    143226.51   -39784.914     2675.039   -42459.953    114.10444    224.97372 
   30950    132.30913   -659.88307    143219.56   -39775.478    2661.7272   -42437.205    114.13135    223.85418 
   31000    132.44776   -523.25947    143358.06    -39838.25    2664.5162   -42502.766    114.14462    224.08874 
   31050    132.22408   -653.21238    143506.92   -39826.857    2660.0161   -42486.873    114.41841    223.71028 
   31100    133.50597   -688.44617    143496.43   -39807.201    2685.8046   -42493.006    114.94345    225.87911 
   31150    132.14298   -784.81342    143420.34   -39821.284    2658.3847   -42479.668    115.07227    223.57307 
   31200    131.79969   -921.95502    143375.55   -39841.943    2651.4786   -42493.421    115.26737    222.99226 
   31250    128.72907   -760.58344    143348.62    -39854.63    2589.7054   -42444.335    115.54874    217.79707 
   31300    131.72656   -600.06663    143370.61   -39824.361    2650.0073   -42474.368    115.73387    222.86852 
   31350    134.54545   -727.57872     143396.6   -39747.086    2706.7163   -42453.802    115.88169    227.63781 
   31400    131.74174   -710.55098    143430.76   -39712.538    2650.3127    -42362.85    116.05667     222.8942 
   31450    134.32809   -830.39043    143397.85   -39762.466    2702.3437    -42464.81    116.13144    227.27007 
   31500    132.58506   -773.45281    143305.51   -39775.027    2667.2782   -42442.305    116.16638    224.32103 
   31550    132.98792    -685.3355    143277.32   -39727.069    2675.3828   -42402.452    116.21657    225.00263 
   31600    131.76703   -698.26454    143312.51    -39696.64    2650.8216   -42347.462    116.12902    222.93701 
   31650    133.19626   -684.83774    143290.71   -39749.061     2679.574   -42428.635    116.28221    225.35511 
   31700    128.48558   -881.57887    143220.05   -39720.812    2584.8069   -42305.619    116.48394     217.3851 
   31750    130.12299   -619.79164    143194.65   -39716.919    2617.7476   -42334.667    116.54524    220.15544 
   31800    132.24841   -816.75957    143245.13    -39743.86    2660.5056   -42404.366    116.69917    223.75144 
   31850    129.33683   -831.42747    143219.55   -39691.585    2601.9319   -42293.517    116.89999    218.82533 
   31900    133.26989   -931.66216    143189.08   -39674.847    2681.0552   -42355.902    116.97843    225.47968 
   31950    133.54404   -847.74291    143117.86   -39697.214    2686.5706   -42383.784    117.24615    225.94353 
   32000    131.50323   -670.03803     143131.2   -39699.553    2645.5146   -42345.067    117.28631    222.49068 
   32050    132.34918   -728.63502    143143.15    -39687.25    2662.5328   -42349.782    117.51375    223.92193 
   32100    133.21062   -794.75192    143141.77   -39738.952    2679.8629   -42418.815    117.40348    225.37941 
   32150    130.89246   -710.02401    143166.48   -39775.419    2633.2274   -42408.646    117.66399    221.45732 
   32200    130.23947   -840.55922    143199.77   -39757.268    2620.0908   -42377.359     117.8556    220.35251 
   32250    130.00662   -890.29754    143170.24   -39727.601    2615.4066   -42343.007    117.91156    219.95856 
   32300    130.95938   -743.07858    143256.28   -39688.604    2634.5737   -42323.178    118.29191    221.57054 
   32350    133.13401   -841.78976    143299.55   -39715.671    2678.3216   -42393.993    118.66607    225.24979 
   32400    133.15587   -749.74302    143267.46   -39707.684    2678.7615   -42386.445    118.66095    225.28678 
   32450    132.11037   -782.40534    143297.68   -39690.711    2657.7287    -42348.44    119.25137     223.5179 
   32500    131.44163   -554.04237     143356.8   -39705.956    2644.2754   -42350.231    119.46985    222.38646 
   32550    132.77611   -592.22517    143431.95   -39723.035    2671.1218   -42394.156    119.44139    224.64427 
   32600    132.64418   -785.01302    143466.58   -39694.601    2668.4676   -42363.069    119.69198    224.42106 
   32650    133.62213   -768.94902    143514.07    -39627.49    2688.1414   -42315.632    119.74094    226.07564 
   32700    134.75281   -742.21314    143519.52   -39663.982    2710.8878    -42374.87    119.78983    227.98864 
   32750    130.14265   -789.21302    143551.58   -39666.804    2618.1431   -42284.947    119.93807    220.18871 
   32800    134.21908   -736.96529    143602.19   -39645.873    2700.1505   -42346.024    120.19561    227.08562 
   32850    133.60023   -957.22346     143542.4   -39654.215     2687.701   -42341.916    119.93169     226.0386 
   32900    134.15383   -754.80598    143538.98   -39657.398    2698.8379   -42356.236    119.97605    226.97523 
   32950    131.98855   -698.46761    143594.89   -39633.842    2655.2779    -42289.12    120.13718    223.31179 
   33000    132.11102   -720.70616    143544.08   -39679.669    2657.7416   -42337.411    120.61161    223.51899 
   33050    131.84261   -805.20675    143521.32   -39700.953    2652.3421   -42353.295    120.70461    223.06488 
   33100    134.39002     -779.218    143403.19   -39664.791    2703.5895   -42368.381    120.88558    227.37485 
   33150    131.79542   -701.26663     143350.7   -39686.803    2651.3926   -42338.195    120.84325    222.98503 
   33200    133.06344   -599.36954    143316.37   -39650.698     2676.902     -42327.6    121.03406     225.1304 
   33250    132.87538   -673.77467    143312.92   -39672.427    2673.1188   -42345.546    121.14239    224.81223 
   33300    134.88622    -567.6748    143350.11   -39638.176    2713.5719   -42351.748    121.23247    228.21437 
   33350     133.1393   -694.17692    143369.23   -39688.762    2678.4281    -42367.19    121.30639    225.25874 
   33400    132.20131   -606.58076    143314.24   -39661.118    2659.5581   -42320.677    121.33764    223.67176 
   33450     132.2174   -919.22534    143268.37   -39698.845    2659.8818   -42358.727    121.38477    223.69898 
   33500     131.7531   -733.13848    143168.18   -39649.363    2650.5413   -42299.905    121.29684    222.91343 
   33550    132.81397   -624.86042       143118   -39658.939    2671.8834   -42330.822    121.56265    224.70832 
   33600    129.24957   -1015.1128    143073.45   -39724.093    2600.1766   -42324.269     121.7222     218.6777 
   33650    132.00542   -791.06492     143055.7   -39713.632    2655.6173   -42369.249      121.981    223.34033 
   33700     132.6269   -676.27856    143066.98   -39657.392    2668.1199   -42325.512    122.43423    224.39181 
   33750    131.83222   -452.69266    143099.42    -39674.54     2652.133   -42326.674    122.19461     223.0473 
   33800     131.5541    -712.9657    143143.85   -39662.605     2646.538   -42309.143    122.64981    222.57675 
   33850    133.41097   -735.03011    143178.39   -39616.993    2683.8934   -42300.886    122.69342    225.71838 
   33900    134.07953   -777.38944    143232.66    -39628.95    2697.3432   -42326.293    122.80419    226.84953 
   33950    133.44007   -680.40762    143300.66   -39614.614    2684.4788   -42299.093    123.11727    225.76761 
[...]
   92000    133.92169   -535.22345    143293.83   -39559.645    2694.1679   -42253.813    339.15258    226.58247 
   92050    137.37929   -591.96381    143269.01   -39558.898     2763.726   -42322.624    338.82939    232.43239 
   92100    135.19629   -708.72081    143339.37   -39574.315    2719.8097   -42294.125    339.04364    228.73898 
   92150    133.66987   -636.27541    143332.29   -39578.157    2689.1018   -42267.259    339.40405    226.15641 
   92200      134.179   -661.26807    143319.21   -39568.877    2699.3443   -42268.221    339.65025    227.01782 
   92250    131.90565   -873.03787    143230.13   -39559.145    2653.6102   -42212.756    340.12423    223.17153 
   92300    133.89589   -822.49617    143247.17   -39568.883    2693.6488   -42262.531    340.04599    226.53882 
   92350    136.34685   -562.60984    143280.45   -39551.429    2742.9561   -42294.385    339.65364    230.68562 
   92400    135.04241   -838.05892    143243.54   -39574.663    2716.7139   -42291.377    339.50349    228.47862 
   92450    134.08601   -751.45019    143229.85   -39592.908    2697.4736   -42290.382    339.59642    226.86049 
   92500    134.59367   -639.63391    143242.81   -39605.159    2707.6863   -42312.845    340.08943    227.71939 
   92550    131.77415   -789.21564    143116.15   -39576.684    2650.9648   -42227.649    340.21948    222.94905 
   92600    134.08226   -847.41457    143066.52   -39566.401     2697.398   -42263.799    340.49912    226.85413 
   92650    134.79185   -871.84839    143043.59   -39562.099    2711.6733   -42273.773    340.76891     228.0547 
   92700    136.75056     -616.228    142951.88   -39541.254    2751.0776   -42292.332    340.90177    231.36865 
   92750    132.27758   -621.79025    142970.26   -39547.558    2661.0925   -42208.651     341.1249     223.8008 
   92800    132.55543   -590.36994    143038.42   -39579.121    2666.6822   -42245.804    341.01066     224.2709 
   92850    133.96449   -720.34701    143047.97    -39611.19    2695.0289   -42306.219    340.80216    226.65489 
   92900    131.37658   -685.21461    143036.21   -39605.081    2642.9667   -42248.047    341.26821     222.2764 
   92950    135.09488   -643.14274    143009.74   -39597.979    2717.7696   -42315.748    341.70901     228.5674 
   93000    134.05105   -728.49684     143087.6   -39601.924    2696.7703   -42298.694    341.38131    226.80134 
   93050    134.85293    -599.4807       143104   -39640.165    2712.9021   -42353.067    340.84037    228.15804 
   93100    130.82805   -800.35448    143119.17   -39653.974    2631.9317   -42285.906     341.0447    221.34834 
   93150    133.43118    -728.4164     143087.4   -39612.086    2684.3001   -42296.386    340.86536    225.75258 
   93200    131.76859   -608.27329    143065.86    -39625.09    2650.8528   -42275.943    340.76852    222.93963 
   93250    135.48575   -827.84115    143052.61   -39612.128    2725.6328   -42337.761    340.89385    229.22871 
   93300    132.19456   -582.37735    143122.77    -39560.92    2659.4223   -42220.342     340.7587    223.66034 
   93350     137.7407   -657.10455    143150.62   -39582.144    2770.9968   -42353.141    340.94232    233.04387 
   93400    134.56734   -720.22431    143129.99   -39600.295    2707.1567   -42307.452    341.11497    227.67485 
   93450    134.72375   -821.20384    143061.16   -39582.113    2710.3033   -42292.416    341.32263    227.93948 
   93500    131.82344   -633.33102    143020.36   -39645.256    2651.9563   -42297.212     341.3372    223.03243 
   93550    131.81814    -737.3613    142974.58   -39641.645    2651.8497   -42293.495    341.34624    223.02347 
   93600    130.55348   -690.61721    143035.15   -39654.839    2626.4079   -42281.246    340.86954    220.88379 
   93650    132.99786   -754.98562    143023.28   -39645.502    2675.5828   -42321.085    341.01522    225.01945 
   93700    131.20484    -710.7861    142981.85   -39632.769    2639.5116    -42272.28     341.2192    221.98582 
   93750    134.12479   -754.27786    142918.77   -39654.023    2698.2537   -42352.277    341.07437     226.9261 
   93800     129.4646   -785.55675    142800.98   -39707.169    2604.5023   -42311.672    340.79595     219.0415 
   93850    130.59005   -320.54832    142801.47   -39665.419    2627.1436   -42292.562    341.04703    220.94566 
   93900    134.24562   -652.60151    142877.69   -39680.646    2700.6845    -42381.33    341.39613    227.13053 
   93950    132.59872    -840.6035    142884.36   -39689.069    2667.5531   -42356.622    341.63939    224.34414 
   94000    132.00954   -584.05701    142829.43   -39697.066    2655.7003   -42352.766    341.59025    223.34731 
   94050    134.35116   -822.89572    142814.75   -39693.334    2702.8077   -42396.142    342.31117     227.3091 
   94100    132.14987   -740.81149    142810.35   -39714.823    2658.5233   -42373.347    341.87521    223.58473 
   94150    132.44033   -846.70785    142789.99   -39667.977    2664.3666   -42332.344     341.6932    224.07616 
   94200    132.58529   -723.52054    142673.11   -39694.844    2667.2828   -42362.126    341.67553    224.32141 
   94250    129.18547   -823.56185    142665.56   -39709.432     2598.887   -42308.319    342.22008    218.56925 
   94300    132.36265   -778.12178    142634.66   -39682.714     2662.804   -42345.518    342.67682    223.94473 
   94350     131.3973   -507.87217    142666.13   -39665.765    2643.3834   -42309.148    343.15089    222.31144 
   94400    131.75257   -614.07544    142757.81   -39693.707    2650.5306   -42344.238    343.33447    222.91253 
   94450    133.31997   -829.59362    142768.33   -39682.179    2682.0627   -42364.242     343.8011    225.56441 
   94500    130.66346   -731.34756    142752.67   -39664.136    2628.6204   -42292.756     343.9941    221.06986 
   94550    131.87092   -647.56281    142785.55   -39667.405    2652.9115   -42320.316    343.91274    223.11276 
   94600    130.77963   -550.10387    142878.21   -39693.644    2630.9575   -42324.601    344.14037    221.26641 
   94650    132.46815   -527.44148    142998.06   -39683.892    2664.9263   -42348.818    344.36339    224.12323 
   94700    130.20685   -810.37213    143002.11   -39707.871    2619.4346   -42327.306    344.71048    220.29732 
   94750    135.07635   -648.22765     143011.6   -39607.605    2717.3966   -42325.001    344.52514    228.53604 
   94800    134.93518   -788.90093    143017.85   -39577.285    2714.5568   -42291.842    344.48819     228.2972 
   94850    133.22088   -773.37248    142960.15   -39580.239    2680.0693   -42260.308     344.8463    225.39677 
   94900    133.39334    -707.6732    142837.79   -39639.369    2683.5387   -42322.908    344.95969    225.68855 
   94950    132.75349   -575.46568    142851.64   -39658.249    2670.6666   -42328.915    344.60615    224.60599 
   95000    130.57072   -673.47355    142832.41   -39656.889    2626.7549   -42283.644    344.64814    220.91297 
   95050     131.4746   -642.74884     142800.3   -39610.866    2644.9385   -42255.804    344.45322    222.44223 
   95100    134.61221   -706.18125    142743.55    -39604.06    2708.0593   -42312.119     343.3434    227.75076 
   95150    130.77616    -664.7691    142769.07    -39686.81    2630.8877   -42317.698    343.37798    221.26054 
   95200    130.64832   -863.29369    142686.39   -39646.335    2628.3159   -42274.651    343.83335    221.04425 
   95250    132.15022    -376.2398    142659.87   -39622.875    2658.5302   -42281.406    343.71186    223.58531 
   95300    135.27114   -533.53898    142758.61    -39532.46    2721.3154   -42253.775    343.72871    228.86561 
   95350    133.77975   -600.13041    142767.68   -39522.877    2691.3125    -42214.19     344.0661    226.34233 
   95400    134.41729   -596.80017    142844.71   -39552.718    2704.1381   -42256.856    343.96166    227.42098 
   95450    132.67647   -778.50487     142897.8   -39568.352    2669.1172    -42237.47    344.55609    224.47568 
   95500    132.08476   -612.91927    142827.25   -39573.624    2657.2135   -42230.838    345.09538    223.47457 
   95550    131.13221   -825.98907    142812.02   -39638.358    2638.0505   -42276.409    345.21962    221.86295 
   95600    130.03269   -724.98257    142734.06   -39654.118     2615.931   -42270.049    345.21833    220.00267 
   95650    132.27269    -628.8673    142744.64   -39610.742    2660.9942   -42271.736    345.54813    223.79253 
   95700    132.35402   -688.85337    142751.92   -39613.438    2662.6303   -42276.069     346.2891    223.93013 
   95750    133.25544   -568.50009    142741.46   -39614.295    2680.7646    -42295.06    346.18582    225.45524 
   95800    131.09451   -675.61268    142751.79   -39664.786    2637.2921   -42302.078    346.08674    221.79916 
   95850    135.10348   -575.79601    142847.22   -39685.906    2717.9425   -42403.849    345.65234    228.58194 
   95900     130.9213   -581.65016    142869.11    -39693.48    2633.8076   -42327.288    345.88387    221.50611 
   95950    128.61325   -844.55983    142814.12   -39686.967    2587.3753   -42274.342     345.8144     217.6011 
   96000    131.58065    -745.6676    142789.23   -39650.343    2647.0721   -42297.415    346.15632    222.62167 
   96050    131.27663    -742.6538    142809.64   -39656.503     2640.956   -42297.459    346.67337    222.10729 
   96100    130.45652   -879.59654    142698.05   -39691.673    2624.4573    -42316.13     347.4009    220.71974 
   96150    129.80659   -859.76023    142623.47   -39703.629    2611.3825   -42315.011    347.66212    219.62013 
   96200    133.97179   -734.73335    142617.39   -39633.422    2695.1758   -42328.598    347.81386    226.66724 
   96250    133.03035   -657.97704    142663.56    -39584.49    2676.2364   -42260.726    347.97528    225.07442 
   96300    131.33268   -604.25728     142698.4   -39569.541    2642.0836   -42211.625    348.01791    222.20213 
   96350    132.57237   -708.58116    142729.63   -39585.284     2667.023   -42252.307    348.35608    224.29956 
   96400    132.48877   -727.92749    142689.81   -39585.228    2665.3411   -42250.569    349.04266    224.15811 
   96450    132.52774   -648.35492    142715.58   -39601.021    2666.1251   -42267.146    348.77093    224.22404 
   96500    134.27839   -714.51064    142762.16   -39622.742    2701.3438   -42324.085     349.2131    227.18598 
   96550    131.74359   -565.79819       142860   -39636.391    2650.3499   -42286.741    349.20075    222.89733 
   96600    133.13436   -631.26077    142916.73    -39633.91    2678.3289   -42312.239    349.50943     225.2504 
   96650    133.18239   -695.77304    142984.36   -39621.297    2679.2949   -42300.592    349.90965    225.33164 
   96700    133.71721   -819.07811    143000.26   -39650.131    2690.0542   -42340.186    350.32161    226.23651 
   96750    132.46701   -758.51113    143065.22   -39620.178    2664.9034   -42285.081    350.29398     224.1213 
   96800     132.9905   -718.75099    143070.94   -39659.584    2675.4346   -42335.019    350.31863    225.00698 
   96850    133.16402   -705.62147    143065.44   -39677.507    2678.9255   -42356.433    350.68836    225.30057 
   96900    133.91182   -722.46848    143048.47   -39588.676    2693.9692   -42282.646    351.02406    226.56577 
   96950    134.18273   -552.55182    143084.12   -39606.468    2699.4194   -42305.888    351.07831    227.02413 
   97000    130.64204    -846.4124    143045.16   -39615.899    2628.1896   -42244.089    351.41643    221.03363 
   97050     133.3588   -838.19319    142966.45   -39567.144    2682.8439   -42249.988    351.64959    225.63012 
   97100    133.33672   -503.55919    142991.23   -39552.812    2682.3997   -42235.211    351.59742    225.59275 
   97150    131.05796   -518.41294    143055.99   -39560.264    2636.5569   -42196.821    351.66764    221.73732 
   97200    132.53245   -473.30373    143147.98   -39561.723    2666.2198   -42227.943    351.61812    224.23201 
   97250     130.7929   -802.94739    143161.65    -39553.85    2631.2244   -42185.074    352.00539    221.28886 
   97300    134.81562   -775.74845    143092.95   -39594.663    2712.1516   -42306.815    351.90376    228.09492 
   97350    134.38844   -878.01598    142986.96   -39560.079    2703.5577   -42263.636    351.97065    227.37217 
   97400    134.19018   -794.93429    142977.71   -39552.548    2699.5693   -42252.117     351.7501    227.03674 
   97450    131.98734   -602.87269    143001.61    -39568.05    2655.2535   -42223.303    351.75835    223.30973 
   97500    132.11776   -614.58598    142947.67   -39624.929    2657.8773   -42282.807    351.63627    223.53039 
   97550    135.04476   -587.45979    142991.35    -39602.53    2716.7612   -42319.292     352.3592     228.4826 
   97600    135.22755    -780.4543    142981.52    -39580.18    2720.4385   -42300.619    352.42111    228.79186 
   97650    133.39009    -672.1502    143011.14   -39598.879    2683.4733   -42282.352    352.83443    225.68305 
   97700    132.74004   -755.14161     142962.9   -39618.855    2670.3961   -42289.251    352.92928    224.58324 
   97750    132.09561   -535.61032    142984.23   -39635.916    2657.4318   -42293.348    353.03902    223.49293 
   97800    131.22685   -490.89573    143017.85    -39625.75    2639.9545   -42265.705    353.28466    222.02307 
   97850    133.75311   -646.61847    142986.27   -39640.832    2690.7765   -42331.608    353.29975    226.29725 
   97900    134.47414   -425.65612    143076.59   -39594.857    2705.2818   -42300.139    353.57998    227.51717 
   97950    133.37932   -742.36049    143128.03   -39629.251    2683.2568   -42312.508    353.85284    225.66484 
   98000     131.7348   -694.01805    143134.51   -39630.778    2650.1731   -42280.951    353.56186    222.88247 
   98050    134.07218   -656.53482    143048.34   -39609.458    2697.1954   -42306.653    354.05448    226.83709 
   98100    133.43921   -529.35041    143092.47   -39616.807    2684.4616   -42301.269    353.92438    225.76617 
   98150    132.89301   -629.93662     143124.7   -39632.287    2673.4733    -42305.76    353.67742    224.84204 
   98200    133.14343   -653.11095    143092.54   -39603.278    2678.5112   -42281.789    353.43683    225.26573 
   98250    132.19149   -666.32059    143057.13   -39642.245    2659.3605   -42301.605    353.50047    223.65514 
   98300    135.31254   -621.65482    143000.35   -39576.515    2722.1484   -42298.664    353.94361    228.93566 
   98350    131.75809   -834.74151    143041.92   -39590.043    2650.6417   -42240.684    354.67968    222.92187 
   98400    135.32391   -996.33386    142964.31   -39625.058    2722.3769   -42347.435    354.73782    228.95489 
   98450    133.24606   -598.52109     142927.8   -39542.403    2680.5758   -42222.979    354.83557    225.43937 
   98500    130.33282   -873.26665    142839.01   -39570.317    2621.9689   -42192.286    355.08304    220.51046 
   98550    132.36013   -758.35844    142798.09   -39601.943    2662.7533   -42264.696    354.92772    223.94047 
   98600    132.58025   -732.62352    142722.92   -39590.214    2667.1815   -42257.395    354.94499    224.31289 
   98650    131.83985   -795.59139    142683.82   -39601.095    2652.2865   -42253.382    355.04125    223.06021 
   98700    134.46165   -725.90783    142726.44   -39553.462    2705.0305   -42258.492    355.57334    227.49603 
   98750    132.43743   -770.71777     142762.4   -39606.836    2664.3083   -42271.145     355.8583    224.07125 
   98800    130.74314   -843.06484    142716.01    -39632.27    2630.2234   -42262.493    356.04539    221.20467 
   98850    132.94512   -415.11741    142711.93   -39630.799    2674.5218   -42305.321    355.84567    224.93022 
   98900    131.25548   -660.37095     142759.5   -39663.755    2640.5305   -42304.286     356.0967    222.07151 
   98950    134.33453   -484.12826    142733.78   -39667.649    2702.4732   -42370.122    356.51853    227.28096 
   99000    130.82548   -365.46466    142773.53   -39632.882    2631.8799   -42264.762    356.71504    221.34399 
   99050    131.34573   -597.09249    142809.36   -39656.388    2642.3461   -42298.734    357.14563     222.2242 
   99100    131.73249   -486.31819    142841.11   -39651.445    2650.1267   -42301.572    357.27046    222.87856 
   99150    130.71107   -797.77846    142841.65   -39677.835    2629.5783   -42307.413    357.59691    221.15042 
   99200    129.64255   -542.28666    142763.13   -39706.617    2608.0823   -42314.699    357.60033    219.34258 
   99250    133.90488   -570.05037    142835.69    -39713.51    2693.8297    -42407.34    357.95378    226.55403 
   99300    132.11141   -662.18361    142822.43   -39699.464    2657.7496   -42357.214    357.77637    223.51966 
   99350    131.93004    -547.4664    142894.66   -39700.133    2654.1008   -42354.233    357.56464    223.21279 
   99400    131.66346    -568.5462    142945.92   -39670.927    2648.7379   -42319.665    357.52091    222.76177 
   99450    134.99601   -862.11341    142959.14   -39676.456    2715.7804   -42392.236    357.69736    228.40011 
   99500     134.4363   -689.72351    142875.07    -39667.59    2704.5205   -42372.111      357.809    227.45314 
   99550    132.24661   -512.76124    142888.73   -39698.226    2660.4694   -42358.696    357.47539     223.7484 
   99600    133.66974   -659.42545    142871.11   -39698.648    2689.0992   -42387.747    358.13188     226.1562 
   99650    130.94612    -528.7487     142848.5   -39721.347    2634.3068   -42355.654    358.20836    221.54809 
   99700    133.21839   -629.49159    142919.86   -39720.856    2680.0193   -42400.876    357.85112    225.39257 
   99750    133.40153   -439.70695    142987.78    -39702.52    2683.7036   -42386.224    358.12556    225.70242 
   99800    134.43856   -498.59748     143069.5   -39668.518     2704.566   -42373.084    358.31895    227.45697 
   99850    133.24463   -525.15499    143145.67   -39695.164    2680.5472   -42375.711    358.40039    225.43696 
   99900    132.80127   -708.46539    143152.59   -39716.655    2671.6279   -42388.283    358.57054    224.68684 
   99950    134.73238   -551.55951    143178.09   -39684.731    2710.4769   -42395.208    358.47046    227.95408 
  100000    135.84989   -673.24919    143248.57   -39653.242    2732.9584     -42386.2    358.89607     229.8448 
Loop time of 188.235 on 64 procs for 100000 steps with 6750 atoms

Performance: 229.500 ns/day, 0.105 hours/ns, 531.250 timesteps/s
100.0% CPU use with 64 MPI tasks x no OpenMP threads

MPI task timing breakdown:
Section |  min time  |  avg time  |  max time  |%varavg| %total
---------------------------------------------------------------
Pair    | 35.175     | 88.869     | 148.52     | 563.9 | 47.21
Neigh   | 1.287      | 2.6094     | 4.8807     |  87.5 |  1.39
Comm    | 26.761     | 84.763     | 141.6      | 558.2 | 45.03
Output  | 0.12581    | 0.12739    | 0.14012    |   0.5 |  0.07
Modify  | 6.9944     | 11.127     | 20.125     | 136.9 |  5.91
Other   |            | 0.7395     |            |       |  0.39

Nlocal:    105.469 ave 175 max 66 min
Histogram: 26 6 0 8 8 0 0 0 6 10
Nghost:    995.688 ave 1341 max 674 min
Histogram: 32 0 0 0 0 0 0 0 7 25
Neighs:    0 ave 0 max 0 min
Histogram: 64 0 0 0 0 0 0 0 0 0
FullNghs:  12573.8 ave 27661 max 4083 min
Histogram: 32 0 0 0 16 0 0 0 3 13

Total # of neighbors = 804722
Ave neighs/atom = 119.218
Neighbor list builds = 6135
Dangerous builds = 0

write_data		${DIR}/data.eq-${NAME}-${TEMP}
write_data		run_18/data.eq-${NAME}-${TEMP}
write_data		run_18/data.eq-het_freeze_18-${TEMP}
write_data		run_18/data.eq-het_freeze_18-225
undump          1

reset_timestep  0

unfix           2
unfix           3
unfix           4


################################################
#######         Run Simulation         #########
################################################

log				${DIR}/log.run_${NAME}
log				run_18/log.run_${NAME}
log				run_18/log.run_het_freeze_18
