LAMMPS data file via write_data, version 16 Mar 2018, timestep = 100000

6736 atoms
2 atom types

0.0000000000000000e+00 4.9219999999999999e+01 xlo xhi
0.0000000000000000e+00 4.9019635930410494e+01 ylo yhi
8.4839412874787357e-01 5.9213605871251367e+01 zlo zhi

Masses

1 18.015
2 12.01

Atoms # atomic

169 1 7.0814891261260167e+00 1.8507458815552165e+00 2.6915068512519884e+00 0 1 1
1773 1 2.0480814409126085e+00 1.5187722769420326e+01 1.4758436073032044e+00 1 0 1
230 1 1.2595018679948928e-02 1.1422405726322499e+01 6.9843410557633270e+00 0 0 0
3491 1 5.1577825645493451e+00 1.0669997208858936e+01 2.0815471910454466e+00 1 0 0
2055 1 2.0768417160454034e+00 3.2501537011706194e+00 1.3829864761118040e+00 0 0 0
2081 1 2.2734542833877192e+00 5.4395879221044741e+00 3.1067460115175165e+00 1 1 0
201 1 2.1246282598272348e+00 9.2456278869495705e+00 4.4541106575193616e+00 1 2 0
3748 1 5.2625701285516175e+00 3.8410491192089951e+00 4.3788309052873462e+00 1 2 0
1967 1 7.7060899028132059e+00 7.6006306894417213e+00 6.7653566366672075e+00 1 0 0
4472 1 9.6048267337707252e+00 7.0154016456265547e+00 2.5393958431116248e+00 1 0 1
5875 1 1.0400260003817552e+01 2.1345114513198533e+00 4.3041797494943488e+00 1 2 1
1138 1 1.0177317863191895e+01 4.2215660736158780e+00 2.6656367222246367e+00 1 0 1
1172 1 2.3855319894404811e-01 1.0657247231192102e+01 3.5822219917144462e+00 2 0 1
5339 1 2.5081432213543766e+00 1.3359028941657572e+01 4.4162508985552087e+00 1 0 0
2797 1 5.1744651109166844e+00 6.5533389839769169e+00 3.4041480043060246e+00 -1 0 1
4387 1 1.0211427268579673e+01 1.2681249434501105e+01 5.4077758181273641e+00 2 -1 1
3865 1 8.1032966634826877e+00 1.1092166212446095e+01 3.9968481801655891e+00 1 0 1
6208 1 9.3390861378669898e-01 5.1425032123112784e+00 9.4828817958205018e+00 2 1 1
2838 1 2.2426857725276430e+00 1.1621370816412229e+01 9.9962792254610733e+00 0 2 1
6292 1 9.4535796735966091e+00 8.9478978189236020e+00 4.9330858883404289e+00 0 0 1
2103 1 5.8710764647280751e+00 1.7337544982805673e+00 1.2164216612474307e+01 0 1 0
3561 1 5.1111684686617496e+00 1.3317571504669386e+01 3.8468124322226229e+00 1 0 0
5576 1 5.1817241131759335e+00 1.4828888653884597e+01 9.1929590102751764e+00 0 -1 0
440 1 6.4151977611230517e+00 7.9670146084437943e-01 9.5122131064306235e+00 0 0 0
873 1 1.4318491709153878e+00 7.1924544334831353e+00 6.3101675773959789e+00 1 0 1
2134 1 8.5962324126835826e-02 1.5976492813937279e+01 1.0986966759149553e+01 0 0 0
5809 1 1.2082986651687750e+00 4.5390302049863838e+00 5.4860334107579085e+00 0 1 1
2123 1 5.0625281558691020e+00 2.6934293589035128e+00 7.3644238208926467e+00 2 1 0
5081 1 3.4402728449402553e+00 1.9891478952542097e+00 1.0326391204345539e+01 1 1 0
3624 1 7.3156267966975737e+00 4.8275514758983729e+00 6.7723089420449947e+00 1 0 0
3667 1 4.3519390904882274e+00 1.5618725788571848e+00 8.8756252654058365e-01 1 2 0
5128 1 5.3477385234880233e+00 1.4038777292150124e+01 1.0693056753079830e+00 0 1 0
1080 1 9.9107951721494700e+00 3.3036793258026673e+00 6.9137260838424597e+00 0 1 0
5356 1 2.4535105925592346e+00 2.2103417023905982e+00 5.4528342733246289e+00 0 0 0
876 1 1.9063402986722948e+00 8.7935001326173854e+00 1.1251023645460224e+01 1 1 1
6178 1 2.3315476839762845e+00 1.2418977318362105e+01 1.6715637924447284e+00 0 1 1
3438 1 9.4450238965333568e+00 6.6559858811291797e+00 9.1833005444769391e+00 -1 1 1
5108 1 3.5395910009174592e+00 7.4381552331480991e+00 8.6313172309012369e+00 0 1 1
348 1 1.2240336612064576e+01 5.1718596515848079e+00 7.2278618902703737e+00 0 1 0
3869 1 3.0540029585979833e+00 1.1324878471279295e+01 6.4398779038077958e+00 1 0 0
4429 1 1.1459132976228157e+00 2.4437706914490493e+00 7.8859219173221211e+00 0 0 0
2538 1 5.0559202419779474e+00 1.2179132837815489e+01 1.0099574057994509e+01 0 -2 1
3431 1 5.6997600043128376e+00 1.0798703782785863e+01 5.5528438814093546e+00 1 1 1
3660 1 4.8754554021608003e+00 7.9028027210671592e+00 6.0764323000029714e+00 1 0 0
4590 1 1.2236588996766857e+01 8.4601640241243921e+00 4.9828094733982686e+00 0 1 1
5966 1 1.1139190772622989e+01 1.0818829705734521e+01 7.1252943528690054e+00 0 0 1
255 1 9.2703238845937341e-01 1.3732922730377023e+01 8.1231491288768538e+00 1 -1 0
6253 1 3.1359271398661615e+00 1.5853329918870433e+01 7.6293164363587227e+00 -1 -1 1
3540 1 6.7078103523641728e+00 1.1919506243175467e+01 7.7876534951586738e+00 -1 0 1
1130 1 6.7296975211325893e+00 1.5541867367445283e+01 5.2332767736179964e+00 0 0 1
4476 1 8.4441497411448143e+00 1.4386046224842909e+01 7.0891785340505189e+00 0 -1 0
2874 1 1.7139810770803188e+00 1.5678054777160131e+01 5.1343890006671513e+00 0 1 1
108 1 8.1952114216635596e+00 1.1276268400393096e+01 1.1623897001525141e+00 0 1 0
948 1 6.4584182296768660e+00 1.3076292051034043e+01 1.2255864589486265e+01 1 0 1
5468 1 4.2715103809383326e+00 4.8541523649218021e+00 9.5344879793381541e+00 0 -1 0
1749 1 2.1109896951122370e-01 6.8326442413030923e+00 1.7904003032404936e+00 0 2 1
817 1 6.5584917891225079e+00 4.5618758592962463e+00 1.2274433586755151e+01 0 0 1
2625 1 8.4697915453890769e+00 2.7646982297098486e+00 9.4458669505367627e+00 1 1 1
6064 1 8.8251772103872614e+00 9.0504438724685379e+00 9.9944156384020992e+00 2 0 1
5940 1 5.8644930118406728e+00 6.5304788279540560e-02 6.6292304632399581e+00 0 0 1
2170 1 7.2746282047330881e+00 5.0759517123417464e+00 9.6191602684110347e+00 1 0 0
5260 1 1.1911879189282882e+01 7.9176660756856263e+00 7.9135173710692026e+00 0 1 0
896 1 3.2626927626217173e+00 8.4599051909409617e+00 1.8946515562671018e+00 0 1 1
5474 1 1.0428008949195394e+01 3.2827612553825767e+00 1.1358033016071142e+01 2 -1 0
1169 1 1.1149710502842886e+01 3.5318921051338348e-01 7.6664630947435350e+00 0 0 1
50 1 7.2186376319910073e+00 1.5983548366794759e+01 1.0717261801812457e+01 1 0 0
3665 1 5.8307495062906600e+00 9.2135132250544665e+00 9.0340755726301190e+00 0 -1 0
3537 1 9.3664534241446837e+00 1.1621928948773704e+01 9.0348205252676976e+00 0 1 1
5873 1 1.0673845606530282e+01 1.2898296565634157e+01 1.1079774377207354e+01 0 0 1
2587 1 1.0167191772728145e+01 5.9418071237040504e+00 1.1715275696329506e+01 1 2 1
5808 1 2.7271786680321952e-01 4.2875719132695495e-01 1.1605166641994384e+01 0 0 1
3489 1 1.1259812547508499e+01 1.5777303812830120e+01 1.0467969179122287e+01 0 0 0
2553 1 4.9583172308380634e+00 8.2011785110241515e+00 1.1717533995771998e+01 0 0 1
2855 1 2.8095990047644792e-01 4.7862508354623712e+00 1.2244384464472756e+01 0 0 1
2592 1 6.1013788444533645e-02 1.9610675642184607e+00 2.6318731562246791e+00 0 1 1
2073 1 7.3089371380707497e+00 6.7882618287316241e+00 1.0844878522985937e+00 1 0 0
760 1 4.4230761877993069e-01 1.4148185721891796e+01 1.6758082931725429e+01 0 -1 1
2906 1 1.1490440148583097e+01 7.1755618180563130e-01 1.4276249109777392e+01 0 1 1
5247 1 5.2984974416388066e+00 1.3995111764830998e-01 1.8515903139488806e+01 1 0 1
1886 1 5.1607210999817763e+00 2.3186741272293134e+00 1.6808230779159061e+01 -1 -1 1
5202 1 5.0126605149106060e+00 6.8571704915474041e-01 1.4492829796782077e+01 0 1 0
2454 1 3.7356120620022620e-01 2.3661544591182713e+00 1.5909390459497432e+01 -1 1 1
1038 1 1.7895742163542585e+00 9.3888783409761822e-01 1.3743473709589805e+01 0 -1 1
4357 1 6.0206768021097667e-01 1.4188679557450206e+01 2.0159888406458897e+01 -2 0 1
1028 1 2.0795226293555462e+00 8.3422836943122434e+00 1.5829031974688339e+01 0 0 1
2609 1 7.5767970918243748e+00 7.3834039390244692e+00 1.4365067547808270e+01 0 2 1
4329 1 2.9978785283080160e+00 5.7601045110594109e+00 1.5320189055856419e+01 0 0 1
5292 1 8.3870194474336550e+00 4.7854216959703635e+00 1.4308234801433466e+01 2 0 1
4242 1 1.9834468648229935e+00 1.0614714740991364e+01 1.8393264820618064e+01 0 -1 1
6128 1 3.5641072752142553e+00 1.0806835060007479e+01 1.5011259859394260e+01 0 0 1
3816 1 9.9631488393572165e-01 2.0974376893282898e+00 2.4147180143847116e+01 1 0 0
930 1 5.3523931800571827e+00 8.0670974981272199e+00 1.6672728705377171e+01 -1 1 1
243 1 1.0829384448853682e+01 5.6529370133158796e+00 1.5238007990981512e+01 1 0 0
832 1 4.2646401413794006e+00 1.3895336034497962e+01 1.3280441950559867e+01 -1 2 1
311 1 4.3023286445192026e+00 1.3148691682152274e+01 1.6408126562260101e+01 0 1 1
454 1 9.0922815397389503e+00 1.8506024010671340e+00 1.3193986377494165e+01 0 1 0
3705 1 9.8659285872812372e+00 1.3754471494435830e+01 1.3744775186209528e+01 2 1 0
1842 1 7.0661485273760203e+00 1.4405116599808727e+01 1.5321330012916565e+01 1 1 0
318 1 8.4061404641040056e+00 1.0936582192888686e+01 1.6461325691342797e+01 0 0 0
2820 1 8.0972215299583663e+00 1.6014737311476949e+01 2.0301294853778469e+01 0 1 1
4553 1 2.6650452558913273e+00 3.8357836491840351e+00 1.7298194776047779e+01 1 -2 1
1189 1 1.1084930533969235e+01 4.1576223183090653e+00 1.7634484614869720e+01 1 0 1
3708 1 3.3425056541509113e+00 2.1434469413748123e+00 2.0292623696545810e+01 1 3 0
1816 1 1.1323302088183219e-01 8.1378734317210881e+00 1.3421371665975805e+01 0 1 0
62 1 8.9853238042794814e+00 2.2559005322812866e+00 1.7953905961273115e+01 1 1 0
6068 1 9.5140375109027868e+00 8.7977871493254511e+00 1.2686160385596951e+01 -1 1 1
1754 1 1.0635760369016998e+01 1.6270473963787556e+01 1.2954057827238188e+01 1 -1 1
3730 1 5.0293030845763429e+00 5.8328862610702572e+00 1.7956814232843101e+01 0 1 0
2540 1 2.1093536909877466e+00 6.6225349803648612e+00 2.0947004921888485e+01 1 2 1
170 1 7.3483321457241662e+00 3.9523572852793594e+00 1.6732200095744965e+01 0 0 0
4473 1 5.7040267284353448e+00 9.6333889095417984e+00 1.4003626079928864e+01 -1 2 0
5396 1 5.5179983999460380e-01 7.7218255647436917e+00 1.8093777939191554e+01 1 -1 0
3719 1 3.1322660204568855e+00 1.5279079370926450e+01 1.7558621976722939e+01 1 0 0
4376 1 5.0109390063728574e+00 1.0325858295108651e+01 2.3327506844155945e+01 1 -1 1
4188 1 7.8026953473872798e+00 8.8587278392157440e+00 1.9954456414878827e+01 0 0 0
5995 1 5.1360463541150621e+00 9.0892579717021125e+00 2.0555314206734497e+01 0 0 1
441 1 8.1441444561975782e+00 8.6682075582159666e+00 1.7208690315053946e+01 1 -1 0
3751 1 1.0903466665310685e+01 7.9050469431888297e+00 1.6632188994120430e+01 1 -1 0
203 1 1.1767418078238214e+00 1.6092460174271647e+01 1.4741684009810580e+01 -1 1 0
6288 1 1.8916414938689452e+00 6.8971623154265744e+00 2.3724848727588707e+01 0 1 0
2039 1 6.5592119874420920e+00 1.2287566565223372e+01 1.8089269704643002e+01 0 1 0
5114 1 2.3670277454340756e+00 9.6086686458486632e+00 2.3699990606981093e+01 0 0 0
1021 1 5.7097427145074713e+00 1.4370331087656584e+01 2.0344693774898126e+01 0 -1 1
1007 1 4.6180001279794745e+00 1.0104904013090669e+01 1.8367264702753385e+01 1 1 1
5847 1 9.6374613165116543e+00 4.4658254184200716e+00 2.1372949683262572e+01 1 0 1
6196 1 1.3294359690021347e+00 4.3336249219584122e+00 1.9551446842127177e+01 -1 1 1
6011 1 1.0431968974156431e+01 1.2397326952638442e+01 1.7523825089673508e+01 0 0 1
2483 1 1.1895175040541357e+01 1.0158039422163773e+01 1.9549023015499682e+01 0 0 1
1891 1 1.1839850644757334e+01 1.2657865521374861e+01 2.0526387515658119e+01 1 0 1
330 1 8.5495965782221794e-01 2.1705992189192345e+00 2.1467753018121748e+01 -1 0 0
5399 1 2.3880569750737710e-01 1.1559968505147085e+01 1.6411490467614904e+01 0 -1 0
5820 1 8.0509719762288459e+00 2.6852554865471573e-01 2.1678406704381274e+01 0 1 1
3700 1 5.4978087353854095e+00 3.7726161168211054e+00 2.1694208992435076e+01 0 0 0
857 1 9.5782310137027675e+00 1.3883012433251805e+01 2.1675460197913001e+01 -1 0 1
4558 1 1.1726514141125671e+01 1.0483904807756433e+01 1.2759408596783150e+01 1 1 0
262 1 3.9380338695936143e+00 2.8135063495518478e+00 2.3937700168183692e+01 0 1 1
4520 1 2.6451079581720188e-01 5.4676163165770451e+00 1.4736789605007393e+01 2 3 1
5992 1 1.3157580552071328e+00 9.8103528968022076e+00 2.1113890347150036e+01 1 0 1
107 1 1.5456520017018266e-01 1.4319074678716392e+01 1.3073914200922012e+01 0 0 1
2751 1 4.8730951770210797e+00 6.5802065212458416e+00 2.0366292197349956e+01 0 0 1
5205 1 7.2757775012574903e+00 1.6129363145797331e+01 1.7453732685470776e+01 0 0 0
253 1 1.0482432155023956e+01 8.2191003644975229e+00 2.0691207501360704e+01 0 1 0
234 1 2.8399498913561736e+00 1.2867808078742536e+01 2.2453175141194354e+01 -2 0 1
6175 1 7.9339364565154273e+00 2.7048890840932018e+00 2.0528257519060791e+01 0 0 0
2758 1 1.0460284952808786e+01 1.5328653140630962e+01 1.8613741145115469e+01 0 -1 1
1121 1 3.0586787455171693e+00 1.3192957832842541e+01 1.9876811313766027e+01 1 0 1
123 1 1.1472006124048791e+01 6.0983602054150072e+00 1.9651373556639644e+01 1 -2 0
3619 1 7.7683389624507306e+00 6.1008056318508874e+00 2.1678234262492907e+01 0 -1 0
6089 1 7.1214930327313022e+00 6.3488082395229366e+00 2.4124599325115636e+01 0 2 1
1013 1 1.0717771987020756e+01 8.0606360417673457e+00 2.3539971335907914e+01 0 0 1
3803 1 4.2273002178605541e+00 5.8048291166461894e+00 1.2724810232446075e+01 0 0 0
2837 1 8.1513747243459935e+00 1.1517104468254239e+01 2.1007498232867967e+01 0 0 0
3436 1 1.1445183333377477e+01 1.2495522053442391e+01 1.5173746647531170e+01 1 1 1
182 1 9.2462105364504801e+00 1.0218433755039346e+01 2.3402928260728899e+01 1 0 0
5949 1 1.0848957963247491e+01 3.2327133011964806e+00 2.3243857604763875e+01 0 0 1
913 1 7.9027018700147531e+00 1.1170034620354192e+01 1.3780817119929015e+01 1 1 1
4142 1 5.9406536202154978e+00 1.2926425729313335e+01 2.2563012817186195e+01 -1 0 1
4493 1 6.4584536729287531e-02 1.0832714967160570e+01 1.3804148093816895e+01 0 0 0
2767 1 2.2856514003250918e+00 1.6102865248079105e+01 2.3854522800389123e+01 0 1 1
1836 1 2.5562923468627541e-01 1.3962948397522501e+01 2.3645021337160451e+01 -2 -1 1
1223 1 2.2442217576623187e+00 1.2314971266672158e+01 1.2595712999796309e+01 -1 1 1
2586 1 1.0073875175689000e+01 6.6111508737165114e-01 2.4109402476436149e+01 -1 0 1
1075 1 2.6134785244224013e+00 3.1531628914829390e+00 1.2542042231777067e+01 0 0 0
511 2 0.0000000000000000e+00 2.8417180249513345e+00 2.6814422676588269e+01 0 0 0
512 2 0.0000000000000000e+00 0.0000000000000000e+00 2.6814422676588269e+01 0 0 0
513 2 1.2305000000000001e+00 7.1042950623783474e-01 2.6814422676588269e+01 0 0 0
517 2 1.2305000000000001e+00 2.1312885187134998e+00 2.6814422676588269e+01 0 0 0
518 2 2.4610000000000003e+00 2.8417180249513345e+00 2.6814422676588269e+01 0 0 0
519 2 2.4610000000000003e+00 0.0000000000000000e+00 2.6814422676588269e+01 0 0 0
520 2 3.6915000000000004e+00 7.1042950623783474e-01 2.6814422676588269e+01 0 0 0
528 2 3.6914999999999996e+00 2.1312885187134998e+00 2.6814422676588269e+01 0 0 0
1815 1 1.1329982838040030e+01 1.2342435827299123e+01 2.4519640597365555e+01 -1 0 0
529 2 4.9220000000000006e+00 2.8417180249513332e+00 2.6814422676588269e+01 0 0 0
530 2 4.9220000000000006e+00 0.0000000000000000e+00 2.6814422676588269e+01 0 0 0
531 2 6.1524999999999999e+00 7.1042950623783407e-01 2.6814422676588269e+01 0 0 0
543 2 6.1524999999999999e+00 2.1312885187134989e+00 2.6814422676588269e+01 0 0 0
544 2 7.3829999999999991e+00 2.8417180249513345e+00 2.6814422676588269e+01 0 0 0
545 2 7.3829999999999991e+00 0.0000000000000000e+00 2.6814422676588269e+01 0 0 0
546 2 8.6134999999999984e+00 7.1042950623783407e-01 2.6814422676588269e+01 0 0 0
562 2 8.6134999999999984e+00 2.1312885187135002e+00 2.6814422676588269e+01 0 0 0
563 2 9.8440000000000012e+00 2.8417180249513332e+00 2.6814422676588269e+01 0 0 0
564 2 9.8440000000000012e+00 0.0000000000000000e+00 2.6814422676588269e+01 0 0 0
565 2 1.1074500000000002e+01 7.1042950623783330e-01 2.6814422676588269e+01 0 0 0
585 2 1.1074500000000002e+01 2.1312885187135002e+00 2.6814422676588269e+01 0 0 0
2545 1 1.7790343890439386e+00 6.6786139841381482e+00 3.5243498509194978e+01 0 1 0
514 2 0.0000000000000000e+00 7.1042950623783341e+00 2.6814422676588269e+01 0 0 0
515 2 0.0000000000000000e+00 4.2625770374269996e+00 2.6814422676588269e+01 0 0 0
516 2 1.2305000000000001e+00 4.9730065436648339e+00 2.6814422676588269e+01 0 0 0
524 2 1.2305000000000001e+00 6.3938655561404980e+00 2.6814422676588269e+01 0 0 0
525 2 2.4610000000000003e+00 7.1042950623783341e+00 2.6814422676588269e+01 0 0 0
526 2 2.4610000000000003e+00 4.2625770374269996e+00 2.6814422676588269e+01 0 0 0
527 2 3.6914999999999996e+00 4.9730065436648339e+00 2.6814422676588269e+01 0 0 0
539 2 3.6914999999999996e+00 6.3938655561404980e+00 2.6814422676588269e+01 0 0 0
540 2 4.9220000000000006e+00 7.1042950623783341e+00 2.6814422676588269e+01 0 0 0
541 2 4.9220000000000006e+00 4.2625770374269978e+00 2.6814422676588269e+01 0 0 0
542 2 6.1524999999999999e+00 4.9730065436648339e+00 2.6814422676588269e+01 0 0 0
558 2 6.1524999999999999e+00 6.3938655561404980e+00 2.6814422676588269e+01 0 0 0
559 2 7.3830000000000009e+00 7.1042950623783341e+00 2.6814422676588269e+01 0 0 0
560 2 7.3829999999999991e+00 4.2625770374269996e+00 2.6814422676588269e+01 0 0 0
561 2 8.6135000000000002e+00 4.9730065436648339e+00 2.6814422676588269e+01 0 0 0
581 2 8.6135000000000002e+00 6.3938655561404980e+00 2.6814422676588269e+01 0 0 0
582 2 9.8440000000000012e+00 7.1042950623783341e+00 2.6814422676588269e+01 0 0 0
583 2 9.8440000000000012e+00 4.2625770374270004e+00 2.6814422676588269e+01 0 0 0
584 2 1.1074500000000002e+01 4.9730065436648339e+00 2.6814422676588269e+01 0 0 0
605 2 1.1074500000000002e+01 6.3938655561404980e+00 2.6814422676588269e+01 0 0 0
1521 2 8.6135000000000002e+00 1.4919019630994494e+01 3.3247577323414191e+01 0 0 0
521 2 0.0000000000000000e+00 1.1366872099805333e+01 2.6814422676588269e+01 0 0 0
522 2 0.0000000000000000e+00 8.5251540748539991e+00 2.6814422676588269e+01 0 0 0
523 2 1.2305000000000001e+00 9.2355835810918343e+00 2.6814422676588269e+01 0 0 0
535 2 1.2305000000000001e+00 1.0656442593567498e+01 2.6814422676588269e+01 0 0 0
536 2 2.4610000000000003e+00 1.1366872099805333e+01 2.6814422676588269e+01 0 0 0
537 2 2.4610000000000003e+00 8.5251540748539991e+00 2.6814422676588269e+01 0 0 0
538 2 3.6915000000000004e+00 9.2355835810918343e+00 2.6814422676588269e+01 0 0 0
554 2 3.6914999999999996e+00 1.0656442593567499e+01 2.6814422676588269e+01 0 0 0
555 2 4.9220000000000006e+00 1.1366872099805333e+01 2.6814422676588269e+01 0 0 0
556 2 4.9220000000000006e+00 8.5251540748539991e+00 2.6814422676588269e+01 0 0 0
557 2 6.1524999999999999e+00 9.2355835810918343e+00 2.6814422676588269e+01 0 0 0
577 2 6.1524999999999999e+00 1.0656442593567499e+01 2.6814422676588269e+01 0 0 0
578 2 7.3829999999999991e+00 1.1366872099805333e+01 2.6814422676588269e+01 0 0 0
579 2 7.3830000000000009e+00 8.5251540748539991e+00 2.6814422676588269e+01 0 0 0
3407 1 7.7132531507075530e+00 1.4640781169156648e+01 3.5652745617064866e+01 1 0 0
580 2 8.6134999999999984e+00 9.2355835810918343e+00 2.6814422676588269e+01 0 0 0
601 2 8.6134999999999984e+00 1.0656442593567498e+01 2.6814422676588269e+01 0 0 0
602 2 9.8440000000000012e+00 1.1366872099805333e+01 2.6814422676588269e+01 0 0 0
603 2 9.8440000000000012e+00 8.5251540748539956e+00 2.6814422676588269e+01 0 0 0
604 2 1.1074500000000002e+01 9.2355835810918343e+00 2.6814422676588269e+01 0 0 0
625 2 1.1074500000000002e+01 1.0656442593567498e+01 2.6814422676588269e+01 0 0 0
626 2 1.2304999999999998e+01 1.1366872099805333e+01 2.6814422676588269e+01 0 0 0
532 2 0.0000000000000000e+00 1.5629449137232333e+01 2.6814422676588269e+01 0 0 0
533 2 0.0000000000000000e+00 1.2787731112280996e+01 2.6814422676588269e+01 0 0 0
534 2 1.2305000000000001e+00 1.3498160618518829e+01 2.6814422676588269e+01 0 0 0
550 2 1.2305000000000001e+00 1.4919019630994494e+01 2.6814422676588269e+01 0 0 0
551 2 2.4610000000000003e+00 1.5629449137232328e+01 2.6814422676588269e+01 0 0 0
552 2 2.4610000000000003e+00 1.2787731112280996e+01 2.6814422676588269e+01 0 0 0
553 2 3.6915000000000004e+00 1.3498160618518829e+01 2.6814422676588269e+01 0 0 0
573 2 3.6915000000000004e+00 1.4919019630994494e+01 2.6814422676588269e+01 0 0 0
574 2 4.9220000000000006e+00 1.5629449137232333e+01 2.6814422676588269e+01 0 0 0
575 2 4.9220000000000006e+00 1.2787731112280996e+01 2.6814422676588269e+01 0 0 0
576 2 6.1524999999999990e+00 1.3498160618518829e+01 2.6814422676588269e+01 0 0 0
597 2 6.1524999999999990e+00 1.4919019630994494e+01 2.6814422676588269e+01 0 0 0
598 2 7.3829999999999991e+00 1.5629449137232333e+01 2.6814422676588269e+01 0 0 0
599 2 7.3829999999999991e+00 1.2787731112280996e+01 2.6814422676588269e+01 0 0 0
4566 1 7.2648435438194801e+00 8.9804468846592389e+00 2.4552069287262743e+01 0 0 1
1500 2 8.6135000000000002e+00 1.3498160618518835e+01 3.3247577323414191e+01 0 0 0
600 2 8.6135000000000002e+00 1.3498160618518835e+01 2.6814422676588269e+01 0 0 0
621 2 8.6135000000000002e+00 1.4919019630994494e+01 2.6814422676588269e+01 0 0 0
622 2 9.8440000000000012e+00 1.5629449137232328e+01 2.6814422676588269e+01 0 0 0
623 2 9.8440000000000012e+00 1.2787731112280996e+01 2.6814422676588269e+01 0 0 0
624 2 1.1074500000000002e+01 1.3498160618518829e+01 2.6814422676588269e+01 0 0 0
642 2 1.1074500000000002e+01 1.4919019630994494e+01 2.6814422676588269e+01 0 0 0
1250 2 0.0000000000000000e+00 1.4208590124756650e+00 3.0030999999999782e+01 0 0 0
1251 2 0.0000000000000000e+00 0.0000000000000000e+00 3.0030999999999782e+01 0 0 0
1254 2 1.2305000000000001e+00 3.5521475311891644e+00 3.0030999999999782e+01 0 0 0
1255 2 1.2305000000000001e+00 2.1312885187134998e+00 3.0030999999999782e+01 0 0 0
1256 2 2.4610000000000003e+00 1.4208590124756650e+00 3.0030999999999782e+01 0 0 0
1257 2 2.4610000000000003e+00 0.0000000000000000e+00 3.0030999999999782e+01 0 0 0
1264 2 3.6914999999999996e+00 3.5521475311891644e+00 3.0030999999999782e+01 0 0 0
1265 2 3.6914999999999996e+00 2.1312885187134998e+00 3.0030999999999782e+01 0 0 0
1266 2 4.9220000000000006e+00 1.4208590124756650e+00 3.0030999999999782e+01 0 0 0
1267 2 4.9220000000000006e+00 0.0000000000000000e+00 3.0030999999999782e+01 0 0 0
1278 2 6.1524999999999999e+00 3.5521475311891644e+00 3.0030999999999782e+01 0 0 0
1279 2 6.1524999999999999e+00 2.1312885187134989e+00 3.0030999999999782e+01 0 0 0
1280 2 7.3829999999999991e+00 1.4208590124756659e+00 3.0030999999999782e+01 0 0 0
1281 2 7.3829999999999991e+00 0.0000000000000000e+00 3.0030999999999782e+01 0 0 0
1296 2 8.6134999999999984e+00 3.5521475311891657e+00 3.0030999999999782e+01 0 0 0
1297 2 8.6134999999999984e+00 2.1312885187135002e+00 3.0030999999999782e+01 0 0 0
1298 2 9.8440000000000012e+00 1.4208590124756659e+00 3.0030999999999782e+01 0 0 0
1299 2 9.8440000000000012e+00 0.0000000000000000e+00 3.0030999999999782e+01 0 0 0
1318 2 1.1074500000000002e+01 3.5521475311891644e+00 3.0030999999999782e+01 0 0 0
1319 2 1.1074500000000002e+01 2.1312885187135002e+00 3.0030999999999782e+01 0 0 0
1252 2 0.0000000000000000e+00 5.6834360499026637e+00 3.0030999999999782e+01 0 0 0
1253 2 0.0000000000000000e+00 4.2625770374269996e+00 3.0030999999999782e+01 0 0 0
1260 2 1.2305000000000001e+00 7.8147245686161639e+00 3.0030999999999782e+01 0 0 0
1261 2 1.2305000000000001e+00 6.3938655561404980e+00 3.0030999999999782e+01 0 0 0
1262 2 2.4610000000000003e+00 5.6834360499026637e+00 3.0030999999999782e+01 0 0 0
1263 2 2.4610000000000003e+00 4.2625770374269996e+00 3.0030999999999782e+01 0 0 0
1274 2 3.6914999999999996e+00 7.8147245686161639e+00 3.0030999999999782e+01 0 0 0
1275 2 3.6914999999999996e+00 6.3938655561404980e+00 3.0030999999999782e+01 0 0 0
1276 2 4.9220000000000006e+00 5.6834360499026637e+00 3.0030999999999782e+01 0 0 0
1277 2 4.9220000000000006e+00 4.2625770374269978e+00 3.0030999999999782e+01 0 0 0
1292 2 6.1524999999999999e+00 7.8147245686161639e+00 3.0030999999999782e+01 0 0 0
1293 2 6.1524999999999999e+00 6.3938655561404980e+00 3.0030999999999782e+01 0 0 0
1294 2 7.3829999999999991e+00 5.6834360499026637e+00 3.0030999999999782e+01 0 0 0
1295 2 7.3829999999999991e+00 4.2625770374269996e+00 3.0030999999999782e+01 0 0 0
1314 2 8.6135000000000002e+00 7.8147245686161639e+00 3.0030999999999782e+01 0 0 0
1315 2 8.6135000000000002e+00 6.3938655561404980e+00 3.0030999999999782e+01 0 0 0
1316 2 9.8440000000000012e+00 5.6834360499026637e+00 3.0030999999999782e+01 0 0 0
1317 2 9.8440000000000012e+00 4.2625770374270004e+00 3.0030999999999782e+01 0 0 0
1337 2 1.1074500000000002e+01 7.8147245686161639e+00 3.0030999999999782e+01 0 0 0
1338 2 1.1074500000000002e+01 6.3938655561404980e+00 3.0030999999999782e+01 0 0 0
1258 2 0.0000000000000000e+00 9.9460130873296642e+00 3.0030999999999782e+01 0 0 0
1259 2 0.0000000000000000e+00 8.5251540748539991e+00 3.0030999999999782e+01 0 0 0
1270 2 1.2305000000000001e+00 1.2077301606043163e+01 3.0030999999999782e+01 0 0 0
1271 2 1.2305000000000001e+00 1.0656442593567498e+01 3.0030999999999782e+01 0 0 0
1272 2 2.4610000000000003e+00 9.9460130873296642e+00 3.0030999999999782e+01 0 0 0
1273 2 2.4610000000000003e+00 8.5251540748539991e+00 3.0030999999999782e+01 0 0 0
1288 2 3.6914999999999996e+00 1.2077301606043163e+01 3.0030999999999782e+01 0 0 0
1289 2 3.6914999999999996e+00 1.0656442593567499e+01 3.0030999999999782e+01 0 0 0
1290 2 4.9220000000000006e+00 9.9460130873296642e+00 3.0030999999999782e+01 0 0 0
1291 2 4.9220000000000006e+00 8.5251540748539991e+00 3.0030999999999782e+01 0 0 0
1310 2 6.1524999999999999e+00 1.2077301606043163e+01 3.0030999999999782e+01 0 0 0
1311 2 6.1524999999999999e+00 1.0656442593567499e+01 3.0030999999999782e+01 0 0 0
1312 2 7.3830000000000009e+00 9.9460130873296642e+00 3.0030999999999782e+01 0 0 0
1313 2 7.3830000000000009e+00 8.5251540748539991e+00 3.0030999999999782e+01 0 0 0
1333 2 8.6135000000000002e+00 1.2077301606043163e+01 3.0030999999999782e+01 0 0 0
1334 2 8.6134999999999984e+00 1.0656442593567498e+01 3.0030999999999782e+01 0 0 0
1335 2 9.8440000000000012e+00 9.9460130873296642e+00 3.0030999999999782e+01 0 0 0
1336 2 9.8440000000000012e+00 8.5251540748539956e+00 3.0030999999999782e+01 0 0 0
1356 2 1.1074500000000002e+01 1.2077301606043163e+01 3.0030999999999782e+01 0 0 0
1357 2 1.1074500000000002e+01 1.0656442593567498e+01 3.0030999999999782e+01 0 0 0
1268 2 0.0000000000000000e+00 1.4208590124756663e+01 3.0030999999999782e+01 0 0 0
1269 2 0.0000000000000000e+00 1.2787731112280996e+01 3.0030999999999782e+01 0 0 0
1285 2 1.2305000000000001e+00 1.4919019630994494e+01 3.0030999999999782e+01 0 0 0
1286 2 2.4610000000000003e+00 1.4208590124756663e+01 3.0030999999999782e+01 0 0 0
1287 2 2.4610000000000003e+00 1.2787731112280996e+01 3.0030999999999782e+01 0 0 0
1307 2 3.6915000000000004e+00 1.4919019630994494e+01 3.0030999999999782e+01 0 0 0
1308 2 4.9220000000000006e+00 1.4208590124756663e+01 3.0030999999999782e+01 0 0 0
1309 2 4.9220000000000006e+00 1.2787731112280996e+01 3.0030999999999782e+01 0 0 0
1330 2 6.1524999999999990e+00 1.4919019630994494e+01 3.0030999999999782e+01 0 0 0
1331 2 7.3830000000000009e+00 1.4208590124756663e+01 3.0030999999999782e+01 0 0 0
1332 2 7.3829999999999991e+00 1.2787731112280996e+01 3.0030999999999782e+01 0 0 0
1374 2 1.1074500000000002e+01 1.4919019630994494e+01 3.0030999999999782e+01 0 0 0
1373 2 1.1074500000000002e+01 1.6339878643470161e+01 3.0030999999999782e+01 0 0 0
1375 2 1.2304999999999998e+01 1.4208590124756658e+01 3.0030999999999782e+01 0 0 0
1354 2 9.8440000000000012e+00 1.4208590124756663e+01 3.0030999999999782e+01 0 0 0
1353 2 8.6135000000000002e+00 1.4919019630994494e+01 3.0030999999999782e+01 0 0 0
1355 2 9.8440000000000012e+00 1.2787731112280996e+01 3.0030999999999782e+01 0 0 0
1411 2 0.0000000000000000e+00 2.8417180249513345e+00 3.3247577323414191e+01 0 0 0
1412 2 0.0000000000000000e+00 0.0000000000000000e+00 3.3247577323414191e+01 0 0 0
1413 2 1.2305000000000001e+00 7.1042950623783474e-01 3.3247577323414191e+01 0 0 0
1417 2 1.2305000000000001e+00 2.1312885187134998e+00 3.3247577323414191e+01 0 0 0
1418 2 2.4610000000000003e+00 2.8417180249513345e+00 3.3247577323414191e+01 0 0 0
1419 2 2.4610000000000003e+00 0.0000000000000000e+00 3.3247577323414191e+01 0 0 0
1420 2 3.6915000000000004e+00 7.1042950623783474e-01 3.3247577323414191e+01 0 0 0
1428 2 3.6914999999999996e+00 2.1312885187134998e+00 3.3247577323414191e+01 0 0 0
1429 2 4.9220000000000006e+00 2.8417180249513332e+00 3.3247577323414191e+01 0 0 0
1430 2 4.9220000000000006e+00 0.0000000000000000e+00 3.3247577323414191e+01 0 0 0
1431 2 6.1524999999999999e+00 7.1042950623783407e-01 3.3247577323414191e+01 0 0 0
1443 2 6.1524999999999999e+00 2.1312885187134989e+00 3.3247577323414191e+01 0 0 0
1444 2 7.3829999999999991e+00 2.8417180249513345e+00 3.3247577323414191e+01 0 0 0
1445 2 7.3829999999999991e+00 0.0000000000000000e+00 3.3247577323414191e+01 0 0 0
1524 2 1.1074500000000002e+01 1.3498160618518829e+01 3.3247577323414191e+01 0 0 0
1446 2 8.6134999999999984e+00 7.1042950623783407e-01 3.3247577323414191e+01 0 0 0
1462 2 8.6134999999999984e+00 2.1312885187135002e+00 3.3247577323414191e+01 0 0 0
1463 2 9.8440000000000012e+00 2.8417180249513332e+00 3.3247577323414191e+01 0 0 0
1464 2 9.8440000000000012e+00 0.0000000000000000e+00 3.3247577323414191e+01 0 0 0
1465 2 1.1074500000000002e+01 7.1042950623783330e-01 3.3247577323414191e+01 0 0 0
1485 2 1.1074500000000002e+01 2.1312885187135002e+00 3.3247577323414191e+01 0 0 0
1542 2 1.1074500000000002e+01 1.4919019630994494e+01 3.3247577323414191e+01 0 0 0
1414 2 0.0000000000000000e+00 7.1042950623783341e+00 3.3247577323414191e+01 0 0 0
1415 2 0.0000000000000000e+00 4.2625770374269996e+00 3.3247577323414191e+01 0 0 0
1416 2 1.2305000000000001e+00 4.9730065436648339e+00 3.3247577323414191e+01 0 0 0
1424 2 1.2305000000000001e+00 6.3938655561404980e+00 3.3247577323414191e+01 0 0 0
1425 2 2.4610000000000003e+00 7.1042950623783341e+00 3.3247577323414191e+01 0 0 0
1426 2 2.4610000000000003e+00 4.2625770374269996e+00 3.3247577323414191e+01 0 0 0
1427 2 3.6914999999999996e+00 4.9730065436648339e+00 3.3247577323414191e+01 0 0 0
1439 2 3.6914999999999996e+00 6.3938655561404980e+00 3.3247577323414191e+01 0 0 0
1440 2 4.9220000000000006e+00 7.1042950623783341e+00 3.3247577323414191e+01 0 0 0
1441 2 4.9220000000000006e+00 4.2625770374269978e+00 3.3247577323414191e+01 0 0 0
1442 2 6.1524999999999999e+00 4.9730065436648339e+00 3.3247577323414191e+01 0 0 0
1458 2 6.1524999999999999e+00 6.3938655561404980e+00 3.3247577323414191e+01 0 0 0
1459 2 7.3830000000000009e+00 7.1042950623783341e+00 3.3247577323414191e+01 0 0 0
1460 2 7.3829999999999991e+00 4.2625770374269996e+00 3.3247577323414191e+01 0 0 0