LAMMPS data file via write_data, version 16 Mar 2018, timestep = 6000000

6736 atoms
2 atom types

0.0000000000000000e+00 4.9219999999999999e+01 xlo xhi
0.0000000000000000e+00 4.9019635930410494e+01 ylo yhi
-6.8167340303282131e-01 6.0743673403030520e+01 zlo zhi

Masses

1 18.015
2 12.01

Atoms # atomic

134 1 1.0567123012382453e+00 2.4428354572683073e-01 -3.2002309889280756e-01 -3 1 1
897 1 2.4846722918351807e+00 4.6665264356195078e+00 -5.0515417869028123e-01 0 -6 1
2173 1 5.5687479529788471e+00 1.3300405716888326e+00 2.4179477596968111e+00 0 3 0
2668 1 2.0837730299375479e-01 1.1991838915407858e+01 1.0319614208184055e+01 2 0 0
4393 1 1.0580313972431041e+01 2.2291378847580376e+00 2.7389861108128200e+00 1 0 1
2441 1 1.4075182701268949e+00 3.2830361546439712e-01 1.0492680709937114e+01 0 1 1
6115 1 1.1955400122406328e+01 1.3989012540843769e+01 9.4888756620957437e+00 -2 -1 1
5971 1 2.2662663795417171e+00 4.7153933935359609e+00 2.3040712959984537e+00 -3 -1 1
2902 1 8.1056737539135284e+00 5.6574850443451674e-01 6.8573576150628517e+00 1 -2 1
1898 1 4.0408472248941942e+00 1.6084885614364747e+01 9.5638032034469660e+00 2 2 0
5101 1 7.1690079780249922e+00 5.8456446198457126e+00 2.6176959640002844e+00 -2 1 1
5567 1 1.1090116566791544e+01 6.8455742927317837e+00 2.2642253133643462e+00 0 -2 0
1850 1 4.6443346781888630e+00 1.3626751834085937e+01 1.0511880167555573e+01 -1 2 0
5867 1 8.0565678171549973e+00 9.9456366882247131e+00 1.0208954309214505e+01 1 0 1
5092 1 4.7506450085429801e+00 1.3401940962277420e+01 -1.0982621027975226e-01 2 -1 0
2570 1 3.8410205642370960e+00 9.0273551875884124e+00 2.2739887820545310e+00 1 2 1
358 1 1.5265413859895272e-01 1.2213901622221270e+01 -2.3709719586664152e-01 0 3 0
2672 1 1.1971098179730941e+01 4.3789408905890683e+00 5.8287797532255086e+00 3 -5 1
407 1 8.0058212105939379e+00 1.0141809948657876e+01 1.8923178904525768e+00 1 4 0
1042 1 1.6139230743509247e-01 5.3719997307855882e+00 5.8801150822364230e+00 1 3 1
2794 1 1.2043552622965251e+01 1.1053669437042933e+01 -3.0347321771828994e-01 0 1 1
357 1 9.3877367065615935e+00 1.4380483225820258e+01 1.0042806305070286e+01 -4 -2 0
5087 1 1.0630024621942159e+01 9.3177849606059482e+00 9.4829047044796102e+00 2 3 1
2722 1 1.1220995781032201e+01 6.9761432752102834e+00 -4.8206372287025856e-01 0 0 1
3549 1 2.1310295247654834e+00 1.4081059945828036e+01 3.4653476862946340e+00 -1 1 1
3443 1 1.2513469107122470e+00 3.1119731238286141e-01 2.1602466892690537e+00 1 1 0
4285 1 4.4597469179378582e+00 1.3450887941432226e+01 2.5137653332871457e+00 -1 1 1
953 1 3.8395140387616586e+00 9.2751337067115589e+00 1.0138639064890889e+01 3 0 1
2600 1 6.4524667428558651e+00 1.5227645501392768e+01 3.2423997861885323e+00 0 4 1
5498 1 9.1458409103874239e+00 1.4349282682408605e+01 -2.3807327497675446e-01 1 -4 0
4307 1 9.2221694733691173e+00 1.4807809515139640e+01 2.5263535515490929e+00 2 -2 1
6202 1 3.1182717399880695e+00 2.2096903004506414e+00 3.2940852195510417e+00 -2 4 1
5345 1 6.9508460365007929e-01 2.9403622144323638e+00 6.7742593803474360e+00 5 3 1
4280 1 3.0675575739174614e+00 1.9712485149683121e+00 5.9893043680715241e+00 1 1 1
813 1 7.5633854088345496e+00 3.2929132795175495e+00 3.3158428800090576e+00 -3 1 1
5429 1 7.5652090201829898e+00 3.3707103614259153e+00 6.1283502884104877e+00 1 1 0
5213 1 4.9433606421043406e+00 4.0265834296057008e+00 6.6888925247540927e+00 -1 0 0
4315 1 2.1902796220963558e-01 1.2220149250949516e+01 2.3985970158093095e+00 2 0 1
5834 1 1.9102508569277807e+00 7.2327905349532013e+00 6.7458050046244988e+00 1 3 0
4439 1 4.4029444302628891e+00 6.4394277275577592e+00 3.1708800077129080e+00 -3 -1 0
1777 1 4.4424267117444032e+00 6.5701977795782094e+00 5.7476249254445122e+00 5 1 1
5120 1 5.9483800438340415e+00 8.5460147998526566e+00 6.7922832835506073e+00 0 -2 0
1120 1 8.8825542044921395e+00 7.8273270634938790e+00 3.3712084617430556e+00 -1 1 0
150 1 8.4433477642793662e+00 7.6189843850430998e+00 5.9608669935488798e+00 1 1 0
3531 1 9.5502920519554522e+00 5.0900798141524888e+00 6.8939595132012013e+00 -1 -1 0
3474 1 7.3091304591853774e+00 1.2419867664076667e+01 9.4663528719830410e+00 5 0 1
2586 1 1.3255032923686321e+00 9.6638627799577854e+00 3.1484590532235535e+00 1 2 1
5854 1 8.4123107177853584e-01 9.8043705545495428e+00 5.9768591713409309e+00 3 4 0
3623 1 2.7972154534406006e+00 1.1673883784810180e+01 6.4624996675746607e+00 3 0 0
3618 1 5.2889832803933770e+00 1.1106643555376621e+01 3.0478842861784101e+00 2 1 0
2162 1 5.2823018251618006e+00 1.1049874782158980e+01 5.6340583722168001e+00 1 0 0
5276 1 9.6739403314543022e+00 1.2096423784193096e+01 2.9920044835497812e+00 -4 3 0
2787 1 1.0101178224655511e+01 9.3960614069867798e+00 6.7896309365516290e+00 0 1 1
447 1 9.5597635044030742e+00 1.1855734598730740e+01 5.7345914442809294e+00 -3 3 0
361 1 1.9288054991377888e+00 1.3983713019938198e+01 5.9546853334804668e+00 0 -2 0
5430 1 7.2398329797742260e+00 1.2455476888547752e+01 6.7172413418165666e+00 1 -2 0
2082 1 6.5624991330408440e+00 1.4906554338292482e+01 5.9784463481804515e+00 -2 2 0
3784 1 1.1520024071762617e+01 1.3465881525918672e+01 6.7870913109094371e+00 0 3 0
3616 1 6.6408639414871529e-01 2.8334980355876587e+00 9.4020437065452160e+00 2 3 0
1232 1 3.9888263639675654e+00 9.0159065342265361e+00 -4.1230094700784559e-01 -4 3 1
2928 1 5.8474826085766267e+00 1.5398701654171443e+00 1.0350614569894123e+01 -1 0 1
362 1 4.8490191795590123e+00 3.8486308857005969e+00 9.5432369570065028e+00 2 -4 0
288 1 1.0122740501624373e+01 2.9062453364882535e+00 1.0381040808736298e+01 -1 0 0
2771 1 8.4810082140333165e+00 9.2655132191743483e-01 9.6280373614387216e+00 0 4 1
3814 1 2.4212815326120150e+00 4.8631903949484059e+00 1.0243753125908766e+01 0 0 0
2669 1 1.6348376597573189e+00 7.3071925532510535e+00 9.3598073777789370e+00 1 -1 1
440 1 6.7418759667124455e+00 5.6839054578945571e+00 1.0106100316474903e+01 1 0 0
4423 1 6.2315276659445296e+00 8.2862443103948653e+00 9.2906885731198710e+00 -2 1 1
1797 1 9.3941637347084086e+00 5.3484007859220810e+00 9.4316315864919638e+00 1 0 1
2124 1 1.1398931029276961e+01 6.7805247037262228e+00 1.0426536635467697e+01 -2 1 0
6269 1 2.8093734867216651e+00 1.1635818489623629e+01 9.1320728407152050e+00 4 3 1
5928 1 6.8957980615361976e+00 5.8306353414798240e+00 -2.5383239183882345e-01 -3 1 1
3428 1 4.0955962338717509e+00 1.5732039833121750e+01 6.8423625389420151e+00 1 -2 0
5882 1 1.2121546603800493e+01 1.1107711103636621e+01 2.4062378877116171e+00 3 -5 1
2735 1 1.0172792167613983e+01 2.6897602960152076e+00 2.1635693963464875e-02 -1 1 1
3867 1 5.3608144439732284e+00 1.3177103961069516e+00 -2.7601471265538063e-01 3 3 0
3804 1 1.1118757174045358e+01 1.6004122329148121e+01 6.0143417925060918e+00 -3 2 0
3789 1 3.2306228432790878e+00 2.3757240201828402e+00 1.3710629938732911e+01 2 -3 0
756 1 6.0409093446922260e+00 1.0820434743443396e+01 2.3242156305047864e+01 -1 -2 1
1233 1 5.7900087419158535e+00 1.6183863454974150e+00 1.2996491940036167e+01 -1 -1 1
5145 1 7.8667784089633397e+00 3.0656882399142149e+00 1.4069275463194485e+01 -1 2 0
760 1 1.0272268960402316e+01 2.7066673835175039e+00 1.2832520073327272e+01 0 -2 1
5376 1 5.2142513325313511e-01 1.2098967450337947e+01 1.3215943195269340e+01 1 -1 0
4411 1 2.4560749624960660e+00 4.7346024172042105e+00 1.2903213841092645e+01 0 -2 1
6003 1 4.4764970451389159e+00 6.3160200793567967e+00 1.3567517651850135e+01 0 -5 1
5531 1 7.0010164426959296e+00 5.5721344759105129e+00 1.2915581114964535e+01 5 4 0
5502 1 1.1664245373967923e+01 6.7897264716312344e+00 1.2995657608759906e+01 3 0 0
1752 1 8.8179957230115100e+00 7.3170450376850455e+00 1.3670779532951443e+01 3 3 0
2198 1 1.4332627405976768e+00 9.5022729081923529e+00 1.3960822536496256e+01 2 3 0
2698 1 3.8887940756901473e+00 8.9157192917914916e+00 1.2966899800535156e+01 0 1 1
942 1 3.1358520265168894e+00 2.3721461928629348e+00 2.3613092630289312e+01 -1 -3 1
146 1 5.7570037784477837e+00 1.0838314932383890e+01 1.3900085987388117e+01 2 0 0
2875 1 8.3982142165471902e+00 9.9836397757600928e+00 1.2778287205234230e+01 1 4 1
454 1 9.8921746528844992e+00 1.2193076452810963e+01 1.3672258022467505e+01 2 1 0
3820 1 2.3294862885390994e+00 1.4016922767462100e+01 1.3740145414673075e+01 -1 -3 0
5144 1 4.8398004950129749e+00 1.3306557216962069e+01 1.3017932890325552e+01 3 0 0
187 1 6.5438783440351811e+00 1.5191075385749505e+01 1.3554686693574967e+01 0 0 1
2864 1 9.0171362929458070e+00 1.4656753555974657e+01 1.2680478909657660e+01 -2 2 0
5193 1 9.4619035993550415e+00 1.4387512503081151e+01 2.3413523000707279e+01 -4 1 0
6271 1 3.5334039215769182e+00 2.1144295172746661e+00 1.6353658742910852e+01 -1 1 1
2054 1 6.1018822409831071e+00 1.3810339752698542e+00 1.7480437906907788e+01 0 2 0
465 1 7.7130454078393189e+00 3.4045600535911960e+00 1.6996502399361397e+01 2 -1 0
1742 1 1.0252051010898292e+01 2.3927366289479428e+00 1.7295013176512107e+01 3 2 0
6081 1 2.5517152929070979e+00 4.5868849572874204e+00 1.7313175454141312e+01 3 4 1
3582 1 4.5303075643854269e+00 6.1745773779278768e+00 1.6159969108760507e+01 0 2 0
3749 1 7.1560849606436756e+00 5.9062386145546961e+00 1.7287407163706483e+01 2 1 1
4542 1 1.1328402801929769e+01 6.8526686243724528e+00 1.7224487912871435e+01 -3 0 1
480 1 9.0634628647560262e+00 7.6018080695618240e+00 1.6405027633495880e+01 0 1 0
5471 1 1.2491844525104552e+00 9.4383718381978241e+00 1.6692590856711043e+01 5 0 0
5520 1 3.8997829423165302e+00 8.6241960386667174e+00 1.7245812445797217e+01 0 0 0
2925 1 5.5329907675652805e+00 1.0470714316951067e+01 1.6816802240822074e+01 4 0 1
3369 1 8.4627742051154566e+00 1.0125332825540895e+01 1.7350657182257425e+01 0 2 1
5935 1 1.0337360478831808e+01 1.2284527513603715e+01 1.6381203600139937e+01 0 -1 1
777 1 2.1095788597778893e+00 1.3996110677784737e+01 1.6503121598793847e+01 2 2 1
5548 1 8.8563762214768982e+00 7.7135844098622020e+00 2.3622627134437394e+01 -2 0 0
1787 1 4.8943214041874827e-01 1.2266687466672485e+01 1.9795613869592895e+01 2 -2 1
5209 1 4.7908274377929843e+00 1.3135506468823584e+01 1.7322745436305109e+01 -2 -3 1
3868 1 6.6630627429412215e+00 1.4806526012860623e+01 1.6642350986572353e+01 -1 4 0
4477 1 9.0363495624714627e+00 1.4375121714360294e+01 1.7843533735950352e+01 -3 1 1
2744 1 1.1872846733292839e+01 4.2791629441284273e+00 1.6408252554829264e+01 -2 3 1
3540 1 3.3956771431970330e+00 2.2024558223767672e+00 2.0599930704260878e+01 -2 0 1
2666 1 5.8741713611726052e+00 1.4374974647360483e+00 1.9965184109946843e+01 3 2 1
5806 1 7.7088606961335113e+00 3.2840215717907326e+00 2.0988931812397404e+01 1 -5 0
1175 1 1.2118483155077536e+01 4.3413150230797912e+00 1.3871089089385832e+01 -2 -2 1
2028 1 4.6529358056740637e+00 6.7386244603612901e+00 2.3488228323296756e+01 -1 0 0
4211 1 1.0120649461131444e+01 2.3221363285253611e+00 1.9825051969866667e+01 1 3 1
2018 1 2.7601808133907419e+00 4.6064038147769573e+00 2.0081141283802289e+01 0 1 0
1139 1 4.4327305957390841e+00 6.4685027056629911e+00 2.0884444807107556e+01 -1 1 1
6044 1 7.1372570601465286e+00 5.9022770866531147e+00 1.9968912775356777e+01 0 2 1
2197 1 1.3330437325355873e+00 1.6830663724762959e-01 1.3234879440748305e+01 -1 2 0
5897 1 1.4992589033585846e+00 3.8272444338268991e-01 1.7040611630819914e+01 1 -1 1
6236 1 2.6976582716211843e+00 1.4313921426508147e+01 2.2883877922376456e+01 3 -3 0
325 1 7.6751570825536133e+00 3.1539115723696791e+00 2.3721809408928813e+01 0 -2 0
476 1 1.1484208443308596e+01 6.6630625845925797e+00 1.9913795454650604e+01 2 2 0
4202 1 8.9220412214085112e+00 7.5614089101328892e+00 2.0781366375576912e+01 -2 -1 1
3568 1 6.6841548000290247e+00 1.4934331648605427e+01 2.3647592378470911e+01 1 1 0
5577 1 9.8708260222199069e+00 1.1425513861958581e+01 2.3514976036123628e+01 1 1 0
2536 1 1.3191839907938925e+00 1.6452138237530275e-01 1.9778200193463292e+01 -2 1 0
3686 1 3.7633248460890498e+00 9.0155187003026391e+00 1.9882717933220377e+01 0 3 0
3612 1 1.2153802706838182e+00 9.9380202698470193e+00 2.0571389820546923e+01 2 2 0
3769 1 8.2995344799548345e+00 1.0109557799334464e+01 1.9791155102739868e+01 2 -2 0
286 1 5.8822252058058435e+00 1.0903583852225607e+01 2.0413964519939480e+01 0 -1 0
746 1 3.1035102857076008e-01 1.1979557264926394e+01 1.7001602995921825e+01 0 -1 1
5427 1 1.0422175326083899e+01 1.1943865026773304e+01 2.0814685904180415e+01 2 1 0
3432 1 1.1919386131154663e+01 4.2552797196487235e+00 2.3530979194317741e+01 -2 3 0
2557 1 1.1953153816357727e+01 4.0242946453383146e+00 2.0934519608624349e+01 0 -1 0
4502 1 2.5244849533082920e+00 1.4028940091021889e+01 2.0394913592035934e+01 -2 1 1
4120 1 5.3055184391320971e+00 1.3283823920417696e+01 1.9911753664301891e+01 -1 -2 0
2842 1 6.8339639121660234e+00 1.5234395053350259e+01 2.0814613369602601e+01 -3 0 1
2550 1 1.0966090377158967e+01 1.5904647439591871e-01 1.3928436133674058e+01 1 0 0
3723 1 9.6342457940595043e+00 1.4268770917688300e+01 2.0451428074559207e+01 -2 3 0
3470 1 1.3145111117054911e+00 1.0074774980099344e+01 2.3102323258496824e+01 5 1 1
5537 1 5.5879588532932205e+00 1.4463553420345583e+00 2.3837721609102360e+01 3 -1 0
3574 1 1.1912832201690786e+00 2.4204088297789056e-01 2.3868643144174150e+01 -4 -1 0
511 2 0.0000000000000000e+00 2.8417180249513345e+00 2.6645774936638897e+01 0 0 0
512 2 0.0000000000000000e+00 0.0000000000000000e+00 2.6645774936638897e+01 0 0 0
513 2 1.2305000000000001e+00 7.1042950623783474e-01 2.6645774936638897e+01 0 0 0
517 2 1.2305000000000001e+00 2.1312885187134998e+00 2.6645774936638897e+01 0 0 0
518 2 2.4610000000000003e+00 2.8417180249513345e+00 2.6645774936638897e+01 0 0 0
519 2 2.4610000000000003e+00 0.0000000000000000e+00 2.6645774936638897e+01 0 0 0
520 2 3.6915000000000004e+00 7.1042950623783474e-01 2.6645774936638897e+01 0 0 0
528 2 3.6914999999999996e+00 2.1312885187134998e+00 2.6645774936638897e+01 0 0 0
1542 2 1.1074500000000002e+01 1.4919019630994494e+01 3.3416225063369112e+01 0 0 0
529 2 4.9220000000000006e+00 2.8417180249513332e+00 2.6645774936638897e+01 0 0 0
530 2 4.9220000000000006e+00 0.0000000000000000e+00 2.6645774936638897e+01 0 0 0
531 2 6.1524999999999999e+00 7.1042950623783407e-01 2.6645774936638897e+01 0 0 0
543 2 6.1524999999999999e+00 2.1312885187134989e+00 2.6645774936638897e+01 0 0 0
544 2 7.3829999999999991e+00 2.8417180249513345e+00 2.6645774936638897e+01 0 0 0
545 2 7.3829999999999991e+00 0.0000000000000000e+00 2.6645774936638897e+01 0 0 0
202 1 4.9504182760803088e+00 1.3106412848277074e+01 2.4177993120088615e+01 0 -1 0
963 1 3.6598973110820352e+00 9.3769345596460845e+00 2.4160607533320935e+01 -3 0 1
546 2 8.6134999999999984e+00 7.1042950623783407e-01 2.6645774936638897e+01 0 0 0
562 2 8.6134999999999984e+00 2.1312885187135002e+00 2.6645774936638897e+01 0 0 0
563 2 9.8440000000000012e+00 2.8417180249513332e+00 2.6645774936638897e+01 0 0 0
564 2 9.8440000000000012e+00 0.0000000000000000e+00 2.6645774936638897e+01 0 0 0
565 2 1.1074500000000002e+01 7.1042950623783330e-01 2.6645774936638897e+01 0 0 0
585 2 1.1074500000000002e+01 2.1312885187135002e+00 2.6645774936638897e+01 0 0 0
514 2 0.0000000000000000e+00 7.1042950623783341e+00 2.6645774936638897e+01 0 0 0
515 2 0.0000000000000000e+00 4.2625770374269996e+00 2.6645774936638897e+01 0 0 0
516 2 1.2305000000000001e+00 4.9730065436648339e+00 2.6645774936638897e+01 0 0 0
524 2 1.2305000000000001e+00 6.3938655561404980e+00 2.6645774936638897e+01 0 0 0
525 2 2.4610000000000003e+00 7.1042950623783341e+00 2.6645774936638897e+01 0 0 0
526 2 2.4610000000000003e+00 4.2625770374269996e+00 2.6645774936638897e+01 0 0 0
527 2 3.6914999999999996e+00 4.9730065436648339e+00 2.6645774936638897e+01 0 0 0
539 2 3.6914999999999996e+00 6.3938655561404980e+00 2.6645774936638897e+01 0 0 0
1881 1 1.2196082363282121e+00 3.2945367611654502e-01 3.5918720198820168e+01 1 0 -1
540 2 4.9220000000000006e+00 7.1042950623783341e+00 2.6645774936638897e+01 0 0 0
541 2 4.9220000000000006e+00 4.2625770374269978e+00 2.6645774936638897e+01 0 0 0
542 2 6.1524999999999999e+00 4.9730065436648339e+00 2.6645774936638897e+01 0 0 0
558 2 6.1524999999999999e+00 6.3938655561404980e+00 2.6645774936638897e+01 0 0 0
559 2 7.3830000000000009e+00 7.1042950623783341e+00 2.6645774936638897e+01 0 0 0
560 2 7.3829999999999991e+00 4.2625770374269996e+00 2.6645774936638897e+01 0 0 0
561 2 8.6135000000000002e+00 4.9730065436648339e+00 2.6645774936638897e+01 0 0 0
581 2 8.6135000000000002e+00 6.3938655561404980e+00 2.6645774936638897e+01 0 0 0
582 2 9.8440000000000012e+00 7.1042950623783341e+00 2.6645774936638897e+01 0 0 0
583 2 9.8440000000000012e+00 4.2625770374270004e+00 2.6645774936638897e+01 0 0 0
584 2 1.1074500000000002e+01 4.9730065436648339e+00 2.6645774936638897e+01 0 0 0
605 2 1.1074500000000002e+01 6.3938655561404980e+00 2.6645774936638897e+01 0 0 0
521 2 0.0000000000000000e+00 1.1366872099805333e+01 2.6645774936638897e+01 0 0 0
522 2 0.0000000000000000e+00 8.5251540748539991e+00 2.6645774936638897e+01 0 0 0
523 2 1.2305000000000001e+00 9.2355835810918343e+00 2.6645774936638897e+01 0 0 0
535 2 1.2305000000000001e+00 1.0656442593567498e+01 2.6645774936638897e+01 0 0 0
536 2 2.4610000000000003e+00 1.1366872099805333e+01 2.6645774936638897e+01 0 0 0
537 2 2.4610000000000003e+00 8.5251540748539991e+00 2.6645774936638897e+01 0 0 0
538 2 3.6915000000000004e+00 9.2355835810918343e+00 2.6645774936638897e+01 0 0 0
554 2 3.6914999999999996e+00 1.0656442593567499e+01 2.6645774936638897e+01 0 0 0
1524 2 1.1074500000000002e+01 1.3498160618518829e+01 3.3416225063369112e+01 0 0 0
555 2 4.9220000000000006e+00 1.1366872099805333e+01 2.6645774936638897e+01 0 0 0
556 2 4.9220000000000006e+00 8.5251540748539991e+00 2.6645774936638897e+01 0 0 0
557 2 6.1524999999999999e+00 9.2355835810918343e+00 2.6645774936638897e+01 0 0 0
577 2 6.1524999999999999e+00 1.0656442593567499e+01 2.6645774936638897e+01 0 0 0
578 2 7.3829999999999991e+00 1.1366872099805333e+01 2.6645774936638897e+01 0 0 0
579 2 7.3830000000000009e+00 8.5251540748539991e+00 2.6645774936638897e+01 0 0 0
580 2 8.6134999999999984e+00 9.2355835810918343e+00 2.6645774936638897e+01 0 0 0
601 2 8.6134999999999984e+00 1.0656442593567498e+01 2.6645774936638897e+01 0 0 0
602 2 9.8440000000000012e+00 1.1366872099805333e+01 2.6645774936638897e+01 0 0 0
603 2 9.8440000000000012e+00 8.5251540748539956e+00 2.6645774936638897e+01 0 0 0
604 2 1.1074500000000002e+01 9.2355835810918343e+00 2.6645774936638897e+01 0 0 0
625 2 1.1074500000000002e+01 1.0656442593567498e+01 2.6645774936638897e+01 0 0 0
626 2 1.2304999999999998e+01 1.1366872099805333e+01 2.6645774936638897e+01 0 0 0
1500 2 8.6135000000000002e+00 1.3498160618518835e+01 3.3416225063369112e+01 0 0 0
532 2 0.0000000000000000e+00 1.5629449137232333e+01 2.6645774936638897e+01 0 0 0
533 2 0.0000000000000000e+00 1.2787731112280996e+01 2.6645774936638897e+01 0 0 0
534 2 1.2305000000000001e+00 1.3498160618518829e+01 2.6645774936638897e+01 0 0 0
550 2 1.2305000000000001e+00 1.4919019630994494e+01 2.6645774936638897e+01 0 0 0
551 2 2.4610000000000003e+00 1.5629449137232328e+01 2.6645774936638897e+01 0 0 0
552 2 2.4610000000000003e+00 1.2787731112280996e+01 2.6645774936638897e+01 0 0 0
553 2 3.6915000000000004e+00 1.3498160618518829e+01 2.6645774936638897e+01 0 0 0
573 2 3.6915000000000004e+00 1.4919019630994494e+01 2.6645774936638897e+01 0 0 0
1938 1 6.9935247433505499e+00 5.6722096304113885e+00 2.4456160070313889e+01 4 -2 0
574 2 4.9220000000000006e+00 1.5629449137232333e+01 2.6645774936638897e+01 0 0 0
575 2 4.9220000000000006e+00 1.2787731112280996e+01 2.6645774936638897e+01 0 0 0
576 2 6.1524999999999990e+00 1.3498160618518829e+01 2.6645774936638897e+01 0 0 0
597 2 6.1524999999999990e+00 1.4919019630994494e+01 2.6645774936638897e+01 0 0 0
598 2 7.3829999999999991e+00 1.5629449137232333e+01 2.6645774936638897e+01 0 0 0
599 2 7.3829999999999991e+00 1.2787731112280996e+01 2.6645774936638897e+01 0 0 0
1522 2 9.8440000000000012e+00 1.5629449137232328e+01 3.3416225063369112e+01 0 0 0
600 2 8.6135000000000002e+00 1.3498160618518835e+01 2.6645774936638897e+01 0 0 0
621 2 8.6135000000000002e+00 1.4919019630994494e+01 2.6645774936638897e+01 0 0 0
622 2 9.8440000000000012e+00 1.5629449137232328e+01 2.6645774936638897e+01 0 0 0
623 2 9.8440000000000012e+00 1.2787731112280996e+01 2.6645774936638897e+01 0 0 0
624 2 1.1074500000000002e+01 1.3498160618518829e+01 2.6645774936638897e+01 0 0 0
642 2 1.1074500000000002e+01 1.4919019630994494e+01 2.6645774936638897e+01 0 0 0
1250 2 0.0000000000000000e+00 1.4208590124756650e+00 3.0030999999999228e+01 0 0 0
1251 2 0.0000000000000000e+00 0.0000000000000000e+00 3.0030999999999228e+01 0 0 0
1254 2 1.2305000000000001e+00 3.5521475311891644e+00 3.0030999999999228e+01 0 0 0
1255 2 1.2305000000000001e+00 2.1312885187134998e+00 3.0030999999999228e+01 0 0 0
1256 2 2.4610000000000003e+00 1.4208590124756650e+00 3.0030999999999228e+01 0 0 0
1257 2 2.4610000000000003e+00 0.0000000000000000e+00 3.0030999999999228e+01 0 0 0
1264 2 3.6914999999999996e+00 3.5521475311891644e+00 3.0030999999999228e+01 0 0 0
1265 2 3.6914999999999996e+00 2.1312885187134998e+00 3.0030999999999228e+01 0 0 0
1266 2 4.9220000000000006e+00 1.4208590124756650e+00 3.0030999999999228e+01 0 0 0
1267 2 4.9220000000000006e+00 0.0000000000000000e+00 3.0030999999999228e+01 0 0 0
1278 2 6.1524999999999999e+00 3.5521475311891644e+00 3.0030999999999228e+01 0 0 0
1279 2 6.1524999999999999e+00 2.1312885187134989e+00 3.0030999999999228e+01 0 0 0
1280 2 7.3829999999999991e+00 1.4208590124756659e+00 3.0030999999999228e+01 0 0 0
1281 2 7.3829999999999991e+00 0.0000000000000000e+00 3.0030999999999228e+01 0 0 0
1296 2 8.6134999999999984e+00 3.5521475311891657e+00 3.0030999999999228e+01 0 0 0
1297 2 8.6134999999999984e+00 2.1312885187135002e+00 3.0030999999999228e+01 0 0 0
1298 2 9.8440000000000012e+00 1.4208590124756659e+00 3.0030999999999228e+01 0 0 0
1299 2 9.8440000000000012e+00 0.0000000000000000e+00 3.0030999999999228e+01 0 0 0
1318 2 1.1074500000000002e+01 3.5521475311891644e+00 3.0030999999999228e+01 0 0 0
1319 2 1.1074500000000002e+01 2.1312885187135002e+00 3.0030999999999228e+01 0 0 0
1252 2 0.0000000000000000e+00 5.6834360499026637e+00 3.0030999999999228e+01 0 0 0
1253 2 0.0000000000000000e+00 4.2625770374269996e+00 3.0030999999999228e+01 0 0 0
1260 2 1.2305000000000001e+00 7.8147245686161639e+00 3.0030999999999228e+01 0 0 0
1261 2 1.2305000000000001e+00 6.3938655561404980e+00 3.0030999999999228e+01 0 0 0
1262 2 2.4610000000000003e+00 5.6834360499026637e+00 3.0030999999999228e+01 0 0 0
1263 2 2.4610000000000003e+00 4.2625770374269996e+00 3.0030999999999228e+01 0 0 0
1274 2 3.6914999999999996e+00 7.8147245686161639e+00 3.0030999999999228e+01 0 0 0
1275 2 3.6914999999999996e+00 6.3938655561404980e+00 3.0030999999999228e+01 0 0 0
1276 2 4.9220000000000006e+00 5.6834360499026637e+00 3.0030999999999228e+01 0 0 0
1277 2 4.9220000000000006e+00 4.2625770374269978e+00 3.0030999999999228e+01 0 0 0
1292 2 6.1524999999999999e+00 7.8147245686161639e+00 3.0030999999999228e+01 0 0 0
1293 2 6.1524999999999999e+00 6.3938655561404980e+00 3.0030999999999228e+01 0 0 0
1294 2 7.3829999999999991e+00 5.6834360499026637e+00 3.0030999999999228e+01 0 0 0
1295 2 7.3829999999999991e+00 4.2625770374269996e+00 3.0030999999999228e+01 0 0 0
1314 2 8.6135000000000002e+00 7.8147245686161639e+00 3.0030999999999228e+01 0 0 0
1315 2 8.6135000000000002e+00 6.3938655561404980e+00 3.0030999999999228e+01 0 0 0
1316 2 9.8440000000000012e+00 5.6834360499026637e+00 3.0030999999999228e+01 0 0 0
1317 2 9.8440000000000012e+00 4.2625770374270004e+00 3.0030999999999228e+01 0 0 0
1337 2 1.1074500000000002e+01 7.8147245686161639e+00 3.0030999999999228e+01 0 0 0
1338 2 1.1074500000000002e+01 6.3938655561404980e+00 3.0030999999999228e+01 0 0 0
1258 2 0.0000000000000000e+00 9.9460130873296642e+00 3.0030999999999228e+01 0 0 0
1259 2 0.0000000000000000e+00 8.5251540748539991e+00 3.0030999999999228e+01 0 0 0
1270 2 1.2305000000000001e+00 1.2077301606043163e+01 3.0030999999999228e+01 0 0 0
1271 2 1.2305000000000001e+00 1.0656442593567498e+01 3.0030999999999228e+01 0 0 0
1272 2 2.4610000000000003e+00 9.9460130873296642e+00 3.0030999999999228e+01 0 0 0
1273 2 2.4610000000000003e+00 8.5251540748539991e+00 3.0030999999999228e+01 0 0 0
1288 2 3.6914999999999996e+00 1.2077301606043163e+01 3.0030999999999228e+01 0 0 0
1289 2 3.6914999999999996e+00 1.0656442593567499e+01 3.0030999999999228e+01 0 0 0
1290 2 4.9220000000000006e+00 9.9460130873296642e+00 3.0030999999999228e+01 0 0 0
1291 2 4.9220000000000006e+00 8.5251540748539991e+00 3.0030999999999228e+01 0 0 0
1310 2 6.1524999999999999e+00 1.2077301606043163e+01 3.0030999999999228e+01 0 0 0
1311 2 6.1524999999999999e+00 1.0656442593567499e+01 3.0030999999999228e+01 0 0 0
1312 2 7.3830000000000009e+00 9.9460130873296642e+00 3.0030999999999228e+01 0 0 0
1313 2 7.3830000000000009e+00 8.5251540748539991e+00 3.0030999999999228e+01 0 0 0
1333 2 8.6135000000000002e+00 1.2077301606043163e+01 3.0030999999999228e+01 0 0 0
1334 2 8.6134999999999984e+00 1.0656442593567498e+01 3.0030999999999228e+01 0 0 0
1335 2 9.8440000000000012e+00 9.9460130873296642e+00 3.0030999999999228e+01 0 0 0
1336 2 9.8440000000000012e+00 8.5251540748539956e+00 3.0030999999999228e+01 0 0 0
1356 2 1.1074500000000002e+01 1.2077301606043163e+01 3.0030999999999228e+01 0 0 0
1357 2 1.1074500000000002e+01 1.0656442593567498e+01 3.0030999999999228e+01 0 0 0
1268 2 0.0000000000000000e+00 1.4208590124756663e+01 3.0030999999999228e+01 0 0 0
1269 2 0.0000000000000000e+00 1.2787731112280996e+01 3.0030999999999228e+01 0 0 0
1285 2 1.2305000000000001e+00 1.4919019630994494e+01 3.0030999999999228e+01 0 0 0
1286 2 2.4610000000000003e+00 1.4208590124756663e+01 3.0030999999999228e+01 0 0 0
1287 2 2.4610000000000003e+00 1.2787731112280996e+01 3.0030999999999228e+01 0 0 0
1307 2 3.6915000000000004e+00 1.4919019630994494e+01 3.0030999999999228e+01 0 0 0
1308 2 4.9220000000000006e+00 1.4208590124756663e+01 3.0030999999999228e+01 0 0 0
1309 2 4.9220000000000006e+00 1.2787731112280996e+01 3.0030999999999228e+01 0 0 0
1330 2 6.1524999999999990e+00 1.4919019630994494e+01 3.0030999999999228e+01 0 0 0
1331 2 7.3830000000000009e+00 1.4208590124756663e+01 3.0030999999999228e+01 0 0 0
1332 2 7.3829999999999991e+00 1.2787731112280996e+01 3.0030999999999228e+01 0 0 0
1355 2 9.8440000000000012e+00 1.2787731112280996e+01 3.0030999999999228e+01 0 0 0
1354 2 9.8440000000000012e+00 1.4208590124756663e+01 3.0030999999999228e+01 0 0 0
1353 2 8.6135000000000002e+00 1.4919019630994494e+01 3.0030999999999228e+01 0 0 0
1375 2 1.2304999999999998e+01 1.4208590124756658e+01 3.0030999999999228e+01 0 0 0
1374 2 1.1074500000000002e+01 1.4919019630994494e+01 3.0030999999999228e+01 0 0 0
1373 2 1.1074500000000002e+01 1.6339878643470161e+01 3.0030999999999228e+01 0 0 0
1411 2 0.0000000000000000e+00 2.8417180249513345e+00 3.3416225063369112e+01 0 0 0
1412 2 0.0000000000000000e+00 0.0000000000000000e+00 3.3416225063369112e+01 0 0 0
1413 2 1.2305000000000001e+00 7.1042950623783474e-01 3.3416225063369112e+01 0 0 0
1417 2 1.2305000000000001e+00 2.1312885187134998e+00 3.3416225063369112e+01 0 0 0
1418 2 2.4610000000000003e+00 2.8417180249513345e+00 3.3416225063369112e+01 0 0 0
1419 2 2.4610000000000003e+00 0.0000000000000000e+00 3.3416225063369112e+01 0 0 0
1420 2 3.6915000000000004e+00 7.1042950623783474e-01 3.3416225063369112e+01 0 0 0
1428 2 3.6914999999999996e+00 2.1312885187134998e+00 3.3416225063369112e+01 0 0 0
1429 2 4.9220000000000006e+00 2.8417180249513332e+00 3.3416225063369112e+01 0 0 0
1430 2 4.9220000000000006e+00 0.0000000000000000e+00 3.3416225063369112e+01 0 0 0
1431 2 6.1524999999999999e+00 7.1042950623783407e-01 3.3416225063369112e+01 0 0 0
1443 2 6.1524999999999999e+00 2.1312885187134989e+00 3.3416225063369112e+01 0 0 0
1444 2 7.3829999999999991e+00 2.8417180249513345e+00 3.3416225063369112e+01 0 0 0
1445 2 7.3829999999999991e+00 0.0000000000000000e+00 3.3416225063369112e+01 0 0 0
1475 2 4.9220000000000006e+00 1.2787731112280996e+01 3.3416225063369112e+01 0 0 0
1523 2 9.8440000000000012e+00 1.2787731112280996e+01 3.3416225063369112e+01 0 0 0
1446 2 8.6134999999999984e+00 7.1042950623783407e-01 3.3416225063369112e+01 0 0 0
1462 2 8.6134999999999984e+00 2.1312885187135002e+00 3.3416225063369112e+01 0 0 0
1463 2 9.8440000000000012e+00 2.8417180249513332e+00 3.3416225063369112e+01 0 0 0
1464 2 9.8440000000000012e+00 0.0000000000000000e+00 3.3416225063369112e+01 0 0 0
1465 2 1.1074500000000002e+01 7.1042950623783330e-01 3.3416225063369112e+01 0 0 0
1485 2 1.1074500000000002e+01 2.1312885187135002e+00 3.3416225063369112e+01 0 0 0
1414 2 0.0000000000000000e+00 7.1042950623783341e+00 3.3416225063369112e+01 0 0 0
1415 2 0.0000000000000000e+00 4.2625770374269996e+00 3.3416225063369112e+01 0 0 0
1416 2 1.2305000000000001e+00 4.9730065436648339e+00 3.3416225063369112e+01 0 0 0
1424 2 1.2305000000000001e+00 6.3938655561404980e+00 3.3416225063369112e+01 0 0 0
1425 2 2.4610000000000003e+00 7.1042950623783341e+00 3.3416225063369112e+01 0 0 0
1426 2 2.4610000000000003e+00 4.2625770374269996e+00 3.3416225063369112e+01 0 0 0
1427 2 3.6914999999999996e+00 4.9730065436648339e+00 3.3416225063369112e+01 0 0 0
1439 2 3.6914999999999996e+00 6.3938655561404980e+00 3.3416225063369112e+01 0 0 0
1440 2 4.9220000000000006e+00 7.1042950623783341e+00 3.3416225063369112e+01 0 0 0
1441 2 4.9220000000000006e+00 4.2625770374269978e+00 3.3416225063369112e+01 0 0 0
1442 2 6.1524999999999999e+00 4.9730065436648339e+00 3.3416225063369112e+01 0 0 0
1458 2 6.1524999999999999e+00 6.3938655561404980e+00 3.3416225063369112e+01 0 0 0
1459 2 7.3830000000000009e+00 7.1042950623783341e+00 3.3416225063369112e+01 0 0 0
1460 2 7.3829999999999991e+00 4.2625770374269996e+00 3.3416225063369112e+01 0 0 0
1461 2 8.6135000000000002e+00 4.9730065436648339e+00 3.3416225063369112e+01 0 0 0
1481 2 8.6135000000000002e+00 6.3938655561404980e+00 3.3416225063369112e+01 0 0 0
1482 2 9.8440000000000012e+00 7.1042950623783341e+00 3.3416225063369112e+01 0 0 0
1483 2 9.8440000000000012e+00 4.2625770374270004e+00 3.3416225063369112e+01 0 0 0
1484 2 1.1074500000000002e+01 4.9730065436648339e+00 3.3416225063369112e+01 0 0 0
1505 2 1.1074500000000002e+01 6.3938655561404980e+00 3.3416225063369112e+01 0 0 0