
# Create simulation box and atoms

read_data data.graphite_substrate
  orthogonal box = (0 0 -0.0398667) to (49.22 49.0196 60.1019)
  4 by 3 by 5 MPI processor grid
  reading atoms ...
  6736 atoms
  reading velocities ...
  6736 velocities
group water type 1
3976 atoms in group water
group graphite type 2
2760 atoms in group graphite

# Define potential

pair_style sw
pair_coeff * * mWC.sw mW C
Reading potential file mWC.sw with DATE: 2019-02-27


# Fix graphite atoms in place

fix 5 graphite setforce 0.0 0.0 0.0
velocity graphite set 0.0 0.0 0.0


# Equilibration of molecular water

# Add velocity/set timestep

velocity	    water create ${TEMP} ${SEED} rot yes dist gaussian
velocity	    water create 225 ${SEED} rot yes dist gaussian
velocity	    water create 225 12548 rot yes dist gaussian
timestep	    5.0

# Define output

compute			1 water msd
compute			3 water temp
thermo	    	50
thermo_style	custom step temp press vol etotal ke pe c_1[4] c_3

# Neighbor lists

neigh_modify    delay 0 every 1 check yes

# Set fixes

fix             1 water momentum 10 linear 1 1 1 rescale
fix             2 water nve
fix             3 water temp/csvr ${TEMP} ${TEMP} 500.0 ${SEED}
fix             3 water temp/csvr 225 ${TEMP} 500.0 ${SEED}
fix             3 water temp/csvr 225 225 500.0 ${SEED}
fix             3 water temp/csvr 225 225 500.0 12548
fix             4 water press/berendsen z ${PRES} ${PRES} 1000.0 modulus 20000
fix             4 water press/berendsen z 1 ${PRES} 1000.0 modulus 20000
fix             4 water press/berendsen z 1 1 1000.0 modulus 20000

# Run 0.5 ns equilibration

dump		    1 all atom 2000 ${DIR}/eq.${NAME}-${TEMP}.dump
dump		    1 all atom 2000 run_12/eq.${NAME}-${TEMP}.dump
dump		    1 all atom 2000 run_12/eq.het_freeze_12-${TEMP}.dump
dump		    1 all atom 2000 run_12/eq.het_freeze_12-225.dump

reset_timestep  0

run	            100000
Neighbor list info ...
  update every 1 steps, delay 0 steps, check yes
  max neighbors/atom: 2000, page size: 100000
  master list distance cutoff = 7.76
  ghost atom cutoff = 7.76
  binsize = 3.88, bins = 13 13 16
  1 neighbor lists, perpetual/occasional/extra = 1 0 0
  (1) pair sw, perpetual
      attributes: full, newton on
      pair build: full/bin/atomonly
      stencil: full/bin/3d
      bin: standard
Per MPI rank memory allocation (min/avg/max) = 4.091 | 4.193 | 4.508 Mbytes
Step Temp Press Volume TotEng KinEng PotEng c_1[4] c_3 
       0     132.7951   -1147.9579    145106.76   -36018.829     2665.962   -38684.791            0          225 
      50    171.32321    -1134.232    144486.35    -36359.17     3439.443   -39798.613   0.87129788    290.27971 
     100    170.12634   -1298.3541    143943.07   -36770.765    3415.4149    -40186.18    1.9232709     288.2518 
     150    162.05142    -1033.888    143408.71   -37127.316    3253.3048   -40380.621    2.7811243    274.57015 
     200    155.43833   -686.78091    142938.75    -37384.42     3120.542   -40504.962    3.5793547    263.36533 
     250    154.79412   -953.30177    142612.47    -37591.33    3107.6089   -40698.939    4.2993344    262.27381 
     300    149.39324   -796.16227    142166.94   -37791.254    2999.1822   -40790.436    5.0614861    253.12289 
     350    148.03451   -667.88464    141916.47   -37966.177    2971.9046   -40938.082    5.7208218    250.82073 
     400    147.22194   -633.14148    141613.65   -38128.478    2955.5917    -41084.07    6.3204275    249.44397 
     450    143.05494   -890.76103    141265.81   -38241.483    2871.9361    -41113.42    6.9503827    242.38366 
     500     143.1728   -464.34594    141046.11   -38400.843    2874.3021   -41275.145    7.4244806    242.58334 
     550    143.70025   -526.17533    140968.44    -38501.01    2884.8911   -41385.901    7.9178848    243.47703 
     600    141.92087   -592.28976     140733.8   -38570.123    2849.1688   -41419.292    8.4149512    240.46216 
     650    138.05325   -276.42565    140647.63   -38657.983    2771.5232   -41429.506    8.8742853    233.90908 
     700    138.38592   -451.85107    140521.87   -38699.378     2778.202    -41477.58    9.2968844    234.47275 
     750    140.40612   -254.84269    140464.51   -38802.035    2818.7589   -41620.794    9.6504575    237.89565 
     800    134.44212   -462.19676    140360.82    -38939.16    2699.0272   -41638.188    10.205323    227.79061 
     850    135.07835   -175.03168     140410.8   -38950.639    2711.7999   -41662.439    10.631842     228.8686 
     900    133.95964   -536.67728    140330.21    -38989.46     2689.341   -41678.801    11.068335    226.97312 
     950    135.51357      -465.41    140152.48   -39030.002    2720.5373    -41750.54    11.387726    229.60601 
    1000    133.65962   -393.30729    140023.18    -39091.05    2683.3178   -41774.367    11.719671    226.46478 
    1050    132.49757   -39.938619    139971.86   -39105.222    2659.9888   -41765.211    12.112734    224.49588 
    1100    132.66642    -175.1477    139930.02   -39146.005    2663.3787   -41809.383    12.389914    224.78198 
    1150     132.4263    -69.45391    139951.52   -39187.773     2658.558   -41846.331    12.667729    224.37512 
    1200    134.83432   -234.46595    139950.55   -39216.401    2706.9008   -41923.302    12.921697    228.45512 
    1250    131.42876    -40.90702    139961.74   -39164.637    2638.5317   -41803.168    13.164395    222.68496 
    1300    130.75445   -77.217206     140015.9   -39188.586    2624.9944    -41813.58    13.457724    221.54245 
    1350    133.53461   -53.790871    140065.22   -39196.597    2680.8082   -41877.405    13.735909    226.25298 
    1400    134.42596   -29.474362    140133.77   -39218.851    2698.7027   -41917.554    14.057213    227.76323 
    1450    133.64779   -286.07794    140122.82   -39238.151    2683.0804   -41921.231    14.327524    226.44474 
    1500    133.19214   -234.77517    140085.97   -39271.546    2673.9328   -41945.479    14.692681    225.67272 
    1550    132.64599   -180.75306    140108.31   -39329.088    2662.9685   -41992.057    14.921052    224.74736 
    1600    132.04647   -233.26664    140070.42   -39312.739    2650.9326   -41963.672    15.181877    223.73156 
    1650     132.4612   -108.86594    140104.69   -39291.137    2659.2586   -41950.396     15.42373    224.43425 
    1700    132.72404   -68.563232    140193.97   -39279.006    2664.5353   -41943.541    15.644161    224.87959 
    1750    133.58836   -321.43599    140183.41   -39270.596    2681.8874   -41952.483     15.90491    226.34406 
    1800    133.39266   -177.13768    140176.68   -39234.851    2677.9584   -41912.809    16.240151    226.01246 
    1850    131.55664   -38.352961    140233.37   -39363.497    2641.0989   -42004.596    16.401479    222.90162 
    1900    129.70354   -360.74633    140284.98   -39405.256    2603.8965   -42009.152    16.590696    219.76184 
    1950    130.52516   -219.75691    140256.09   -39374.351    2620.3912   -41994.742     16.81738    221.15395 
    2000    133.61715   -72.519776    140285.01   -39339.518    2682.4652   -42021.983    17.011853    226.39283 
    2050    135.91008   -154.51432    140328.65   -39312.463    2728.4976    -42040.96    17.218453    230.27784 
    2100    132.34924   -148.21232     140287.4   -39360.141     2657.011   -42017.152    17.415295    224.24456 
    2150    131.14267    -152.5555    140319.38   -39323.609    2632.7882   -41956.397       17.644    222.20022 
    2200    132.62653    31.676632    140329.14   -39323.795    2662.5779   -41986.373    17.965416    224.71439 
    2250    133.41297   -45.023145    140370.66   -39341.625    2678.3662   -42019.991    18.289811    226.04688 
    2300    131.63726   -62.466293    140435.75   -39350.276    2642.7174   -41992.993    18.600871    223.03822 
    2350    132.13666    -333.7157    140397.01   -39353.448    2652.7433   -42006.191    18.837836    223.88438 
    2400    130.75522   -78.554562    140479.97   -39358.034    2625.0098   -41983.044    19.019859    221.54375 
    2450    134.36542   -219.92865    140527.15   -39328.074    2697.4874   -42025.561    19.210805    227.66066 
    2500     132.2214   -184.04366    140542.55   -39340.303    2654.4444   -41994.747    19.439791    224.02795 
    2550    134.71499   -239.25521    140561.49   -39283.396    2704.5052   -41987.901    19.554252    228.25294 
    2600    132.72585   -388.11839    140521.28   -39303.748    2664.5718   -41968.319    19.721032    224.88267 
    2650    132.40377   -234.61398    140557.13   -39338.116    2658.1058   -41996.222    19.910689    224.33696 
    2700     134.2005   -218.62871    140538.57   -39346.547    2694.1764   -42040.723     20.05682    227.38122 
    2750    132.27286   -384.95364    140533.41   -39349.185    2655.4777   -42004.662     20.32864    224.11516 
    2800    131.75084   -341.94813     140454.1   -39388.548    2644.9976   -42033.546    20.721629    223.23066 
    2850    130.64678   -319.61937    140395.43   -39405.876    2622.8329   -42028.709    21.007653    221.36002 
    2900    130.16955   -138.31433    140399.89   -39428.379    2613.2521   -42041.631    21.066167    220.55143 
    2950    128.75196   -281.14389    140366.32   -39452.702    2584.7928   -42037.495    21.380157    218.14954 
    3000    134.03376   -95.683877    140385.65   -39388.278    2690.8291   -42079.108    21.540968    227.09871 
    3050    132.96922   -141.00039    140462.13   -39419.603    2669.4575   -42089.061    21.725379    225.29502 
    3100    133.07798   -154.94334    140504.75   -39424.275    2671.6409   -42095.916    21.891927    225.47929 
    3150    133.76877   -166.98151    140540.58    -39406.72    2685.5092    -42092.23    22.040424    226.64973 
    3200    132.96464   -47.357203    140567.15   -39420.816    2669.3656   -42090.182    22.150471    225.28726 
    3250    133.49667    -239.0164    140590.42   -39366.352    2680.0466   -42046.398    22.250014    226.18871 
    3300    133.21635    109.97199    140579.75   -39319.648    2674.4189   -41994.067    22.421642    225.71374 
    3350     132.7954   -245.89543    140646.48   -39346.945     2665.968   -42012.913    22.631559    225.00051 
    3400    133.46036   -114.39907    140684.67   -39327.341    2679.3175   -42006.659    22.895745    226.12717 
    3450    132.21777   -145.38198    140607.14   -39364.814    2654.3716   -42019.186    23.162449     224.0218 
    3500     130.3099   -241.20292    140557.81    -39358.27    2616.0698    -41974.34    23.326354    220.78923 
    3550     133.1305   -159.00278    140472.81   -39376.879    2672.6955   -42049.575    23.593423    225.56829 
    3600    131.98878   -243.31952    140426.75   -39339.256    2649.7745    -41989.03    23.886271    223.63382 
    3650    128.53461   -57.517857    140431.33   -39384.514    2580.4295   -41964.943    24.128892    217.78129 
    3700     133.8536   -222.10037    140437.26   -39401.469    2687.2123   -42088.681    24.330446    226.79347 
    3750    132.44064   -97.116179    140384.43   -39416.552    2658.8459   -42075.398    24.444663    224.39942 
    3800    132.81543   -158.39316    140416.67   -39433.645    2666.3701   -42100.015    24.650418    225.03444 
    3850    133.89321    84.501847    140500.58   -39443.456    2688.0074   -42131.463    24.790258    226.86057 
    3900     129.6803    56.287822    140516.88   -39464.345    2603.4299   -42067.775    24.878141    219.72246 
    3950    134.44729   -6.3730811     140548.5   -39408.381     2699.131   -42107.512    24.956716    227.79937 
    4000    134.97223    48.463525       140545   -39393.947    2709.6696   -42103.616    25.248617     228.6888 
    4050    132.42176   -402.11744    140569.15   -39385.875     2658.467   -42044.342    25.455945    224.36744 
    4100    132.70773   -29.685767    140585.15   -39389.459     2664.208   -42053.667    25.702121    224.85197 
    4150    131.81638   -149.30811    140652.38   -39421.025    2646.3135   -42067.338    25.835853    223.34172 
    4200    131.13706   -117.29897    140708.39   -39418.499    2632.6755   -42051.174    26.015158    222.19071 
    4250    134.64241   -129.72033     140767.1   -39393.387    2703.0481   -42096.435    26.173661    228.12997 
    4300     133.8924   -129.26576    140765.52   -39342.952    2687.9912   -42030.943    26.326509     226.8592 
    4350    133.82172   -98.777614     140733.4   -39395.196    2686.5722   -42081.768    26.495523    226.73945 
    4400    135.08774   -233.50922    140733.15   -39464.661    2711.9884   -42176.649    26.729542    228.88451 
    4450    131.97365   -486.46535    140725.47   -39496.441    2649.4707   -42145.912    26.987907    223.60818 
    4500    132.64829     -194.904    140772.91   -39484.357    2663.0146   -42147.372    27.142035    224.75125 
    4550    130.30618   -105.71167    140861.37   -39530.677     2615.995   -42146.672    27.257407    220.78292 
    4600     131.2165   -287.47317    140883.62   -39540.356    2634.2704   -42174.626    27.382905    222.32532 
    4650    131.96134   -245.65712    140895.01   -39554.958    2649.2237   -42204.181    27.634137    223.58733 
    4700    132.46461   -37.797031    141001.01   -39497.683    2659.3272    -42157.01    27.812934    224.44004 
    4750    132.27867   -58.002949     141034.6   -39434.082    2655.5944   -42089.677    27.973328      224.125 
    4800     128.4825   -228.51895    141048.41   -39469.656    2579.3833   -42049.039    28.145825    217.69299 
    4850    133.87582   -144.41786    141075.54   -39463.017    2687.6583   -42150.676    28.222729    226.83111 
    4900    132.74067   -158.60343    140981.68   -39428.301    2664.8692    -42093.17    28.416962    224.90777 
    4950    129.57311    -271.9411     140989.6   -39452.417     2601.278   -42053.695    28.736935    219.54085 
    5000    135.60174   -233.49004    140928.57   -39402.712    2722.3074   -42125.019    28.987109     229.7554 
    5050    130.95258   -238.46642    140963.64     -39430.8    2628.9721   -42059.772    29.127822    221.87815 
    5100    136.60209    -188.5262    140949.57   -39450.568    2742.3903   -42192.958    29.439913    231.45034 
    5150    132.56395   -184.99683    140980.31   -39486.443    2661.3215   -42147.764    29.483316    224.60836 
    5200    133.77005    -262.6946    140979.53   -39452.874    2685.5348   -42138.409    29.667499    226.65189 
    5250    132.87155   -316.33124     140945.6   -39452.061    2667.4967   -42119.558     29.87759    225.12953 
    5300    132.14655   -286.03578    140886.16   -39488.578    2652.9418    -42141.52    30.024544    223.90113 
    5350    132.23882   -150.62113     140888.4   -39448.733    2654.7942   -42103.527    30.172898    224.05747 
    5400    129.62497   -264.48213    140849.63   -39470.446    2602.3191   -42072.765    30.359828    219.62871 
    5450    132.36926   -202.80457    140851.81   -39458.372    2657.4128   -42115.784    30.498542    224.27848 
    5500    131.29975   -423.15355    140754.66   -39441.235    2635.9416   -42077.177    30.744764    222.46636 
    5550    130.51578   -175.37517    140598.42   -39471.448    2620.2028   -42091.651     31.00514    221.13805 
    5600     131.6491   -269.50132    140615.17   -39492.164    2642.9552   -42135.119     31.16714    223.05829 
    5650    130.62273   -216.85488     140574.9   -39502.965    2622.3499   -42125.315    31.441841    221.31926 
    5700    131.05608   -249.12758    140547.49   -39504.133    2631.0499   -42135.183    31.734427    222.05351 
    5750     131.9179   -260.51797    140484.69   -39452.112    2648.3515   -42100.464    32.100478    223.51373 
    5800    133.80395   -200.65814    140526.36   -39469.869    2686.2153   -42156.084    32.146424    226.70933 
    5850    132.54909    -134.4323    140421.49   -39451.332    2661.0232   -42112.356    32.155037    224.58318 
    5900    131.83434   -70.636296    140515.04   -39454.422    2646.6741   -42101.096    32.378653    223.37215 
    5950    132.48735    -65.56845    140544.65   -39440.483    2659.7837   -42100.267    32.624015    224.47857 
    6000    133.92055    18.699272    140578.96   -39430.829    2688.5562   -42119.386    32.805312    226.90689 
    6050    132.01066   -78.481518    140634.24   -39484.975    2650.2137   -42135.188    33.165779    223.67089 
    6100    134.88981   -34.784461     140722.7   -39403.087    2708.0149   -42111.102    33.227547    228.54915 
    6150    132.41733   -258.04101    140772.02   -39414.101     2658.378   -42072.479    33.440464    224.35994 
    6200    135.47744   -123.25473    140794.35   -39420.174     2719.812   -42139.986    33.532017     229.5448 
    6250    134.94411    -109.1644    140824.99   -39339.653    2709.1049   -42048.758    33.550319    228.64115 
    6300    133.70968   -175.67519    140815.26   -39382.662    2684.3228   -42066.985    33.799303    226.54961 
    6350    134.44962     -21.5512    140887.95   -39376.138    2699.1776   -42075.316    34.101496    227.80331 
    6400    134.36576   -317.08854    140888.53   -39352.691    2697.4943   -42050.186    34.306633    227.66124 
    6450    134.16198   -130.86321    140859.46   -39369.044    2693.4031   -42062.447     34.48992    227.31595 
    6500    136.45125   -177.25593    140934.41   -39336.631    2739.3619   -42075.993    34.848342    231.19475 
    6550    132.44632   0.49076792     140979.6   -39349.766    2658.9599   -42008.726    35.209933    224.40904 
    6600    133.69363   -161.52922    141014.54   -39323.093    2684.0007   -42007.093    35.408513    226.52242 
    6650    134.52245   -196.62351     140905.8    -39366.11    2700.6398    -42066.75     35.68392    227.92672 
    6700    132.20472   -413.89898    140738.27    -39327.17    2654.1097    -41981.28    35.980471     223.9997 
    6750    135.28538   -213.09367    140683.74   -39340.495    2715.9563   -42056.452    36.190422    229.21938 
    6800    133.62059   -301.51132    140591.34   -39360.983    2682.5344   -42043.517    36.337803    226.39866 
    6850    132.06305   -209.92432    140584.05   -39364.918    2651.2655   -42016.184    36.520209    223.75966 
    6900    131.99952   -29.583993    140666.92   -39389.243    2649.9902   -42039.233    36.898032    223.65202 
    6950     133.5767   -182.75225    140682.12   -39386.601    2681.6532   -42068.254    37.080572     226.3243 
    7000    133.57285   -88.395878    140678.58   -39389.357    2681.5759   -42070.933     37.24902    226.31777 
    7050    131.49836   -268.40645    140675.43   -39440.815     2639.929   -42080.744    37.514048    222.80289 
    7100    132.47337   -221.55087    140646.72   -39433.732    2659.5031   -42093.235    37.720316    224.45488 
    7150    133.70018   -422.69476    140723.33   -39444.435    2684.1322   -42128.567    37.964481    226.53352 
    7200    133.17022   -1.2173913    140642.71    -39431.07    2673.4927   -42104.563    38.133886    225.63557 
    7250    133.88832   -182.53313    140654.36   -39431.536    2687.9091   -42119.445    38.309375    226.85228 
    7300    130.68968   -196.33713    140693.33   -39477.452    2623.6941   -42101.147    38.522979    221.43271 
    7350    131.42897   -166.21239    140711.41   -39455.328    2638.5358   -42093.864     38.77365    222.68531 
    7400    133.62211    -219.3146    140680.66   -39422.613    2682.5648   -42105.178    38.903233    226.40123 
    7450    132.87233   -299.46877    140639.18   -39467.509    2667.5125   -42135.021    39.040716    225.13086 
    7500    131.91191    -65.56375    140575.47   -39489.841    2648.2312   -42138.072    38.957535    223.50357 
    7550    128.78919    -247.1118     140605.2   -39491.817    2585.5404   -42077.357    39.091968    218.21263 
    7600    130.35315    45.929338    140542.23   -39503.547    2616.9381   -42120.485    39.345025    220.86251 
    7650    130.33337   -174.09796     140618.3   -39461.319    2616.5409    -42077.86    39.562149    220.82899 
    7700    131.91653   -201.09473     140648.9   -39468.221     2648.324   -42116.545    39.852102     223.5114 
    7750    131.53151   -78.275781    140656.92   -39460.264    2640.5946   -42100.859      40.1222    222.85906 
    7800    131.37618   -222.99508    140684.69   -39494.113     2637.476   -42131.589    40.337905    222.59586 
    7850    131.48019   -254.17223    140703.74    -39509.05    2639.5641   -42148.614    40.572267    222.77209 
    7900    133.52165    12.317018    140719.61   -39462.556    2680.5481   -42143.104     40.58337    226.23103 
    7950    132.54729   -211.18548    140828.11   -39444.589     2660.987   -42105.576     40.77287    224.58012 
    8000    133.22507   -24.132573     140891.3   -39444.105     2674.594   -42118.699    40.795683    225.72852 
    8050    132.74182   -24.656187    140894.83    -39489.47    2664.8923   -42154.362    40.945199    224.90972 
    8100    131.75311   -266.09866    140959.58   -39472.321    2645.0432   -42117.364     41.11733    223.23451 
    8150    134.58923   -256.05341     140904.6   -39435.864    2701.9805   -42137.845    41.440397    228.03987 
    8200    132.31578   -302.31319    140900.36   -39407.708    2656.3393   -42064.048    41.701648    224.18787 
    8250    133.61429   -59.864239    140938.24   -39403.061    2682.4079   -42085.469    41.962191    226.38799 
    8300    133.50019   -130.88977    140961.84   -39385.727    2680.1172   -42065.844    42.160741    226.19466 
    8350    131.84179   -58.758566    141025.09   -39400.721    2646.8235   -42047.545    42.349346    223.38477 
    8400    132.65862   -177.23798     141061.8   -39401.171     2663.222   -42064.393    42.484736    224.76876 
    8450    137.73146   -26.497293    141118.38   -39340.434    2765.0632   -42105.497    42.509182    233.36387 
    8500    135.33623   -206.55339    141180.16   -39257.798    2716.9771   -41974.775    42.585831    229.30554 
    8550    133.95235   -274.31418    141229.66    -39333.39    2689.1947   -42022.585    42.804538    226.96078 
    8600    135.70859   -234.07107    141140.55   -39351.618    2724.4526    -42076.07    42.975029    229.93645 
    8650    136.44069   -227.62176    141123.24   -39326.274      2739.15   -42065.424    43.082897    231.17687 
    8700    132.03077   -132.51126    141092.52   -39391.463    2650.6175   -42042.081    43.349772    223.70497 
    8750    130.17228   -113.12038    140997.64   -39432.153    2613.3068    -42045.46    43.358822    220.55604 
    8800    131.15888   -270.72976    141000.03   -39460.265    2633.1137   -42093.378     43.41613    222.22769 
    8850    130.62688    -284.1335    140951.94   -39488.334    2622.4334   -42110.767    43.601065     221.3263 
    8900    133.74825   -233.06546    140870.28   -39501.736    2685.0972   -42186.833    43.874966    226.61496 
    8950    133.69571   -229.79992    140868.71    -39491.05    2684.0424   -42175.092    44.049546    226.52594 
    9000    134.10707   -284.18618    140900.16   -39465.017    2692.3008   -42157.318    44.253937    227.22292 
    9050    134.02317   -181.43081    140944.12   -39452.093    2690.6165    -42142.71    44.456217    227.08077 
    9100     134.0991   -18.096428    141073.52   -39454.831    2692.1408   -42146.972    44.577091    227.20942 
    9150    132.17599   -139.16403    141055.43   -39459.962    2653.5328   -42113.495    44.825785    223.95101 
    9200    132.75219   -149.59116    140987.48   -39449.301    2665.1006   -42114.401    44.883328     224.9273 
    9250     132.2474   -98.692078    141037.95    -39458.29    2654.9665   -42113.257    45.022341    224.07201 
    9300    133.18928   -156.12079    141064.14   -39426.686    2673.8755   -42100.562    45.133164    225.66787 
    9350      133.085   -240.25276       141078   -39423.159    2671.7819   -42094.941    45.211862    225.49118 
    9400    129.75491   -325.08166    141010.79   -39472.186    2604.9278   -42077.114     45.37418    219.84888 
    9450    130.47113   -459.67511    140968.16   -39477.923    2619.3066    -42097.23    45.599375    221.06241 
    9500    132.30488   -273.67575     140937.8   -39519.019    2656.1205   -42175.139    45.750631     224.1694 
    9550    130.89709   -169.59466    140980.02   -39490.856     2627.858   -42118.714    45.922734    221.78413 
    9600    131.75335   -276.96737    141020.91    -39473.62    2645.0481   -42118.668    46.278802    223.23492 
    9650    132.96321   -19.720108    141049.22   -39470.616     2669.337   -42139.953    46.587082    225.28484 
    9700    133.86733   -135.88083    141190.83   -39462.341    2687.4877   -42149.829     46.71754    226.81671 
    9750    133.15427   -365.41222    141186.05   -39507.807    2673.1727    -42180.98    46.816758    225.60856 
    9800    129.78966   -385.14016    141172.53   -39537.084    2605.6255    -42142.71    47.103682    219.90776 
    9850    132.32088   -216.60474    141157.99   -39507.089    2656.4417    -42163.53    47.261835    224.19651 
    9900    131.01761   -98.059951    141128.42    -39509.89    2630.2774   -42140.167    47.616184    221.98832 
    9950    130.68299   -151.79299    141114.96   -39468.965    2623.5597   -42092.525     47.82909    221.42136 
   10000    131.48783   -147.99893    141019.69   -39459.462    2639.7175    -42099.18    48.010809    222.78504 
   10050    133.19151    -123.1005    141007.62   -39527.944    2673.9202   -42201.864    48.139202    225.67165 
   10100    130.56648   -146.16471    140991.53   -39493.536    2621.2208   -42114.757     48.37888    221.22396 
   10150    130.24976   -93.494569    140988.02   -39515.477    2614.8625    -42130.34    48.582535    220.68734 
   10200    130.52167   -237.93168    141009.12   -39536.524    2620.3212   -42156.845    48.713143    221.14804 
   10250    131.06232   -347.03431    140951.92   -39534.234    2631.1752   -42165.409    48.759723    222.06409 
   10300    132.10766   -257.02543    140878.75    -39526.53     2652.161   -42178.691    49.059048    223.83524 
   10350    133.19984   -58.156738    140932.43   -39498.682    2674.0874    -42172.77    49.203102    225.68576 
   10400    131.37618   -197.68308    140921.76   -39447.028    2637.4762   -42084.504    49.314638    222.59588 
   10450     130.2054    -317.9555    140829.28   -39440.254    2613.9719   -42054.226    49.471996    220.61218 
   10500    133.10122   -342.01563    140797.85   -39412.708    2672.1075   -42084.816    49.392116    225.51866 
   10550    132.80886   -280.06147    140790.97   -39402.109    2666.2383   -42068.347    49.756184    225.02332 
   10600    137.34356   -232.85218    140740.15   -39351.862    2757.2757   -42109.137    50.123994    232.70663 
   10650    134.70978   -368.57017    140688.46   -39376.555    2704.4007   -42080.955    50.449923    228.24412 
   10700    129.53036   -292.81506    140626.41   -39408.292    2600.4199   -42008.712    50.905959    219.46843 
   10750     130.6103    -327.6926    140546.84   -39467.202    2622.1005   -42089.302    51.141237    221.29821 
   10800    132.60276   -163.75253    140479.56   -39482.466    2662.1007   -42144.567    51.169811    224.67411 
   10850    131.05362   -184.97419    140437.51   -39506.403    2631.0005   -42137.403    51.438667    222.04934 
   10900    131.55786   -171.77948    140400.45   -39481.874    2641.1235   -42122.998    52.029904     222.9037 
   10950    131.45632   -12.182187    140478.86   -39515.371     2639.085   -42154.456    52.283955    222.73165 
   11000    134.82809   -283.72243    140497.78   -39524.852    2706.7757   -42231.627     52.48769    228.44457 
   11050    131.96845   -155.28971     140503.6   -39516.776    2649.3663   -42166.142    52.554122    223.59937 
   11100    129.52995   -230.74354     140519.6   -39494.329    2600.4117   -42094.741    52.685398    219.46773 
   11150    129.60015   -314.08076    140500.28   -39460.154    2601.8209   -42061.975    52.851768    219.58666 
   11200    131.63475   -287.64401    140524.57   -39494.543     2642.667    -42137.21    53.147755    223.03397 
   11250    131.11533   -376.46183    140503.43    -39474.88    2632.2393    -42107.12    53.506476    222.15389 
   11300    130.24801   -129.91973    140490.68   -39412.384    2614.8273   -42027.212    53.622587    220.68437 
   11350    134.40443   -75.038848    140558.62   -39343.702    2698.2706   -42041.973    53.785585    227.72676 
   11400     134.3591   -240.18309    140568.35    -39302.41    2697.3605    -41999.77    54.237722    227.64995 
   11450    133.66221   -166.76722    140592.06   -39327.961    2683.3699   -42011.331    54.464946    226.46918 
   11500    132.99169   -218.19677    140635.55   -39337.791    2669.9087     -42007.7     54.64319    225.33309 
   11550    134.42704   -62.491504    140693.91   -39359.602    2698.7243   -42058.326    54.792563    227.76505 
   11600    134.77831    43.881481    140718.11    -39421.71    2705.7764   -42127.486    54.896956    228.36023 
   11650     131.6774   -346.14765    140760.58   -39431.239    2643.5233   -42074.763    54.923136    223.10624 
   11700    133.74196   -320.34277    140734.51   -39433.407    2684.9708   -42118.378    55.029108    226.60429 
   11750    134.15312   -336.23674    140679.78   -39369.192    2693.2254   -42062.417    54.952121    227.30095 
   11800    137.08846   -271.73201    140646.49   -39307.591    2752.1544   -42059.746     55.08459    232.27441 
   11850    136.04375   -290.28179    140653.66    -39316.18    2731.1811   -42047.361    55.444868    230.50431 
   11900    135.28398   -153.77281    140608.94   -39325.173    2715.9281   -42041.101    55.894443      229.217 
   11950    133.74149   -16.407854     140668.8   -39401.383    2684.9615   -42086.344     56.02797    226.60351 
   12000    133.08586   -52.875246    140694.96   -39394.902    2671.7992   -42066.701    56.122019    225.49265 
   12050    132.33293    2.4375628    140688.82   -39359.623    2656.6836   -42016.307    56.290115    224.21693 
   12100    135.18009   -93.975394    140700.28    -39380.72    2713.8424   -42094.562    56.402876    229.04098 
   12150    133.94137   -261.05899    140641.39   -39355.025    2688.9742   -42043.999    56.833556    226.94217 
   12200    132.48404   -45.656826    140597.44   -39378.092    2659.7173   -42037.809    57.082936    224.47296 
   12250    134.32897   -241.23578    140598.91   -39370.252    2696.7555   -42067.007    57.162924    227.59889 
   12300    134.40188   -45.336536     140555.6   -39355.032    2698.2194   -42053.251    57.731246    227.72244 
   12350    132.45116   -51.859347    140555.57   -39383.471    2659.0571   -42042.528    58.069184    224.41725 
   12400     133.4648   -216.03843    140554.84   -39353.118    2679.4067   -42032.524     58.23961    226.13469 
   12450    131.19062   -158.60657    140539.67     -39414.5    2633.7509    -42048.25     58.60403    222.28147 
   12500     134.4719     -213.911    140576.35   -39383.514     2699.625    -42083.14    58.670485    227.84107 
   12550    132.30115    -176.1156    140524.18   -39387.809    2656.0456   -42043.855    59.011545    224.16309 
   12600    130.52919   -233.85228    140543.59   -39368.116    2620.4721   -41988.588    59.383817    221.16077 
   12650    132.30295   -292.71847    140558.47   -39338.037    2656.0817   -41994.119    59.657237    224.16613 
   12700    132.98962   -194.32836    140526.81   -39319.692    2669.8671   -41989.559    59.996314    225.32958 
   12750    132.21773   -183.23551    140534.02   -39318.695    2654.3709   -41973.066     60.27182    224.02174 
   12800    133.51466   -204.63014       140573   -39354.363    2680.4077   -42034.771    60.588959    226.21918 
   12850     134.1853   -132.49385    140637.68   -39353.508    2693.8712   -42047.379    60.837345    227.35546 
   12900     132.8388   -278.00104    140706.08   -39387.291    2666.8392    -42054.13    60.869031    225.07403 
   12950    129.89614   -162.93995    140655.55   -39432.259    2607.7631   -42040.022    61.039926    220.08817 
   13000    133.00941   -128.63175    140672.92   -39406.486    2670.2643    -42076.75     61.21312    225.36311 
   13050     134.7355   -222.74953       140598    -39453.09    2704.9169   -42158.007    61.512449    228.28769 
   13100    131.00652    64.091999     140573.2   -39458.191    2630.0549   -42088.246    61.951249    221.96954 
   13150    131.54487   -222.67277    140526.94   -39495.308    2640.8627    -42136.17    62.088183    222.88169 
   13200    132.26431   -104.77044    140530.52   -39520.588    2655.3059   -42175.894    62.406358    224.10065 
   13250    130.17812   -47.034186    140445.15   -39496.532    2613.4241   -42109.956    62.561692    220.56594 
   13300    132.29811   -90.096247    140453.86   -39423.554    2655.9845   -42079.539    62.881498    224.15792 
   13350    132.19024   -222.52396    140491.35   -39440.441    2653.8189   -42094.259    63.058766    223.97516 
   13400    132.78331   -161.94645    140428.64   -39409.891    2665.7253   -42075.616    63.278351    224.98002 
   13450    133.05491   -143.13209    140405.04   -39438.197    2671.1778   -42109.375    63.427987     225.4402 
   13500    134.36983   -312.22739    140393.09   -39444.146    2697.5759   -42141.722    63.535803    227.66813 
   13550     133.6583   -113.10184    140384.93   -39482.975    2683.2913   -42166.267    63.846591    226.46255 
   13600    131.22578     67.36294    140440.42   -39475.591    2634.4568   -42110.048    63.988848    222.34104 
   13650    129.18973   -158.84066    140414.78   -39451.937    2593.5815   -42045.518    64.253846    218.89128 
   13700    132.16872   -95.832632    140416.36   -39427.338     2653.387   -42080.725    64.368425     223.9387 
   13750    131.24843   -79.667182    140424.97   -39455.962    2634.9115   -42090.874    64.535122    222.37942 
   13800    132.55757   -306.52398    140439.81   -39427.549    2661.1933   -42088.742    64.648163    224.59754 
   13850    132.59684   -204.52897    140479.95   -39377.987    2661.9818   -42039.968    64.791814    224.66409 
   13900    132.24214    20.536066    140564.56    -39390.75     2654.861   -42045.611    65.052667     224.0631 
   13950    135.51991   -190.56091    140627.83   -39353.852    2720.6645   -42074.516    65.290986    229.61675 
   14000     132.6064   -131.37873    140614.28   -39407.012    2662.1737   -42069.186    65.537458    224.68028 
   14050    131.01043    -92.57535    140627.41   -39469.045    2630.1334   -42099.178     65.97796    221.97617 
   14100    131.24817   -140.63001    140669.66   -39442.783    2634.9063   -42077.689    66.274844    222.37898 
   14150    131.46421   -144.42523    140685.18   -39451.617    2639.2434    -42090.86    66.377307    222.74502 
   14200     133.5754   -186.22391    140740.15   -39402.422    2681.6271   -42084.049    66.540983    226.32209 
   14250     136.2223    -159.6508    140824.59   -39357.636    2734.7656   -42092.402     66.91463    230.80684 
   14300    133.33942   -410.14666    140768.12   -39380.555    2676.8896   -42057.445    67.192274    225.92226 
   14350    133.07459    0.5682427    140833.36   -39451.905    2671.5729   -42123.478    67.281764    225.47355 
   14400    132.54626   -5.3299175    140920.26   -39442.948    2660.9663   -42103.915    67.473046    224.57838 
   14450    133.07173   -60.961798    141003.62   -39439.628    2671.5155   -42111.143    67.587472     225.4687 
   14500    132.70846    -447.7682       141078   -39463.837    2664.2225   -42128.059    67.998234     224.8532 
   14550    131.97915   -300.70654    141045.46   -39470.354    2649.5812   -42119.935    68.169395    223.61751 
   14600    131.84724    -281.4659    141090.48   -39480.445    2646.9331   -42127.378    68.324744    223.39401 
   14650    131.10425   -198.83453    141119.54    -39521.28    2632.0169   -42153.297    68.644299    222.13512 
   14700    129.50276   -183.79938    141066.16   -39555.204    2599.8658   -42155.069    68.938956    219.42166 
   14750    130.61037   -433.80549    141087.23   -39570.137    2622.1019   -42192.238    68.931864    221.29832 
   14800    130.38111   -253.76396    141065.74   -39605.102    2617.4994   -42222.601    69.020719    220.90989 
   14850     133.2879   -115.24698    141059.27    -39555.88    2675.8554   -42231.735    69.321238    225.83498 
   14900    128.84143   -171.11991    140999.81   -39513.945    2586.5891   -42100.534    69.684527    218.30114 
   14950    129.09247   -229.74969    140947.43   -39555.917     2591.629   -42147.546    69.902907     218.7265 
   15000    131.23099   -81.081718    140875.78   -39493.131    2634.5613   -42127.693    70.258815    222.34987 
   15050    129.68023   -272.15057    140835.15   -39561.375    2603.4286   -42164.804    70.611592    219.72235 
   15100    129.64964   -207.64305    140768.85   -39584.014    2602.8145   -42186.828    70.731414    219.67053 
   15150    130.83468   -102.65292    140783.42   -39587.746     2626.605   -42214.351    71.042333    221.67838 
   15200     132.3182   -201.71714    140843.97   -39553.016    2656.3878   -42209.404    71.334332    224.19196 
   15250    129.12202   -140.02875    140895.47   -39603.943    2592.2221   -42196.165    71.713287    218.77655 
   15300    130.92605    -316.9503    140878.03   -39557.733    2628.4395   -42186.172    71.976559     221.8332 
   15350    131.58174   -348.90941    140779.62   -39510.181    2641.6029   -42151.784    72.208576    222.94416 
   15400    131.07842   -87.732882       140807   -39470.903    2631.4984   -42102.402    72.392024    222.09137 
   15450    135.30734   -4.9848773    140849.89   -39458.533    2716.3971    -42174.93    72.573785    229.25659 
   15500    133.37786   -4.1064526    140842.61   -39472.708    2677.6614   -42150.369     72.58777     225.9874 
   15550    131.35797   -74.139406    140924.97   -39477.259    2637.1106    -42114.37    72.657853    222.56502 
   15600    132.22977   -272.92177    140963.92   -39494.095    2654.6125   -42148.707    72.838965    224.04213 
   15650     133.5192   -196.38746    140903.71   -39463.382    2680.4988   -42143.881     73.04464    226.22687 
   15700    133.64115   -179.95888    140933.68   -39483.254     2682.947   -42166.201    73.323987    226.43349 
   15750    131.72455   -400.96659    140954.28   -39440.959    2644.4698   -42085.429    73.597466    223.18612 
   15800    132.95588   -430.84232    140932.85   -39413.366    2669.1898   -42082.556    73.967453    225.27242 
   15850    133.79419    -83.74364    140879.62   -39410.865    2686.0194   -42096.885    74.005005    226.69279 
   15900    130.90244    -241.6784    140819.37     -39400.4    2627.9655   -42028.365    74.308466     221.7932 
   15950    135.69292   -88.151003    140834.04   -39415.899    2724.1379   -42140.036    74.528041    229.90989 
   16000    131.75481   -308.71493    140837.97   -39398.758    2645.0774   -42043.835     74.78318    223.23739 
   16050    134.06892   -245.34337    140836.01   -39388.248    2691.5348   -42079.783    74.913228    227.15828 
   16100     130.4764   -106.95435    140892.39    -39349.64    2619.4124   -41969.052    75.029456    221.07134 
   16150    130.47759   -350.26276    140902.14    -39391.59    2619.4361   -42011.026    75.097843    221.07334 
   16200    133.99211   -265.55539    140838.89   -39342.149    2689.9928   -42032.142    75.278247    227.02814 
   16250    136.01799   -69.296168     140820.3   -39350.915     2730.664   -42081.579    75.484967    230.46067 
   16300    131.63199   -116.20165    140863.19    -39391.03    2642.6117   -42033.642    75.805833     223.0293 
   16350     131.3474   -88.879871    140908.72   -39341.246    2636.8983   -41978.144      76.1434     222.5471 
   16400     133.9984   -150.88269    140888.95   -39339.895    2690.1192   -42030.014    76.512987     227.0388 
   16450    135.87488   -37.069614    140823.67   -39276.767     2727.791   -42004.558    76.774104     230.2182 
   16500    135.64962   -56.435127    140929.64   -39296.223    2723.2686   -42019.492    76.941326    229.83652 
   16550    135.58417   -100.73027    140979.74   -39283.093    2721.9547   -42005.047    77.174427    229.72563 
   16600    134.18019   -105.91886    140981.79   -39331.243    2693.7687   -42025.011    77.355129    227.34681 
   16650    135.46285    -125.3506    140995.25   -39311.301    2719.5191    -42030.82    77.502776    229.52007 
   16700    132.19861   -113.93079     140983.4   -39280.996    2653.9871   -41934.984    77.801913    223.98935 
   16750    134.25666   -224.97492    140980.08   -39305.198    2695.3039   -42000.501    77.932031    227.47637 
   16800    135.33476   -184.02536    141035.68   -39335.463    2716.9476   -42052.411    78.077595    229.30305 
   16850    135.21332   -222.40061    141018.27   -39364.732    2714.5096   -42079.242    78.132898    229.09729 
   16900    131.68695   -105.39836    141048.96   -39379.852    2643.7149   -42023.567    78.160413    223.12241 
   16950    133.67262   -179.91504    141111.29   -39371.362    2683.5788   -42054.941    78.374831    226.48681 
   17000     136.3672   -158.54929    141161.65   -39365.955    2737.6746    -42103.63    78.586433    231.05236 
   17050    135.43806   -306.13753    141154.94   -39397.374    2719.0215   -42116.395    78.976569    229.47808 
   17100    131.49589   -220.03351    141151.79   -39378.336    2639.8794   -42018.216    79.274993     222.7987 
   17150    134.51551   -191.89567    141055.59   -39377.411    2700.5005   -42077.911    79.449472    227.91495 
   17200    132.04715   -115.89182    140953.67   -39365.563    2650.9464   -42016.509    79.628322    223.73272 
   17250    133.08449   -116.96537    140922.63   -39452.755    2671.7718   -42124.526    79.863409    225.49033 
   17300      132.487   -33.490557     140845.2   -39450.269    2659.7767   -42110.046    79.977823    224.47797 
   17350    131.17106   -369.53316    140813.12   -39496.102    2633.3582    -42129.46    80.050979    222.24832 
   17400    131.12066   -297.74128    140697.58   -39514.801    2632.3463   -42147.148    80.114191    222.16293 
   17450    133.77284   -485.91687    140584.66   -39464.482    2685.5908   -42150.073    80.239984    226.65662 
   17500    130.52367   -163.73975    140605.85   -39425.595    2620.3612   -42045.956    80.399281    221.15142 
   17550    131.55889   -118.31622    140628.27   -39444.866    2641.1441    -42086.01    80.643501    222.90544 
   17600    132.29686    -299.7217    140633.74   -39416.234    2655.9594   -42072.194    80.822166    224.15581 
   17650    132.87408   -231.94923    140597.22   -39379.333    2667.5477   -42046.881    80.939209    225.13383 
   17700    132.20443   -265.26288    140559.25    -39395.51    2654.1039   -42049.614    81.214038    223.99921 
   17750     133.5179    -332.2582    140532.23   -39420.602    2680.4727   -42101.074    81.350848    226.22466 
   17800    131.85776   -178.00929    140484.68   -39450.206    2647.1442    -42097.35    81.493629    223.41183 
   17850    132.76472   -135.76492    140487.89   -39465.781    2665.3521   -42131.133    81.581498    224.94853 
   17900    132.87542   -168.51249    140498.12   -39391.312    2667.5745   -42058.886    81.664581    225.13609 
   17950    134.14068   -76.219311    140529.85   -39399.006    2692.9754   -42091.982    81.635463    227.27986 
   18000    131.90374   -91.720911    140609.88   -39403.579    2648.0674   -42051.646    81.743501    223.48974 
   18050    132.90919   -125.31036    140644.72    -39425.96    2668.2525   -42094.213    81.977169    225.19331 
   18100    131.41523   -322.12814    140669.11   -39450.287    2638.2601   -42088.547    82.181712    222.66204 
   18150    133.60309   -133.16977    140715.24   -39417.403     2682.183   -42099.586    82.330909    226.36901 
   18200    134.51502   -306.16167     140763.8   -39410.139    2700.4906    -42110.63    82.273951    227.91413 
   18250    131.38801   -157.38827    140805.93   -39431.494    2637.7135   -42069.207    82.382523    222.61591 
   18300    135.95644   -176.85765    140883.31   -39438.256    2729.4282   -42167.684    82.529402    230.35638 
   18350    133.83158   -48.334951    140906.23   -39432.125    2686.7701   -42118.895    82.623113    226.75615 
   18400    133.84724   -177.11151    140927.16   -39358.156    2687.0845   -42045.241    82.753731    226.78268 
   18450    133.76408  -0.71678037    140958.33   -39406.021    2685.4151   -42091.436    83.105625    226.64179 
   18500    131.89981   -169.04662    141042.91   -39434.709    2647.9885   -42082.697    83.444126    223.48308 
   18550    134.99129   -1.7646766    141042.28   -39442.975    2710.0522   -42153.027    83.828341     228.7211 
   18600    130.78286   -289.46113     141068.3   -39419.471    2625.5647   -42045.036    83.945321    221.59058 
   18650    133.70689   -311.78592    140915.42   -39439.484    2684.2668   -42123.751    84.040509    226.54488 
   18700    136.73453   -210.13676    140949.54   -39395.985    2745.0491   -42141.034    84.215356    231.67474 
   18750    132.13077   -202.81477     140891.4   -39473.195    2652.6251    -42125.82     84.53446    223.87441 
   18800    131.70451   -154.04715    140891.85   -39468.531    2644.0676   -42112.598    84.763817    223.15217 
   18850    132.56212   -70.016309    140865.46   -39474.459    2661.2847   -42135.743    84.942804    224.60525 
   18900    131.29067    -267.1603    140927.06   -39438.702    2635.7595   -42074.461    85.053809    222.45099 
   18950    132.07378   -205.12216     140927.9   -39444.249     2651.481    -42095.73    85.290437    223.77784 
   19000    131.92814   -269.62184       140905   -39459.075    2648.5572   -42107.632    85.479055    223.53108 
   19050    129.87467   -71.141998     140876.8   -39479.288    2607.3321    -42086.62    85.604127    220.05179 
   19100    130.81628    -153.7286    140955.65   -39450.408    2626.2357   -42076.643    85.790831    221.64721 
   19150    131.65229   -190.68641    140933.78   -39476.112    2643.0191   -42119.131    85.965512    223.06369 
   19200    133.51844      -212.17    141006.87   -39435.672    2680.4835   -42116.156    85.955331    226.22558 
   19250    134.36552   -165.11004    141001.77   -39409.838    2697.4893   -42107.327    86.119304    227.66082 
   19300    133.43535   -352.64447    140935.44   -39433.776    2678.8154   -42112.591    86.296995    226.08479 
   19350    131.78978   -89.347571    140942.39   -39443.451    2645.7794    -42089.23    86.402215    223.29664 
   19400    131.58614   -336.01663    140892.85   -39456.526    2641.6912   -42098.218    86.857754    222.95161 
   19450    131.61137   -66.937251    140911.13   -39438.513    2642.1978    -42080.71    87.077336    222.99436 
   19500     134.7308   -189.03251    140937.75     -39403.9    2704.8227   -42108.722    87.391251    228.27974 
   19550    131.65589    95.612863    140927.38   -39406.967    2643.0915   -42050.059     87.67628    223.06979 
   19600    133.20487   -296.03598    140960.12   -39378.702    2674.1884   -42052.891    87.890846    225.69429 
   19650    132.37708   -232.03276    140940.04    -39383.91    2657.5699    -42041.48    87.916544    224.29173 
   19700    130.69698   -273.32165    140919.81   -39399.902    2623.8407   -42023.743    87.913612    221.44507 
   19750    133.47325   -199.90524    140857.02   -39368.647    2679.5763   -42048.223    88.092503    226.14901 
   19800    132.55622   -48.378779    140786.92   -39330.992    2661.1663   -41992.158    88.418322    224.59526 
   19850    131.14522   -332.94948    140698.61   -39360.741    2632.8393   -41993.581    88.664743    222.20454 
   19900    132.28484   -404.71824    140593.32   -39373.372     2655.718    -42029.09    88.862181    224.13544 
   19950    133.70854   -88.002224    140569.42   -39341.081    2684.3001   -42025.381    89.072705    226.54768 
   20000    130.44253   -38.915719    140606.76   -39328.912    2618.7323   -41947.645    89.547413    221.01394 
   20050    134.49413   -54.590742    140580.51   -39296.855    2700.0712   -41996.926    89.796466    227.87873 
   20100    134.20384   -158.72581    140623.07   -39292.755    2694.2435   -41986.998    89.937421    227.38688 
   20150    133.20421   -216.83217    140637.18    -39286.79    2674.1752   -41960.965    90.267406    225.69317 
   20200    133.75078    19.783765    140737.96   -39297.243     2685.148   -41982.391    90.691323    226.61925 
   20250    133.77849   -184.81351     140844.6   -39300.528    2685.7043   -41986.232     91.01998     226.6662 
   20300    132.89232    -295.5423    140912.51   -39320.342    2667.9138   -41988.256    91.301902    225.16473 
   20350    132.64131   -20.776285    140962.03   -39366.041    2662.8745   -42028.915    91.558323    224.73943 
   20400    132.85709   -219.87613    140936.79   -39343.984    2667.2064   -42011.191     91.94206    225.10503 
   20450    134.60862   -87.357971    140951.63   -39318.421    2702.3697    -42020.79    92.098913    228.07271 
   20500      131.897   -164.76247    140959.36   -39367.112     2647.932   -42015.044    92.294779    223.47832 
   20550    134.51413    -338.6064    140918.18   -39350.432    2700.4728   -42050.905    92.316701    227.91262 
   20600    130.86012    -54.02668    140896.32   -39345.099    2627.1158   -41972.215    92.367301    221.72149 
   20650    130.15559   -281.72303    140883.97   -39369.467    2612.9719   -41982.438    92.512365    220.52778 
   20700    134.75908   -234.87471    140868.48   -39373.115    2705.3904   -42078.505    92.873376    228.32765 
   20750    132.06118     -60.5596    140834.08   -39340.952     2651.228    -41992.18    93.058682    223.75649 
   20800    134.96647   -101.21682    140848.45   -39330.729    2709.5538   -42040.283    93.128545    228.67903 
   20850    132.28026    27.986518    140826.21   -39338.906    2655.6262   -41994.532    93.353836    224.12769 
   20900    133.98978   -145.64267     140809.5   -39349.687    2689.9461   -42039.633    93.810096    227.02419 
   20950    134.86204   -224.15992    140842.48   -39358.988    2707.4573   -42066.445    94.147122    228.50209 
   21000    133.60915   -158.10342    140898.67   -39355.461    2682.3047   -42037.766    94.474101    226.37928 
   21050    131.97881   -339.07489    140872.38    -39398.11    2649.5743   -42047.684    94.500107    223.61692 
   21100    134.12986   -103.10543    140891.79   -39407.971    2692.7583    -42100.73    94.662245    227.26154 
   21150    132.09109    -278.3996    140862.26   -39455.254    2651.8285   -42107.083    95.074553    223.80718 
   21200    129.88951   -261.00629    140787.46   -39455.523    2607.6301   -42063.153    95.097275    220.07694 
   21250     130.9349    -230.6477    140801.86   -39444.568    2628.6172   -42073.186    95.422991     221.8482 
   21300    133.39267   -184.78573    140757.08   -39421.152    2677.9587   -42099.111    95.495559    226.01249 
   21350    137.20454   -208.74513    140782.66   -39370.456    2754.4849   -42124.941    95.636891    232.47109 
   21400    132.86319   -113.87351    140764.84   -39397.173    2667.3289   -42064.502    96.087059    225.11536 
   21450    131.98136    88.347105     140824.6   -39407.364    2649.6256    -42056.99    96.224326    223.62125 
   21500    132.39695   -113.60123    140831.89   -39419.051    2657.9687   -42077.019    96.424958    224.32539 
   21550    132.78322   -77.606585    140840.34   -39463.263    2665.7235   -42128.987    96.527977    224.97987 
   21600    135.43632   -278.69259    140893.81   -39478.324    2718.9865   -42197.311    96.769218    229.47513 
   21650    132.40762    -227.2831    140882.17   -39476.365     2658.183   -42134.548    97.088047    224.34347 
   21700    131.27858   -134.89581    140911.22   -39451.754    2635.5168   -42087.271    97.180808    222.43051 
   21750    132.34869   -293.63578    140891.83   -39494.606         2657   -42151.606    97.226591    224.24363 
   21800    133.65399   -88.064769    140935.82    -39483.89    2683.2048   -42167.095     97.12584    226.45525 
   21850    132.15995   -350.10528    140909.94   -39449.925    2653.2109   -42103.136    97.360574    223.92385 
   21900    131.92437   -194.25162    140915.52   -39470.457    2648.4814   -42118.938    97.699197    223.52469 
   21950    133.41691   -253.95681    140927.62   -39484.686    2678.4453   -42163.132    97.818082    226.05356 
   22000    133.46147   -147.85922    140912.59   -39472.152      2679.34   -42151.492    97.959894    226.12907 
   22050    134.45734   -289.71209    140890.17   -39497.654    2699.3326   -42196.987    98.126451    227.81639 
   22100    134.58674   -56.399469    140885.97   -39480.994    2701.9304   -42182.925     98.04341    228.03564 
   22150    131.97978   -104.29058    140941.11   -39429.065    2649.5937   -42078.658    98.186292    223.61856 
   22200    132.64889   -182.31012    140991.29   -39437.613    2663.0267    -42100.64    98.422122    224.75227 
   22250    134.52731   -322.60719    141005.18   -39419.328    2700.7375   -42120.066     98.71372    227.93496 
   22300    133.09863   -84.754861     141041.7   -39427.795    2672.0556   -42099.851    98.872035    225.51428 
   22350    135.75234   -195.75074    141036.16   -39400.769    2725.3308     -42126.1    99.083738    230.01057 
   22400    130.23257   -216.78175    141047.47   -39413.131    2614.5173   -42027.649     99.17153    220.65821 
   22450    134.32313   -333.26802    141053.94   -39439.197    2696.6383   -42135.835    99.379567      227.589 
   22500    132.72516   -170.96673    141107.47   -39374.436    2664.5578   -42038.994    99.760029    224.88149 
   22550    131.88503   -317.83439    141090.98   -39390.489    2647.6917   -42038.181    100.15458    223.45804 
   22600     132.4568   -197.25328    141039.81   -39458.482    2659.1703   -42117.653     100.1484     224.4268 
   22650    131.90977   -275.55543    141033.03   -39446.046    2648.1884   -42094.235    100.10658    223.49996 
   22700    130.56189   -268.10111     140995.4    -39492.25    2621.1285   -42113.379    100.17789    221.21618 
   22750    132.38425   -85.287255    140950.32   -39467.085    2657.7138   -42124.799    100.07147    224.30387 
   22800    129.98014   -226.29859    141018.71   -39486.645    2609.4494   -42096.094    100.15137    220.23049 
   22850      131.883   -347.32734    140991.17   -39459.302     2647.651   -42106.953    100.29148     223.4546 
   22900    131.20354     -40.7122    140971.55   -39541.796    2634.0102   -42175.806    100.41223    222.30335 
   22950    132.85129   -162.62264    140979.33   -39508.214      2667.09   -42175.304    100.67807     225.0952 
   23000    134.79071   -220.69991    140968.96   -39511.752    2706.0253   -42217.777    100.92431    228.38124 
   23050    133.98022   -222.23031    140983.77   -39512.382    2689.7541   -42202.136    101.10431    227.00799 
   23100    133.45633   -419.57232    141039.87   -39510.073    2679.2366    -42189.31    101.28992    226.12034 
   23150    131.20936   -304.70373     140946.3   -39542.425    2634.1271   -42176.552    101.35954    222.31322 
   23200    129.25069   -194.51579    140915.74   -39563.024    2594.8053    -42157.83    101.67692    218.99457 
   23250    128.83243   -261.52408    140933.07   -39593.486    2586.4084   -42179.894    101.84877    218.28589 
   23300    132.71609    -267.2196    140918.47   -39577.551    2664.3759   -42241.927    102.06081    224.86614 
   23350    132.37235   -356.88417    140978.92   -39509.236     2657.475   -42166.711    102.16118    224.28373 
   23400    130.02994   -127.57239    140952.21   -39556.855    2610.4492   -42167.304      102.306    220.31487 
   23450    130.81095   -140.66139    140994.39   -39563.951    2626.1287    -42190.08    102.27989    221.63818 
   23500    133.22181     -78.1065    141048.85   -39520.898    2674.5285   -42195.427    102.51175    225.72299 
   23550    133.50358   -223.65228    141062.59   -39495.144    2680.1852   -42175.329    102.57956     226.2004 
   23600    132.70563   -189.86269    141061.34   -39508.424    2664.1658    -42172.59    103.02212     224.8484 
   23650    134.45436   -79.938241    141103.64   -39464.702    2699.2729   -42163.975    103.26314    227.81135 
   23700    135.20667   -244.19169    141047.29   -39440.089    2714.3761   -42154.465    103.34719    229.08602 
   23750    130.94586   -389.53715    140912.71   -39456.007    2628.8371   -42084.844    103.44833    221.86676 
   23800    133.41765   -226.99743    140893.49    -39462.98    2678.4601   -42141.441    103.77931    226.05481 
   23850    131.08957   -310.34073    140871.21   -39492.196    2631.7222   -42123.918     104.0006    222.11026 
   23900    134.68191    -212.5834    140945.42   -39479.838    2703.8411   -42183.679    104.33828    228.19689 
   23950    134.16668   -315.69428    140982.21   -39419.544    2693.4976   -42113.041    104.61115    227.32393 
   24000    136.41429   -364.30264    140900.85   -39380.835    2738.6199   -42119.455    104.60435    231.13213 
   24050    132.64305   -253.52882    140859.89   -39386.965    2662.9095   -42049.875    104.78551    224.74238 
   24100    130.34495   -185.23467    140801.48   -39441.771    2616.7733   -42058.545    105.12842    220.84861 
   24150    133.57739   -223.22739    140815.38   -39417.297    2681.6671   -42098.964    105.39309    226.32547 
   24200    131.96779   -84.240448    140849.94   -39401.477    2649.3532   -42050.831    105.69205    223.59826 
   24250    132.52859   -217.00957    140808.33   -39363.496    2660.6116   -42024.108    105.48125    224.54845 
   24300     132.5313    24.440814    140801.07    -39392.47    2660.6659   -42053.136       105.33    224.55303 
   24350    130.23402   -242.07452    140888.31   -39435.351    2614.5464   -42049.898    105.44296    220.66066 
   24400    132.52411   -117.02013    140834.57   -39394.409    2660.5216   -42054.931    105.53706    224.54084 
   24450    131.14278   -163.82341    140781.29   -39427.745    2632.7904   -42060.536    105.74707    222.20041 
   24500    132.37662   -267.28768    140785.45   -39412.489    2657.5606    -42070.05    106.05005    224.29094 
   24550    132.97291    -223.7007    140812.74   -39396.254    2669.5316   -42065.785    106.10572    225.30126 
   24600    133.25958   -77.454033    140799.89   -39358.643    2675.2868    -42033.93    106.24406    225.78699 
   24650    129.82608   -124.51078    140897.24   -39397.163    2606.3566    -42003.52    106.49967    219.96947 
   24700    134.37337   -189.88743    140876.16   -39412.873    2697.6468    -42110.52    106.81388    227.67412 
   24750    131.16737   -61.075891    140886.01   -39441.702    2633.2842   -42074.986     107.0435    222.24208 
   24800    133.86623   -252.16584    140860.45   -39412.606    2687.4657   -42100.072    107.49159    226.81486 
   24850    132.14661   -292.02394    140791.73   -39428.522    2652.9431   -42081.465    107.62795    223.90124 
   24900    132.83228   -298.40954    140712.71   -39435.821    2666.7083    -42102.53    107.97148    225.06299 
   24950    131.84798   -272.29786     140645.1   -39436.431    2646.9477   -42083.379    108.05202    223.39525 
   25000       133.41    -239.7409    140641.67   -39445.514    2678.3065    -42123.82    108.32872    226.04184 
   25050    128.74614   -156.92397    140655.97   -39447.957     2584.676   -42032.633    108.51171    218.13968 
   25100    134.47723    -101.1578    140660.35   -39416.996    2699.7321   -42116.728    108.52644    227.85011 
   25150     131.2868    -229.1956    140712.78   -39461.947    2635.6817   -42097.629     108.9815    222.44443 
   25200    130.46397   -217.47326    140724.91   -39459.637    2619.1627   -42078.799    109.10339    221.05027 
   25250    135.40704    -411.8674    140748.94   -39417.105    2718.3987   -42135.504    109.41534    229.42552 
   25300    132.92951   -388.01641    140665.23   -39405.698    2668.6603   -42074.358    109.64885    225.22773 
   25350    131.31974   -118.47171    140585.16   -39425.361     2636.343   -42061.704    109.66227    222.50023 
   25400    135.34621   -120.47811    140544.27   -39463.247    2717.1774   -42180.425    110.16764    229.32245 
   25450    134.57327    69.035365    140599.36   -39472.465      2701.66   -42174.125    110.32779    228.01282 
   25500    131.39474     48.70965    140670.49   -39509.835    2637.8488   -42147.683    110.31707    222.62732 
   25550    129.59662    -123.3284    140723.09   -39467.023    2601.7501   -42068.773    110.40337    219.58069 
   25600    133.59619   -260.91556    140668.68    -39447.89    2682.0444   -42129.935    110.57693    226.35731 
   25650    135.12351   -131.55274     140617.7   -39401.065    2712.7065   -42113.771    110.87687    228.94511 
   25700    135.55041   -60.092746    140622.25   -39415.512    2721.2769   -42136.789    111.08892    229.66843 
   25750    130.48168   -338.20325    140642.54   -39442.808    2619.5183   -42062.326    111.26123    221.08028 
   25800    129.54211    -224.1641    140666.14   -39436.843    2600.6558   -42037.499    111.35582    219.48833 
   25850    131.54905   -348.22167    140666.89   -39452.059    2640.9467   -42093.006    111.52514    222.88878 
   25900     133.3262   -339.08387    140745.97   -39392.445    2676.6243   -42069.069     111.5881    225.89987 
   25950    131.36378   -267.25911    140762.63   -39400.165    2637.2272   -42037.392    111.68304    222.57486 
   26000    131.89229   -278.75735    140762.38   -39386.798    2647.8373   -42034.635    111.91002    223.47033 
   26050      135.047    47.390118    140807.46   -39379.253    2711.1707   -42090.424    112.21386    228.81549 
   26100    131.01445   -174.48104    140862.96   -39402.477    2630.2142   -42032.691    112.52859    221.98298 
   26150    133.06335   -434.91978    140805.32   -39447.783    2671.3473    -42119.13    112.74591    225.45451 
   26200    132.07221   -210.30617    140803.02   -39415.706    2651.4494   -42067.155    112.89251    223.77518 
   26250    131.91299     -272.254    140828.71   -39432.798    2648.2529   -42081.051    113.39029     223.5054 
   26300     131.0976   -346.55067    140734.23   -39478.788    2631.8835   -42110.672     113.7883    222.12386 
   26350    129.77659   -236.52523    140703.42   -39507.055    2605.3632   -42112.418    113.95718    219.88562 
   26400    135.59938    -92.46856    140768.47   -39454.478    2722.2601   -42176.738    114.09362     229.7514 
   26450    129.83744   -82.389971    140803.54   -39468.399    2606.5847   -42074.983    114.16451    219.98872 
   26500    132.55541   -143.68219    140848.66   -39483.472    2661.1499   -42144.622    114.62775    224.59388 
   26550    131.12255   -197.44977    140908.75   -39473.264    2632.3844   -42105.648    114.94724    222.16614 
   26600    132.33336   -127.65413    140936.24   -39451.834    2656.6922   -42108.526    115.19732    224.21766 
   26650    131.50241   -162.12781    140856.46   -39531.006    2640.0102   -42171.016    115.44902    222.80974 
   26700    129.87654    -81.78254    140887.42    -39587.55    2607.3697    -42194.92    115.41893    220.05497 
   26750    131.50595   -180.52937    140947.16   -39565.112    2640.0813   -42205.193    115.60783    222.81574 
   26800    132.49543   -262.64361    140907.43   -39555.959    2659.9459   -42215.905    115.90555    224.49226 
   26850    131.17626   -345.73256    140969.29   -39525.788    2633.4626   -42159.251    115.85209    222.25714 
   26900    132.30549   -209.73671    140912.44   -39445.213    2656.1327   -42101.346    116.18951    224.17043 
   26950    134.75617   -271.57713    140941.52   -39459.285     2705.332   -42164.617    116.30858    228.32272 
   27000    132.56212   -218.46723     140980.4   -39447.721    2661.2846   -42109.006    116.56882    224.60525 
   27050    134.20083   -226.47142     140989.2   -39407.339     2694.183   -42101.522    116.84035    227.38178 
   27100     133.0175   -228.87075     141026.6   -39421.294    2670.4268    -42091.72     116.8077    225.37682 
   27150    134.51162   -86.622381       141082   -39424.242    2700.4225   -42124.665    117.08522    227.90837 
   27200    131.41673   -105.05664    141081.03    -39471.63    2638.2903    -42109.92    117.22054    222.66458 
   27250    130.32856   -127.25566    141143.74   -39465.652    2616.4443   -42082.096    117.58351    220.82084 
   27300    133.20624    -418.2654    141128.54   -39431.448    2674.2159   -42105.664    118.16072    225.69661 
   27350    134.64508   -192.32344    141087.85   -39421.269    2703.1018    -42124.37    118.55134     228.1345 
   27400    130.69392    -236.5456    141033.07   -39454.382    2623.7793   -42078.162    118.48675    221.43989 
   27450    135.62135   -503.10057    140933.11   -39435.482    2722.7011   -42158.183    118.61882    229.78863 
   27500    132.70948   -389.98258    140888.31   -39442.019    2664.2431   -42106.262    118.81764    224.85493 
   27550    132.14655   -330.58681    140870.62    -39451.57    2652.9418   -42104.512    118.85416    223.90113 
   27600    131.61351   -361.91819    140792.88   -39507.637    2642.2407   -42149.878     118.9522    222.99799 
   27650    132.57616   -441.66011    140676.03   -39550.873    2661.5666    -42212.44    119.23007    224.62904 
   27700     131.1284   -384.40597    140629.05   -39553.364    2632.5018   -42185.866    119.47111    222.17605 
   27750    131.80977   -195.79277       140622    -39580.17    2646.1807    -42226.35    119.81285    223.33051 
   27800     131.0107   -152.48362    140596.36   -39564.313    2630.1388   -42194.452    119.87894    221.97662 
   27850    129.98732   -275.33367    140588.79   -39557.935    2609.5936   -42167.528    120.24047    220.24266 
   27900     128.4632    -291.5804    140554.31   -39570.361    2578.9958   -42149.356    120.45204    217.66029 
   27950    129.83425    -367.6544    140528.98   -39530.941    2606.5206   -42137.462    120.66909    219.98331 
   28000     129.9947   -101.32731    140515.78    -39482.61    2609.7418   -42092.351    120.86916    220.25517 
   28050    130.95975   -53.744666    140580.62   -39470.977    2629.1159   -42100.093    121.15946    221.89029 
   28100     132.5077   -226.57452    140561.39   -39507.465    2660.1922   -42167.657    121.21487    224.51304 
   28150       131.58   -228.13419    140555.82   -39510.644    2641.5679   -42152.212    121.50245    222.94121 
   28200    128.61881   -2.2547534    140632.43   -39529.983    2582.1198   -42112.102    121.79609    217.92395 
   28250    133.33072   -198.20703    140706.41   -39527.492    2676.7149   -42204.207    122.01193    225.90752 
   28300    134.87856    -209.0597    140720.81   -39493.466    2707.7889   -42201.255    121.77847    228.53008 
   28350    133.26784    -110.5976    140717.91   -39482.121    2675.4525   -42157.573    122.08658    225.80097 
   28400    132.31888   -294.41605    140718.86   -39488.602    2656.4016   -42145.004    122.44298    224.19313 
   28450    131.33931   -381.03594    140627.59   -39490.112    2636.7359   -42126.847    122.53193    222.53339 
   28500    132.77048   -187.92004    140525.05   -39512.972    2665.4678    -42178.44    122.85555    224.95829 
   28550    131.92185    8.2184417     140535.4    -39521.34    2648.4308   -42169.771    123.07253    223.52041 
   28600    131.59595   -352.71992    140614.27    -39516.29    2641.8881   -42158.178    123.45145    222.96823 
   28650    133.92915   -241.61518    140618.46   -39456.215    2688.7288   -42144.944      123.613    226.92146 
   28700    132.16549   -132.35228     140727.5   -39454.522    2653.3221   -42107.844    123.66211    223.93323 
   28750    131.16668   -137.47447    140734.01   -39457.691    2633.2703   -42090.961     123.6863    222.24091 
   28800    133.20941   -249.07778    140737.41   -39436.852    2674.2796   -42111.132    123.65683    225.70199 
   28850    130.77968   -193.52767    140838.48   -39429.405    2625.5009   -42054.906    123.97778    221.58519 
   28900    132.28287   -136.15122    140890.33   -39408.181    2655.6786   -42063.859     124.1131    224.13211 
   28950    132.42529    -230.0733    140935.24   -39392.942    2658.5378    -42051.48    124.27174    224.37342 
   29000    132.46981   -258.37535    140914.16   -39415.591    2659.4316   -42075.022    124.42451    224.44885 
   29050    131.93503   -192.78131    140906.53   -39411.851    2648.6954   -42060.546    124.50513    223.54275 
   29100    133.47375   -396.80561    140860.15   -39418.864    2679.5864    -42098.45    124.90486    226.14987 
   29150    131.87771   -278.63445    140838.25   -39389.504    2647.5447   -42037.049    124.93228    223.44563 
   29200    132.91901   -337.07741    140802.35   -39437.773    2668.4495   -42106.223     125.3784    225.20994 
   29250    132.54191   -119.55516    140873.52   -39468.899     2660.879   -42129.778    125.45384    224.57101 
   29300    133.58943   -342.38946    140906.59   -39428.633    2681.9088   -42110.541    125.64481    226.34587 
   29350    131.06142   -568.25111       140864    -39441.41    2631.1571   -42072.567    126.05648    222.06256 
   29400    130.15604   -374.00055    140781.55   -39417.117    2612.9809   -42030.098     126.1896    220.52854 
   29450    131.63227   -382.41488       140691   -39402.186    2642.6173   -42044.804    126.48861    223.02977 
   29500     136.2309   -242.92526    140648.73   -39341.918    2734.9383   -42076.857    126.47539    230.82141 
   29550    134.01533   -237.39135    140700.18   -39367.752    2690.4591   -42058.211    126.95391    227.06749 
   29600    132.12059    -17.60431    140654.06   -39365.388    2652.4206   -42017.809    127.16568    223.85714 
   29650     131.2253   -149.58797    140650.71    -39360.65     2634.447   -41995.097     127.3944    222.34022 
   29700    135.36171   -260.30329    140595.98   -39276.889    2717.4886   -41994.378    127.77797     229.3487 
   29750    132.60267   -291.45042    140554.14   -39345.265    2662.0988   -42007.364    128.20721    224.67396 
   29800    135.17902   -440.26068    140512.21   -39392.103    2713.8209   -42105.924     128.4143    229.03916 
   29850    134.63913   -134.71138    140559.86   -39399.439    2702.9822   -42102.421    128.54773     228.1244 
   29900    133.44925   -91.285129    140636.84   -39393.558    2679.0945   -42072.653    128.54258    226.10835 
   29950    130.72222   -122.40733    140645.17   -39386.137    2624.3473   -42010.484     128.9258    221.48784 
   30000    132.86401   -102.77364    140658.26   -39391.962    2667.3454   -42059.307    129.52359    225.11675 
   30050    135.08088   -331.10671    140675.52   -39365.913    2711.8507   -42077.763    129.94063    228.87288 
   30100    133.56859    -195.6729    140627.93   -39359.602    2681.4903   -42041.092    130.18506    226.31055 
   30150    132.45163   -314.22627    140640.06   -39427.047    2659.0666   -42086.114     130.4413    224.41804 
   30200    132.13375   -272.05988    140662.07   -39467.706    2652.6849   -42120.391    130.60081    223.87945 
   30250    132.46788   -108.02136    140653.78   -39417.891    2659.3927   -42077.283    130.89865    224.44557 
   30300     130.6469    -266.3678    140692.19   -39410.908    2622.8353   -42033.743    130.87608    221.36022 
   30350    132.80485   -286.98025    140693.41   -39401.805    2666.1577   -42067.963     131.0208    225.01652 
   30400    134.41933   -164.53008    140687.48    -39416.45    2698.5696    -42115.02    131.77666      227.752 
   30450    132.00619    -429.4211    140706.09   -39473.074     2650.124   -42123.198    132.11586    223.66331 
   30500     133.6046   -206.32613    140730.77   -39473.519    2682.2133   -42155.733    132.50703    226.37157 
   30550    132.24368    26.268961    140695.37   -39521.444    2654.8918   -42176.336    132.64882    224.06571 
   30600    131.96948   -269.06357    140667.23   -39569.199    2649.3871   -42218.586    132.72903    223.60112 
   30650    132.32448   -66.361367    140729.14   -39525.101    2656.5139   -42181.615    132.89124    224.20261 
   30700    132.77404   -146.18706    140759.04   -39516.777    2665.5391   -42182.317    133.30706    224.96431 
   30750    133.51792   -67.996349    140743.29    -39456.14    2680.4732   -42136.614    133.75067    226.22471 
   30800    133.43675    69.908377    140762.35   -39460.066    2678.8436   -42138.909    134.05433    226.08717 
   30850     135.1036   -213.05802    140796.09    -39441.47    2712.3069   -42153.776    134.37423    228.91139 
   30900    131.39998   -197.04181    140813.03   -39436.996    2637.9539    -42074.95    134.61519     222.6362 
   30950    129.73564   -347.48057    140720.26   -39470.753    2604.5411   -42075.294    134.66872    219.81624 
   31000    131.70713   -161.64749    140735.34   -39484.186    2644.1202   -42128.306    134.79804    223.15662 
   31050    131.64919    47.058319    140786.28   -39453.291    2642.9569   -42096.248    134.97504    223.05843 
   31100    134.90789   -354.31008    140761.59    -39497.92    2708.3778   -42206.297     134.9529    228.57978 
   31150    130.37967   -218.23201    140674.56   -39478.805    2617.4705   -42096.275    135.32849    220.90745 
   31200    131.25681   -119.33505    140585.35   -39445.516    2635.0796   -42080.595    135.76276    222.39361 
   31250    133.28562   -138.75245    140554.63   -39476.834    2675.8095   -42152.643    136.11975     225.8311 
   31300    132.68589    -173.1497    140631.48   -39454.968    2663.7696   -42118.737    136.22262    224.81496 
   31350    132.68909   -118.79377    140641.65   -39428.906    2663.8337    -42092.74    136.43604    224.82038 
   31400    132.73539   -143.00152    140637.08   -39463.278    2664.7633   -42128.041    136.62862    224.89883 
   31450     132.0693    -82.42279    140610.31   -39479.703    2651.3909   -42131.094    137.12552    223.77024 
   31500    133.22665    -104.7215    140596.58   -39446.523    2674.6257   -42121.149    137.40494    225.73119 
   31550     129.8762   -242.91255    140515.86   -39484.962    2607.3629   -42092.325    137.60161     220.0544 
   31600     134.2964   -125.10693    140573.52   -39464.197    2696.1017   -42160.299     137.6314    227.54371 
   31650     134.6959   -67.286501    140549.04   -39456.682    2704.1219   -42160.804    137.83824    228.22059 
   31700    132.42369    44.373734    140566.53   -39486.123    2658.5057   -42144.629    137.56687    224.37071 
   31750    133.76981   -101.78367    140611.13   -39481.761      2685.53   -42167.291    137.58416    226.65149 
   31800    134.93692   -172.58185    140531.01   -39485.783    2708.9606   -42194.743     137.7279    228.62897 
   31850    132.60781   -191.42212     140484.9   -39508.295     2662.202   -42170.497    138.09874    224.68267 
   31900    133.85945   -222.27709     140528.8   -39459.605    2687.3297   -42146.935    138.17195    226.80338 
   31950    133.81935   -162.43665    140597.41   -39516.229    2686.5245   -42202.753    138.46169    226.73542 
   32000    131.82525    96.239915    140647.01   -39514.484    2646.4916   -42160.976    138.87334    223.35675 
   32050    132.99431    40.624398    140711.42   -39486.338    2669.9613     -42156.3    139.12391    225.33753 
   32100     132.0345   -61.772088    140806.61   -39454.578    2650.6924    -42105.27    139.37991    223.71129 
   32150    135.75713   -84.666817    140847.29   -39432.088     2725.427   -42157.515    139.69507    230.01869 
   32200    134.06125    -114.4397    140930.96   -39439.825    2691.3809   -42131.206    139.96808    227.14529 
   32250     133.4736   -149.15283    140994.05   -39448.414    2679.5834   -42127.997    139.90351    226.14961 
   32300    132.44375   -236.39183    141029.49   -39482.165    2658.9085   -42141.074    139.87792     224.4047 
   32350    132.26917   -251.42207    140999.22   -39474.675    2655.4036   -42130.078    140.13196     224.1089 
   32400    131.84343   -191.25164    140972.95   -39463.918    2646.8566   -42110.775    140.29665    223.38755 
   32450    129.50119   -258.77264    140945.88   -39463.731    2599.8343   -42063.566    140.52324      219.419 
   32500    133.89413   -175.68815    140942.26   -39416.867    2688.0258   -42104.893    141.06126    226.86213 
   32550    134.31052   -318.78485    140839.91   -39413.781    2696.3851   -42110.166    141.43768    227.56763 
   32600    133.84315   -380.70943    140830.17   -39401.243    2687.0023   -42088.246    141.48414    226.77575 
   32650    132.95504   -229.56368     140808.2     -39412.8    2669.1729   -42081.972    141.55684    225.27099 
   32700    134.13093   -299.12438    140789.38    -39463.23    2692.7797    -42156.01    141.59708    227.26334 
   32750    133.14491   -331.08692    140876.29   -39462.481    2672.9848   -42135.465    142.14634     225.5927 
   32800    132.40831   -124.09817    140902.74   -39446.365    2658.1969   -42104.562    142.15981    224.34465 
   32850    133.37388    -138.2316    140916.36   -39433.446    2677.5815   -42111.027    142.37199    225.98065 
   32900    133.71943   -247.61036     140880.8   -39414.206    2684.5186   -42098.724     142.3766    226.56612 
   32950    132.61086   -131.97032    140866.68    -39395.21    2662.2631   -42057.473    142.53722    224.68783 
   33000    130.40715    35.983456    140818.53   -39415.812    2618.0222   -42033.834    142.87393    220.95401 
   33050    132.95272   -93.894623    140776.52   -39402.387    2669.1263   -42071.513    142.96277    225.26706 
   33100    133.21641   -154.13874    140737.96   -39434.621    2674.4201   -42109.041    143.13748    225.71384 
   33150    132.24034   -101.64518    140733.49   -39473.515    2654.8249    -42128.34    143.64472    224.06006 
   33200     133.5285   -25.897473    140728.14   -39424.037    2680.6855   -42104.722    143.74392    226.24262 
   33250    133.53971   -57.990956    140787.06    -39441.69    2680.9106   -42122.601    143.85576    226.26163 
   33300    133.55681    50.931784    140817.97   -39405.628    2681.2539   -42086.882    144.05528    226.29059 
   33350    133.07326   -176.13541    140913.39    -39436.43    2671.5462   -42107.976    144.51022    225.47129 
   33400    132.35928   -145.81338    140918.37   -39436.366    2657.2126   -42093.578    144.96153    224.26158 
   33450    132.50589   -144.39022    140923.34   -39429.008    2660.1558   -42089.164    145.16802    224.50997 
   33500    133.59185   -373.95271    140952.65   -39412.136    2681.9574   -42094.093    145.50205    226.34997 
   33550    131.80736   -342.22958    140920.85   -39384.515    2646.1324   -42030.647     146.2989    223.32644 
   33600     132.9025   -43.517685    140807.29   -39400.198    2668.1181   -42068.316    146.45898    225.18197 
   33650     134.4007   -204.90901    140865.37   -39404.444    2698.1957   -42102.639    146.69021    227.72044 
   33700    136.09136   -223.60817    140876.33   -39359.892     2732.137   -42092.029    146.59997    230.58499 
   33750    135.62449    -264.1977    140790.49   -39417.183    2722.7641   -42139.947    146.51973    229.79395 
   33800    131.71527   -213.79454    140757.45   -39419.322    2644.2837   -42063.606      146.964    223.17041 
   33850    134.47112   -93.186614    140580.91   -39450.036    2699.6094   -42149.645    147.24233    227.83975 
   33900    137.86731   -113.16136    140538.92   -39470.399    2767.7905   -42238.189    147.44455    233.59405 
   33950    129.66867   -274.76634    140553.27   -39487.062    2603.1966   -42090.258    147.22431    219.70277 
[...]
   92000    132.38961   -231.82834    141152.01   -39459.225    2657.8215   -42117.047    383.79684    224.31297 
   92050    134.18379   -162.74877    141176.39   -39452.162    2693.8411   -42146.003    384.14292    227.35292 
   92100    131.85458   -338.15139    141206.34   -39418.518    2647.0802   -42065.598    384.32686    223.40643 
   92150    133.96315   -289.19981    141229.48   -39379.816    2689.4116   -42069.228    384.76156    226.97908 
   92200    133.79579   -157.49751    141255.67   -39382.592    2686.0516   -42068.644    384.83572    226.69551 
   92250    134.61403   -332.70747    141216.64   -39422.616    2702.4783   -42125.094     384.8911    228.08188 
   92300    134.14477   -622.65536     141179.2   -39460.003    2693.0577   -42153.061    384.51784     227.2868 
   92350    131.59211   -195.00225    141115.73   -39491.566     2641.811   -42133.377    384.81109    222.96172 
   92400    130.68778   -174.69952    141153.78   -39436.064    2623.6559   -42059.719     385.0255    221.42948 
   92450    132.16164   -379.10703       141121   -39444.782    2653.2448   -42098.026    385.21831     223.9267 
   92500    129.13416   -160.66093    141134.84   -39427.507    2592.4659   -42019.973    385.02233    218.79713 
   92550    132.68102   -118.83074    141119.99   -39427.074    2663.6717   -42090.746     385.4441     224.8067 
   92600    132.30747   -383.68253    141085.07   -39390.617    2656.1724    -42046.79    385.66734    224.17378 
   92650    130.48039   -139.13969    141084.54   -39439.477    2619.4925    -42058.97    385.60251     221.0781 
   92700    135.91422   -40.841051    141137.14   -39466.565    2728.5807   -42195.145    385.79055    230.28485 
   92750    129.58529   -230.84704    141209.08   -39468.977    2601.5226   -42070.499    385.90974    219.56149 
   92800    130.02982    6.4054443    141207.18   -39508.941     2610.447   -42119.388    385.98013    220.31468 
   92850    130.11664   -381.78713    141174.08   -39449.761    2612.1899   -42061.951    386.86642    220.46178 
   92900    131.30109   -410.78827    141118.78     -39414.9    2635.9686   -42050.869    387.26791    222.46864 
   92950    130.80911   -285.06766    141033.42   -39375.876    2626.0918   -42001.968     387.7585    221.63506 
   93000    132.58674   -473.05481    140989.76   -39375.036     2661.779   -42036.815    388.15151    224.64697 
   93050    131.70888   -469.89568    140937.26    -39396.49    2644.1553   -42040.645    388.27768    223.15957 
   93100     133.0595   -464.52124     140904.2   -39466.591    2671.2701   -42137.861      388.276    225.44799 
   93150    131.08148   -285.60589     140927.1   -39468.405    2631.5597   -42099.964    388.66169    222.09654 
   93200    132.24162   -392.39565    140933.98   -39467.656    2654.8504   -42122.507    388.92295    224.06221 
   93250    133.53531   -360.19974    140860.31   -39445.117    2680.8222    -42125.94    389.13884    226.25416 
   93300    132.58689   -455.26849     140776.2   -39451.335    2661.7821   -42113.117    389.07845    224.64723 
   93350    131.26581   -235.89286    140747.89   -39481.459    2635.2603   -42116.719    389.05598    222.40886 
   93400    129.97308   -218.49182    140732.16   -39465.564    2609.3079   -42074.872    389.17388    220.21855 
   93450    132.80433   -295.93947    140643.26   -39474.372    2666.1473   -42140.519    389.28571    225.01564 
   93500    131.23336   -79.540952    140604.86   -39474.218    2634.6089   -42108.827    389.43355    222.35388 
   93550    132.83138   -92.235394    140569.55   -39439.243    2666.6904   -42105.933     389.4186    225.06147 
   93600    131.19886   -114.48844    140638.06   -39430.104    2633.9162    -42064.02    389.98791    222.29542 
   93650    131.08682   -26.229703     140754.3   -39431.472    2631.6669   -42063.139    390.29645    222.10559 
   93700    132.15012   -271.73728    140819.27   -39444.258    2653.0134   -42097.272    390.29239    223.90718 
   93750    133.32403   -219.48454    140772.79   -39434.981    2676.5806   -42111.561    390.18445    225.89618 
   93800    133.74886   -232.60591    140895.91   -39405.213    2685.1094   -42090.323    390.77982    226.61599 
   93850    131.67169   -283.49351     140846.5   -39387.987    2643.4088   -42031.395    390.87617    223.09657 
   93900    132.94686   -195.78625    140867.74   -39402.277    2669.0086   -42071.286    390.65101    225.25713 
   93950    132.72125   -47.684953    140907.89   -39425.708    2664.4793   -42090.187    391.45873    224.87487 
   94000     134.0431   -394.69308    140831.45   -39474.676    2691.0165   -42165.692    391.89917    227.11453 
   94050    132.97659   -161.25528    140783.13   -39508.342    2669.6055   -42177.947    391.71341     225.3075 
   94100    132.78384   -247.63548    140747.97   -39492.206    2665.7359   -42157.942    392.05511    224.98092 
   94150    131.17132   -114.46791    140686.37   -39494.301    2633.3633   -42127.664    392.26046    222.24876 
   94200    133.91622   -131.61366    140709.25   -39456.429    2688.4694   -42144.899    392.80631    226.89956 
   94250    130.97261   -77.488697    140786.86   -39476.785    2629.3742   -42106.159    392.45179    221.91209 
   94300    131.12434    -259.0949    140787.97   -39503.741    2632.4202   -42136.161    392.18154    222.16916 
   94350    133.88398   -233.95596     140802.3    -39496.31     2687.822   -42184.132    392.24221    226.84492 
   94400      131.641   -405.11293    140712.63   -39522.327    2642.7925   -42165.119     392.3115    223.04455 
   94450    131.97176   -360.82232    140648.54   -39519.036    2649.4327   -42168.469    392.80298    223.60497 
   94500    130.10855   -169.74496    140582.96   -39503.152    2612.0275   -42115.179    392.67882    220.44807 
   94550    129.83673   -95.177421    140589.82   -39525.641    2606.5705   -42132.211    393.01112    219.98752 
   94600     130.5861   -133.10152    140586.04   -39549.097    2621.6147   -42170.711    392.54144    221.25721 
   94650    130.47196   -208.42254     140565.8    -39518.14    2619.3231   -42137.463    392.87276    221.06381 
   94700     134.1242    163.92872    140633.69   -39500.413    2692.6448   -42193.057    392.90799    227.25195 
   94750    131.87783    30.809915    140672.18   -39510.623     2647.547    -42158.17    392.98271    223.44583 
   94800    132.30427   -71.572387     140763.1   -39531.238    2656.1082   -42187.346    393.41166    224.16836 
   94850    133.83578    13.322591    140798.81   -39473.501    2686.8543   -42160.356    393.58948    226.76326 
   94900      134.117    -113.8045    140839.05    -39476.95    2692.5001    -42169.45    393.75466    227.23975 
   94950    135.93788   -65.840318    140896.21   -39487.548    2729.0558   -42216.604    394.03925    230.32494 
   95000    132.71349   -250.73254    140939.53   -39541.626    2664.3236    -42205.95    394.23141    224.86173 
   95050    134.14065   -245.61486    140850.22   -39530.798    2692.9749   -42223.773    394.11409    227.27982 
   95100    132.70093   -152.54245    140864.16   -39594.804    2664.0715   -42258.875    393.91055    224.84045 
   95150    131.28398    -301.7174    140910.78   -39576.057     2635.625   -42211.682    394.20077    222.43964 
   95200    132.24365   -338.30409    140843.82   -39626.025    2654.8912   -42280.917    394.16053    224.06565 
   95250     130.2975   -193.12121     140786.3   -39588.538    2615.8207   -42204.359    394.23955    220.76821 
   95300    131.28118   -156.04478    140667.21   -39535.364    2635.5689   -42170.933    394.46738    222.43491 
   95350    133.06858    2.9218069    140740.31   -39529.673    2671.4522   -42201.125    394.71467    225.46336 
   95400    131.18726   -95.204108    140801.12   -39613.865    2633.6833   -42247.549      394.923    222.27577 
   95450    132.60972   -199.93128    140771.01    -39620.38    2662.2403    -42282.62    395.16456     224.6859 
   95500    134.15143   -168.29106    140741.47   -39640.217    2693.1912   -42333.408    395.35404    227.29808 
   95550    132.62282    -264.5185    140732.28    -39569.41    2662.5033   -42231.914    395.88605    224.70809 
   95600    132.96188    12.523308    140769.09   -39569.102    2669.3103   -42238.412    395.97631    225.28259 
   95650    130.21538   -188.91253    140806.36   -39628.605    2614.1721   -42242.777    395.74258    220.62907 
   95700    130.61322   -61.299075     140796.2   -39671.003    2622.1591   -42293.162    395.77349    221.30315 
   95750    132.93541   -190.58714    140870.09    -39620.62    2668.7788   -42289.399     395.9143    225.23773 
   95800    130.84835   -150.54846    140881.63    -39579.72    2626.8795     -42206.6    396.44037    221.70154 
   95850    129.80298   -153.87189    140898.05   -39531.186     2605.893   -42137.079    396.65492    219.93034 
   95900    133.62134   -258.14989    140885.03   -39531.645    2682.5494   -42214.194    396.83161    226.39994 
   95950     131.7778   -199.28059    140941.73   -39537.541    2645.5389    -42183.08    397.06325    223.27634 
   96000    132.12256   -125.30474    141062.68   -39519.103    2652.4602   -42171.563     397.1626    223.86049 
   96050    133.28625   -222.80518    141116.73   -39541.807    2675.8222    -42217.63    397.32342    225.83218 
   96100    134.19502   -223.11712     141115.2   -39514.145    2694.0664   -42208.212    396.96569    227.37194 
   96150    132.75748   -175.42051    141118.91   -39490.563    2665.2068    -42155.77    397.11376    224.93626 
   96200    137.66907   -439.24992    141113.14   -39434.726    2763.8105   -42198.537    397.35581    233.25815 
   96250    132.97517   -119.53578    141135.76   -39473.038     2669.577   -42142.615    397.66524     225.3051 
   96300    133.96217   -203.53741    141161.14   -39495.268    2689.3918    -42184.66    398.37968    226.97742 
   96350    133.05247   -186.36658     141217.9    -39489.78    2671.1289   -42160.909    398.90305    225.43608 
   96400    131.33896   -69.020848    141266.22   -39518.183    2636.7289   -42154.912    399.26956    222.53281 
   96450    131.55839    -122.7858    141295.28   -39529.384    2641.1341   -42170.518    399.98639    222.90459 
   96500     133.4105   -314.07957    141249.01    -39519.14    2678.3167   -42197.456    400.05528     226.0427 
   96550    132.71841   -158.04271    141329.05   -39518.714    2664.4224   -42183.136    400.00584    224.87007 
   96600    135.24714   -315.98997    141223.28   -39530.019    2715.1886   -42245.208    400.40936    229.15459 
   96650    133.30059   -147.74742    141207.46    -39548.95      2676.11    -42225.06    400.06417    225.85647 
   96700    133.12938   -342.34556    141212.74   -39508.015    2672.6729   -42180.688    399.66705    225.56639 
   96750    133.04299   -89.676216    141233.19   -39527.757    2670.9386   -42198.695    400.01537    225.42001 
   96800    134.13998   -69.651386    141229.72   -39530.952    2692.9614   -42223.913    400.50638    227.27868 
   96850    132.10773    -104.1792    141257.51   -39514.277    2652.1626   -42166.439    401.08227    223.83537 
   96900    132.75412   -193.44255    141262.04   -39529.255    2665.1393   -42194.394    401.73923    224.93057 
   96950    131.92451    -206.2633    141247.25   -39532.944    2648.4843   -42181.429     401.9266    223.52493 
   97000    134.33425   -179.25226     141256.5   -39585.468    2696.8616    -42282.33    401.91807    227.60784 
   97050    136.82742   -142.28404       141257     -39512.2    2746.9139   -42259.114    402.13594    231.83213 
   97100    134.26726   -15.723315    141319.47   -39469.059    2695.5166   -42164.576    402.10838    227.49433 
   97150     136.0205    -127.2223    141362.94   -39434.328    2730.7143   -42165.042    402.45304    230.46492 
   97200    134.48399   -305.71293    141364.71   -39460.009    2699.8678   -42159.877    402.64881    227.86155 
   97250    135.64749   -317.33255    141343.35   -39446.817    2723.2258   -42170.043    403.08361    229.83291 
   97300    134.22154    -386.1847    141235.98   -39471.465    2694.5989   -42166.064    403.25514    227.41688 
   97350    134.90587   -322.69646    141212.56   -39540.304    2708.3373   -42248.641    402.96584    228.57636 
   97400    136.03823   -275.41976    141152.12   -39520.098    2731.0703   -42251.169    403.35318    230.49497 
   97450    135.02842   -194.67307     141100.1   -39490.984    2710.7976   -42201.782    402.95947    228.78401 
   97500    133.26215    -334.9228    141031.94   -39507.225    2675.3384   -42182.563    402.79925    225.79134 
   97550    135.04644   -115.51637    141008.34   -39436.352    2711.1593   -42147.512    403.10315    228.81453 
   97600    134.48688   -239.27256    141022.81   -39378.585    2699.9258   -42078.511    403.17089    227.86646 
   97650    133.81919   -351.49618    141011.87   -39379.424    2686.5215   -42065.945    403.39642    226.73516 
   97700    133.07448   -255.84409    141031.84   -39353.429    2671.5708       -42025    403.84983    225.47337 
   97750    131.93814    -238.7498    141125.25   -39356.312    2648.7578   -42005.069     404.1042    223.54802 
   97800    132.46327   -382.52178    141045.79   -39407.579    2659.3003   -42066.879    404.32039    224.43777 
   97850    133.24117    25.308252    141055.02   -39360.332    2674.9172   -42035.249    404.60148     225.7558 
   97900     135.4877   -234.73624    141103.88    -39392.97     2720.018   -42112.988    405.35183    229.56218 
   97950    134.10323   -174.76128    141135.06   -39376.167    2692.2236   -42068.391    405.58922    227.21641 
   98000    130.75245   -314.44331    141061.16   -39373.953    2624.9543   -41998.907    405.87671    221.53906 
   98050    135.70961   -397.38137    140980.53   -39357.283    2724.4731   -42081.756    405.86116    229.93818 
   98100    130.77109   -181.65094    141009.41   -39405.306    2625.3284   -42030.635    406.13007    221.57063 
   98150    129.63434   -245.75098    141038.16   -39496.275    2602.5074   -42098.782    406.33321    219.64461 
   98200    129.84326   -243.68485    141104.86    -39564.35    2606.7016   -42171.051    406.63734    219.99859 
   98250    131.17608   -261.97424    141015.94   -39565.355    2633.4589   -42198.814    406.66746    222.25683 
   98300    129.84944    -242.0023    140986.34   -39593.232    2606.8256   -42200.058    406.57284    220.00905 
   98350    133.59692    -200.9097    140924.03   -39568.864     2682.059   -42250.923    406.75661    226.35855 
   98400    130.43889   -247.28412    141022.08       -39505    2618.6592    -42123.66    406.68442    221.00778 
   98450    131.96094   -184.91772    141013.24   -39479.939    2649.2155   -42129.155    407.03094    223.58664 
   98500    131.79435   -138.51294    141040.83   -39479.649    2645.8711    -42125.52    407.01676    223.30438 
   98550    134.70839   -185.00789    141009.89   -39440.728    2704.3727   -42145.101    407.41215    228.24176 
   98600    136.80511   -284.70024    141039.64   -39400.023    2746.4659   -42146.489    407.59578    231.79432 
   98650    134.35637    70.649382    141022.57   -39413.357    2697.3057   -42110.663    407.27088    227.64532 
   98700    135.58653   -171.88353    141042.64   -39365.849    2722.0021   -42087.852    407.91099    229.72963 
   98750    133.93448   -178.44656    141050.92   -39387.387    2688.8359   -42076.223    408.00048     226.9305 
   98800    133.84706   -226.66902    141046.07   -39379.839    2687.0808   -42066.919     408.1113    226.78237 
   98850    132.49217   -148.06519    141062.34   -39431.919    2659.8805     -42091.8    408.34948    224.48673 
   98900    131.28631   -2.4944847    141115.73   -39444.518    2635.6719    -42080.19    408.44298     222.4436 
   98950    133.85009   -219.96629    141100.67   -39435.985    2687.1418   -42123.127    409.03796    226.78752 
   99000    136.00952   -179.59781    141095.14   -39375.602     2730.494   -42106.096    409.05464    230.44633 
   99050    135.34387   -246.56602     141139.5   -39351.238    2717.1304   -42068.368    409.42098    229.31848 
   99100    132.45651   -145.22998    141140.29   -39361.831    2659.1645   -42020.996    409.30205    224.42631 
   99150     133.2912   -219.77541    141127.39    -39380.13    2675.9216   -42056.051     408.9619    225.84056 
   99200    130.55054   -205.23367    141122.08   -39424.576    2620.9008   -42045.476    409.04622    221.19696 
   99250    131.31614   -351.66711    141033.93    -39487.32    2636.2707   -42123.591    409.33949    222.49414 
   99300    130.96584   -257.86345    141040.26   -39470.245    2629.2382   -42099.483    409.43928    221.90061 
   99350    131.59653   -277.18922    140966.71   -39453.778    2641.8997   -42095.677    409.56974    222.96921 
   99400    131.05562   -202.04115    140994.69   -39450.965    2631.0406   -42082.006    409.71595    222.05273 
   99450     134.2571   -234.90592    141055.33   -39452.536    2695.3127   -42147.848    410.03655    227.47712 
   99500    131.41441   0.49071994    141019.88   -39452.333    2638.2435   -42090.576    410.37565    222.66064 
   99550    132.09649   -184.52533     141037.1   -39457.501    2651.9368   -42109.438    410.72104    223.81631 
   99600    133.30286   -103.09113    141015.41   -39427.422    2676.1556   -42103.578    410.97139    225.86032 
   99650    133.34448    -341.8301    141016.43   -39464.014    2676.9913   -42141.005    411.33887    225.93084 
   99700    130.42656   -126.76818    140995.16   -39484.109    2618.4118    -42102.52    411.43986    220.98689 
   99750    131.18079     -170.936    141030.75    -39505.43    2633.5534   -42138.983    411.42403     222.2648 
   99800    132.39442   -253.40527    141023.44   -39451.522     2657.918    -42109.44    411.37409    224.32111 
   99850     132.0747   -507.86485    140981.98   -39475.679    2651.4994   -42127.179    411.46502     223.7794 
   99900    131.73874   -468.52288    140887.67   -39538.009    2644.7547   -42182.764    412.08026    223.21016 
   99950    130.07181   -301.54227    140806.32   -39554.093    2611.2898   -42165.382    412.12116    220.38581 
  100000    131.09554   -197.09371    140820.46   -39472.907     2631.842   -42104.749    412.21814    222.12036 
Loop time of 221.234 on 60 procs for 100000 steps with 6736 atoms

Performance: 195.269 ns/day, 0.123 hours/ns, 452.011 timesteps/s
99.6% CPU use with 60 MPI tasks x no OpenMP threads

MPI task timing breakdown:
Section |  min time  |  avg time  |  max time  |%varavg| %total
---------------------------------------------------------------
Pair    | 38.791     | 98.321     | 164.54     | 494.7 | 44.44
Neigh   | 1.3583     | 2.7499     | 7.7408     | 133.3 |  1.24
Comm    | 36.145     | 86.141     | 117.41     | 295.7 | 38.94
Output  | 0.20804    | 0.21192    | 0.22719    |   0.5 |  0.10
Modify  | 10.319     | 32.367     | 63.648     | 431.2 | 14.63
Other   |            | 1.443      |            |       |  0.65

Nlocal:    112.267 ave 252 max 73 min
Histogram: 48 0 0 0 0 0 0 0 2 10
Nghost:    1038.17 ave 1347 max 715 min
Histogram: 24 0 0 0 0 0 0 22 2 12
Neighs:    0 ave 0 max 0 min
Histogram: 60 0 0 0 0 0 0 0 0 0
FullNghs:  13492.8 ave 45881 max 4652 min
Histogram: 48 0 0 0 0 0 0 0 1 11

Total # of neighbors = 809566
Ave neighs/atom = 120.185
Neighbor list builds = 6131
Dangerous builds = 0

write_data		${DIR}/data.eq-${NAME}-${TEMP}
write_data		run_12/data.eq-${NAME}-${TEMP}
write_data		run_12/data.eq-het_freeze_12-${TEMP}
write_data		run_12/data.eq-het_freeze_12-225
undump          1

reset_timestep  0

unfix           2
unfix           3
unfix           4


################################################
#######         Run Simulation         #########
################################################

log				${DIR}/log.run_${NAME}
log				run_12/log.run_${NAME}
log				run_12/log.run_het_freeze_12
