LAMMPS data file via write_data, version 29 Oct 2020, timestep = 150000

4560 atoms
2 atom types

0.0 49.22 xlo xhi
0.0 49.019635930410494 ylo yhi
1.2459544113242522 32.69404558867653 zlo zhi

Masses

1 18.015
2 12.01

Atoms # atomic

147 2 0.0 2.8417180249513345 3.3306330788697878 0 0 0
149 2 0.0 0.0 3.3306330788697878 0 0 0
151 2 1.2305000000000001 0.7104295062378347 3.3306330788697878 0 0 0
158 2 1.2305000000000001 2.1312885187135 3.3306330788697878 0 0 0
160 2 2.4610000000000003 2.8417180249513345 3.3306330788697878 0 0 0
162 2 2.4610000000000003 0.0 3.3306330788697878 0 0 0
164 2 3.6915000000000004 0.7104295062378347 3.3306330788697878 0 0 0
179 2 3.6914999999999996 2.1312885187135 3.3306330788697878 0 0 0
181 2 4.922000000000001 2.841718024951333 3.3306330788697878 0 0 0
183 2 4.922000000000001 0.0 3.3306330788697878 0 0 0
185 2 6.1525 0.7104295062378341 3.3306330788697878 0 0 0
208 2 6.1525 2.131288518713499 3.3306330788697878 0 0 0
210 2 7.382999999999999 2.8417180249513345 3.3306330788697878 0 0 0
212 2 7.382999999999999 0.0 3.3306330788697878 0 0 0
214 2 8.613499999999998 0.7104295062378341 3.3306330788697878 0 0 0
245 2 8.613499999999998 2.1312885187135002 3.3306330788697878 0 0 0
247 2 9.844000000000001 2.841718024951333 3.3306330788697878 0 0 0
249 2 9.844000000000001 0.0 3.3306330788697878 0 0 0
251 2 11.074500000000002 0.7104295062378333 3.3306330788697878 0 0 0
290 2 11.074500000000002 2.1312885187135002 3.3306330788697878 0 0 0
292 2 12.305 2.841718024951333 3.3306330788697878 0 0 0
294 2 12.305 0.0 3.3306330788697878 0 0 0
296 2 13.5355 0.7104295062378352 3.3306330788697878 0 0 0
337 2 13.5355 2.1312885187134984 3.3306330788697878 0 0 0
339 2 14.765999999999998 2.841718024951335 3.3306330788697878 0 0 0
341 2 14.765999999999998 0.0 3.3306330788697878 0 0 0
343 2 15.996500000000003 0.7104295062378352 3.3306330788697878 0 0 0
384 2 15.996500000000003 2.1312885187135002 3.3306330788697878 0 0 0
644 2 17.226999999999997 2.841718024951333 3.3306330788697878 0 0 0
646 2 17.227 0.0 3.3306330788697878 0 0 0
648 2 18.457499999999996 0.7104295062378333 3.3306330788697878 0 0 0
655 2 18.4575 2.1312885187135002 3.3306330788697878 0 0 0
657 2 19.688000000000002 2.8417180249513363 3.3306330788697878 0 0 0
659 2 19.688000000000002 0.0 3.3306330788697878 0 0 0
661 2 20.918499999999998 0.7104295062378405 3.3306330788697878 0 0 0
676 2 20.918499999999998 2.1312885187135002 3.3306330788697878 0 0 0
678 2 22.149000000000004 2.8417180249513407 3.3306330788697878 0 0 0
680 2 22.149000000000004 0.0 3.3306330788697878 0 0 0
682 2 23.3795 0.7104295062378405 3.3306330788697878 0 0 0
705 2 23.3795 2.1312885187135002 3.3306330788697878 0 0 0
154 2 0.0 4.262577037427 3.3306330788697878 0 0 0
156 2 1.2305000000000001 4.973006543664834 3.3306330788697878 0 0 0
171 2 1.2305000000000001 6.393865556140498 3.3306330788697878 0 0 0
175 2 2.4610000000000003 4.262577037427 3.3306330788697878 0 0 0
177 2 3.6914999999999996 4.973006543664834 3.3306330788697878 0 0 0
200 2 3.6914999999999996 6.393865556140498 3.3306330788697878 0 0 0
204 2 4.922000000000001 4.262577037426998 3.3306330788697878 0 0 0
206 2 6.1525 4.973006543664834 3.3306330788697878 0 0 0
237 2 6.1525 6.393865556140498 3.3306330788697878 0 0 0
241 2 7.382999999999999 4.262577037427 3.3306330788697878 0 0 0
243 2 8.6135 4.973006543664834 3.3306330788697878 0 0 0
282 2 8.6135 6.393865556140498 3.3306330788697878 0 0 0
286 2 9.844000000000001 4.2625770374270004 3.3306330788697878 0 0 0
288 2 11.074500000000002 4.973006543664834 3.3306330788697878 0 0 0
329 2 11.074500000000002 6.393865556140498 3.3306330788697878 0 0 0
333 2 12.305 4.262577037426998 3.3306330788697878 0 0 0
335 2 13.5355 4.973006543664834 3.3306330788697878 0 0 0
376 2 13.5355 6.393865556140498 3.3306330788697878 0 0 0
380 2 14.766000000000002 4.262577037426998 3.3306330788697878 0 0 0
382 2 15.996499999999997 4.973006543664834 3.3306330788697878 0 0 0
418 2 15.996500000000003 6.393865556140498 3.3306330788697878 0 0 0
651 2 17.226999999999997 4.2625770374270004 3.3306330788697878 0 0 0
653 2 18.4575 4.973006543664837 3.3306330788697878 0 0 0
668 2 18.457499999999996 6.393865556140501 3.3306330788697878 0 0 0
672 2 19.688000000000002 4.2625770374270004 3.3306330788697878 0 0 0
674 2 20.9185 4.973006543664837 3.3306330788697878 0 0 0
697 2 20.9185 6.393865556140501 3.3306330788697878 0 0 0
701 2 22.149000000000004 4.2625770374270004 3.3306330788697878 0 0 0
703 2 23.3795 4.973006543664837 3.3306330788697878 0 0 0
729 2 23.3795 6.393865556140501 3.3306330788697878 0 0 0
152 2 0.0 7.104295062378334 3.3306330788697878 0 0 0
167 2 0.0 8.525154074854 3.3306330788697878 0 0 0
169 2 1.2305000000000001 9.235583581091834 3.3306330788697878 0 0 0
173 2 2.4610000000000003 7.104295062378334 3.3306330788697878 0 0 0
196 2 2.4610000000000003 8.525154074854 3.3306330788697878 0 0 0
198 2 3.6915000000000004 9.235583581091834 3.3306330788697878 0 0 0
202 2 4.922000000000001 7.104295062378334 3.3306330788697878 0 0 0
233 2 4.922000000000001 8.525154074854 3.3306330788697878 0 0 0
235 2 6.1525 9.235583581091834 3.3306330788697878 0 0 0
239 2 7.383000000000001 7.104295062378334 3.3306330788697878 0 0 0
278 2 7.383000000000001 8.525154074854 3.3306330788697878 0 0 0
280 2 8.613499999999998 9.235583581091834 3.3306330788697878 0 0 0
284 2 9.844000000000001 7.104295062378334 3.3306330788697878 0 0 0
325 2 9.844000000000001 8.525154074853996 3.3306330788697878 0 0 0
327 2 11.074500000000002 9.235583581091834 3.3306330788697878 0 0 0
331 2 12.305 7.104295062378334 3.3306330788697878 0 0 0
372 2 12.305 8.525154074854 3.3306330788697878 0 0 0
374 2 13.5355 9.235583581091829 3.3306330788697878 0 0 0
378 2 14.765999999999998 7.104295062378331 3.3306330788697878 0 0 0
414 2 14.765999999999998 8.525154074854 3.3306330788697878 0 0 0
416 2 15.996500000000003 9.235583581091836 3.3306330788697878 0 0 0
649 2 17.227 7.104295062378336 3.3306330788697878 0 0 0
664 2 17.226999999999997 8.525154074854 3.3306330788697878 0 0 0
666 2 18.4575 9.235583581091836 3.3306330788697878 0 0 0
670 2 19.688000000000002 7.104295062378336 3.3306330788697878 0 0 0
693 2 19.688000000000002 8.525154074854001 3.3306330788697878 0 0 0
695 2 20.9185 9.235583581091834 3.3306330788697878 0 0 0
699 2 22.149000000000004 7.104295062378334 3.3306330788697878 0 0 0
725 2 22.149000000000004 8.525154074854001 3.3306330788697878 0 0 0
727 2 23.3795 9.235583581091834 3.3306330788697878 0 0 0
165 2 0.0 11.366872099805333 3.3306330788697878 0 0 0
188 2 0.0 12.787731112280996 3.3306330788697878 0 0 0
190 2 1.2305000000000001 13.49816061851883 3.3306330788697878 0 0 0
192 2 1.2305000000000001 10.656442593567498 3.3306330788697878 0 0 0
194 2 2.4610000000000003 11.366872099805333 3.3306330788697878 0 0 0
225 2 2.4610000000000003 12.787731112280996 3.3306330788697878 0 0 0
227 2 3.6915000000000004 13.49816061851883 3.3306330788697878 0 0 0
229 2 3.6914999999999996 10.6564425935675 3.3306330788697878 0 0 0
231 2 4.922000000000001 11.366872099805333 3.3306330788697878 0 0 0
270 2 4.922000000000001 12.787731112280996 3.3306330788697878 0 0 0
272 2 6.152499999999999 13.49816061851883 3.3306330788697878 0 0 0
274 2 6.1525 10.6564425935675 3.3306330788697878 0 0 0
276 2 7.382999999999999 11.366872099805333 3.3306330788697878 0 0 0
317 2 7.382999999999999 12.787731112280996 3.3306330788697878 0 0 0
319 2 8.6135 13.498160618518835 3.3306330788697878 0 0 0
321 2 8.613499999999998 10.656442593567498 3.3306330788697878 0 0 0
323 2 9.844000000000001 11.366872099805333 3.3306330788697878 0 0 0
364 2 9.844000000000001 12.787731112280996 3.3306330788697878 0 0 0
366 2 11.074500000000002 13.49816061851883 3.3306330788697878 0 0 0
368 2 11.074500000000002 10.656442593567498 3.3306330788697878 0 0 0
370 2 12.304999999999998 11.366872099805333 3.3306330788697878 0 0 0
406 2 12.305 12.787731112280996 3.3306330788697878 0 0 0
408 2 13.5355 13.498160618518835 3.3306330788697878 0 0 0
410 2 13.5355 10.6564425935675 3.3306330788697878 0 0 0
412 2 14.765999999999998 11.366872099805333 3.3306330788697878 0 0 0
440 2 14.765999999999998 12.787731112280996 3.3306330788697878 0 0 0
442 2 15.996500000000003 13.498160618518835 3.3306330788697878 0 0 0
444 2 15.996499999999997 10.6564425935675 3.3306330788697878 0 0 0
662 2 17.227 11.366872099805333 3.3306330788697878 0 0 0
685 2 17.227 12.787731112280996 3.3306330788697878 0 0 0
687 2 18.4575 13.49816061851883 3.3306330788697878 0 0 0
689 2 18.4575 10.6564425935675 3.3306330788697878 0 0 0
691 2 19.688000000000002 11.366872099805333 3.3306330788697878 0 0 0
717 2 19.688000000000002 12.787731112280996 3.3306330788697878 0 0 0
719 2 20.9185 13.498160618518835 3.3306330788697878 0 0 0
721 2 20.918499999999998 10.6564425935675 3.3306330788697878 0 0 0
723 2 22.149000000000004 11.366872099805333 3.3306330788697878 0 0 0
749 2 22.149000000000004 12.787731112280996 3.3306330788697878 0 0 0
751 2 23.3795 13.498160618518835 3.3306330788697878 0 0 0
753 2 23.3795 10.656442593567498 3.3306330788697878 0 0 0
186 2 0.0 15.629449137232333 3.3306330788697878 0 0 0
217 2 0.0 17.050308149708 3.3306330788697878 0 0 0
221 2 1.2305000000000001 14.919019630994494 3.3306330788697878 0 0 0
223 2 2.4610000000000003 15.629449137232328 3.3306330788697878 0 0 0
262 2 2.4610000000000003 17.050308149708 3.3306330788697878 0 0 0
266 2 3.6915000000000004 14.919019630994494 3.3306330788697878 0 0 0
268 2 4.922000000000001 15.629449137232333 3.3306330788697878 0 0 0
309 2 4.922000000000001 17.050308149708 3.3306330788697878 0 0 0
313 2 6.152499999999999 14.919019630994494 3.3306330788697878 0 0 0
315 2 7.382999999999999 15.629449137232333 3.3306330788697878 0 0 0
356 2 7.383000000000001 17.050308149708 3.3306330788697878 0 0 0
360 2 8.6135 14.919019630994494 3.3306330788697878 0 0 0
362 2 9.844000000000001 15.629449137232328 3.3306330788697878 0 0 0
398 2 9.844000000000001 17.050308149708 3.3306330788697878 0 0 0
402 2 11.074500000000002 14.919019630994494 3.3306330788697878 0 0 0
404 2 12.305 15.629449137232333 3.3306330788697878 0 0 0
432 2 12.304999999999998 17.050308149708 3.3306330788697878 0 0 0
436 2 13.5355 14.919019630994494 3.3306330788697878 0 0 0
438 2 14.766000000000002 15.629449137232333 3.3306330788697878 0 0 0
458 2 14.766000000000002 17.050308149708 3.3306330788697878 0 0 0
462 2 15.996500000000003 14.9190196309945 3.3306330788697878 0 0 0
683 2 17.227 15.629449137232333 3.3306330788697878 0 0 0
709 2 17.226999999999997 17.050308149708002 3.3306330788697878 0 0 0
713 2 18.4575 14.9190196309945 3.3306330788697878 0 0 0
715 2 19.688000000000002 15.629449137232333 3.3306330788697878 0 0 0
741 2 19.688000000000002 17.05030814970799 3.3306330788697878 0 0 0
745 2 20.918499999999998 14.919019630994494 3.3306330788697878 0 0 0
747 2 22.149000000000004 15.629449137232333 3.3306330788697878 0 0 0
768 2 22.149000000000004 17.05030814970799 3.3306330788697878 0 0 0
772 2 23.3795 14.919019630994494 3.3306330788697878 0 0 0
215 2 0.0 19.89202617465933 3.3306330788697878 0 0 0
219 2 1.2305000000000001 17.76073765594583 3.3306330788697878 0 0 0
258 2 1.2305000000000001 19.181596668421495 3.3306330788697878 0 0 0
260 2 2.4610000000000003 19.89202617465933 3.3306330788697878 0 0 0
264 2 3.6914999999999996 17.76073765594583 3.3306330788697878 0 0 0
305 2 3.6914999999999996 19.181596668421495 3.3306330788697878 0 0 0
307 2 4.922000000000001 19.89202617465933 3.3306330788697878 0 0 0
311 2 6.1525 17.76073765594583 3.3306330788697878 0 0 0
352 2 6.1525 19.181596668421495 3.3306330788697878 0 0 0
354 2 7.382999999999999 19.89202617465933 3.3306330788697878 0 0 0
358 2 8.613499999999998 17.76073765594583 3.3306330788697878 0 0 0
394 2 8.6135 19.181596668421495 3.3306330788697878 0 0 0
396 2 9.844000000000001 19.892026174659335 3.3306330788697878 0 0 0
400 2 11.074500000000002 17.760737655945835 3.3306330788697878 0 0 0
428 2 11.074500000000002 19.181596668421495 3.3306330788697878 0 0 0
430 2 12.305000000000005 19.892026174659335 3.3306330788697878 0 0 0
434 2 13.5355 17.760737655945835 3.3306330788697878 0 0 0
454 2 13.5355 19.181596668421495 3.3306330788697878 0 0 0
456 2 14.766000000000002 19.89202617465933 3.3306330788697878 0 0 0
460 2 15.996500000000003 17.76073765594583 3.3306330788697878 0 0 0
472 2 15.996500000000003 19.181596668421495 3.3306330788697878 0 0 0
707 2 17.227 19.892026174659335 3.3306330788697878 0 0 0
711 2 18.4575 17.76073765594583 3.3306330788697878 0 0 0
737 2 18.457499999999996 19.181596668421495 3.3306330788697878 0 0 0
739 2 19.688000000000002 19.892026174659335 3.3306330788697878 0 0 0
743 2 20.9185 17.76073765594583 3.3306330788697878 0 0 0
764 2 20.918499999999998 19.181596668421495 3.3306330788697878 0 0 0
766 2 22.149000000000004 19.892026174659335 3.3306330788697878 0 0 0
770 2 23.3795 17.760737655945835 3.3306330788697878 0 0 0
783 2 23.3795 19.181596668421495 3.3306330788697878 0 0 0
252 2 0.0 24.154603212086325 3.3306330788697878 0 0 0
254 2 0.0 21.312885187135 3.3306330788697878 0 0 0
256 2 1.2304999999999993 22.023314693372832 3.3306330788697878 0 0 0
297 2 1.2304999999999993 23.4441737058485 3.3306330788697878 0 0 0
299 2 2.4610000000000003 24.154603212086325 3.3306330788697878 0 0 0
301 2 2.4610000000000003 21.312885187134995 3.3306330788697878 0 0 0
303 2 3.6914999999999996 22.023314693372832 3.3306330788697878 0 0 0
344 2 3.6915000000000004 23.4441737058485 3.3306330788697878 0 0 0
346 2 4.922000000000001 24.154603212086325 3.3306330788697878 0 0 0
348 2 4.922000000000001 21.312885187134995 3.3306330788697878 0 0 0
350 2 6.152499999999999 22.023314693372832 3.3306330788697878 0 0 0
386 2 6.1525 23.4441737058485 3.3306330788697878 0 0 0
388 2 7.383000000000001 24.154603212086336 3.3306330788697878 0 0 0
390 2 7.382999999999999 21.312885187135 3.3306330788697878 0 0 0
392 2 8.6135 22.023314693372832 3.3306330788697878 0 0 0
420 2 8.613499999999998 23.4441737058485 3.3306330788697878 0 0 0
422 2 9.844000000000001 24.154603212086336 3.3306330788697878 0 0 0
424 2 9.844000000000001 21.312885187135 3.3306330788697878 0 0 0
426 2 11.074500000000002 22.023314693372832 3.3306330788697878 0 0 0
446 2 11.074500000000002 23.4441737058485 3.3306330788697878 0 0 0
448 2 12.305 24.154603212086325 3.3306330788697878 0 0 0
450 2 12.305 21.312885187135 3.3306330788697878 0 0 0
452 2 13.5355 22.023314693372832 3.3306330788697878 0 0 0
464 2 13.5355 23.4441737058485 3.3306330788697878 0 0 0
466 2 14.766000000000002 24.154603212086325 3.3306330788697878 0 0 0
468 2 14.765999999999998 21.312885187135 3.3306330788697878 0 0 0
470 2 15.996500000000003 22.023314693372832 3.3306330788697878 0 0 0
474 2 15.996499999999997 23.44417370584849 3.3306330788697878 0 0 0
731 2 17.227 24.154603212086325 3.3306330788697878 0 0 0
733 2 17.226999999999997 21.312885187134995 3.3306330788697878 0 0 0
735 2 18.4575 22.023314693372832 3.3306330788697878 0 0 0
756 2 18.4575 23.44417370584849 3.3306330788697878 0 0 0
758 2 19.688000000000002 24.154603212086336 3.3306330788697878 0 0 0
760 2 19.688000000000002 21.312885187134995 3.3306330788697878 0 0 0
762 2 20.9185 22.023314693372832 3.3306330788697878 0 0 0
775 2 20.9185 23.4441737058485 3.3306330788697878 0 0 0
777 2 22.149000000000004 24.154603212086336 3.3306330788697878 0 0 0
779 2 22.149000000000004 21.312885187134995 3.3306330788697878 0 0 0
781 2 23.3795 22.023314693372832 3.3306330788697878 0 0 0
785 2 23.3795 23.4441737058485 3.3306330788697878 0 0 0
148 2 0.0 1.420859012475665 6.32196484199488 0 0 0
150 2 0.0 0.0 6.32196484199488 0 0 0
159 2 1.2305000000000001 2.1312885187135 6.32196484199488 0 0 0
161 2 2.4610000000000003 1.420859012475665 6.32196484199488 0 0 0
163 2 2.4610000000000003 0.0 6.32196484199488 0 0 0
180 2 3.6914999999999996 2.1312885187135 6.32196484199488 0 0 0
182 2 4.922000000000001 1.420859012475665 6.32196484199488 0 0 0
184 2 4.922000000000001 0.0 6.32196484199488 0 0 0
209 2 6.1525 2.131288518713499 6.32196484199488 0 0 0
211 2 7.382999999999999 1.420859012475666 6.32196484199488 0 0 0
213 2 7.382999999999999 0.0 6.32196484199488 0 0 0
246 2 8.613499999999998 2.1312885187135002 6.32196484199488 0 0 0
248 2 9.844000000000001 1.420859012475666 6.32196484199488 0 0 0
250 2 9.844000000000001 0.0 6.32196484199488 0 0 0
291 2 11.074500000000002 2.1312885187135002 6.32196484199488 0 0 0
293 2 12.305 1.420859012475665 6.32196484199488 0 0 0
295 2 12.305 0.0 6.32196484199488 0 0 0
338 2 13.5355 2.1312885187134984 6.32196484199488 0 0 0
340 2 14.765999999999998 1.420859012475665 6.32196484199488 0 0 0
342 2 14.765999999999998 0.0 6.32196484199488 0 0 0
385 2 15.996500000000003 2.1312885187135002 6.32196484199488 0 0 0
645 2 17.226999999999997 1.420859012475665 6.32196484199488 0 0 0
647 2 17.227 0.0 6.32196484199488 0 0 0
656 2 18.4575 2.1312885187135002 6.32196484199488 0 0 0
658 2 19.688000000000002 1.420859012475663 6.32196484199488 0 0 0
660 2 19.688000000000002 0.0 6.32196484199488 0 0 0
677 2 20.918499999999998 2.1312885187135002 6.32196484199488 0 0 0
679 2 22.149000000000004 1.4208590124756595 6.32196484199488 0 0 0
681 2 22.149000000000004 0.0 6.32196484199488 0 0 0
706 2 23.3795 2.1312885187135002 6.32196484199488 0 0 0
153 2 0.0 5.683436049902664 6.32196484199488 0 0 0
155 2 0.0 4.262577037427 6.32196484199488 0 0 0
157 2 1.2305000000000001 3.5521475311891644 6.32196484199488 0 0 0
172 2 1.2305000000000001 6.393865556140498 6.32196484199488 0 0 0
174 2 2.4610000000000003 5.683436049902664 6.32196484199488 0 0 0
176 2 2.4610000000000003 4.262577037427 6.32196484199488 0 0 0
178 2 3.6914999999999996 3.5521475311891644 6.32196484199488 0 0 0
201 2 3.6914999999999996 6.393865556140498 6.32196484199488 0 0 0
203 2 4.922000000000001 5.683436049902664 6.32196484199488 0 0 0
205 2 4.922000000000001 4.262577037426998 6.32196484199488 0 0 0
207 2 6.1525 3.5521475311891644 6.32196484199488 0 0 0
238 2 6.1525 6.393865556140498 6.32196484199488 0 0 0
240 2 7.382999999999999 5.683436049902664 6.32196484199488 0 0 0
242 2 7.382999999999999 4.262577037427 6.32196484199488 0 0 0
244 2 8.613499999999998 3.5521475311891657 6.32196484199488 0 0 0
283 2 8.6135 6.393865556140498 6.32196484199488 0 0 0
285 2 9.844000000000001 5.683436049902664 6.32196484199488 0 0 0
287 2 9.844000000000001 4.2625770374270004 6.32196484199488 0 0 0
289 2 11.074500000000002 3.5521475311891644 6.32196484199488 0 0 0
330 2 11.074500000000002 6.393865556140498 6.32196484199488 0 0 0
332 2 12.305 5.683436049902664 6.32196484199488 0 0 0
334 2 12.305 4.262577037426998 6.32196484199488 0 0 0
336 2 13.5355 3.5521475311891644 6.32196484199488 0 0 0
377 2 13.5355 6.393865556140498 6.32196484199488 0 0 0
379 2 14.765999999999998 5.683436049902664 6.32196484199488 0 0 0
381 2 14.766000000000002 4.262577037426998 6.32196484199488 0 0 0
383 2 15.996499999999997 3.5521475311891644 6.32196484199488 0 0 0
419 2 15.996500000000003 6.393865556140498 6.32196484199488 0 0 0
650 2 17.226999999999997 5.683436049902661 6.32196484199488 0 0 0
652 2 17.226999999999997 4.2625770374270004 6.32196484199488 0 0 0
654 2 18.457499999999996 3.5521475311891617 6.32196484199488 0 0 0
669 2 18.457499999999996 6.393865556140501 6.32196484199488 0 0 0
671 2 19.688000000000002 5.683436049902661 6.32196484199488 0 0 0
673 2 19.688000000000002 4.2625770374270004 6.32196484199488 0 0 0
675 2 20.918499999999995 3.552147531189163 6.32196484199488 0 0 0
698 2 20.9185 6.393865556140501 6.32196484199488 0 0 0
700 2 22.149000000000004 5.683436049902664 6.32196484199488 0 0 0
702 2 22.149000000000004 4.2625770374270004 6.32196484199488 0 0 0
704 2 23.3795 3.552147531189159 6.32196484199488 0 0 0
730 2 23.3795 6.393865556140501 6.32196484199488 0 0 0
166 2 0.0 9.946013087329664 6.32196484199488 0 0 0
168 2 0.0 8.525154074854 6.32196484199488 0 0 0
170 2 1.2305000000000001 7.814724568616164 6.32196484199488 0 0 0
195 2 2.4610000000000003 9.946013087329664 6.32196484199488 0 0 0
197 2 2.4610000000000003 8.525154074854 6.32196484199488 0 0 0
199 2 3.6914999999999996 7.814724568616164 6.32196484199488 0 0 0
232 2 4.922000000000001 9.946013087329664 6.32196484199488 0 0 0
234 2 4.922000000000001 8.525154074854 6.32196484199488 0 0 0
236 2 6.1525 7.814724568616164 6.32196484199488 0 0 0
277 2 7.383000000000001 9.946013087329664 6.32196484199488 0 0 0
279 2 7.383000000000001 8.525154074854 6.32196484199488 0 0 0
281 2 8.6135 7.814724568616164 6.32196484199488 0 0 0
324 2 9.844000000000001 9.946013087329664 6.32196484199488 0 0 0
326 2 9.844000000000001 8.525154074853996 6.32196484199488 0 0 0
328 2 11.074500000000002 7.814724568616164 6.32196484199488 0 0 0
371 2 12.305 9.946013087329664 6.32196484199488 0 0 0
373 2 12.305 8.525154074854 6.32196484199488 0 0 0
375 2 13.5355 7.814724568616164 6.32196484199488 0 0 0
413 2 14.765999999999998 9.946013087329659 6.32196484199488 0 0 0
415 2 14.765999999999998 8.525154074854 6.32196484199488 0 0 0
417 2 15.996499999999997 7.814724568616161 6.32196484199488 0 0 0
663 2 17.226999999999997 9.946013087329662 6.32196484199488 0 0 0
665 2 17.226999999999997 8.525154074854 6.32196484199488 0 0 0
667 2 18.457499999999996 7.814724568616161 6.32196484199488 0 0 0
692 2 19.688000000000002 9.946013087329662 6.32196484199488 0 0 0
694 2 19.688000000000002 8.525154074854001 6.32196484199488 0 0 0
696 2 20.918499999999998 7.814724568616161 6.32196484199488 0 0 0
724 2 22.149000000000004 9.946013087329662 6.32196484199488 0 0 0
726 2 22.149000000000004 8.525154074854001 6.32196484199488 0 0 0
728 2 23.379499999999997 7.814724568616164 6.32196484199488 0 0 0
755 2 24.609999999999996 9.946013087329664 6.32196484199488 0 0 0
189 2 0.0 12.787731112280996 6.32196484199488 0 0 0
191 2 1.2305000000000001 12.077301606043163 6.32196484199488 0 0 0
193 2 1.2305000000000001 10.656442593567498 6.32196484199488 0 0 0
226 2 2.4610000000000003 12.787731112280996 6.32196484199488 0 0 0
228 2 3.6914999999999996 12.077301606043163 6.32196484199488 0 0 0
230 2 3.6914999999999996 10.6564425935675 6.32196484199488 0 0 0
271 2 4.922000000000001 12.787731112280996 6.32196484199488 0 0 0
273 2 6.1525 12.077301606043163 6.32196484199488 0 0 0
275 2 6.1525 10.6564425935675 6.32196484199488 0 0 0
318 2 7.382999999999999 12.787731112280996 6.32196484199488 0 0 0
320 2 8.6135 12.077301606043163 6.32196484199488 0 0 0
322 2 8.613499999999998 10.656442593567498 6.32196484199488 0 0 0
365 2 9.844000000000001 12.787731112280996 6.32196484199488 0 0 0
367 2 11.074500000000002 12.077301606043163 6.32196484199488 0 0 0
369 2 11.074500000000002 10.656442593567498 6.32196484199488 0 0 0
407 2 12.305 12.787731112280996 6.32196484199488 0 0 0
409 2 13.5355 12.07730160604316 6.32196484199488 0 0 0
411 2 13.5355 10.6564425935675 6.32196484199488 0 0 0
441 2 14.765999999999998 12.787731112280996 6.32196484199488 0 0 0
443 2 15.996499999999997 12.07730160604316 6.32196484199488 0 0 0
445 2 15.996499999999997 10.6564425935675 6.32196484199488 0 0 0
686 2 17.227 12.787731112280996 6.32196484199488 0 0 0
688 2 18.4575 12.077301606043163 6.32196484199488 0 0 0
690 2 18.4575 10.6564425935675 6.32196484199488 0 0 0
718 2 19.688000000000002 12.787731112280996 6.32196484199488 0 0 0
720 2 20.918499999999998 12.077301606043163 6.32196484199488 0 0 0
722 2 20.918499999999998 10.6564425935675 6.32196484199488 0 0 0
750 2 22.149000000000004 12.787731112280996 6.32196484199488 0 0 0
752 2 23.379499999999997 12.077301606043163 6.32196484199488 0 0 0
754 2 23.3795 10.656442593567498 6.32196484199488 0 0 0
187 2 0.0 14.208590124756663 6.32196484199488 0 0 0
218 2 0.0 17.050308149708 6.32196484199488 0 0 0
220 2 1.2305000000000001 16.339878643470165 6.32196484199488 0 0 0
222 2 1.2305000000000001 14.919019630994494 6.32196484199488 0 0 0
224 2 2.4610000000000003 14.208590124756663 6.32196484199488 0 0 0
263 2 2.4610000000000003 17.050308149708 6.32196484199488 0 0 0
265 2 3.6915000000000004 16.339878643470165 6.32196484199488 0 0 0
267 2 3.6915000000000004 14.919019630994494 6.32196484199488 0 0 0
269 2 4.922000000000001 14.208590124756663 6.32196484199488 0 0 0
310 2 4.922000000000001 17.050308149708 6.32196484199488 0 0 0
312 2 6.1525 16.339878643470165 6.32196484199488 0 0 0
314 2 6.152499999999999 14.919019630994494 6.32196484199488 0 0 0
316 2 7.383000000000001 14.208590124756663 6.32196484199488 0 0 0
357 2 7.383000000000001 17.050308149708 6.32196484199488 0 0 0
359 2 8.613499999999998 16.339878643470165 6.32196484199488 0 0 0
361 2 8.6135 14.919019630994494 6.32196484199488 0 0 0
363 2 9.844000000000001 14.208590124756663 6.32196484199488 0 0 0
399 2 9.844000000000001 17.050308149708 6.32196484199488 0 0 0
401 2 11.074500000000002 16.33987864347016 6.32196484199488 0 0 0
403 2 11.074500000000002 14.919019630994494 6.32196484199488 0 0 0
405 2 12.304999999999998 14.208590124756658 6.32196484199488 0 0 0
433 2 12.304999999999998 17.050308149708 6.32196484199488 0 0 0
435 2 13.535499999999997 16.33987864347016 6.32196484199488 0 0 0
437 2 13.5355 14.919019630994494 6.32196484199488 0 0 0
439 2 14.765999999999998 14.208590124756658 6.32196484199488 0 0 0
459 2 14.766000000000002 17.050308149708 6.32196484199488 0 0 0
461 2 15.996499999999997 16.33987864347016 6.32196484199488 0 0 0
463 2 15.996500000000003 14.9190196309945 6.32196484199488 0 0 0
684 2 17.226999999999997 14.208590124756658 6.32196484199488 0 0 0
710 2 17.226999999999997 17.050308149708002 6.32196484199488 0 0 0
712 2 18.457499999999996 16.33987864347016 6.32196484199488 0 0 0
714 2 18.4575 14.9190196309945 6.32196484199488 0 0 0
716 2 19.688000000000002 14.208590124756663 6.32196484199488 0 0 0
742 2 19.688000000000002 17.05030814970799 6.32196484199488 0 0 0
744 2 20.918499999999998 16.339878643470165 6.32196484199488 0 0 0
746 2 20.918499999999998 14.919019630994494 6.32196484199488 0 0 0
748 2 22.149000000000004 14.208590124756663 6.32196484199488 0 0 0
769 2 22.149000000000004 17.05030814970799 6.32196484199488 0 0 0
771 2 23.379499999999997 16.339878643470165 6.32196484199488 0 0 0
773 2 23.3795 14.919019630994494 6.32196484199488 0 0 0
774 2 24.609999999999996 14.208590124756663 6.32196484199488 0 0 0
216 2 0.0 18.471167162183658 6.32196484199488 0 0 0
257 2 1.2305000000000001 20.60245568089716 6.32196484199488 0 0 0
259 2 1.2305000000000001 19.181596668421495 6.32196484199488 0 0 0
261 2 2.4610000000000003 18.471167162183658 6.32196484199488 0 0 0
304 2 3.6915000000000004 20.60245568089716 6.32196484199488 0 0 0
306 2 3.6914999999999996 19.181596668421495 6.32196484199488 0 0 0
308 2 4.922000000000001 18.471167162183658 6.32196484199488 0 0 0
351 2 6.1525 20.60245568089716 6.32196484199488 0 0 0
353 2 6.1525 19.181596668421495 6.32196484199488 0 0 0
355 2 7.382999999999999 18.471167162183658 6.32196484199488 0 0 0
393 2 8.613499999999998 20.60245568089716 6.32196484199488 0 0 0
395 2 8.6135 19.181596668421495 6.32196484199488 0 0 0
397 2 9.844000000000001 18.471167162183658 6.32196484199488 0 0 0
427 2 11.074499999999997 20.60245568089716 6.32196484199488 0 0 0
429 2 11.074500000000002 19.181596668421495 6.32196484199488 0 0 0
431 2 12.304999999999998 18.471167162183658 6.32196484199488 0 0 0
453 2 13.5355 20.60245568089716 6.32196484199488 0 0 0
455 2 13.5355 19.181596668421495 6.32196484199488 0 0 0
457 2 14.765999999999998 18.471167162183658 6.32196484199488 0 0 0
471 2 15.996499999999997 20.60245568089716 6.32196484199488 0 0 0
473 2 15.996500000000003 19.181596668421495 6.32196484199488 0 0 0
708 2 17.226999999999997 18.471167162183658 6.32196484199488 0 0 0
736 2 18.457499999999996 20.60245568089716 6.32196484199488 0 0 0
738 2 18.457499999999996 19.181596668421495 6.32196484199488 0 0 0
740 2 19.688000000000002 18.471167162183658 6.32196484199488 0 0 0
763 2 20.918499999999995 20.60245568089716 6.32196484199488 0 0 0
765 2 20.918499999999998 19.181596668421495 6.32196484199488 0 0 0
767 2 22.149000000000004 18.471167162183658 6.32196484199488 0 0 0
782 2 23.3795 20.602455680897158 6.32196484199488 0 0 0
784 2 23.3795 19.181596668421495 6.32196484199488 0 0 0
253 2 0.0 22.733744199610655 6.32196484199488 0 0 0
255 2 0.0 21.312885187135 6.32196484199488 0 0 0
298 2 1.2304999999999993 23.4441737058485 6.32196484199488 0 0 0
300 2 2.4610000000000003 22.733744199610655 6.32196484199488 0 0 0
302 2 2.4610000000000003 21.312885187134995 6.32196484199488 0 0 0
345 2 3.6915000000000004 23.4441737058485 6.32196484199488 0 0 0
347 2 4.922000000000001 22.733744199610655 6.32196484199488 0 0 0
349 2 4.922000000000001 21.312885187134995 6.32196484199488 0 0 0
387 2 6.1525 23.4441737058485 6.32196484199488 0 0 0
389 2 7.382999999999999 22.733744199610655 6.32196484199488 0 0 0
391 2 7.382999999999999 21.312885187135 6.32196484199488 0 0 0
421 2 8.613499999999998 23.4441737058485 6.32196484199488 0 0 0
423 2 9.844000000000001 22.733744199610655 6.32196484199488 0 0 0
425 2 9.844000000000001 21.312885187135 6.32196484199488 0 0 0
447 2 11.074500000000002 23.4441737058485 6.32196484199488 0 0 0
449 2 12.304999999999998 22.733744199610655 6.32196484199488 0 0 0
451 2 12.305 21.312885187135 6.32196484199488 0 0 0
465 2 13.5355 23.4441737058485 6.32196484199488 0 0 0
467 2 14.765999999999998 22.733744199610655 6.32196484199488 0 0 0
469 2 14.765999999999998 21.312885187135 6.32196484199488 0 0 0
475 2 15.996499999999997 23.44417370584849 6.32196484199488 0 0 0
732 2 17.226999999999997 22.733744199610655 6.32196484199488 0 0 0
734 2 17.226999999999997 21.312885187134995 6.32196484199488 0 0 0
757 2 18.4575 23.44417370584849 6.32196484199488 0 0 0
759 2 19.688000000000002 22.733744199610655 6.32196484199488 0 0 0
761 2 19.688000000000002 21.312885187134995 6.32196484199488 0 0 0
776 2 20.9185 23.4441737058485 6.32196484199488 0 0 0
778 2 22.149000000000004 22.733744199610655 6.32196484199488 0 0 0
780 2 22.149000000000004 21.312885187134995 6.32196484199488 0 0 0
786 2 23.3795 23.4441737058485 6.32196484199488 0 0 0
476 2 0.0 2.8417180249513345 9.313296605119541 0 0 0
477 2 0.0 0.0 9.313296605119541 0 0 0
478 2 1.2305000000000001 0.7104295062378347 9.313296605119541 0 0 0