LAMMPS data file via write_data, version 29 Oct 2020, timestep = 200625

2677 atoms
1 atom types

0.0 49.22 xlo xhi
0.0 49.019635930410494 ylo yhi
-0.6604245334936572 34.60042453349372 zlo zhi

Masses

1 18.015

Atoms # atomic

274 1 1.1360694602947676 2.890661850379594 3.400443198536014 0 0 1
532 1 1.1925574667571177 0.7112628203242399 13.967770584361782 0 1 0
1564 1 12.495866521294278 0.4263912639455362 1.1613465016900313 0 1 0
203 1 0.26035393656666594 5.607221157298035 3.1548130460766957 0 0 0
132 1 2.7025663718345316 9.188017823047934 13.038363772022347 0 0 -1
1819 1 15.350453112377608 1.0477891060027085 1.6861690912486706 1 0 0
1596 1 3.160923879926701 22.244869941470565 1.1124972821048926 1 0 1
167 1 2.701852880912807 6.606977486148224 2.554544825589524 0 0 0
164 1 7.1879249707443265 5.465304854620051 1.910678515888761 0 0 0
1747 1 9.915805407265571 5.228866314168325 1.6370795988793216 0 1 1
405 1 13.698396053948644 5.058702929443488 3.66385228575301 0 0 1
83 1 15.380997196224058 3.9524885626626127 1.336920080528256 0 0 0
239 1 16.230319866191365 9.964817548434533 -0.47588477234220267 0 0 1
2330 1 7.25085813535199 8.405941873903332 1.9270867349325378 1 1 0
254 1 10.164615948386833 11.191199723167824 -0.38164387484482193 0 0 1
1897 1 2.728336616679511 1.5370094572391801 1.0676386479577156 1 0 1
74 1 3.4902806093457963 6.2594243577371955 -0.2838116267721479 0 0 0
1028 1 2.465161284619471 9.414440769581892 2.712496345132037 0 0 0
2027 1 8.548500811090038 13.147522786311246 0.7079708215177255 1 0 1
605 1 11.81544467408778 11.248500154987376 2.1796162221521804 0 0 0
2070 1 2.5577073989943155 0.7640684068519691 10.094596194816766 1 0 1
2218 1 4.255864500551976 14.56682582078564 15.613230299200357 1 0 0
1813 1 5.818755815403612 16.134796377003696 2.416459880409911 1 0 0
1820 1 10.120360906612184 14.46992438966778 2.857063820954598 1 0 0
521 1 9.843362390527187 0.24914860062792735 10.591093063045989 0 1 0
679 1 14.231936301240557 14.447423216250696 2.531206409573988 0 0 1
1898 1 1.7272905672344707 17.262433350351735 2.330316447898677 1 0 0
890 1 7.806048694776065 18.69914326969983 1.687264756226624 0 0 1
2597 1 8.315442472565936 0.021159260123708248 3.9269918264007204 1 1 1
2518 1 1.648671901277143 22.72416049184514 3.4702352432208 1 1 1
1419 1 15.78620398488572 23.78706712312813 1.8311922302878176 0 0 0
290 1 5.019053310324244 20.364108932753684 2.3956460851918515 0 0 1
1382 1 10.608758985871951 19.05326802441653 1.7805094908450478 0 0 0
584 1 1.2152081471769605 12.730546744543254 1.4846914049475815 0 0 0
112 1 11.718206632518688 21.66498337870443 2.147808787584648 0 0 0
1391 1 10.846355113874251 1.0158691045111343 3.5084797228134175 0 1 0
283 1 13.814226803859787 7.309947973051906 1.7701736974986764 0 0 1
1428 1 6.834185237801048 22.016797369260534 0.8997145300693024 0 0 0
424 1 8.836802145768724 22.844703956216616 2.2736064410203154 0 0 0
505 1 15.372752095488787 12.081030913651238 12.57036390570983 0 1 0
1709 1 13.603842443894793 22.90433394158321 0.18183537044794892 0 0 0
1264 1 2.4282417359064175 2.1500418645790047 5.72933230279407 0 0 0
455 1 5.103823841388664 0.9737981079411575 5.634402458148195 0 1 0
24 1 6.336163140205112 1.6658993046186643 3.2139461989541127 0 0 0
2252 1 11.34049481420487 3.8015853482598017 3.840489459475073 1 0 1
2599 1 13.535078799283694 3.0102424374099734 6.402101913964817 1 0 0
1814 1 2.5451507157421975 4.947211352677698 6.662774910234467 1 0 0
2060 1 4.369845519072543 5.461369153731988 4.547363851101119 1 0 1
1285 1 6.612478842378949 3.9926515449849083 4.167416517264089 0 0 0
483 1 8.960260630103583 4.254318234993183 5.377329852142121 0 1 0
2128 1 9.901915441452438 5.874508186909237 7.505080702570171 1 0 1
571 1 15.311723068135137 2.6163577197553303 4.21411229215358 0 0 0
37 1 1.7598772257343889 9.93119471585427 5.415110034219996 0 0 0
874 1 5.311153679388448 9.88891569368676 3.301777529623503 0 0 1
1977 1 5.343168590177549 7.948483693080549 5.232285892928262 1 0 0
2439 1 9.645803421800165 8.265248780871998 6.151982624811546 1 1 0
1414 1 11.260707396710771 7.716080739182032 1.8879500173644166 0 1 0
223 1 15.20881598722792 9.267368946047082 3.3587522727508636 0 0 0
145 1 13.79164597929505 7.414740405390809 5.573816539016688 0 0 0
2018 1 0.9612093534343668 2.6516467355446918 11.591787905707605 1 0 0
1240 1 12.127861579038743 13.994496481635395 0.6442380229157522 0 0 1
106 1 9.167054887422454 9.142903165732445 3.4700366142338384 0 0 0
152 1 7.576726158458382 11.956208877920858 3.7483199848046853 0 0 -1
858 1 6.812076819708271 13.751714620144623 5.714373147082412 0 0 1
1652 1 14.311377974442626 13.05976096982835 6.5031506742373955 0 1 0
2057 1 14.36916579728974 11.98662186556518 3.833562882676944 0 0 1
210 1 5.319119749987729 13.261074793037753 2.3120490826946147 0 0 1
2131 1 8.100223470693125 15.880868067000106 4.200018059829629 0 0 1
486 1 10.258988302899592 12.16958783404213 4.498267487954164 0 0 1
2401 1 8.033504712315105 18.742944671550372 4.3888908996557525 1 1 0
389 1 2.0183074494706736 18.653365101533645 5.866977763169532 0 0 1
46 1 4.141847150383638 18.127998470832114 3.4093849503386053 0 0 0
736 1 12.555454247908411 15.856232349582184 3.9665327366901733 0 1 0
9 1 11.757134110097343 18.54277897172541 4.0629931039415785 0 0 0
600 1 15.022078488727011 15.913977600794201 5.498467342427399 0 1 0
338 1 0.887211083071612 19.7391202810457 3.756928639479919 0 0 1
212 1 16.098764935362645 22.25369357491351 8.3467626779787 0 0 0
159 1 5.831055313304665 21.083152792859302 4.994249665318601 0 0 1
2465 1 10.101466979775886 19.761528672383513 5.921401768397852 1 1 0
741 1 13.977174527418212 19.857487724776078 3.487869052330067 0 0 1
404 1 5.89881837441769 4.442363084899896 -0.14877654612508823 0 0 1
1080 1 15.715197409602549 16.520086468453485 -0.13409001542962112 0 0 0
1023 1 7.591308915154557 22.009351607075565 16.096873111640885 1 0 0
1835 1 4.16281802418215 23.58463907752868 4.506550672936945 1 0 0
111 1 8.7671986069184 22.184690438623296 5.141081805135963 0 0 0
1775 1 12.871567908693265 22.680720778833614 4.7158173924972004 0 0 1
1057 1 7.970520343391647 17.1667653921361 -0.521112823343969 0 0 0
124 1 6.279711043094756 24.345836999688203 9.699574555312529 0 0 0
344 1 6.404638983327867 1.4910313522016192 8.071633914518134 0 0 0
2641 1 8.77920422208668 2.4961588558047914 7.642616360888779 1 1 1
2203 1 12.75585770704103 0.8610820990170694 9.819703906775976 1 0 0
2313 1 15.13127728361781 1.733093145255885 8.452308106129268 1 1 0
2408 1 2.604268224147619 6.542859387377455 8.846808664832736 1 1 0
1930 1 8.69109704696222 4.225116721612232 9.835533720575155 1 0 0
1226 1 12.605298570410273 5.5083870145225955 7.390585872544417 0 0 1
423 1 3.5636863590357386 8.759728666067344 7.313939673961606 0 0 1
1256 1 7.194542997776518 8.723378618485405 7.071971858730233 0 0 0
300 1 13.308510433500812 9.682621684705342 9.442865961957407 0 0 1
2293 1 2.747411622861949 12.285713496396298 9.492352637017705 1 1 0
60 1 4.866024339242684 10.469060789845532 9.044826332865933 0 0 0
135 1 6.786785488450319 11.406681068249073 7.5271699539751555 0 0 0
394 1 9.31612427158107 11.704399404822805 8.677685956088803 0 0 0
721 1 11.353583437332656 12.113345356283341 6.9684041996581625 0 0 1
1328 1 12.236370971765059 9.464914897407679 6.899912623277615 0 0 1
418 1 2.979674821183824 14.426577742797432 3.0892231919857003 0 0 1
2202 1 4.188181452006554 15.427082456644065 5.8227686462126 1 0 0
735 1 2.50741886520575 13.94805331389998 7.2134193204130606 0 0 0
1420 1 11.406839971544741 14.84410044584473 6.343726596759202 0 0 0
259 1 11.95126822869277 14.333402409069768 11.009895632094715 0 0 0
954 1 13.621306912849963 15.39083287505928 8.281000581555302 0 0 0
1989 1 0.7118979853997139 16.304834165786094 6.775253273754413 1 0 0
1646 1 0.9299218686557074 16.741253301810197 9.471560179866957 0 0 1
298 1 5.325100582814693 18.523128205412835 5.892120580127481 0 0 1
316 1 5.712096115735846 17.722121739356442 8.549078284143611 0 0 0
377 1 8.931471866342147 14.896087570644985 7.237965605613691 0 0 0
2547 1 3.0304778809272723 17.248954392677994 -0.2783233870710161 1 0 1
684 1 1.1187479152921447 20.548371910331745 7.613681241462782 0 0 1
2540 1 6.034359862977126 20.655968642170695 9.249831141084718 1 0 0
1541 1 10.412724446801981 19.107531449127208 8.421883651917978 0 0 0
1008 1 13.319876383596798 19.180394738591286 8.788088045584576 0 0 0
1442 1 15.174818801421724 21.39465436222109 5.74032255027971 0 0 0
1188 1 15.09941038859959 18.82220336661571 6.54907234424541 0 0 0
593 1 11.015334469707113 15.46062222551787 16.375052326063578 0 0 0
1912 1 2.8376784203830443 22.56657721848583 8.95958144110128 1 0 0
1465 1 5.047665904677399 22.22787912340821 7.19647875924409 0 0 0
1474 1 10.302057070954657 23.578539642026556 8.827116607958331 0 0 0
2480 1 10.861037645666615 23.87374392886244 5.9055306596316814 1 0 1
1899 1 7.2877254211753355 16.272853207935004 15.461143028854003 1 0 0
2227 1 4.884434917432731 2.2420066343432614 10.37670193495187 1 0 1
479 1 5.8631960150287705 1.3697172092425545 12.737428221443892 0 1 0
2425 1 10.252561019538232 2.064738295948538 13.742038157015383 1 1 0
806 1 8.420491288719479 2.3014389521365604 12.092902967987383 0 1 1
2029 1 12.452743930452149 2.5553498995786854 12.182185162184535 0 0 0
2410 1 11.544772041714275 1.2563972679775945 7.367589252199552 1 1 0
2445 1 2.635356040713039 4.456841437520036 12.852888863781253 1 1 0
1570 1 4.384705078044759 5.13452696240713 10.692628762429136 0 1 0
1967 1 11.019040262265944 4.616998313083279 11.35350806417553 1 0 0
236 1 10.19847590494239 6.577325717409558 13.236343902270196 0 0 1
332 1 4.940550428727285 13.218452977562992 -0.6556148439063433 0 0 1
1331 1 13.05357844043921 5.972525866511905 10.225712513895434 0 0 1
395 1 0.8989700875255899 6.947385792640137 12.622480827316842 0 0 0
2288 1 5.25742829745933 9.019723418836982 11.632242367430752 1 1 0
2669 1 6.578975028243721 6.267405751539764 11.124056374741373 1 1 0
2 1 8.624730414420945 7.437319921244807 9.376611468264553 0 0 0
280 1 10.286930570177626 9.598249329683554 10.14199964441451 0 0 1
1675 1 12.402723453894117 8.14266119307017 11.961043942572342 0 0 0
542 1 14.96593274705307 9.158097101668577 12.460865455778256 0 1 0
608 1 11.134391360422912 10.7510394429706 13.485058632344073 0 0 0
45 1 13.839126367709191 12.308896793697471 10.161630750219649 0 0 0
1926 1 5.246645788383542 1.8270398813236954 0.5597265153473266 1 0 0
752 1 1.105747547421728 11.284252485519504 11.827907226705511 0 1 1
171 1 4.5250849778379205 13.926222980009285 11.201599302255405 0 0 0
7 1 9.0243134176598 13.987088173104905 10.144478132437213 0 0 0
1815 1 9.824423175466292 13.181131892397746 13.781099746136015 1 0 0
726 1 13.954808773592946 23.37393479905656 16.379714811494416 0 0 1
767 1 3.726064239269201 16.313233804895322 9.678555040380001 0 1 1
66 1 4.026359249758394 17.61626889219791 12.134354126028892 0 0 0
1673 1 8.389813476163598 17.09410246557042 8.752458499642605 0 0 1
321 1 9.169495750959216 16.81875035017579 11.658328743001517 0 0 0
1209 1 13.50717714938894 16.83778101335875 10.967330685897132 0 0 0
334 1 11.311238681895395 17.69967644184527 13.434284653688056 0 0 0
708 1 16.074965870294992 16.13558088019316 9.753077661377668 0 1 0
1803 1 1.2336716662982332 19.469779948985202 10.143610705644228 1 0 0
107 1 3.59932177481612 20.67433771102958 10.903628669038447 0 0 0
1936 1 8.852580444123646 21.321369222204147 9.298249180676732 1 0 0
376 1 14.34563457694794 21.1827542018155 10.262420213718661 0 0 0
2632 1 15.90765612307602 20.497100862126228 12.31870368525164 0 0 0
2357 1 1.0891988701054627 12.675542790804588 4.779493305408986 1 1 0
356 1 3.685195010604729 22.878870673393173 12.789866108343029 0 0 0
1685 1 11.701130153211528 22.502928917961746 13.200573988005878 0 0 0
564 1 12.458117172039273 22.995814497429517 10.674557079104815 0 0 0
2658 1 16.37308878670512 7.507577549145743 6.608152772963397 1 1 0
211 1 4.331536653142706 3.252217588803257 14.50253581586737 0 0 0
170 1 7.877565403072946 23.82407827322895 13.622128932583719 0 0 0
1423 1 14.513901968207902 1.8892455920100324 14.062568242589231 0 1 0
172 1 1.3684095598718038 0.2848936389449964 7.550730519710922 0 0 0
1861 1 6.37387089070299 5.007207660015417 15.225554696473294 1 0 0
1844 1 8.866366091112386 3.5242326943047995 15.84654043372148 1 0 0
882 1 7.184678333066964 7.231469746651041 13.741285578832764 0 1 1
306 1 11.372902816428486 4.9742929767393695 15.225454626392947 0 0 0
401 1 14.157113427397396 4.176226398934298 15.81598424111897 0 0 0
2544 1 2.806657060423657 7.356388052113859 15.934545601630417 1 1 0
698 1 0.4308231436754577 14.399936629515464 13.41852278105839 0 0 0
355 1 5.188008862865692 8.90917954031193 15.000600402839767 0 0 0
1065 1 8.726517704871853 9.391941958055103 14.210343763301564 0 0 0
1113 1 15.426095094294402 8.851663421731857 15.261863738199644 0 0 0
2414 1 1.9196048957321317 3.9673153868907924 -0.28556177737267574 1 1 0
1781 1 3.9632288623033087 11.901380428732327 13.461366195917904 1 0 0
1793 1 6.830691299225606 11.097938713988668 12.937008556583436 1 0 0
2314 1 7.069478293666781 14.483403327610928 12.186016237340661 1 1 0
711 1 13.445854444264338 10.717055208567366 15.347472451145244 0 1 0
233 1 3.0914108782296457 15.027232403474475 13.355226413858055 0 0 1
1043 1 4.537184452446452 11.563791737652407 16.44557203335629 0 0 0
761 1 7.246499274051581 13.596714432240077 15.00213277245078 0 0 0
17 1 15.87663608501851 4.950856245825116 7.825221269063166 0 0 0
2114 1 12.099602232060217 14.834068536198592 13.812295167407306 1 0 0
1150 1 14.281329807256714 13.655738952761816 15.044237165946504 0 0 0
1847 1 15.704842875255153 5.207745869037818 10.58747860953197 0 0 0
1850 1 6.623875563343513 17.473764225791676 12.818091393164966 1 0 0
59 1 7.843097400140239 19.719873864993097 14.299134771955153 0 0 0
641 1 9.511056272097079 17.970494061092985 15.742517692903343 0 0 0
1831 1 15.899851286823647 17.48856580753315 12.687464421228665 0 0 0
774 1 0.8321939523341182 18.7940647857458 15.33487169839297 0 0 1
1842 1 5.185786590273567 19.46792952660095 15.810966307538656 1 0 0
2292 1 3.1004321927160308 20.062678722446936 13.98699843810427 1 0 0
981 1 9.35393002543753 21.36769356841586 12.212762150862936 0 0 0
1358 1 13.98006789483659 21.37801217050866 14.56130530495434 0 0 0
552 1 13.911086663727284 18.711808093538135 14.555856422080895 0 0 0
41 1 2.416167782980145 22.743579538150534 15.281748944977888 0 0 0
2460 1 0.2000047474179876 9.776592959153637 1.019354300874385 1 1 0
539 1 6.44908049352886 22.552316598549236 11.657773251548294 0 0 0
1047 1 5.38498172113105 23.835936745626423 16.723932088864444 0 0 0
2421 1 16.304634598758728 9.279733210642437 8.625935190900478 0 1 0
527 1 7.304201104728877 24.020267554239773 6.646467534784951 0 0 0
1734 1 2.8675154879413514 0.6121035280387528 16.324172528897336 1 1 0
77 1 14.444889393792424 6.614115964626776 16.706652936209597 0 0 0
1068 1 8.389866089957575 9.691350700509 16.79665935647828 0 0 -1
529 1 11.167137494299592 4.032219716196552 -0.6053746892547807 0 1 0
1458 1 3.3605709186824653 19.95384523104436 -0.6004624221039521 0 0 0
2006 1 0.6311107165972268 3.945538010678631 20.958086882317392 1 0 0
1383 1 12.286837900748875 23.68500438962648 33.174655413929806 0 0 -1
2422 1 1.365038817122112 0.5182822557916092 24.14285211948503 1 1 -1
368 1 8.805906787329802 2.5827405617069914 27.013602375858238 0 0 0
29 1 14.654946419236353 2.778776611204308 18.18647792203426 0 0 0
1950 1 6.971796697040127 0.5804374403737032 28.54465761804747 1 0 0
2026 1 1.858263616471966 1.461452854799424 26.91932350048256 1 0 0
778 1 5.426405722886611 4.704685720289163 19.625670693252474 0 1 0
98 1 7.842586093183293 3.970697812639775 20.774869639379265 0 0 0
1622 1 10.273770263290896 3.3399243539214214 19.06674140527741 0 1 0
2396 1 2.027422466296345 22.772877343042783 20.77639293631721 1 0 0
2138 1 2.211243175230467 23.7554535172461 25.184578126713042 1 0 0
117 1 13.565166389531312 0.2204642795872609 32.91244813549671 0 0 -1
235 1 4.846506236093723 8.355375620099347 19.842214489529972 0 0 0
1519 1 8.255243772073646 7.435481851362581 18.35531248536851 0 1 0
2272 1 0.6865612576185183 20.591829520830785 25.20967865114412 1 1 0
2111 1 12.40304884887975 7.747372823956004 17.888279990946216 1 0 0
911 1 12.932226211999481 8.430275978383012 20.497762129272814 0 0 -1
895 1 3.336180144658495 13.094464854845397 20.18935727865478 1 0 0
991 1 2.356789182667841 11.552866632449646 18.306956151554825 1 0 0
2054 1 6.113320630706423 12.390741599386539 20.290099987874786 1 0 0
110 1 14.705460484513731 18.246638153132444 17.2836968196528 0 0 0
1475 1 11.296672413292479 21.26365442911067 32.174112400537126 0 0 -1
2420 1 0.21049237933111184 1.304417405835376 31.535145905855646 1 1 -1
803 1 4.209330756325485 3.0065260055377276 31.394286327048714 0 0 -1
1843 1 2.738373680142115 15.354278656357234 18.547479743179604 1 0 0
1269 1 16.176176055431924 12.865199399200373 27.849490258849833 0 0 0
2501 1 13.250368043989566 15.896502669711698 18.157061097137607 0 0 0
2132 1 13.7827627479103 13.285278808920026 19.338400256258204 1 0 0
96 1 2.767601861298761 17.59469458202293 20.417477655452807 0 0 -1
517 1 7.733824652471992 1.8436594039677845 17.822169537771888 0 1 -1
872 1 6.279427947554916 3.833265472905966 26.014837595736726 0 1 -1
1557 1 8.263773976678506 15.956869380918505 18.525298269861555 0 0 0
329 1 11.355645506696074 16.491065288888286 20.213386141932308 0 0 0
2192 1 8.461145894052963 0.26395620919317564 25.335252215687564 1 0 0
1893 1 1.8077366284189504 19.352557231081846 18.106178001378698 1 0 0
2219 1 2.2609443564413505 8.864922754218481 18.29040625824367 1 0 1
2088 1 6.098002325456625 17.48862049873585 19.49547082231433 1 0 0
1356 1 10.042956544337253 18.549851753199516 18.72100607743941 0 0 0
1128 1 15.087127893576524 20.187517387859216 19.315513341160162 0 0 0
951 1 15.890754020693413 14.37918896060569 17.0609163033535 0 0 -1
1996 1 4.1785129648065364 21.202379280137407 17.630990000755368 1 0 0
241 1 4.691161069141709 2.646070713941226 17.741091237613656 0 0 0
682 1 10.446150071402124 21.49495577392824 18.872009131019528 0 0 0
1430 1 13.308961291897234 22.325617684250417 18.889224256186502 0 0 0
1592 1 0.6752791793956646 21.880073501465617 18.018927146332263 1 0 0
2198 1 5.475078781924614 1.3043007624327754 23.515219115720235 1 0 0
924 1 4.611540419927417 1.5523262695202136 20.845969018097644 0 0 0
23 1 7.888806609084772 3.02457112416881 23.652018157088715 0 0 0
191 1 10.816132905005418 2.3523978506995413 24.5074288983575 0 0 0
178 1 12.503262831637771 1.9888424812461798 19.959029605995006 0 0 0
585 1 13.016209807395958 16.2429806631016 34.58301420524238 0 1 0
1214 1 2.975459019542711 4.9389731220242234 24.216028591397382 0 0 0
100 1 3.025941195080425 5.013938041331329 21.336503688431247 0 0 0
308 1 11.887510718329418 3.8819468542775897 22.1580286846139 0 0 0
1081 1 8.491842630642344 6.531405268709865 22.235245376696792 0 0 -1
2017 1 14.163294006663964 4.299779530018177 23.77091118021479 1 0 0
134 1 2.6856711734327545 7.839942705403883 21.356165013369107 0 0 0
1089 1 5.73516271074539 10.314116452746026 22.108535966322865 0 0 0
1191 1 2.756327684685187 9.067283882680112 23.922591900619263 0 0 0
80 1 8.088197467402638 8.886585191103904 20.877284838103208 0 0 0
877 1 10.757949401947295 10.229187163000828 21.360932347953202 0 1 0
128 1 15.25041647399423 7.3006549778241565 23.086660432438027 0 0 0
2129 1 1.7300525628266552 12.270436376438166 22.301557440452036 1 0 0
1315 1 3.802954128783038 11.784789292822602 23.826207515176552 0 0 0
599 1 7.6069632054210805 12.58286809363769 23.358093672602546 0 1 -1
1629 1 11.178721722937661 11.95070484639512 19.489796556491665 0 1 0
1545 1 11.729344198958323 10.86673991211759 23.68534103244287 0 0 0
1309 1 11.18618793062919 0.18723274504531398 29.389376532058446 0 0 0
1197 1 15.040597049146879 10.684383922334455 23.180068742354567 0 0 0
1678 1 5.220069879745609 13.996670039210535 24.204714139527958 1 0 0
1961 1 8.687105742057872 13.477290880055918 19.878511376560933 1 0 0
2208 1 12.048774537818373 13.792482125679516 23.91065245273066 1 0 0
1038 1 14.101765621734666 13.017084540525461 22.16681035090767 0 0 0
1194 1 15.743474602347918 15.21296662147899 21.839239272752472 0 0 0
2055 1 6.429521173657344 15.414851417332502 22.069137000720918 1 0 0
447 1 4.3047356339715845 16.84089889632872 22.55649099520858 0 1 0
1121 1 10.10754827855715 14.843176424892157 21.802802437082317 0 0 0
414 1 8.55308109863236 16.192346098200534 23.501562253406078 0 0 0
187 1 0.4691900233765448 6.104273762623437 28.44841560367682 0 0 0
1117 1 3.320144891431236 20.30662925437364 22.03249006227124 0 0 0
154 1 8.012326556487832 19.482802090735014 20.379278520086707 0 0 0
657 1 8.432630843470031 19.12434090766461 23.20297469667175 0 0 0
1448 1 12.02545442375727 20.743748648562345 22.211418452149097 0 0 0
371 1 12.88046166478305 17.9997569585728 21.978597043334368 0 0 0
1010 1 0.00492409616650491 13.820944800552793 26.16160485499704 1 0 -1
2598 1 5.352034514432347 20.61057027063682 20.038707385852582 1 0 1
1319 1 5.9310650693286275 23.641919453369805 23.093874025604784 1 0 0
327 1 7.340750638678437 22.876971085688126 20.766436495238413 0 0 0
177 1 10.314670087737957 22.659592162184907 21.375934794431632 0 0 -1
591 1 14.028250093648008 22.03203427335671 23.668201400203 0 0 0
1312 1 13.644239519217367 23.785466434513268 21.24587371736518 0 0 0
2559 1 0.7608536024741044 1.5006820439479776 19.318484452060563 1 1 0
2133 1 12.695507840431777 3.1882410357792463 26.344168374558897 1 0 1
615 1 14.011579571630598 5.780951771983451 26.78726833511155 0 1 -1
1085 1 14.603006888806528 1.3028841305336378 26.19025551417437 0 0 -1
573 1 0.35156251062928845 5.646179833505669 24.7805439032382 0 0 -1
1840 1 4.018433522193842 2.7437825543979306 25.342118064504024 1 0 0
165 1 4.6433929520699575 7.081524616625664 25.225929185556023 0 0 -1
307 1 7.378252430655982 6.023773895930729 24.83067961621072 0 0 0
85 1 4.997122278083044 16.859717307878757 17.265324850010916 0 0 0
53 1 1.2458943897405406 8.099110772025194 26.140681265214965 0 0 0
393 1 5.455122171442647 10.894165267159533 28.309203155277753 0 0 0
2526 1 9.721128768019259 6.759909205004329 26.201080617352275 0 1 0
2657 1 8.533869351187068 9.178547161147351 26.8622718662809 1 1 0
469 1 11.235547935466395 6.5667607416282685 22.32510938026999 0 1 -1
1182 1 12.862439400506736 8.272287783749986 23.952113545457763 0 0 0
1612 1 0.20476058978440903 15.024931202173965 17.709311302735802 1 0 0
2571 1 2.3041804642412194 12.539388869006897 26.307652810965692 1 0 0
48 1 7.689109272788424 12.914335497290597 28.30206461902803 0 0 0
897 1 9.506609069161383 11.535034971465237 25.066484501391788 0 0 0
524 1 9.440682448323658 10.743557205430623 29.129126964403632 0 1 0
2215 1 14.27050425816398 10.928052259884812 25.818655549514904 0 0 0
2230 1 3.210757979721136 15.011563369956244 27.64946908770168 1 0 0
555 1 5.7964388366833495 14.692049140677716 27.224196203909734 0 1 0
279 1 9.274822492698044 14.37190930725595 25.991446375813986 0 0 0
980 1 11.31890327282156 14.852117761903859 27.634189928417353 0 0 -1
147 1 13.812703900567728 13.898408682374134 26.53480432467233 0 0 0
2119 1 1.9664226210043363 17.46224441161899 26.351600545180002 1 0 0
272 1 2.8722898991406693 15.491648405528329 24.425815903203343 0 0 0
837 1 3.760453805685263 19.810027627036366 25.87356504150319 0 0 0
1681 1 7.21834802149394 16.8544767081713 25.926072187599154 0 0 0
1108 1 11.882265714955492 17.702349035456145 27.153170064703826 0 0 -1
1566 1 12.738527617483046 16.943065091243085 24.251297498578914 0 0 0
1714 1 15.203821094402581 15.508442689148943 24.637361757019292 0 0 0
1100 1 5.75773032361108 6.704493924875768 17.422245994487362 1 0 0
2542 1 5.602485825658632 18.65375233861976 24.085745661011234 1 0 0
1583 1 8.515650109986643 19.69042805098676 26.503613437657858 0 0 -1
163 1 11.01351323384398 19.33628512375367 24.564844218893416 0 0 0
1849 1 11.994554814844827 18.649325071162778 34.55876807559645 1 0 -1
374 1 2.1403339357428246 22.371720327530074 27.668909745909453 0 0 0
467 1 4.1110902553920505 22.035094055957444 23.879664019707835 0 0 0
1902 1 7.820807045760918 23.640228921943844 25.376479190300284 1 0 0
773 1 10.491700975876398 22.11135868422508 26.01303107328155 0 0 0
849 1 13.348906082696361 23.00128543743471 25.91315347735184 0 0 0
240 1 5.032928999074924 4.360152758670326 28.532051827405308 0 0 0
636 1 11.47435181750737 2.9596809477787347 28.93069678482086 0 1 -1
2368 1 14.742696213136504 3.2918535971547027 30.572409257765013 0 1 0
768 1 14.206203071473563 0.9650967781734989 29.05457136626024 0 1 0
305 1 3.717042536595539 6.801332400741608 28.22823397926657 0 0 0
357 1 1.0578306591990008 5.810988185223762 31.08968286879871 0 0 0
1101 1 7.259564993590823 5.089690738487898 30.00477787652014 0 0 -1
862 1 9.466302716364817 5.148481916537166 28.404028696112178 0 1 0
1531 1 10.494053824521611 6.448012393717002 31.229444309398158 0 1 0
1322 1 12.391147458498537 8.228170299632968 26.45275677010357 0 0 0
796 1 6.066172721592288 8.339166139756395 27.808159388260393 0 1 0
78 1 6.262672612748395 7.770668607690178 30.588018927501885 0 0 0
769 1 8.342431490364664 9.785019770067423 31.44569616317877 0 1 0
1943 1 0.5017230222816002 16.921112829290706 21.82176634980321 1 0 0
1749 1 11.661498117495828 8.874183550969121 30.977459806380615 0 1 0
1289 1 2.389958330825188 10.247195984122136 28.09167583833906 1 0 0
324 1 5.1073820112849315 10.98985250258005 30.99442671671625 0 0 0
1174 1 12.783706018887093 10.010819412626674 28.72594870992189 0 0 0
950 1 11.921554682348225 12.655785143398724 29.400469986668053 0 0 0
1767 1 15.368802974707716 11.02761851081258 29.94036602057652 0 0 0
733 1 6.674478745507635 13.580168952646353 31.10462046049377 0 0 0
328 1 5.13484433619697 15.951129986632257 31.77791761520664 0 0 0
179 1 9.509459377561285 14.250836596862896 31.66499886864773 0 0 -1
1434 1 10.73613769698637 16.17680023046635 30.0799243903248 0 0 0
1705 1 13.835871200319085 13.483825022872537 31.47005038770098 0 0 0
1987 1 3.051287603254915 16.218041532135523 30.027076818918705 1 0 -1
1720 1 2.364680514450428 18.74830792582879 30.71894918665206 1 0 0
2102 1 5.823188823382121 19.520794166265343 27.854995140145384 1 0 0
265 1 5.82463042670487 18.20012483001997 30.22389680515889 0 0 0
853 1 8.332787627234946 17.76936157529154 30.870340351037356 0 0 0
137 1 14.93633744345562 17.75836546203802 30.733827925253415 0 0 -1
270 1 1.1579210427778839 19.640638504008216 27.978827865348197 0 0 0
582 1 9.948553142561774 19.067677120949423 28.854772142393937 0 0 0
1099 1 14.565156837204992 18.461955790342692 27.95629233464616 0 0 -1
809 1 15.928639544926101 0.45935547682003086 22.055543335213446 0 1 0
492 1 4.601126715433213 22.96432860024406 31.69427296816675 0 0 0
496 1 4.546821413159786 23.377862619849857 28.84734484458194 0 0 0
2485 1 7.061972547415564 22.115739144924344 27.590138175296136 1 0 0
35 1 8.598014404749375 23.36416679694137 29.446663243640174 0 0 -1
1799 1 10.854776213961387 21.921785119560848 28.99353225817068 1 0 0
1740 1 7.893951786492678 0.6594694998414486 20.462381970832244 0 1 0
69 1 14.815302488783102 21.319574148451945 27.856678986967943 0 0 0
634 1 1.520310713984586 3.4521408744604414 32.55177877372177 0 1 -1
403 1 9.631532836955651 15.204425359972582 34.11059397278259 0 0 0
204 1 15.805610261896595 5.901192104552496 29.207473842480905 0 0 0
314 1 4.753929472047406 0.7645806182274626 32.934312958776694 0 0 0
765 1 9.983697774294612 3.0250629596480696 31.956160810758117 0 1 0
2309 1 12.34512255067789 4.572797115669574 31.320272000991974 1 1 -1
320 1 14.99845638245647 20.282316784288387 31.6397377764666 0 0 0
1994 1 2.957232750856569 24.42546763398017 18.297422896811426 1 0 0
381 1 14.003973599485219 20.302153442527413 34.145690053319974 0 0 0
681 1 8.865915258102222 0.3632810631646589 30.592091979146225 0 1 0
640 1 7.161440806579664 3.802624618329906 32.437715187648934 0 1 0
2415 1 9.030728169070816 6.114267011410702 33.71246889488967 1 1 -1
1134 1 14.015702532678834 4.356437608955883 34.01859576509095 0 0 0
824 1 7.219624305289067 23.30069562268421 31.863903015176664 0 1 0
92 1 3.258358128124989 8.599122523066693 30.25343767025791 0 0 -1
341 1 5.993494013896735 7.056784382099028 33.43032545258766 0 0 0
160 1 2.3319999754944405 7.575624586731684 32.68625816722181 0 0 -1
1304 1 15.067491741157827 7.1619413805712355 34.27739183895428 0 0 0
12 1 14.347183283904396 7.65582930568151 31.312222345274186 0 0 -1
2152 1 1.3833927973245885 9.816775094565973 33.85948785626055 1 0 0
242 1 2.354393629482915 11.871766102305337 31.231489726258573 0 0 0
141 1 7.27614488409147 12.003573578675127 33.341022430236755 0 0 -1
705 1 10.714062360377472 11.791578502341755 32.23085280317892 0 0 0
1316 1 0.29261058106451937 14.44433887266249 23.38251648199791 1 0 0
219 1 13.312083154224204 9.332047315946417 33.71414799380313 0 0 0
2165 1 13.180578931852596 12.212428733095276 33.758160426689585 1 0 0
979 1 9.414302779834733 23.764173729651986 17.561100176741736 0 0 0
742 1 10.500268397023282 5.810742974086485 17.71608890198048 0 1 0
1928 1 1.4251551648475436 14.428708280147967 31.049483209691772 1 0 -1
2031 1 6.984122365415395 20.961375963796932 33.65768613426457 0 0 0
747 1 2.072778380806056 0.18518722958548073 21.374109218754768 0 1 0
598 1 11.046510094418137 1.1257111702584544 34.02453691671643 0 1 -1
335 1 15.912601477636963 6.829780473168993 19.30953807844619 0 0 0
2591 1 0.21364188019908886 7.861330263272599 20.561291838188723 1 1 0
1905 1 9.142738208765914 19.347315390372373 33.130700407656995 1 0 -1
623 1 12.977348101384683 16.09517517971367 31.531351194970316 0 0 0
343 1 13.292795434326566 22.364836297613255 29.940723556460448 0 0 0
6 1 15.415812570283164 2.427420084240161 32.743766741350825 0 0 0
499 1 0.8291232123018488 18.54365447759224 33.07032256253854 0 0 0
1279 1 16.2491384896969 17.582375646688938 25.804165819587997 0 0 0
72 1 4.45981077158247 20.18514668112537 31.954683798221375 0 0 0