LAMMPS data file via write_data, version 29 Oct 2020, timestep = 150000

4560 atoms
2 atom types

0.0 49.22 xlo xhi
0.0 49.019635930410494 ylo yhi
0.7224684514484068 33.21753154855239 zlo zhi

Masses

1 18.015
2 12.01

Atoms # atomic

96 2 0.0 2.8417180249513345 2.8765503782987363 0 0 0
98 2 0.0 0.0 2.8765503782987363 0 0 0
100 2 1.2305000000000001 0.7104295062378347 2.8765503782987363 0 0 0
107 2 1.2305000000000001 2.1312885187135 2.8765503782987363 0 0 0
109 2 2.4610000000000003 2.8417180249513345 2.8765503782987363 0 0 0
111 2 2.4610000000000003 0.0 2.8765503782987363 0 0 0
113 2 3.6915000000000004 0.7104295062378347 2.8765503782987363 0 0 0
128 2 3.6914999999999996 2.1312885187135 2.8765503782987363 0 0 0
130 2 4.922000000000001 2.841718024951333 2.8765503782987363 0 0 0
132 2 4.922000000000001 0.0 2.8765503782987363 0 0 0
134 2 6.1525 0.7104295062378341 2.8765503782987363 0 0 0
157 2 6.1525 2.131288518713499 2.8765503782987363 0 0 0
159 2 7.382999999999999 2.8417180249513345 2.8765503782987363 0 0 0
161 2 7.382999999999999 0.0 2.8765503782987363 0 0 0
163 2 8.613499999999998 0.7104295062378341 2.8765503782987363 0 0 0
194 2 8.613499999999998 2.1312885187135002 2.8765503782987363 0 0 0
196 2 9.844000000000001 2.841718024951333 2.8765503782987363 0 0 0
198 2 9.844000000000001 0.0 2.8765503782987363 0 0 0
200 2 11.074500000000002 0.7104295062378333 2.8765503782987363 0 0 0
239 2 11.074500000000002 2.1312885187135002 2.8765503782987363 0 0 0
241 2 12.305 2.841718024951333 2.8765503782987363 0 0 0
243 2 12.305 0.0 2.8765503782987363 0 0 0
245 2 13.5355 0.7104295062378352 2.8765503782987363 0 0 0
286 2 13.5355 2.1312885187134984 2.8765503782987363 0 0 0
288 2 14.765999999999998 2.841718024951335 2.8765503782987363 0 0 0
290 2 14.765999999999998 0.0 2.8765503782987363 0 0 0
292 2 15.996500000000003 0.7104295062378352 2.8765503782987363 0 0 0
333 2 15.996500000000003 2.1312885187135002 2.8765503782987363 0 0 0
103 2 0.0 4.262577037427 2.8765503782987363 0 0 0
105 2 1.2305000000000001 4.973006543664834 2.8765503782987363 0 0 0
120 2 1.2305000000000001 6.393865556140498 2.8765503782987363 0 0 0
124 2 2.4610000000000003 4.262577037427 2.8765503782987363 0 0 0
126 2 3.6914999999999996 4.973006543664834 2.8765503782987363 0 0 0
149 2 3.6914999999999996 6.393865556140498 2.8765503782987363 0 0 0
153 2 4.922000000000001 4.262577037426998 2.8765503782987363 0 0 0
155 2 6.1525 4.973006543664834 2.8765503782987363 0 0 0
186 2 6.1525 6.393865556140498 2.8765503782987363 0 0 0
190 2 7.382999999999999 4.262577037427 2.8765503782987363 0 0 0
192 2 8.6135 4.973006543664834 2.8765503782987363 0 0 0
231 2 8.6135 6.393865556140498 2.8765503782987363 0 0 0
235 2 9.844000000000001 4.2625770374270004 2.8765503782987363 0 0 0
237 2 11.074500000000002 4.973006543664834 2.8765503782987363 0 0 0
278 2 11.074500000000002 6.393865556140498 2.8765503782987363 0 0 0
282 2 12.305 4.262577037426998 2.8765503782987363 0 0 0
284 2 13.5355 4.973006543664834 2.8765503782987363 0 0 0
325 2 13.5355 6.393865556140498 2.8765503782987363 0 0 0
329 2 14.766000000000002 4.262577037426998 2.8765503782987363 0 0 0
331 2 15.996499999999997 4.973006543664834 2.8765503782987363 0 0 0
367 2 15.996500000000003 6.393865556140498 2.8765503782987363 0 0 0
101 2 0.0 7.104295062378334 2.8765503782987363 0 0 0
116 2 0.0 8.525154074854 2.8765503782987363 0 0 0
118 2 1.2305000000000001 9.235583581091834 2.8765503782987363 0 0 0
122 2 2.4610000000000003 7.104295062378334 2.8765503782987363 0 0 0
145 2 2.4610000000000003 8.525154074854 2.8765503782987363 0 0 0
147 2 3.6915000000000004 9.235583581091834 2.8765503782987363 0 0 0
151 2 4.922000000000001 7.104295062378334 2.8765503782987363 0 0 0
182 2 4.922000000000001 8.525154074854 2.8765503782987363 0 0 0
184 2 6.1525 9.235583581091834 2.8765503782987363 0 0 0
188 2 7.383000000000001 7.104295062378334 2.8765503782987363 0 0 0
227 2 7.383000000000001 8.525154074854 2.8765503782987363 0 0 0
229 2 8.613499999999998 9.235583581091834 2.8765503782987363 0 0 0
233 2 9.844000000000001 7.104295062378334 2.8765503782987363 0 0 0
274 2 9.844000000000001 8.525154074853996 2.8765503782987363 0 0 0
276 2 11.074500000000002 9.235583581091834 2.8765503782987363 0 0 0
280 2 12.305 7.104295062378334 2.8765503782987363 0 0 0
321 2 12.305 8.525154074854 2.8765503782987363 0 0 0
323 2 13.5355 9.235583581091829 2.8765503782987363 0 0 0
327 2 14.765999999999998 7.104295062378331 2.8765503782987363 0 0 0
363 2 14.765999999999998 8.525154074854 2.8765503782987363 0 0 0
365 2 15.996500000000003 9.235583581091836 2.8765503782987363 0 0 0
114 2 0.0 11.366872099805333 2.8765503782987363 0 0 0
137 2 0.0 12.787731112280996 2.8765503782987363 0 0 0
139 2 1.2305000000000001 13.49816061851883 2.8765503782987363 0 0 0
141 2 1.2305000000000001 10.656442593567498 2.8765503782987363 0 0 0
143 2 2.4610000000000003 11.366872099805333 2.8765503782987363 0 0 0
174 2 2.4610000000000003 12.787731112280996 2.8765503782987363 0 0 0
176 2 3.6915000000000004 13.49816061851883 2.8765503782987363 0 0 0
178 2 3.6914999999999996 10.6564425935675 2.8765503782987363 0 0 0
180 2 4.922000000000001 11.366872099805333 2.8765503782987363 0 0 0
219 2 4.922000000000001 12.787731112280996 2.8765503782987363 0 0 0
221 2 6.152499999999999 13.49816061851883 2.8765503782987363 0 0 0
223 2 6.1525 10.6564425935675 2.8765503782987363 0 0 0
225 2 7.382999999999999 11.366872099805333 2.8765503782987363 0 0 0
266 2 7.382999999999999 12.787731112280996 2.8765503782987363 0 0 0
268 2 8.6135 13.498160618518835 2.8765503782987363 0 0 0
270 2 8.613499999999998 10.656442593567498 2.8765503782987363 0 0 0
272 2 9.844000000000001 11.366872099805333 2.8765503782987363 0 0 0
313 2 9.844000000000001 12.787731112280996 2.8765503782987363 0 0 0
315 2 11.074500000000002 13.49816061851883 2.8765503782987363 0 0 0
317 2 11.074500000000002 10.656442593567498 2.8765503782987363 0 0 0
319 2 12.304999999999998 11.366872099805333 2.8765503782987363 0 0 0
355 2 12.305 12.787731112280996 2.8765503782987363 0 0 0
357 2 13.5355 13.498160618518835 2.8765503782987363 0 0 0
359 2 13.5355 10.6564425935675 2.8765503782987363 0 0 0
361 2 14.765999999999998 11.366872099805333 2.8765503782987363 0 0 0
389 2 14.765999999999998 12.787731112280996 2.8765503782987363 0 0 0
391 2 15.996500000000003 13.498160618518835 2.8765503782987363 0 0 0
393 2 15.996499999999997 10.6564425935675 2.8765503782987363 0 0 0
135 2 0.0 15.629449137232333 2.8765503782987363 0 0 0
166 2 0.0 17.050308149708 2.8765503782987363 0 0 0
170 2 1.2305000000000001 14.919019630994494 2.8765503782987363 0 0 0
172 2 2.4610000000000003 15.629449137232328 2.8765503782987363 0 0 0
211 2 2.4610000000000003 17.050308149708 2.8765503782987363 0 0 0
215 2 3.6915000000000004 14.919019630994494 2.8765503782987363 0 0 0
217 2 4.922000000000001 15.629449137232333 2.8765503782987363 0 0 0
258 2 4.922000000000001 17.050308149708 2.8765503782987363 0 0 0
262 2 6.152499999999999 14.919019630994494 2.8765503782987363 0 0 0
264 2 7.382999999999999 15.629449137232333 2.8765503782987363 0 0 0
305 2 7.383000000000001 17.050308149708 2.8765503782987363 0 0 0
309 2 8.6135 14.919019630994494 2.8765503782987363 0 0 0
311 2 9.844000000000001 15.629449137232328 2.8765503782987363 0 0 0
347 2 9.844000000000001 17.050308149708 2.8765503782987363 0 0 0
351 2 11.074500000000002 14.919019630994494 2.8765503782987363 0 0 0
381 2 12.304999999999998 17.050308149708 2.8765503782987363 0 0 0
353 2 12.305 15.629449137232333 2.8765503782987363 0 0 0
385 2 13.5355 14.919019630994494 2.8765503782987363 0 0 0
387 2 14.766000000000002 15.629449137232333 2.8765503782987363 0 0 0
407 2 14.766000000000002 17.050308149708 2.8765503782987363 0 0 0
411 2 15.996500000000003 14.9190196309945 2.8765503782987363 0 0 0
164 2 0.0 19.89202617465933 2.8765503782987363 0 0 0
168 2 1.2305000000000001 17.76073765594583 2.8765503782987363 0 0 0
207 2 1.2305000000000001 19.181596668421495 2.8765503782987363 0 0 0
209 2 2.4610000000000003 19.89202617465933 2.8765503782987363 0 0 0
213 2 3.6914999999999996 17.76073765594583 2.8765503782987363 0 0 0
254 2 3.6914999999999996 19.181596668421495 2.8765503782987363 0 0 0
256 2 4.922000000000001 19.89202617465933 2.8765503782987363 0 0 0
260 2 6.1525 17.76073765594583 2.8765503782987363 0 0 0
301 2 6.1525 19.181596668421495 2.8765503782987363 0 0 0
303 2 7.382999999999999 19.89202617465933 2.8765503782987363 0 0 0
307 2 8.613499999999998 17.76073765594583 2.8765503782987363 0 0 0
343 2 8.6135 19.181596668421495 2.8765503782987363 0 0 0
345 2 9.844000000000001 19.892026174659335 2.8765503782987363 0 0 0
349 2 11.074500000000002 17.760737655945835 2.8765503782987363 0 0 0
377 2 11.074500000000002 19.181596668421495 2.8765503782987363 0 0 0
379 2 12.305000000000005 19.892026174659335 2.8765503782987363 0 0 0
383 2 13.5355 17.760737655945835 2.8765503782987363 0 0 0
403 2 13.5355 19.181596668421495 2.8765503782987363 0 0 0
405 2 14.766000000000002 19.89202617465933 2.8765503782987363 0 0 0
409 2 15.996500000000003 17.76073765594583 2.8765503782987363 0 0 0
421 2 15.996500000000003 19.181596668421495 2.8765503782987363 0 0 0
201 2 0.0 24.154603212086325 2.8765503782987363 0 0 0
203 2 0.0 21.312885187135 2.8765503782987363 0 0 0
205 2 1.2304999999999993 22.023314693372832 2.8765503782987363 0 0 0
246 2 1.2304999999999993 23.4441737058485 2.8765503782987363 0 0 0
248 2 2.4610000000000003 24.154603212086325 2.8765503782987363 0 0 0
250 2 2.4610000000000003 21.312885187134995 2.8765503782987363 0 0 0
252 2 3.6914999999999996 22.023314693372832 2.8765503782987363 0 0 0
293 2 3.6915000000000004 23.4441737058485 2.8765503782987363 0 0 0
295 2 4.922000000000001 24.154603212086325 2.8765503782987363 0 0 0
297 2 4.922000000000001 21.312885187134995 2.8765503782987363 0 0 0
299 2 6.152499999999999 22.023314693372832 2.8765503782987363 0 0 0
335 2 6.1525 23.4441737058485 2.8765503782987363 0 0 0
337 2 7.383000000000001 24.154603212086336 2.8765503782987363 0 0 0
339 2 7.382999999999999 21.312885187135 2.8765503782987363 0 0 0
341 2 8.6135 22.023314693372832 2.8765503782987363 0 0 0
369 2 8.613499999999998 23.4441737058485 2.8765503782987363 0 0 0
371 2 9.844000000000001 24.154603212086336 2.8765503782987363 0 0 0
373 2 9.844000000000001 21.312885187135 2.8765503782987363 0 0 0
375 2 11.074500000000002 22.023314693372832 2.8765503782987363 0 0 0
395 2 11.074500000000002 23.4441737058485 2.8765503782987363 0 0 0
397 2 12.305 24.154603212086325 2.8765503782987363 0 0 0
399 2 12.305 21.312885187135 2.8765503782987363 0 0 0
401 2 13.5355 22.023314693372832 2.8765503782987363 0 0 0
413 2 13.5355 23.4441737058485 2.8765503782987363 0 0 0
415 2 14.766000000000002 24.154603212086325 2.8765503782987363 0 0 0
417 2 14.765999999999998 21.312885187135 2.8765503782987363 0 0 0
419 2 15.996500000000003 22.023314693372832 2.8765503782987363 0 0 0
423 2 15.996499999999997 23.44417370584849 2.8765503782987363 0 0 0
97 2 0.0 1.420859012475665 5.96746975521536 0 0 0
99 2 0.0 0.0 5.96746975521536 0 0 0
108 2 1.2305000000000001 2.1312885187135 5.96746975521536 0 0 0
110 2 2.4610000000000003 1.420859012475665 5.96746975521536 0 0 0
112 2 2.4610000000000003 0.0 5.96746975521536 0 0 0
129 2 3.6914999999999996 2.1312885187135 5.96746975521536 0 0 0
131 2 4.922000000000001 1.420859012475665 5.96746975521536 0 0 0
133 2 4.922000000000001 0.0 5.96746975521536 0 0 0
158 2 6.1525 2.131288518713499 5.96746975521536 0 0 0
160 2 7.382999999999999 1.420859012475666 5.96746975521536 0 0 0
162 2 7.382999999999999 0.0 5.96746975521536 0 0 0
195 2 8.613499999999998 2.1312885187135002 5.96746975521536 0 0 0
197 2 9.844000000000001 1.420859012475666 5.96746975521536 0 0 0
199 2 9.844000000000001 0.0 5.96746975521536 0 0 0
240 2 11.074500000000002 2.1312885187135002 5.96746975521536 0 0 0
242 2 12.305 1.420859012475665 5.96746975521536 0 0 0
244 2 12.305 0.0 5.96746975521536 0 0 0
287 2 13.5355 2.1312885187134984 5.96746975521536 0 0 0
289 2 14.765999999999998 1.420859012475665 5.96746975521536 0 0 0
291 2 14.765999999999998 0.0 5.96746975521536 0 0 0
334 2 15.996500000000003 2.1312885187135002 5.96746975521536 0 0 0
102 2 0.0 5.683436049902664 5.96746975521536 0 0 0
104 2 0.0 4.262577037427 5.96746975521536 0 0 0
106 2 1.2305000000000001 3.5521475311891644 5.96746975521536 0 0 0
121 2 1.2305000000000001 6.393865556140498 5.96746975521536 0 0 0
123 2 2.4610000000000003 5.683436049902664 5.96746975521536 0 0 0
125 2 2.4610000000000003 4.262577037427 5.96746975521536 0 0 0
127 2 3.6914999999999996 3.5521475311891644 5.96746975521536 0 0 0
150 2 3.6914999999999996 6.393865556140498 5.96746975521536 0 0 0
152 2 4.922000000000001 5.683436049902664 5.96746975521536 0 0 0
154 2 4.922000000000001 4.262577037426998 5.96746975521536 0 0 0
156 2 6.1525 3.5521475311891644 5.96746975521536 0 0 0
187 2 6.1525 6.393865556140498 5.96746975521536 0 0 0
189 2 7.382999999999999 5.683436049902664 5.96746975521536 0 0 0
191 2 7.382999999999999 4.262577037427 5.96746975521536 0 0 0
193 2 8.613499999999998 3.5521475311891657 5.96746975521536 0 0 0
232 2 8.6135 6.393865556140498 5.96746975521536 0 0 0
234 2 9.844000000000001 5.683436049902664 5.96746975521536 0 0 0
236 2 9.844000000000001 4.2625770374270004 5.96746975521536 0 0 0
238 2 11.074500000000002 3.5521475311891644 5.96746975521536 0 0 0
279 2 11.074500000000002 6.393865556140498 5.96746975521536 0 0 0
281 2 12.305 5.683436049902664 5.96746975521536 0 0 0
283 2 12.305 4.262577037426998 5.96746975521536 0 0 0
285 2 13.5355 3.5521475311891644 5.96746975521536 0 0 0
326 2 13.5355 6.393865556140498 5.96746975521536 0 0 0
328 2 14.765999999999998 5.683436049902664 5.96746975521536 0 0 0
330 2 14.766000000000002 4.262577037426998 5.96746975521536 0 0 0
332 2 15.996499999999997 3.5521475311891644 5.96746975521536 0 0 0
368 2 15.996500000000003 6.393865556140498 5.96746975521536 0 0 0
115 2 0.0 9.946013087329664 5.96746975521536 0 0 0
117 2 0.0 8.525154074854 5.96746975521536 0 0 0
119 2 1.2305000000000001 7.814724568616164 5.96746975521536 0 0 0
144 2 2.4610000000000003 9.946013087329664 5.96746975521536 0 0 0
146 2 2.4610000000000003 8.525154074854 5.96746975521536 0 0 0
148 2 3.6914999999999996 7.814724568616164 5.96746975521536 0 0 0
181 2 4.922000000000001 9.946013087329664 5.96746975521536 0 0 0
183 2 4.922000000000001 8.525154074854 5.96746975521536 0 0 0
185 2 6.1525 7.814724568616164 5.96746975521536 0 0 0
226 2 7.383000000000001 9.946013087329664 5.96746975521536 0 0 0
228 2 7.383000000000001 8.525154074854 5.96746975521536 0 0 0
230 2 8.6135 7.814724568616164 5.96746975521536 0 0 0
273 2 9.844000000000001 9.946013087329664 5.96746975521536 0 0 0
275 2 9.844000000000001 8.525154074853996 5.96746975521536 0 0 0
277 2 11.074500000000002 7.814724568616164 5.96746975521536 0 0 0
320 2 12.305 9.946013087329664 5.96746975521536 0 0 0
322 2 12.305 8.525154074854 5.96746975521536 0 0 0
324 2 13.5355 7.814724568616164 5.96746975521536 0 0 0
362 2 14.765999999999998 9.946013087329659 5.96746975521536 0 0 0
364 2 14.765999999999998 8.525154074854 5.96746975521536 0 0 0
366 2 15.996499999999997 7.814724568616161 5.96746975521536 0 0 0
138 2 0.0 12.787731112280996 5.96746975521536 0 0 0
140 2 1.2305000000000001 12.077301606043163 5.96746975521536 0 0 0
142 2 1.2305000000000001 10.656442593567498 5.96746975521536 0 0 0
175 2 2.4610000000000003 12.787731112280996 5.96746975521536 0 0 0
177 2 3.6914999999999996 12.077301606043163 5.96746975521536 0 0 0
179 2 3.6914999999999996 10.6564425935675 5.96746975521536 0 0 0
220 2 4.922000000000001 12.787731112280996 5.96746975521536 0 0 0
222 2 6.1525 12.077301606043163 5.96746975521536 0 0 0
224 2 6.1525 10.6564425935675 5.96746975521536 0 0 0
267 2 7.382999999999999 12.787731112280996 5.96746975521536 0 0 0
269 2 8.6135 12.077301606043163 5.96746975521536 0 0 0
271 2 8.613499999999998 10.656442593567498 5.96746975521536 0 0 0
314 2 9.844000000000001 12.787731112280996 5.96746975521536 0 0 0
316 2 11.074500000000002 12.077301606043163 5.96746975521536 0 0 0
318 2 11.074500000000002 10.656442593567498 5.96746975521536 0 0 0
356 2 12.305 12.787731112280996 5.96746975521536 0 0 0
358 2 13.5355 12.07730160604316 5.96746975521536 0 0 0
360 2 13.5355 10.6564425935675 5.96746975521536 0 0 0
390 2 14.765999999999998 12.787731112280996 5.96746975521536 0 0 0
392 2 15.996499999999997 12.07730160604316 5.96746975521536 0 0 0
394 2 15.996499999999997 10.6564425935675 5.96746975521536 0 0 0
136 2 0.0 14.208590124756663 5.96746975521536 0 0 0
167 2 0.0 17.050308149708 5.96746975521536 0 0 0
169 2 1.2305000000000001 16.339878643470165 5.96746975521536 0 0 0
171 2 1.2305000000000001 14.919019630994494 5.96746975521536 0 0 0
173 2 2.4610000000000003 14.208590124756663 5.96746975521536 0 0 0
212 2 2.4610000000000003 17.050308149708 5.96746975521536 0 0 0
214 2 3.6915000000000004 16.339878643470165 5.96746975521536 0 0 0
216 2 3.6915000000000004 14.919019630994494 5.96746975521536 0 0 0
218 2 4.922000000000001 14.208590124756663 5.96746975521536 0 0 0
259 2 4.922000000000001 17.050308149708 5.96746975521536 0 0 0
261 2 6.1525 16.339878643470165 5.96746975521536 0 0 0
263 2 6.152499999999999 14.919019630994494 5.96746975521536 0 0 0
265 2 7.383000000000001 14.208590124756663 5.96746975521536 0 0 0
306 2 7.383000000000001 17.050308149708 5.96746975521536 0 0 0
308 2 8.613499999999998 16.339878643470165 5.96746975521536 0 0 0
310 2 8.6135 14.919019630994494 5.96746975521536 0 0 0
312 2 9.844000000000001 14.208590124756663 5.96746975521536 0 0 0
348 2 9.844000000000001 17.050308149708 5.96746975521536 0 0 0
350 2 11.074500000000002 16.33987864347016 5.96746975521536 0 0 0
352 2 11.074500000000002 14.919019630994494 5.96746975521536 0 0 0
354 2 12.304999999999998 14.208590124756658 5.96746975521536 0 0 0
382 2 12.304999999999998 17.050308149708 5.96746975521536 0 0 0
384 2 13.535499999999997 16.33987864347016 5.96746975521536 0 0 0
386 2 13.5355 14.919019630994494 5.96746975521536 0 0 0
388 2 14.765999999999998 14.208590124756658 5.96746975521536 0 0 0
408 2 14.766000000000002 17.050308149708 5.96746975521536 0 0 0
410 2 15.996499999999997 16.33987864347016 5.96746975521536 0 0 0
412 2 15.996500000000003 14.9190196309945 5.96746975521536 0 0 0
165 2 0.0 18.471167162183658 5.96746975521536 0 0 0
206 2 1.2305000000000001 20.60245568089716 5.96746975521536 0 0 0
208 2 1.2305000000000001 19.181596668421495 5.96746975521536 0 0 0
210 2 2.4610000000000003 18.471167162183658 5.96746975521536 0 0 0
253 2 3.6915000000000004 20.60245568089716 5.96746975521536 0 0 0
255 2 3.6914999999999996 19.181596668421495 5.96746975521536 0 0 0
257 2 4.922000000000001 18.471167162183658 5.96746975521536 0 0 0
300 2 6.1525 20.60245568089716 5.96746975521536 0 0 0
302 2 6.1525 19.181596668421495 5.96746975521536 0 0 0
304 2 7.382999999999999 18.471167162183658 5.96746975521536 0 0 0
342 2 8.613499999999998 20.60245568089716 5.96746975521536 0 0 0
344 2 8.6135 19.181596668421495 5.96746975521536 0 0 0
346 2 9.844000000000001 18.471167162183658 5.96746975521536 0 0 0
376 2 11.074499999999997 20.60245568089716 5.96746975521536 0 0 0
378 2 11.074500000000002 19.181596668421495 5.96746975521536 0 0 0
380 2 12.304999999999998 18.471167162183658 5.96746975521536 0 0 0
402 2 13.5355 20.60245568089716 5.96746975521536 0 0 0
404 2 13.5355 19.181596668421495 5.96746975521536 0 0 0
406 2 14.765999999999998 18.471167162183658 5.96746975521536 0 0 0
420 2 15.996499999999997 20.60245568089716 5.96746975521536 0 0 0
422 2 15.996500000000003 19.181596668421495 5.96746975521536 0 0 0
202 2 0.0 22.733744199610655 5.96746975521536 0 0 0
204 2 0.0 21.312885187135 5.96746975521536 0 0 0
247 2 1.2304999999999993 23.4441737058485 5.96746975521536 0 0 0
249 2 2.4610000000000003 22.733744199610655 5.96746975521536 0 0 0
251 2 2.4610000000000003 21.312885187134995 5.96746975521536 0 0 0
294 2 3.6915000000000004 23.4441737058485 5.96746975521536 0 0 0
296 2 4.922000000000001 22.733744199610655 5.96746975521536 0 0 0
298 2 4.922000000000001 21.312885187134995 5.96746975521536 0 0 0
336 2 6.1525 23.4441737058485 5.96746975521536 0 0 0
338 2 7.382999999999999 22.733744199610655 5.96746975521536 0 0 0
340 2 7.382999999999999 21.312885187135 5.96746975521536 0 0 0
370 2 8.613499999999998 23.4441737058485 5.96746975521536 0 0 0
372 2 9.844000000000001 22.733744199610655 5.96746975521536 0 0 0
374 2 9.844000000000001 21.312885187135 5.96746975521536 0 0 0
396 2 11.074500000000002 23.4441737058485 5.96746975521536 0 0 0
398 2 12.304999999999998 22.733744199610655 5.96746975521536 0 0 0
400 2 12.305 21.312885187135 5.96746975521536 0 0 0
414 2 13.5355 23.4441737058485 5.96746975521536 0 0 0
416 2 14.765999999999998 22.733744199610655 5.96746975521536 0 0 0
418 2 14.765999999999998 21.312885187135 5.96746975521536 0 0 0
424 2 15.996499999999997 23.44417370584849 5.96746975521536 0 0 0
425 2 0.0 2.8417180249513345 9.05838913213204 0 0 0
426 2 0.0 0.0 9.05838913213204 0 0 0
427 2 1.2305000000000001 0.7104295062378347 9.05838913213204 0 0 0
431 2 1.2305000000000001 2.1312885187135 9.05838913213204 0 0 0
432 2 2.4610000000000003 2.8417180249513345 9.05838913213204 0 0 0
433 2 2.4610000000000003 0.0 9.05838913213204 0 0 0
434 2 3.6915000000000004 0.7104295062378347 9.05838913213204 0 0 0
442 2 3.6914999999999996 2.1312885187135 9.05838913213204 0 0 0
715 1 16.02899260136823 2.6412004012036223 11.41316133588419 0 0 0
3734 1 5.471723447643472 21.87427189389699 14.562750147184238 1 0 0
443 2 4.922000000000001 2.841718024951333 9.05838913213204 0 0 0
444 2 4.922000000000001 0.0 9.05838913213204 0 0 0
445 2 6.1525 0.7104295062378341 9.05838913213204 0 0 0
457 2 6.1525 2.131288518713499 9.05838913213204 0 0 0
458 2 7.382999999999999 2.8417180249513345 9.05838913213204 0 0 0
459 2 7.382999999999999 0.0 9.05838913213204 0 0 0
3873 1 5.634426708581189 2.282607888246681 12.02265351433985 0 0 0
86 1 8.53759723858543 2.4307302282966696 11.472794442743636 0 0 0
460 2 8.613499999999998 0.7104295062378341 9.05838913213204 0 0 0
476 2 8.613499999999998 2.1312885187135002 9.05838913213204 0 0 0
477 2 9.844000000000001 2.841718024951333 9.05838913213204 0 0 0
478 2 9.844000000000001 0.0 9.05838913213204 0 0 0
479 2 11.074500000000002 0.7104295062378333 9.05838913213204 0 0 0
499 2 11.074500000000002 2.1312885187135002 9.05838913213204 0 0 0
1425 1 9.96041375257593 24.328415445950473 14.73506617321805 0 0 0
1389 1 12.564484521950584 0.03162160982516766 11.717504802619404 0 1 0
500 2 12.305 2.841718024951333 9.05838913213204 0 0 0
501 2 12.305 0.0 9.05838913213204 0 0 0
502 2 13.5355 0.7104295062378352 9.05838913213204 0 0 0
523 2 13.5355 2.1312885187134984 9.05838913213204 0 0 0
524 2 14.765999999999998 2.841718024951335 9.05838913213204 0 0 0
525 2 14.765999999999998 0.0 9.05838913213204 0 0 0
526 2 15.996500000000003 0.7104295062378352 9.05838913213204 0 0 0
547 2 15.996500000000003 2.1312885187135002 9.05838913213204 0 0 0
2396 1 13.628906671444165 2.6366024828855714 12.316880873443507 0 1 0
429 2 0.0 4.262577037427 9.05838913213204 0 0 0
430 2 1.2305000000000001 4.973006543664834 9.05838913213204 0 0 0
438 2 1.2305000000000001 6.393865556140498 9.05838913213204 0 0 0
440 2 2.4610000000000003 4.262577037427 9.05838913213204 0 0 0
441 2 3.6914999999999996 4.973006543664834 9.05838913213204 0 0 0
453 2 3.6914999999999996 6.393865556140498 9.05838913213204 0 0 0
3100 1 1.3976919256927376 4.889659542769927 11.710103514147265 1 0 0
3872 1 4.1621154787596 4.429088844307857 11.457904245720346 0 0 0
455 2 4.922000000000001 4.262577037426998 9.05838913213204 0 0 0
456 2 6.1525 4.973006543664834 9.05838913213204 0 0 0
472 2 6.1525 6.393865556140498 9.05838913213204 0 0 0
474 2 7.382999999999999 4.262577037427 9.05838913213204 0 0 0
475 2 8.6135 4.973006543664834 9.05838913213204 0 0 0
495 2 8.6135 6.393865556140498 9.05838913213204 0 0 0
497 2 9.844000000000001 4.2625770374270004 9.05838913213204 0 0 0
498 2 11.074500000000002 4.973006543664834 9.05838913213204 0 0 0
519 2 11.074500000000002 6.393865556140498 9.05838913213204 0 0 0
821 1 9.435170464771575 4.9579006157143475 11.957486246489498 0 0 0
3127 1 12.332001030799729 5.012317458283807 11.53407662360297 1 0 0
521 2 12.305 4.262577037426998 9.05838913213204 0 0 0
522 2 13.5355 4.973006543664834 9.05838913213204 0 0 0
543 2 13.5355 6.393865556140498 9.05838913213204 0 0 0
545 2 14.766000000000002 4.262577037426998 9.05838913213204 0 0 0
546 2 15.996499999999997 4.973006543664834 9.05838913213204 0 0 0
564 2 15.996500000000003 6.393865556140498 9.05838913213204 0 0 0
428 2 0.0 7.104295062378334 9.05838913213204 0 0 0
436 2 0.0 8.525154074854 9.05838913213204 0 0 0
437 2 1.2305000000000001 9.235583581091834 9.05838913213204 0 0 0
439 2 2.4610000000000003 7.104295062378334 9.05838913213204 0 0 0
451 2 2.4610000000000003 8.525154074854 9.05838913213204 0 0 0
452 2 3.6915000000000004 9.235583581091834 9.05838913213204 0 0 0
2378 1 0.9048717742460857 9.544709719251601 11.385019254040266 1 1 0
3069 1 3.5408589644095514 9.124283011225303 11.809361324509311 0 0 0
2910 1 5.107211937505317 6.721991942736386 11.66281347959699 1 1 0
454 2 4.922000000000001 7.104295062378334 9.05838913213204 0 0 0
470 2 4.922000000000001 8.525154074854 9.05838913213204 0 0 0
471 2 6.1525 9.235583581091834 9.05838913213204 0 0 0
473 2 7.383000000000001 7.104295062378334 9.05838913213204 0 0 0
493 2 7.383000000000001 8.525154074854 9.05838913213204 0 0 0
721 1 7.765677045089673 7.231443296649577 11.949907264485734 1 0 0
494 2 8.613499999999998 9.235583581091834 9.05838913213204 0 0 0
496 2 9.844000000000001 7.104295062378334 9.05838913213204 0 0 0
517 2 9.844000000000001 8.525154074853996 9.05838913213204 0 0 0
518 2 11.074500000000002 9.235583581091834 9.05838913213204 0 0 0
2259 1 9.303357804874885 9.760988344210155 11.569395615103877 0 0 0
2940 1 12.179006489258379 9.814700181865867 11.298152377089359 0 0 0
520 2 12.305 7.104295062378334 9.05838913213204 0 0 0
541 2 12.305 8.525154074854 9.05838913213204 0 0 0
542 2 13.5355 9.235583581091829 9.05838913213204 0 0 0
544 2 14.765999999999998 7.104295062378331 9.05838913213204 0 0 0
562 2 14.765999999999998 8.525154074854 9.05838913213204 0 0 0
563 2 15.996500000000003 9.235583581091836 9.05838913213204 0 0 0
80 1 13.052316750544428 7.508209270907519 12.11156901277852 1 0 0
3673 1 13.782049166773959 22.106071957988142 14.844878180266086 0 0 -1
34 1 0.14829366744724856 12.219479787434443 11.778909562732059 1 1 0
435 2 0.0 11.366872099805333 9.05838913213204 0 0 0
447 2 0.0 12.787731112280996 9.05838913213204 0 0 0
448 2 1.2305000000000001 13.49816061851883 9.05838913213204 0 0 0
449 2 1.2305000000000001 10.656442593567498 9.05838913213204 0 0 0
450 2 2.4610000000000003 11.366872099805333 9.05838913213204 0 0 0
466 2 2.4610000000000003 12.787731112280996 9.05838913213204 0 0 0
467 2 3.6915000000000004 13.49816061851883 9.05838913213204 0 0 0
468 2 3.6914999999999996 10.6564425935675 9.05838913213204 0 0 0
469 2 4.922000000000001 11.366872099805333 9.05838913213204 0 0 0
489 2 4.922000000000001 12.787731112280996 9.05838913213204 0 0 0
490 2 6.152499999999999 13.49816061851883 9.05838913213204 0 0 0
491 2 6.1525 10.6564425935675 9.05838913213204 0 0 0
492 2 7.382999999999999 11.366872099805333 9.05838913213204 0 0 0
513 2 7.382999999999999 12.787731112280996 9.05838913213204 0 0 0
2221 1 4.770630345944896 11.76819742998111 11.819443652126997 0 0 0
2421 1 7.3285656986819125 12.098021769239141 11.650625327045395 0 0 -1
514 2 8.6135 13.498160618518835 9.05838913213204 0 0 0
515 2 8.613499999999998 10.656442593567498 9.05838913213204 0 0 0
516 2 9.844000000000001 11.366872099805333 9.05838913213204 0 0 0
537 2 9.844000000000001 12.787731112280996 9.05838913213204 0 0 0
538 2 11.074500000000002 13.49816061851883 9.05838913213204 0 0 0
539 2 11.074500000000002 10.656442593567498 9.05838913213204 0 0 0
540 2 12.304999999999998 11.366872099805333 9.05838913213204 0 0 0
78 2 15.996499999999997 10.6564425935675 9.05838913213204 0 0 0
81 2 15.996500000000003 13.498160618518835 9.05838913213204 0 0 0
82 2 14.765999999999998 12.787731112280996 9.05838913213204 0 0 0
558 2 12.305 12.787731112280996 9.05838913213204 0 0 0
559 2 13.5355 13.498160618518835 9.05838913213204 0 0 0
560 2 13.5355 10.6564425935675 9.05838913213204 0 0 0
561 2 14.765999999999998 11.366872099805333 9.05838913213204 0 0 0
647 1 13.455055500881766 12.239305954892545 12.150066393077887 0 1 0
446 2 0.0 15.629449137232333 9.05838913213204 0 0 0
462 2 0.0 17.050308149708 9.05838913213204 0 0 0
464 2 1.2305000000000001 14.919019630994494 9.05838913213204 0 0 0
465 2 2.4610000000000003 15.629449137232328 9.05838913213204 0 0 0
485 2 2.4610000000000003 17.050308149708 9.05838913213204 0 0 0
487 2 3.6915000000000004 14.919019630994494 9.05838913213204 0 0 0
3093 1 1.4150262618289058 14.760473020388662 11.910449150087702 1 0 0
770 1 0.20643819289900767 6.861869654745626 15.289626465005446 0 0 0
2208 1 4.012976368425514 14.477290870968345 11.749260566496666 1 0 -1
488 2 4.922000000000001 15.629449137232333 9.05838913213204 0 0 0
509 2 4.922000000000001 17.050308149708 9.05838913213204 0 0 0
511 2 6.152499999999999 14.919019630994494 9.05838913213204 0 0 0
512 2 7.382999999999999 15.629449137232333 9.05838913213204 0 0 0
533 2 7.383000000000001 17.050308149708 9.05838913213204 0 0 0
90 1 5.544322775476531 17.09833361054183 11.858014768672728 0 1 0
620 1 8.207693628992727 16.7866063455036 11.692497841648848 0 0 0
94 2 12.304999999999998 17.050308149708 9.05838913213204 0 0 0
535 2 8.6135 14.919019630994494 9.05838913213204 0 0 0
536 2 9.844000000000001 15.629449137232328 9.05838913213204 0 0 0
554 2 9.844000000000001 17.050308149708 9.05838913213204 0 0 0
556 2 11.074500000000002 14.919019630994494 9.05838913213204 0 0 0
658 1 9.224814439846135 14.283864822248006 11.802626649188394 1 0 0
64 1 11.895469512799002 14.484028756644442 11.41272670089318 0 0 1
25 2 15.996500000000003 14.9190196309945 9.05838913213204 0 0 0
37 2 14.766000000000002 17.050308149708 9.05838913213204 0 0 0