LAMMPS data file via write_data, version 29 Oct 2020, timestep = 200628

2677 atoms
1 atom types

0.0 49.22 xlo xhi
0.0 49.019635930410494 ylo yhi
-0.48782567917671216 34.42782567917669 zlo zhi

Masses

1 18.015

Atoms # atomic

343 1 2.6021255862481376 4.231445260792524 4.008982413691512 0 1 0
1659 1 5.77481739398807 3.7024247307574365 -0.0008943286084670873 1 0 0
1346 1 3.7190447842499026 2.946238286718956 1.7697175905502018 1 0 1
1980 1 8.94535354235828 2.5541544076810947 2.2087035544577365 1 0 1
617 1 19.228459830731953 17.023655137058977 0.9850141410933806 0 0 0
938 1 13.323874963753905 1.95393320901122 3.4103626862173875 0 1 1
233 1 0.07055834142663046 12.816332679623127 7.0507060825676104 1 0 0
307 1 14.569122365062023 2.512081752891776 0.5834202351955834 0 0 0
394 1 18.840298193314045 1.673704998488912 2.7070639868016806 0 1 1
731 1 23.846176850938413 2.205918053661254 -0.1692358119038414 0 1 1
2029 1 1.1891976730004121 15.238717934024514 0.37641606363803737 1 0 0
2660 1 10.92981539432801 23.398366625461442 14.779615660215141 1 0 0
2644 1 5.650779005200582 6.628838862786596 -0.179502959211398 1 0 1
2472 1 11.683260072486462 3.7386815705184584 1.7427901063062736 1 1 1
1487 1 24.42426965855601 18.28593024760392 6.158284953016062 0 0 0
1052 1 16.642017779709768 5.457741089105956 3.907337085554517 0 0 1
2252 1 17.419043560363182 7.196528504427701 1.911442669766149 0 0 0
1145 1 0.6909856440106816 2.461540975941062 13.06712518868148 0 1 0
1981 1 19.05412521152981 5.454308195144257 0.6731958616152407 0 0 1
450 1 22.292433566996795 6.002243649171661 2.2931316817625995 0 0 1
1079 1 2.8579926948261782 6.662216066814007 0.04119640984088482 0 0 1
1966 1 3.324957816188855 8.186682454372542 2.212967967990147 1 0 1
2655 1 7.572935414700748 7.525403523390867 1.5963109075493571 1 1 1
75 1 10.237252702644012 6.382178758287312 1.1850556494182904 0 0 1
309 1 14.405990348251173 7.648638166292546 1.2424052912011172 0 0 0
856 1 14.56524279233961 10.533617155245167 0.3599976884946635 0 1 1
472 1 15.301455989632032 10.238603588359208 4.144426294165651 0 0 0
2641 1 18.436016940497925 9.289159905639178 3.4216665443734096 1 1 1
752 1 23.574803363774212 9.807750183418516 1.7464666263946342 0 1 0
575 1 11.095556661013 23.350720653950496 11.720462419119832 0 0 1
1476 1 7.3971494693986894 10.784427637310642 1.0421249468726275 1 0 1
2074 1 5.090219707527318 10.068589488667637 2.924634837731358 1 0 0
2385 1 10.113635274967045 10.559267952708783 2.1738137834834967 0 0 0
2393 1 18.051367608457273 12.72136033382973 0.46653677232049656 0 1 1
2190 1 22.111184677215007 12.541234548400656 1.8818605833407087 1 0 0
557 1 20.1649092041914 10.736572769021997 1.6021863401275391 0 0 1
434 1 3.0155665820751913 11.303546446431454 0.7314508097231834 0 0 0
454 1 8.84633386880128 15.668251978214963 2.0006668320755185 0 0 0
36 1 19.647871419225325 23.75217259916799 14.48824543148404 0 0 0
2356 1 4.2577954100828626 0.06947549404065703 1.4394968709408076 1 1 0
1873 1 16.436117392526686 14.051399769894031 2.5310608160892847 1 0 1
1147 1 19.095725487615304 16.22477682959948 3.8881061520355766 0 1 1
2326 1 5.274934953314606 0.10768126127084371 11.425725862892484 1 1 1
2566 1 19.995258530126417 3.995675818374142 16.559155547607627 0 1 0
1645 1 5.553038299411546 16.438283323614666 0.9829089483544743 1 0 0
1171 1 8.640683782125251 18.36010361342189 1.1707876213961412 0 0 1
488 1 12.30338141741233 16.380974247736145 0.7549325691038171 0 0 1
1938 1 14.983936673437382 16.24195393670802 2.1509900828118473 0 0 0
2589 1 14.889012565593692 13.26037918073773 16.637014775706376 0 0 0
810 1 16.036280468416436 18.419689143437644 0.7186350570676577 0 0 0
836 1 18.169731922772556 18.831874397941107 5.1698953872531295 0 1 0
1376 1 23.44909071074819 17.76014463279304 2.1901496256251973 0 0 1
2270 1 3.8469464898346777 18.661346875355356 1.0640728625819726 1 1 0
1543 1 1.439558484615458 17.80685689588537 1.7249206314597103 1 0 0
195 1 7.488493858309655 22.12269167241372 1.3997154029149075 0 0 0
50 1 9.19956534817817 18.830765645867157 3.9603712056305036 0 0 0
2178 1 9.871020838472742 13.161628659692626 0.5582014250726368 1 0 0
396 1 13.686070651138127 22.01111410498339 3.571546343398349 0 0 1
633 1 17.761120262537258 20.1642248038661 2.3367398165491116 0 0 1
866 1 22.715127102360125 19.871454612292855 4.154819688955638 0 0 0
1459 1 23.334337051047072 7.394732604542228 16.5148468598723 0 0 0
1812 1 0.1328081184559859 22.836402046871278 0.3509290218376389 1 0 1
1572 1 4.605421466241847 21.136826742293092 1.9083875990959775 1 0 0
1355 1 0.325099427321125 18.94131164294728 16.22968179921132 1 0 -1
616 1 15.049741784782862 24.35764965752583 2.4227123307342415 0 0 0
2663 1 0.07342278117683292 8.95594787373831 6.197814646974146 1 1 0
1651 1 17.476065271065078 22.92374327575019 2.333249782826482 0 0 0
263 1 17.757089066231607 24.217995464495633 4.865415122768303 0 0 0
2608 1 23.112966003650833 22.423851024615967 3.0345217938108267 0 0 1
1264 1 18.97345327008022 0.9082789589230172 0.06415340869114783 0 1 1
476 1 6.397105939247972 0.39485981308606205 7.062780566387662 0 1 1
788 1 24.516733421907652 4.102723986145783 13.75202308889196 0 1 0
2430 1 16.3704017801829 2.8570493385317866 2.8655385669799287 0 0 0
1461 1 16.223169116669713 1.6549171489392076 5.537956317354834 0 0 0
1082 1 21.1438838843102 3.6877363529410054 5.660123400536066 0 1 1
1621 1 20.735015099654365 1.029561691152108 6.706642397605556 0 0 0
931 1 22.8918857040296 2.8043966738917354 3.4781667380773307 0 1 1
971 1 8.952473425697157 21.379265130412808 12.954990104979576 0 0 0
1759 1 6.464397204842316 3.732440692327805 2.9183443930564033 1 0 0
352 1 11.844033650953753 4.146008480141262 5.069619707703995 1 0 2
763 1 13.112558159543715 7.565865743745679 7.00401732492214 0 0 0
2617 1 18.76495050238045 5.149624836643701 5.515981770789086 0 1 0
1178 1 20.186368475359107 4.1173281360274325 2.8530692180715507 0 1 1
1990 1 0.7624846901810832 6.285608170964704 5.047603194878565 1 0 0
1130 1 3.5182845757429293 6.876712822423523 6.511968994235259 0 1 1
970 1 7.189931790172465 6.689690032644813 4.253637537724675 0 1 0
1300 1 10.588358434715154 7.556337626400358 5.613611629707206 0 0 1
2013 1 11.973911063013144 6.400860804388955 3.369118830081752 1 0 1
1947 1 14.604605536959498 7.523232131335437 4.197682946551998 1 0 0
1107 1 17.63516835029983 8.859064617354347 6.316448711747821 0 1 1
2557 1 19.800579952310216 7.139149763129228 7.008852247553279 0 0 0
1197 1 21.381197267215473 8.525486918317048 3.5499797073011226 0 1 1
2497 1 22.19340913164455 8.076255194815253 5.9967536938632025 0 0 1
317 1 1.8082376861133442 11.20672693762033 5.641178356300196 0 0 0
375 1 6.775284337564628 9.100968346393344 5.26524885417297 0 0 0
1497 1 9.359833491702664 9.795163031522193 4.724866986022362 1 0 0
1413 1 14.15770649433281 12.402069709877974 2.4641316962671467 1 0 1
760 1 17.350242321296964 11.07659220666774 8.058224362783651 0 0 0
542 1 18.743469143698334 13.39374502399328 7.214400166532476 0 0 1
1676 1 23.001670054820753 13.459270134260576 4.13526828396932 0 0 1
1117 1 3.8194943720473686 12.429105938485952 3.9058458439421426 0 0 1
1698 1 5.069016344417582 12.375428737948877 6.5583785729621855 1 0 0
1491 1 7.475626946332413 13.935004100537506 6.164170299923236 0 0 0
799 1 11.480302154662231 12.965381839730608 3.131846121545707 0 0 0
93 1 9.832219373019965 12.401873500231613 5.697307293879453 0 0 0
1969 1 17.4558254018567 14.539198571749084 5.005168614299565 0 0 0
1294 1 22.102438950513726 16.077999074991713 4.054703844686387 0 0 0
1495 1 21.45677435291062 12.755920437872174 6.487923898987258 0 0 0
2140 1 19.518648329227727 24.205752055306995 0.5831500632540367 0 0 0
2369 1 6.345375774934053 15.08118181456858 3.2720420737824747 0 0 1
2218 1 3.647918010426001 15.21262969317025 4.408380589292688 1 0 0
2090 1 6.7663211624030275 17.86885287153756 4.535140603520613 0 1 0
1600 1 7.795449449778922 16.6519702025914 6.80930038522012 1 0 0
801 1 11.186421031406013 15.521322289677876 2.9633990821140923 0 1 0
664 1 11.316574853420038 17.554870550952632 4.796060581789437 0 0 0
241 1 14.022214602911603 17.67091389443144 4.242222564977336 0 0 0
330 1 19.974771397820042 18.210172988701984 7.629871822749128 0 0 0
2532 1 22.297018714073275 16.588414187699076 6.827188850986583 0 1 1
1379 1 21.53454189011833 15.089364437039961 15.672732601518149 0 0 -1
1015 1 1.0318038211406102 20.4774068816953 4.7779011244627645 0 0 1
2552 1 4.757674176264257 19.563443850215833 4.373874161477752 1 0 1
471 1 1.9996442788419015 17.661207618191145 4.306275307337138 0 0 0
2241 1 11.594430615970635 18.84017974970522 0.4323417733362175 1 1 0
2540 1 15.468826463890018 20.074485543506658 4.363254564571049 0 1 1
2020 1 20.45940982614866 21.398865488562002 7.224093051259838 0 0 1
2570 1 23.07731410337021 22.60521097330799 7.627161118420434 0 0 0
2125 1 1.3954718938324777 2.278129644306088 10.268240422146825 1 1 0
525 1 21.207748111713492 17.372493667179082 13.571982271864531 0 0 1
495 1 6.020687974648712 22.581225653038025 16.127030701514464 0 0 0
869 1 3.7044290863728233 22.47649186813138 4.605621648537787 0 0 0
1508 1 8.877775008343733 21.685033529829983 3.8981425140631387 0 0 0
1108 1 6.888494891904283 22.833590189133552 5.46441292319387 0 0 1
706 1 23.850885936148593 24.372085393700388 9.551379445803159 -1 0 0
2220 1 13.392726118424001 21.923027990028295 7.410791757436119 0 0 0
1382 1 15.845117818990575 20.93821501160607 7.041819444240631 1 0 0
803 1 18.106275669028168 22.573956441028006 7.19826436211637 -1 0 0
1718 1 20.240297203638686 20.90160680292065 4.553353276667923 0 -1 1
1727 1 3.2500243106752333 2.0101266964869184 5.734925182942127 1 0 0
1274 1 7.601816520036589 1.2166104964008553 9.401237032490988 0 1 0
1271 1 0.5162567130263386 12.693097722053174 1.3730619072145327 0 0 1
1855 1 13.964766225078781 20.51945273212209 1.1806483192891049 0 0 1
1249 1 17.960763646440654 2.6305363624057616 7.411972623565849 0 1 0
31 1 19.105555323669435 0.6753680820075164 9.17557625774829 0 0 0
2590 1 21.93933161971697 22.372000899602753 14.82513474799971 0 0 0
298 1 1.3716545062792855 5.450588253825925 8.5889366147058 0 0 0
906 1 5.971797440108539 2.8966539741387045 5.734008212784635 0 1 -1
2065 1 5.620763266104788 5.104315141120761 7.485965910589671 1 1 0
719 1 8.556766810494219 5.979480625815382 6.91189517615982 0 0 0
1180 1 10.26285947104272 1.5984130281623814 8.1905768783835 0 0 1
1912 1 14.61134200183782 4.136296739491924 6.058238764189777 1 0 1
82 1 12.49140107986425 5.539595604154758 8.952417937326505 0 0 0
1996 1 14.246726812060725 3.2936381036553235 9.136959369337298 0 1 1
483 1 22.02260063769181 4.618102440109806 9.856606207051737 0 0 1
1806 1 23.014709073003196 4.802491279672768 7.345972723342563 1 0 1
1066 1 4.50425270513351 6.329466256105609 3.879035699272275 0 1 0
639 1 8.123930068460053 7.83008798342239 8.818835833702062 0 0 0
2510 1 10.652008096836415 4.354805416928831 7.549206672396765 0 1 0
1520 1 12.777522469787774 10.171262057312521 8.291674718490867 0 0 1
1704 1 15.915740797266391 6.650165724416142 6.999844551372668 0 0 0
425 1 19.752345996298164 6.626453068445219 10.15115524852603 0 0 0
871 1 24.29316200898358 1.1836660476366254 10.081123659412507 0 1 0
201 1 1.3428826112278434 9.321543618837273 10.331138484982791 0 0 0
1567 1 4.1569710115786505 9.185656219033518 10.520525095477627 1 0 1
734 1 3.0541741535755738 9.572145652853203 7.553796106631509 0 0 -1
1730 1 6.057529736691107 9.781222443837992 7.784022809242469 1 0 0
2286 1 10.685321812930965 12.005460026721144 8.20251757208418 0 1 0
1058 1 9.368165144335757 11.254777500923268 10.739000950888814 0 0 1
2482 1 14.807430705630392 11.509140918449408 6.653474219877728 0 0 1
1876 1 14.923957509208607 10.330289034814072 9.923668377967116 0 0 0
1945 1 19.114579376554165 10.72819917620147 10.516649947993242 0 0 1
1964 1 22.603832428440164 10.569588980317484 7.552595170414624 0 0 1
555 1 23.771415064353217 11.024439775583092 10.156458471728325 0 0 1
584 1 1.4899031390200341 14.162090824919915 8.518934938573821 0 0 0
191 1 2.1037047756767295 12.465842228480936 10.703858749847539 0 0 0
1385 1 3.946377695005289 14.788953833620006 7.34141906261598 0 0 0
1881 1 7.191267436261679 12.104126189071065 9.342194053010987 1 0 0
1161 1 11.941566858376778 14.538763483781727 8.31364684118197 0 1 0
868 1 14.59646807090137 14.14993320418614 7.676349218172015 0 1 0
2292 1 17.75933462270321 15.79411719142904 10.352237539526369 0 0 0
1256 1 19.4443664898595 13.658219328944643 10.082967940283082 0 0 1
859 1 23.202758475756756 14.314878071400429 8.093736983699392 0 0 0
318 1 0.07193553107522198 7.665021657260469 8.508313984756827 0 0 -1
1450 1 1.8147846089740687 18.54902215612116 8.987262703424316 1 0 0
2536 1 4.655913014843068 19.1027515589475 8.95446616582322 1 1 1
1930 1 5.936971390156483 16.692972310337918 8.636684154344854 0 0 0
2078 1 7.554087256263441 16.85551412720833 10.887869229647336 1 1 0
1898 1 10.707373465092866 16.615137386006797 7.2923255945711665 0 0 1
2254 1 11.438804399891502 18.436418079537802 9.282055728436056 0 0 0
2191 1 15.763125278662697 16.10868126570414 6.160590802391876 1 1 0
2188 1 17.349416233380015 17.319405810385533 8.114738661735233 0 1 1
1746 1 0.6550304319089603 20.62583910501252 7.655704340604045 1 0 1
1769 1 4.848838112751409 21.263865568562853 6.9883842559791916 1 0 0
2290 1 9.42495559217996 18.927369341135662 11.430590927571217 1 1 0
792 1 16.421458906424967 19.57855922121475 9.454994188124344 0 0 0
1149 1 20.852349816080643 19.717462039526474 9.968615322546857 0 0 2
2329 1 1.2869912174181481 23.51403763457881 8.344094761369435 1 0 0
857 1 9.297452464606547 23.082260459153186 6.940528210166481 0 0 0
1425 1 11.314133716931302 22.594204006112474 4.9671964691268595 1 0 0
372 1 12.167088793416092 21.346622752820366 9.836160508515329 0 0 1
2667 1 20.54074129532646 23.90024866505502 11.445023610722977 1 0 1
1563 1 0.7773113700563234 22.798983866507882 3.404532846318343 1 0 1
2229 1 23.799990946582813 20.896125756550926 10.142571906748529 0 0 0
1109 1 14.01948625300711 5.253073679590819 -0.2985379217640658 0 1 0
802 1 4.51630534992589 3.4106132843479338 10.987727607460808 0 1 0
926 1 5.130405754346277 3.907066554788736 13.722971305357957 0 1 0
794 1 6.791333583967242 1.1099129002741133 13.777813378973624 0 0 0
137 1 11.063015603287221 2.3271153600681993 10.725164814806579 0 0 -1
18 1 0.8168840474872887 9.401278243150463 1.5893301972731189 0 0 -1
629 1 13.82384971607583 1.1357944204254395 10.836033481475793 0 0 1
1971 1 17.659026361690014 0.42423222258193877 11.466008317132719 1 0 0
1592 1 21.339087940139244 2.1020117074149582 10.43650128448245 0 0 0
2189 1 23.9451853662639 22.030304945198555 0.38433039815482445 0 0 0
985 1 20.87425909617031 1.647829685085874 12.970573606783939 0 1 0
2365 1 3.1552821819461223 5.629244913296624 10.887597452570796 1 1 0
1931 1 6.78109202993542 3.543259538100442 9.764228302273473 1 0 0
156 1 9.310093275045764 5.01105961346218 11.738231252484315 0 0 -1
1801 1 10.786294193446155 6.0211806650706725 13.798497546972719 0 0 1
2135 1 16.919816386962818 6.5858097369762865 9.56958216098463 0 1 0
2636 1 16.64608983435548 3.948878319521737 9.46676577148699 0 1 1
92 1 17.525013439133538 2.917532358608993 11.993655573185835 0 0 0
1099 1 9.004929832277757 24.079547208643405 -0.22569300724536664 0 0 0
1471 1 0.9131073880281021 5.636568058094766 12.985659358784604 1 0 0
545 1 0.9332753017660658 8.564818648801586 13.196429406961286 0 0 0
1335 1 5.582715794224979 6.602104944832804 10.39955996227385 1 0 0
1407 1 6.896757621007796 6.308889294645777 12.898491065266864 1 0 0
444 1 12.717143026415924 4.701398767510428 11.882620709858031 0 0 1
980 1 14.40219729697239 6.2397159047354815 13.71684231337341 0 0 1
53 1 12.426048533016088 7.810467220066204 10.596659225305041 0 0 1
602 1 15.47822167805044 7.792115506345177 11.563457975039976 0 0 1
2088 1 19.341076612011484 7.725960320173258 12.761388711229802 1 0 0
1741 1 21.76917868929154 8.83676886010727 12.56069160107538 0 0 1
466 1 11.127672687305862 14.142473916904658 15.964911467210355 0 0 1
2008 1 3.7888755402961976 9.601897580405607 13.313950645831937 1 0 1
2421 1 5.064094200091463 11.7619725201001 11.251593857009563 1 1 1
976 1 9.880460836867725 8.676422674652132 10.80738166284457 0 1 -1
1081 1 8.80352504103551 8.24275462748387 13.481262721138165 0 1 1
748 1 17.49773212564928 9.587078136004978 12.40294983085019 0 0 0
1505 1 21.092612109484016 9.117430574938215 10.019235898745551 0 0 0
138 1 5.437585495173435 12.976074771681606 1.0730521612598198 0 0 0
1630 1 0.7303212263564076 12.77363954465262 13.107666018221924 1 0 0
531 1 7.324648912672297 12.568856035996857 13.053336103311565 0 0 1
1528 1 11.110615275003541 14.920598162333238 10.949685262740836 1 0 0
1525 1 11.813117910629904 12.506371359828167 12.08150585468854 1 0 0
1884 1 14.490746767300548 12.34240959778757 11.65119562531268 1 0 1
950 1 15.876920642375925 12.624284531162626 13.882252297491535 0 0 0
1195 1 21.881143630800853 14.969197762533629 10.463145120713499 0 0 0
2154 1 22.641468384366167 12.919617765333724 11.845341068431098 0 0 0
1391 1 4.2407573554806515 0.8631663346467475 9.267365302563864 1 0 0
1468 1 8.826220145368211 14.755516184375224 12.65180536537082 1 0 0
709 1 9.532244661836495 16.192215995027997 14.855987428761425 0 0 -1
1869 1 15.323337954532366 14.497686705577388 10.403508995284124 1 0 0
194 1 12.802004552470656 17.078169518794958 11.399350693664218 0 0 1
2587 1 17.28699235538653 15.00844151884176 13.100920044115181 0 1 1
515 1 15.865774954790538 17.329611178955275 14.560623852828504 0 0 0
721 1 22.244194979642884 17.702996268066318 10.96516286098188 0 0 0
1562 1 7.977474572465163 20.419140253614167 15.492072054670217 0 0 0
2314 1 0.7916287883995576 19.401336289287585 11.366784080533783 1 1 0
939 1 2.7053042486859376 20.282739674086205 12.704826515146362 0 0 -1
1500 1 5.112819326178113 19.591469218202526 11.830674259773758 1 0 0
1767 1 11.080164283775462 18.148945379046207 13.48308142382648 1 0 0
2330 1 14.320257853079205 20.129612162499928 11.412575490450855 0 0 0
2166 1 18.463160925088246 17.840072680648525 12.681834851368125 0 0 -1
409 1 18.35144578585892 20.234598889293547 11.044236316856749 0 0 0
1186 1 5.272337795958541 23.65382249848 13.668847592669081 1 0 1
369 1 22.968362837596583 4.675781676442939 16.143997882395322 0 0 1
1724 1 2.5726525795830577 23.08402177180279 12.38859609106791 1 0 0
2504 1 6.471793847099248 22.927425596953753 9.158769867005047 1 0 1
1669 1 6.508379282886156 21.938583480593064 11.704534780229679 1 0 -1
300 1 9.371991420851366 21.67250193559858 9.298524238170321 0 0 0
439 1 13.62726342097713 19.262978934799186 14.04129421632832 0 0 0
43 1 14.800419692160165 23.5475547985156 9.608814265869315 0 0 0
2236 1 15.337388043444157 22.57137374443942 12.824314479751669 0 0 0
519 1 22.81723969116468 22.310121612359026 12.507756288699062 0 0 1
1802 1 0.8739602046678259 2.5411815636949115 7.216026333935983 1 0 1
1323 1 3.085296549632925 1.9233264901695377 14.639572184086237 1 0 1
659 1 1.6385334217244962 4.023434769791487 -0.08422721575744625 0 1 0
1831 1 9.242651579972643 2.339442653215196 13.066918320694423 1 0 1
1668 1 12.680564876997039 0.48756242967275265 15.15373114366572 1 0 0
276 1 14.436525566515995 1.6682343264534916 13.528437444787768 0 0 1
2070 1 24.22951468578721 4.859166033754471 0.3608441395020187 0 0 0
1312 1 19.314255652265956 0.3348965467294434 16.36343592234905 0 1 0
2605 1 23.74439652399173 1.7353539721540194 13.061045828419145 0 1 0
2442 1 21.612072716530076 1.639135782457193 16.308005172179314 0 1 0
1553 1 19.427863481447382 18.95479368908598 16.80053914662308 0 0 0
1633 1 3.2886709059172485 6.135710660369577 14.363960278021237 1 1 0
2473 1 7.0286026906716685 3.263443456879035 16.038281897217328 0 1 0
2038 1 9.633115026148289 4.198100833274234 15.477357387950013 0 1 -1
412 1 15.550498611576478 3.8807221783460766 14.011321689827218 0 0 0
383 1 16.97044987464049 4.170585564799338 16.38204178252155 0 0 0
735 1 7.559090041466409 17.972716661784627 15.833002499481724 0 1 -1
161 1 18.000002662172722 21.9834994720286 13.155120892732162 0 0 0
837 1 21.878905314015576 19.543166909738893 15.290170174430267 0 0 0
355 1 13.406470344729653 22.01308453929788 14.991726930747086 0 0 0
395 1 0.1343570393384494 16.48506716082037 8.335547581725972 0 0 1
845 1 5.489511052404616 8.033060763183974 14.688706407253067 0 1 0
839 1 17.660073697999195 19.454458951610466 14.770073908180526 0 0 0
952 1 13.669440101508151 8.466245971625526 15.933536361607782 0 0 -1
2018 1 16.70855183943966 7.855760808817137 16.29732556864727 1 0 1
1960 1 19.087783629019587 6.371712079098892 15.282131020249206 1 0 1
1992 1 24.491874054749744 9.309518387960292 14.823780915991929 0 0 1
400 1 3.0567045375291 12.116787516478462 14.748085975944072 0 0 0
2156 1 8.808507010191802 10.883850551480291 14.439587631451204 1 0 0
564 1 24.260941991727226 5.668106199866821 11.383950752162756 0 0 0
1721 1 10.806971275372486 8.275370242359747 15.837504845856598 1 0 0
1037 1 13.229345591902751 11.059912277297714 16.469632805236344 0 1 1
2113 1 17.415323239788304 10.427520913647568 14.91884844469063 1 0 0
1427 1 20.245783478850523 11.744563929123673 13.08495964448954 0 0 0
66 1 21.782559042862182 10.407944518044946 15.199115704608817 0 0 -1
77 1 11.759677769086126 8.871642316322033 0.5204315293105167 0 0 0
458 1 1.533150737256798 15.208068676112367 14.347987656510968 0 0 0
1686 1 5.251992378463515 13.628156517536665 14.697173697903471 1 0 0
1372 1 21.825155342857354 17.134126668930044 0.022484934803489173 0 0 0
1827 1 11.374679430539837 11.852842134559982 14.584725197062285 0 0 0
2361 1 19.24492085535562 13.565136040957452 14.66453004253536 0 1 1
818 1 2.9360104256571393 18.871692010015714 15.110434784686847 1 1 0
1968 1 24.332323964275293 15.755576490991746 15.473604442207348 0 0 0
1144 1 4.102757633720304 16.272628436847356 14.85227205234366 0 0 0
1644 1 6.064061312105363 17.722998647189232 13.236649708613381 0 0 0
927 1 24.281935227388647 0.4937919693656745 2.0596876443784895 0 1 1
2280 1 20.579142006466547 8.086800877967997 16.614774065537535 0 1 0
2344 1 23.38281489008605 23.688402671090433 16.587843271792345 0 0 -1
2340 1 0.697789306208708 2.112954776960071 3.540767415033222 1 1 1
2450 1 0.048861382299766214 10.910212042509452 15.136027556122094 1 1 0
1559 1 0.1707198594800642 21.981600539734266 16.634780252421898 1 0 0
2416 1 9.69471406573422 21.900141881623924 16.94542382309777 1 0 0
215 1 11.421198646940177 2.6294136777537 16.77257693442779 0 0 0
2004 1 8.652077513600798 2.3907667947629014 -0.43544577218852426 1 0 0
1304 1 22.12989139144323 12.681017240668783 16.81188072869259 0 0 0
988 1 19.086766135109972 19.735985864549075 -0.3725075565106953 -1 0 0
88 1 24.604627604610357 6.950378660400119 5.74962841445008 0 0 0
1581 1 6.949437692207229 0.03197172252777847 0.8901451102519246 1 0 0
1426 1 0.28280179622077284 4.168823151341262 20.897063273406477 1 1 0
2457 1 0.07493421060322299 18.828234035370556 29.820692463397855 1 0 0
2606 1 3.2784306713815132 0.8629248542553776 19.164439918086668 1 0 0
1736 1 15.107606063448857 1.5854921040080439 18.90152638763102 1 0 1
2002 1 23.883170473476593 1.1226006262977668 18.008634334213415 1 0 1
1248 1 22.954383657327824 2.0235714001655736 20.41479093307551 -1 1 0
1618 1 24.222378821008498 4.7903500467757 24.276188370154948 0 0 -1
2621 1 5.939996551384526 2.2717200686852217 18.613090039480905 1 1 0
1440 1 8.021179436344966 5.678215266367699 19.669936535285306 1 0 -1
397 1 17.226964822025668 23.02322038140714 20.897730420672243 0 0 1
294 1 12.199412007845453 3.9533627996449923 20.74135573767353 0 0 0
334 1 6.494987165803897 24.336614372006466 18.118300793197683 0 -1 0
344 1 18.69593959918332 2.7530293219020288 20.249925330658765 0 0 1
648 1 19.65613685328584 5.466422292524364 20.99133183508519 0 1 0
1541 1 1.133803425290712 8.426165860138218 18.99328945229674 1 0 0
642 1 0.12158914891684058 5.7758446171220275 18.638713712997767 0 0 0
279 1 3.675787387582986 7.13551001365753 19.37568565538002 0 0 0
1832 1 6.089014233115856 8.71762729813258 19.35167372594767 0 0 0
1038 1 5.917279903186 5.399557134849864 17.67564333425112 0 0 0
1162 1 12.908720513135709 6.954521340315186 18.208933318017834 0 1 1
350 1 6.490661804423721 24.452999595457577 25.542933277874276 0 -1 0
2261 1 15.554253550934694 5.778871751489691 18.089302625397696 1 1 0
197 1 16.483816704839967 5.722564658628081 20.83750075288384 0 0 0
1297 1 20.88910815883513 5.784125661942263 18.502258804323702 0 0 0
280 1 10.476178876077629 24.228671665547882 20.381422690379356 0 0 0
2066 1 2.0812820612598073 10.95162389398385 17.369897221359576 1 1 0
1663 1 18.66408338499556 23.776237735545433 17.201050454204452 0 0 0
1958 1 4.736226184470485 11.200408760465578 18.990570336010453 1 0 1
1193 1 21.916794946865892 0.4813684763208846 29.67453127113161 0 1 1
1137 1 12.536480676501105 10.396969056551345 19.030442247253166 0 1 1
499 1 19.562432578954144 9.449950469263413 18.759605584210124 0 0 1
813 1 1.7374959368917533 17.8221813579419 24.687930402181625 0 1 0
33 1 2.3630485635388263 16.34725953949241 18.628514769856324 0 0 0
2486 1 0.7379155657153753 18.430333879168632 19.031860329872572 0 1 0
1891 1 7.114667560959527 14.892672069784684 19.026357460441375 1 0 1
645 1 9.881589551273604 11.526865479618655 19.0419172868478 0 0 0
704 1 10.809254536512272 13.146843906428026 22.636303789194812 0 1 0
1310 1 15.285655544492432 12.039362380791626 19.638591844487163 -1 1 0
315 1 13.844881970661776 20.838665738206274 31.61441446687165 0 0 -1
563 1 20.14945184642252 12.119064759952156 18.62468758656605 0 0 0
2145 1 24.10720691187454 12.994037951722422 18.81223169080522 0 0 0
2128 1 23.366176795924723 23.04082092905635 29.107989133383718 0 0 0
1332 1 13.459376470918855 3.7052258608620314 18.366734000333143 1 0 0
1077 1 5.1027422104912885 16.400999943867355 17.474216667699874 0 0 0
2350 1 10.956784179200342 17.40089275700823 18.796735955920425 0 0 0
1863 1 8.198969260258135 17.67207799559753 18.731004243042456 1 0 0
1680 1 23.902991906540983 12.002435918507755 23.28637667972562 0 0 0
2031 1 23.987462738544508 11.459087979846876 29.117900469230904 0 0 -1
2342 1 21.37842980241585 17.287726779050814 20.100332951777133 0 0 0
278 1 9.834710049858348 0.3412072042233336 25.954479863401275 0 1 -1
1232 1 24.448087659153025 8.512734842942617 29.472042665826578 0 1 0
1943 1 4.905167508196739 18.680776078906028 19.176126441618333 0 0 1
2580 1 13.001075447263952 15.781767640257367 17.59901856261104 0 0 0
578 1 7.121859087841576 19.148564540500516 20.995411947978813 1 0 0
208 1 13.049298239540997 19.497291007350704 18.275371385738964 0 0 0
941 1 15.455893979560571 19.27054804326619 19.935068292821224 0 1 -1
2508 1 3.0356643837048107 23.385287541546898 32.14655958130768 0 0 -1
180 1 7.974018101076063 10.594083704852324 17.119967277486833 0 0 1
117 1 23.678686032885317 18.940271435249425 19.772159369936702 0 -1 0
1794 1 14.38420105026097 14.507724446109146 20.130141298843593 1 0 0
2325 1 23.476935065271356 4.900229714780013 19.965085829874795 1 1 0
274 1 2.282833089326346 22.235956002617428 18.27734606516586 0 0 -1
2458 1 6.743026996468378 22.172395543778816 21.44367504165506 1 0 0
2603 1 8.450364214902427 22.891989347064193 19.212999034199584 1 0 0
1227 1 18.540018787037496 0.9751761502451808 25.484142346598833 0 1 0
1695 1 12.597716841166939 22.41025809343549 20.61179829268932 0 0 0
1062 1 19.69208919598085 21.211760943939208 18.605402288679713 0 0 0
1524 1 22.30170660813434 22.75617856752833 18.87453089962771 0 0 0
467 1 14.773948998542272 23.17178143676338 17.44057860816083 0 0 0
323 1 3.3532175781489575 1.8254885146317485 21.745627859034414 0 1 0
282 1 9.195779589199452 1.791466235199128 21.0560098973698 0 0 -1
2584 1 11.686783648363887 1.6048209248967127 21.64991475490906 1 1 0
901 1 16.581323379020535 0.6305676836774164 23.60085706091642 0 1 0
89 1 16.12755021123255 2.43021621419058 21.55527890123265 0 0 0
2143 1 20.644600521885458 1.3482554956834463 21.689860746166165 0 1 -1
2092 1 24.32002193595633 0.5788728132104639 22.438699978175478 0 1 0
1547 1 2.378363845396715 4.142200050349492 22.731328187459038 1 0 -1
2366 1 24.087004880362404 10.852423533211217 20.603151628077153 0 1 0
489 1 3.264916810667238 6.667281329676842 22.168618291562513 0 0 0
272 1 6.827384937629125 3.521297261798734 20.922650989619598 0 0 0
2244 1 10.971085526772859 4.015995671307634 24.24127983251953 0 1 -1
2251 1 9.710406185792268 5.660725055590154 22.129655662057502 1 1 0
2388 1 14.271098321714055 4.771014246617897 22.27086009094287 0 1 -1
413 1 20.74618605256987 5.0266232379196 23.791188442980765 0 0 1
805 1 15.327455008942753 0.5397659510746177 28.04313571579391 0 1 0
293 1 22.352974731768025 6.212077041586425 21.771413213102978 0 0 -1
187 1 5.646199373862995 4.996096344814259 23.00874191374995 0 0 -1
711 1 7.259747672197122 7.1023443673650615 23.380123661081736 0 1 0
1708 1 15.922475576481173 8.338778810942646 20.652446851868948 0 0 0
853 1 18.708610094468312 7.631409455516485 23.019152659114454 0 0 0
1483 1 22.282952770704014 9.224251908284577 22.272389331187195 0 0 -1
2214 1 1.1907258318727094 9.967913290386196 21.618119528055008 0 0 0
1717 1 0.7765136200140337 12.846065731850787 21.043631979427733 1 0 0
1055 1 4.01640105676958 10.719313635163623 22.155722784217996 0 1 1
1631 1 6.355765229585548 9.461089131566641 22.100941672875113 1 0 0
449 1 8.178392457826327 11.533149696831144 21.31369929602481 0 0 0
329 1 13.177902405149284 8.0283707604391 20.67851467071943 0 0 -1
663 1 11.21574106474314 8.130144296418095 22.92939437352274 0 1 -1
214 1 16.911592556128824 9.900088295142336 18.197789065797142 0 0 0
17 1 16.448175235696255 9.269700294971779 23.35687445287632 0 0 -1
947 1 15.68252636008367 11.867538289091874 22.485102763650097 0 1 0
102 1 19.542927118459726 9.836003603577199 21.706528150208744 0 0 0
743 1 19.853311371073364 16.40962129806582 17.70888103030845 0 1 0
994 1 20.12160436551266 22.93080826086559 31.44666823811233 0 0 -1