
# read in water data
read_data data.ML_m1000atm_240K group water extra/atom/types 1
Reading data file ...
  orthogonal box = (0.0000000 0.0000000 -0.66042453) to (49.220000 49.019636 34.600425)
  3 by 2 by 2 MPI processor grid
  reading atoms ...
  2677 atoms
  reading velocities ...
  2677 velocities
  read_data CPU = 0.007 seconds

# remove area for graphite
region substrate block 0 ${XDIM} 0 ${YDIM} 0 ${Z_G}
region substrate block 0 49.22 0 ${YDIM} 0 ${Z_G}
region substrate block 0 49.22 0 49.019635930410494 0 ${Z_G}
region substrate block 0 49.22 0 49.019635930410494 0 10.062
delete_atoms region substrate
Deleted 766 atoms, new total = 1911

# Insert substrate
read_data data.graphite add append shift 0.0 0.0 0.0 group graphite offset 1 0 0 0 0
Reading data file ...
  orthogonal box = (0.0000000 0.0000000 -0.66042453) to (49.220000 49.019636 34.600425)
  3 by 2 by 2 MPI processor grid
  reading atoms ...
  2760 atoms
  reading velocities ...
  2760 velocities
  read_data CPU = 0.005 seconds


# Define potential
# CHECK ON THIS %%%%%%%%%%%%
#
pair_style sw
pair_coeff * * MLC_e.sw mW C


# Delete water and ice atoms that are overlapping
#
delete_atoms overlap 2.5 water graphite
System init for delete_atoms ...
Neighbor list info ...
  update every 1 steps, delay 10 steps, check yes
  max neighbors/atom: 2000, page size: 100000
  master list distance cutoff = 6.6747184
  ghost atom cutoff = 6.6747184
  binsize = 3.3373592, bins = 15 15 11
  2 neighbor lists, perpetual/occasional/extra = 1 1 0
  (1) command delete_atoms, occasional, copy from (2)
      attributes: full, newton on
      pair build: copy
      stencil: none
      bin: none
  (2) pair sw, perpetual
      attributes: full, newton on
      pair build: full/bin/atomonly
      stencil: full/bin/3d
      bin: standard
Deleted 111 atoms, new total = 4560

# set timestep
#
timestep 10.0

# Define output
#

compute 1 all msd
compute 2 water temp
compute        peratom water stress/atom NULL
compute        p water reduce sum c_peratom[1] c_peratom[2] c_peratom[3]
variable       water_press equal -(c_p[1]+c_p[2]+c_p[3])/(3*(vol-24277.055086535))

thermo 50
thermo_style custom step c_2 v_water_press vol etotal ke pe c_1[4]

# Neighbor lists
#
neigh_modify delay 0 every 1 check yes


# Fix graphite atoms in place
#
fix 1 graphite setforce 0.0 0.0 0.0
velocity graphite set 0.0 0.0 0.0


### Set fixes ###
#

# Run 0.25 ns equilibration of water in NPH ensemble
#
fix 2 water momentum 10 linear 1 1 1 rescale
fix 3 water nph z ${PRES} ${PRES} ${PCOUPL}
fix 3 water nph z -1000 ${PRES} ${PCOUPL}
fix 3 water nph z -1000 -1000 ${PCOUPL}
fix 3 water nph z -1000 -1000 10000.0
fix 4 water temp/csvr ${TEMP} ${TEMP} ${TCOUPL} 837492
fix 4 water temp/csvr 240 ${TEMP} ${TCOUPL} 837492
fix 4 water temp/csvr 240 240 ${TCOUPL} 837492
fix 4 water temp/csvr 240 240 5000.0 837492

dump 	1 all custom 2000 nph.${NAME}.dump id type x y z
dump 	1 all custom 2000 nph.ML_graphite_m1000atm_240K.dump id type x y z
run 	25000
Neighbor list info ...
  update every 1 steps, delay 0 steps, check yes
  max neighbors/atom: 2000, page size: 100000
  master list distance cutoff = 6.6747184
  ghost atom cutoff = 6.6747184
  binsize = 3.3373592, bins = 15 15 11
  1 neighbor lists, perpetual/occasional/extra = 1 0 0
  (1) pair sw, perpetual
      attributes: full, newton on
      pair build: full/bin/atomonly
      stencil: full/bin/3d
      bin: standard
Per MPI rank memory allocation (min/avg/max) = 5.575 | 5.578 | 5.583 Mbytes
Step c_2 v_water_press Volume TotEng KinEng PotEng c_1[4] 
       0    243.56611    -2271.479    85075.489   -16467.166    1306.1177   -17773.283            0 
      50    263.72996   -3870.5662     84838.76   -16476.749    1414.2459   -17890.994   0.43201853 
     100    270.99202   -2963.5868    84049.973   -16533.565    1453.1886   -17986.754   0.69815672 
     150    264.27523   -2488.7927    83241.783   -16564.027    1417.1699   -17981.197   0.96358911 
     200    274.54191   -2296.8467    82636.463    -16598.18    1472.2248   -18070.404    1.1855811 
     250    270.61432   -2377.7028     82100.54   -16631.063    1451.1631   -18082.226    1.4647416 
     300    269.16231   -2108.0044     81557.83   -16649.642    1443.3768   -18093.019    1.7182239 
     350    271.81352   -2279.1795    81068.016   -16662.178    1457.5938   -18119.771    1.9224828 
     400    269.22637   -1710.5775    80673.508   -16710.318    1443.7203   -18154.039    2.1538654 
     450     269.6388   -2099.3976    80379.968    -16737.69    1445.9319   -18183.622    2.4426363 
     500    260.14938   -1937.2546    80122.177   -16764.886    1395.0451   -18159.931    2.7156125 
     550    257.90243   -2555.7104    79878.012   -16786.528    1382.9959   -18169.524    2.9767806 
     600    264.28513   -1694.6741    79626.999   -16804.175     1417.223   -18221.398    3.2467916 
     650    263.48425   -2669.5624    79417.479   -16835.187    1412.9283   -18248.115    3.4085432 
     700    263.27522   -1978.5805    79188.548   -16839.833    1411.8074   -18251.641    3.6294932 
     750    275.67747   -1730.1395    78985.429   -16868.336    1478.3142    -18346.65      3.76755 
     800    262.03522   -1689.3513    78787.885   -16887.449    1405.1579   -18292.607    3.9685507 
     850    254.16017   -2193.9233    78538.986   -16920.355    1362.9281   -18283.284    4.2179758 
     900    256.95919    -1652.121    78284.009   -16940.833    1377.9378   -18318.771    4.4828399 
     950    253.92413   -2287.5862    78059.354   -16964.403    1361.6624   -18326.066    4.8614997 
    1000     262.8844     -2161.35    77841.099   -16962.313    1409.7116   -18372.025    5.0723954 
    1050    267.50432   -1899.1976    77611.276   -16988.056    1434.4858   -18422.542    5.1533507 
    1100     260.4449   -1483.3785    77412.202   -16996.126    1396.6299   -18392.756    5.4188566 
    1150    259.41966   -1681.6175    77260.561   -17015.398     1391.132    -18406.53    5.5928679 
    1200    263.18677   -1877.5065    77131.651   -17041.072    1411.3331   -18452.405    5.7164307 
    1250    263.05923   -1335.1847    77042.694   -17058.206    1410.6491   -18468.855    5.9282309 
    1300    253.38339    -1723.319    77022.215   -17080.654    1358.7627   -18439.416    6.1053829 
    1350    252.67899    -1694.584     77017.75    -17075.72    1354.9853   -18430.706    6.3415837 
    1400    252.42722   -1689.2766     77007.22   -17081.877    1353.6352   -18435.512    6.4639433 
    1450    256.41581   -1230.6103    76998.762   -17079.022     1375.024   -18454.045     6.539174 
    1500    248.35003   -2251.6887    76945.852   -17115.377    1331.7714   -18447.148    6.6836579 
    1550    253.09198   -1777.7589    76805.922   -17110.745       1357.2   -18467.945    6.9529166 
    1600    250.16602     -1343.32    76619.172   -17120.936    1341.5096   -18462.446    7.1417357 
    1650    256.11664   -1537.6646    76407.561    -17141.12    1373.4196   -18514.539    7.3547434 
    1700    251.03624   -1334.8284    76209.011   -17144.701    1346.1761   -18490.877    7.6819168 
    1750    245.84627   -1219.6941    76077.177    -17135.88    1318.3451   -18454.225    7.9213031 
    1800    259.23854   -1916.1359    76002.271   -17152.566    1390.1608   -18542.727    8.0595875 
    1850     254.5809   -1629.2104    75943.408   -17145.525    1365.1843   -18510.709    8.2399343 
    1900    248.86926   -1350.2514     75894.67   -17156.463    1334.5558   -18491.019     8.382805 
    1950    258.86753   -1197.2558    75883.984   -17164.204    1388.1712   -18552.375    8.6318911 
    2000    247.51772   -1780.6524    75876.602   -17151.393    1327.3082   -18478.701    8.8077299 
    2050    249.35621   -1748.6925    75853.975   -17164.404     1337.167   -18501.571     8.918155 
    2100     250.4987   -1177.9053    75863.825     -17175.3    1343.2936   -18518.593    9.0128734 
    2150    253.78139   -1453.1573    75892.215   -17163.212    1360.8969   -18524.109     9.129241 
    2200    250.35398   -1902.9458    75920.219   -17161.588    1342.5175   -18504.106    9.2551072 
    2250    255.79556   -1208.3083     75974.16   -17168.885    1371.6979   -18540.583    9.4309223 
    2300    246.35033   -1609.5711    76039.191   -17181.279     1321.048   -18502.327    9.4928322 
    2350    246.30831    -1049.285    76102.473   -17175.846    1320.8227   -18496.669     9.563629 
    2400    245.01981   -2058.8071     76176.84    -17199.91    1313.9132   -18513.823    9.5769411 
    2450    242.90159    -2124.236    76229.125   -17221.221    1302.5543   -18523.775    9.6350181 
    2500    248.47763   -1589.5542    76211.763   -17239.249    1332.4556   -18571.705    10.060639 
    2550     250.5116   -1778.5432    76146.573   -17218.663    1343.3627   -18562.025    10.144177 
    2600    243.86938   -1736.9076    76102.462   -17234.848     1307.744   -18542.592    10.266913 
    2650    244.69719   -1661.8777    76094.002   -17259.627    1312.1831    -18571.81    10.404311 
    2700     243.3507   -1717.7146    76085.717    -17244.89    1304.9626   -18549.853     10.55898 
    2750    252.31705   -1769.8533    76035.527   -17251.102    1353.0444   -18604.147    10.755009 
    2800    248.08236   -1778.7572    75944.385   -17267.704     1330.336    -18598.04    10.871453 
    2850    245.60334   -1538.9781    75852.474   -17264.342    1317.0423   -18581.384    10.954063 
    2900    241.64342   -1479.9426     75798.09   -17283.501    1295.8074   -18579.308    10.997792 
    2950    238.83563    -1217.274    75736.903   -17291.976    1280.7506   -18572.726    11.125888 
    3000    246.71594   -1626.8271    75660.756   -17306.806    1323.0086   -18629.814    11.330261 
    3050    252.21816   -1853.1577    75590.642   -17300.077    1352.5142   -18652.592    11.463162 
    3100    246.93188   -1749.3654    75543.948   -17285.174    1324.1666    -18609.34    11.680444 
    3150    254.87796   -419.37536    75530.444   -17276.245    1366.7773   -18643.022    11.731723 
    3200    245.92184   -1132.8222    75586.771   -17270.375    1318.7503   -18589.125    11.844262 
    3250    243.91561   -1879.8984    75686.443   -17277.987    1307.9919   -18585.978    11.955615 
    3300    252.48208   -1554.6304    75724.968   -17276.618    1353.9294   -18630.548    12.050414 
    3350    244.31246   -1691.9921    75734.203   -17302.798      1310.12   -18612.918    12.206838 
    3400     243.8715   -1621.7242    75739.972     -17317.5    1307.7554   -18625.256    12.212898 
    3450    242.72157   -1523.5685    75733.784   -17347.841    1301.5889    -18649.43    12.310169 
    3500    243.56708   -1204.9987    75738.507   -17352.481    1306.1229   -18658.604    12.406569 
    3550     244.7695   -1579.3658    75760.525    -17366.85    1312.5709   -18679.421    12.530047 
    3600    245.88213   -1711.5482    75806.436    -17371.77    1318.5373   -18690.307    12.601243 
    3650    241.31853     -1124.52    75833.044   -17360.761    1294.0651   -18654.826    12.649395 
    3700    248.19688   -982.38648    75892.482   -17341.904    1330.9501   -18672.855    12.761545 
    3750    245.60149   -1400.5716    75984.631   -17317.689    1317.0324   -18634.721    12.837544 
    3800    243.65957    -1492.847    76043.899   -17318.741    1306.6189    -18625.36     12.98504 
    3850     243.9537    -1489.569    76087.689   -17304.698    1308.1962   -18612.894    13.071417 
    3900    249.25157   -1441.8372    76138.812   -17306.626    1336.6059   -18643.232    13.261417 
    3950    241.93748   -1807.3915     76160.99   -17315.995    1297.3842   -18613.379    13.463803 
    4000     249.3528   -1092.0811    76152.811    -17327.42    1337.1487   -18664.569    13.440329 
    4050      242.745    -1759.509     76125.56    -17338.66    1301.7146   -18640.374       13.512 
    4100    242.17191   -2021.1972    76052.999    -17331.35    1298.6414   -18629.992    13.715559 
    4150    242.48697   -1593.5739    75898.913   -17355.557    1300.3308   -18655.888    13.939988 
    4200    249.09661   -1134.0624     75688.62   -17359.212    1335.7749   -18694.987    14.115459 
    4250    238.68104   -308.76348    75525.883    -17347.23    1279.9217   -18627.152    14.300462 
    4300    242.02791   -897.27325     75493.92   -17361.577    1297.8692   -18659.446    14.418343 
    4350    241.39175   -1288.3555    75512.563   -17362.868    1294.4578   -18657.326    14.552231 
    4400    249.21387   -798.77628    75586.528   -17362.663    1336.4037   -18699.067    14.611986 
    4450    249.90323   -925.03182    75678.116   -17356.668    1340.1004   -18696.768    14.736211 
    4500    240.37572   -927.54528     75796.93    -17362.51    1289.0093   -18651.519    14.757609 
    4550    249.25884   -1596.0495    75929.832   -17354.383    1336.6448   -18691.028    14.770381 
    4600    240.45065   -1733.1045    75999.488   -17355.361    1289.4111   -18644.772    14.897574 
    4650    241.68534   -2049.3122    76018.707   -17345.263    1296.0321   -18641.296    15.008878 
    4700    246.49028   -1483.0243    75993.268   -17353.718    1321.7985   -18675.517     15.12128 
    4750    247.57423   -1796.7114    75971.181   -17363.477    1327.6112   -18691.088    15.356812 
    4800    250.22791   -1710.8113    75956.635   -17355.292    1341.8415   -18697.134    15.445088 
    4850    245.39407   -1201.7605    75948.252   -17347.554    1315.9201   -18663.474    15.587753 
    4900    246.35991   -1434.7363    75961.936   -17355.434    1321.0994   -18676.534    15.685831 
    4950    245.29197   -1714.0955    75965.664   -17354.586    1315.3726   -18669.959     15.77727 
    5000    243.50477   -1612.9716    75962.511   -17356.174    1305.7888   -18661.963    15.775976 
    5050    246.54799   -1035.2976    75957.002   -17366.292     1322.108     -18688.4    15.798191 
    5100    246.02092   -1223.0123    75993.633   -17364.183    1319.2816   -18683.465    15.945079 
    5150    248.48107    -1312.663     76028.82   -17374.172    1332.4741   -18706.646    16.040564 
    5200    242.25743   -1213.9359    76052.502   -17363.508       1299.1   -18662.608    16.182015 
    5250    246.74654   -1897.3705    76103.016   -17353.032    1323.1727   -18676.204    16.308398 
    5300    246.06572   -1573.5857    76170.338   -17339.766    1319.5218   -18659.288    16.534168 
    5350    254.07854   -1473.4694    76276.494    -17339.47    1362.4904    -18701.96    16.495695 
    5400    240.21312   -1743.5472    76392.043   -17342.891    1288.1374   -18631.029    16.509657 
    5450    238.36932   -2132.1083    76479.969   -17334.344      1278.25   -18612.594    16.592316 
    5500    244.50303    -1614.178    76476.672   -17335.462     1311.142   -18646.604    16.650278 
    5550    247.20147    -1378.193    76423.625   -17343.093    1325.6122   -18668.705    16.684622 
    5600      249.084   -1258.1459    76372.796   -17334.332    1335.7073    -18670.04    16.799585 
    5650    239.71462   -1492.3338    76306.423    -17334.46    1285.4642   -18619.924    17.038031 
    5700    242.94512   -1577.7532     76234.82   -17323.293    1302.7877    -18626.08    17.222266 
    5750    245.27209   -1479.8299    76180.071   -17330.273     1315.266   -18645.539    17.396631 
    5800    247.44202   -2113.3315    76112.021   -17345.822    1326.9022   -18672.724    17.575246 
    5850    245.83823   -1724.0881     76005.27   -17361.938    1318.3019    -18680.24    17.600294 
    5900    248.43897   -1659.4039    75923.023   -17347.213    1332.2483   -18679.462    17.697038 
    5950    246.28037   -1596.8592    75859.339   -17344.406    1320.6729   -18665.079    17.852195 
    6000    242.88401   -1146.0011    75854.373   -17354.871      1302.46   -18657.331     18.15414 
    6050    242.31099   -1365.3351     75906.39    -17379.35    1299.3872   -18678.737    17.987596 
    6100    248.04667    -1413.425    75943.323    -17372.77    1330.1447   -18702.915    18.172895 
    6150    248.92622   -1656.5223    75963.943   -17359.593    1334.8612   -18694.454    18.215953 
    6200     239.1223   -1345.2838    75948.528   -17357.097    1282.2879   -18639.385      18.1309 
    6250    246.80494   -1381.0845      75923.4   -17341.449    1323.4859   -18664.935    18.266477 
    6300    249.84308   -1894.5514    75896.137   -17353.306    1339.7779   -18693.084    18.530414 
    6350    242.52361   -1054.7723     75826.19   -17360.935    1300.5274   -18661.462    18.783031 
    6400    250.21183   -1006.1171     75773.47   -17354.663    1341.7553   -18696.418    18.908026 
    6450    241.58731   -1331.3755     75768.41   -17354.386    1295.5065   -18649.892    18.980007 
    6500    238.05722   -1340.9679    75814.644   -17348.855    1276.5764   -18625.431    19.013546 
    6550    239.62302    -1306.128    75855.832    -17348.35     1284.973   -18633.323    19.072459 
    6600    241.69554   -1614.2098     75904.66   -17379.177    1296.0869   -18675.263    19.213318 
    6650     242.9571   -2097.5153    75944.614   -17393.304    1302.8519   -18696.156    19.318791 
    6700    238.40532   -901.19319    75956.083   -17396.191    1278.4431   -18674.634    19.408167 
    6750    238.83332   -1800.6904     75991.07   -17403.959    1280.7382   -18684.697    19.488476 
    6800     237.8715    -1935.589    76026.433   -17404.484    1275.5805   -18680.064    19.550851 
    6850    239.65859    -1523.021    76038.051   -17407.361    1285.1637   -18692.524    19.551573 
    6900    239.50255   -1452.0079    76035.778   -17409.059     1284.327   -18693.386    19.717502 
    6950    242.27514   -968.14246    76012.125   -17397.646    1299.1949   -18696.841    19.907823 
    7000    243.03732   -1760.2049    76017.632   -17397.429    1303.2821   -18700.711    20.067963 
    7050     244.0155   -1675.0196    76002.746    -17388.76    1308.5276   -18697.287    19.959611 
    7100    241.72562   -1305.6958    75959.061   -17373.722    1296.2481    -18669.97    20.027986 
    7150    242.65316   -1175.6731    75897.824   -17365.155     1301.222   -18666.377    20.253957 
    7200     245.5952   -1184.4144    75843.956   -17353.837    1316.9987   -18670.835    20.422138 
    7250    247.31875   -1526.4585    75787.615   -17321.651    1326.2412   -18647.892    20.473777 
    7300    244.83992    -2022.598    75728.099   -17325.758    1312.9485   -18638.707    20.563514 
    7350    243.01767   -1691.9779     75658.57   -17337.315    1303.1767   -18640.491     20.74488 
    7400    241.01723   -1431.9437    75556.241   -17336.347    1292.4494   -18628.797    20.859883 
    7450    239.97191   -1128.9714    75517.644   -17325.119    1286.8439   -18611.963    21.048314 
    7500    242.78989   -1165.3731    75551.521   -17326.181    1301.9553   -18628.136    21.091209 
    7550      246.605   -1028.7459    75611.469   -17349.932    1322.4137   -18672.346    21.211141 
    7600    241.48943    -528.0866    75709.955    -17350.36    1294.9816   -18645.341    21.316068 
    7650    243.79547   -1034.0204     75833.82   -17338.988    1307.3477   -18646.336    21.515271 
    7700    245.60693   -1242.4293    75980.384   -17336.768    1317.0616    -18653.83    21.552788 
    7750    244.27248   -851.31471    76133.017    -17344.79    1309.9056   -18654.695    21.711969 
    7800     242.6757   -1846.6705    76239.929   -17365.564    1301.3429   -18666.907    21.769403 
    7850     238.7106   -1637.4684    76290.932    -17344.15    1280.0802   -18624.231    21.858234 
    7900    247.40956   -1905.7885    76310.298   -17331.973    1326.7281   -18658.701    21.958161 
    7950    240.52203   -1607.0877    76302.794   -17336.361    1289.7939   -18626.155    22.079589 
    8000     249.6837   -1773.9038     76256.74   -17338.072    1338.9232   -18676.995     22.09856 
    8050    241.87579   -1164.5254    76157.925   -17348.916    1297.0534    -18645.97    22.222555 
    8100    235.82744   -1361.1977    76060.006   -17362.614    1264.6193   -18627.234    22.358798 
    8150    245.24363   -1215.7031    75979.415   -17380.607    1315.1134   -18695.721    22.655278 
    8200    243.35452   -1325.4578    75927.881   -17367.093    1304.9831   -18672.076    22.923596 
    8250    243.42469   -1360.5729    75911.078   -17368.361    1305.3594    -18673.72     23.17404 
    8300    239.37007   -1201.5291     75873.52   -17365.619    1283.6166   -18649.235    23.217126 
    8350     238.8315   -1338.8513    75832.348   -17375.986    1280.7285   -18656.715    23.308036 
    8400    237.62968   -1217.8651    75803.599   -17379.312    1274.2838   -18653.595    23.478506 
    8450    234.23884   -1268.8225    75812.249    -17373.74    1256.1004    -18629.84    23.564045 
    8500    239.54617   -1717.5797    75801.025   -17357.946    1284.5609   -18642.507    23.725933 
    8550    242.01358   -1702.5721    75775.334   -17347.173    1297.7923   -18644.965    23.936238 
    8600    249.79166   -1124.5217    75763.488    -17346.68    1339.5021   -18686.182    24.202925 
    8650    244.76393    -1396.346    75842.634   -17333.355     1312.541   -18645.896    24.163658 
    8700    246.30895    -1832.265    75971.306   -17320.361    1320.8261   -18641.187    24.131785 
    8750    247.92474   -1840.9643    76104.405   -17306.571    1329.4908   -18636.062    24.338398 
    8800    241.47403   -1694.8651    76228.958   -17301.156     1294.899   -18596.055    24.321281 
    8850    248.59805   -2037.0187    76323.017   -17288.298    1333.1014     -18621.4    24.285101 
    8900    242.28645   -1160.3538     76328.38    -17292.15    1299.2556   -18591.405    24.463416 
    8950    254.42621   -1702.5383    76253.568   -17294.176    1364.3548   -18658.531    24.541202 
    9000    250.11255     -1392.74    76110.416   -17292.868    1341.2228   -18634.091    24.939116 
    9050    249.13076   -1974.2225    75948.983    -17303.36     1335.958   -18639.318    25.105181 
    9100    247.19729   -933.73701    75769.183   -17309.691    1325.5898   -18635.281    25.227387 
    9150    255.83636   -788.27519    75651.385   -17312.904    1371.9167   -18684.821    25.165627 
    9200    250.16067   -1005.7843    75597.504    -17301.92    1341.4809   -18643.401    25.387881 
    9250    251.03984   -1077.6322    75559.741   -17315.181    1346.1955   -18661.376    25.435037 
    9300    246.47703   -578.85624    75575.232   -17332.688    1321.7275   -18654.416    25.556445 
    9350    243.32147   -1570.9686    75625.016   -17337.941    1304.8059   -18642.747    25.459938 
    9400    249.78287   -1433.3985     75661.89    -17340.55    1339.4549   -18680.005     25.53811 
    9450    247.37723   -1129.1225      75732.4   -17343.644    1326.5548   -18670.199    25.671331 
    9500    246.23649   -1336.9318    75828.133   -17328.666    1320.4376   -18649.104    25.664062 
    9550    244.20038   -1455.7127    75914.015   -17338.022     1309.519   -18647.541    25.843047 
    9600    243.17067   -1523.3965     75975.06   -17331.465    1303.9972   -18635.462    25.958726 
    9650    241.05645   -1362.4962    76007.591   -17310.478    1292.6597   -18603.137    26.097731 
    9700    241.52522   -1939.5098    76029.282    -17323.55    1295.1735   -18618.723    26.322485 
    9750    240.68823   -2234.5023    76014.804    -17319.41    1290.6852   -18610.096      26.4176 
    9800    244.82896   -1666.0906    75956.806   -17321.161    1312.8898   -18634.051    26.320405 
    9850    246.31049   -1114.4479    75835.189   -17311.469    1320.8344   -18632.304    26.394929 
    9900    246.10926   -1476.8483    75738.215   -17316.167    1319.7553   -18635.923    26.489671 
    9950    250.18768   -1291.4581    75682.249   -17321.629    1341.6257   -18663.254     26.56941 
   10000    244.32221   -852.17683    75715.121   -17330.249    1310.1723   -18640.421    26.699024 
   10050    236.69124   -1118.1007    75819.872   -17321.669    1269.2514    -18590.92    26.757511 
   10100    242.52436   -1759.4282    75911.153   -17338.605    1300.5314   -18639.137    26.913393 
   10150    239.14961   -1504.2782    75937.014   -17332.321    1282.4344   -18614.755    27.060948 
   10200    245.94455   -1284.9554    75945.181   -17345.072    1318.8721   -18663.944    27.248211 
   10250    246.72377    -1073.868    75978.885   -17323.388    1323.0506   -18646.438    27.356655 
   10300    245.41775   -1321.3132    76048.443   -17309.478    1316.0471   -18625.525    27.661522 
   10350    240.97412   -1498.3014    76096.949   -17315.526    1292.2183   -18607.744    27.695735 
   10400    242.48901   -1341.4134    76062.868   -17327.608    1300.3418    -18627.95    27.733999 
   10450    251.14847   -1075.8536    76021.381   -17308.339     1346.778   -18655.117    27.757384 
   10500    244.37378   -1726.7162    76024.389   -17312.254    1310.4488   -18622.703    27.962839 
   10550    245.07718   -1462.4325    76021.947   -17318.838    1314.2208   -18633.059    28.090855 
   10600    246.10937   -1199.3631    76031.298   -17333.288    1319.7559   -18653.044    28.079559 
   10650    243.22933   -1830.4529    76022.673   -17347.496    1304.3118   -18651.808     28.23676 
   10700    249.17309   -1412.1943    75977.756   -17363.873     1336.185   -18700.058     28.28079 
   10750    238.94176    -1279.334    75928.137   -17352.259    1281.3198   -18633.578    28.509572 
   10800    252.82194   -1046.2488     75924.87   -17354.812    1355.7519   -18710.564    28.608034 
   10850    242.96357   -1141.9026    75968.216   -17369.006    1302.8866   -18671.892    28.532885 
   10900    238.81451   -1132.3214     76040.07   -17363.923    1280.6374    -18644.56    28.502234 
   10950    242.49665   -1335.5518    76163.442   -17371.925    1300.3828   -18672.307    28.808119 
   11000    241.40928   -1563.9539    76286.835   -17380.602    1294.5518   -18675.154    28.924691 
   11050    240.36033   -1351.0264    76380.671    -17384.38    1288.9268   -18673.307     28.78995 
   11100    244.20419   -1520.2185    76429.286   -17398.307    1309.5394   -18707.847    28.810933 
   11150    241.85121   -1192.3164    76447.514   -17392.229    1296.9216    -18689.15    28.755287 
   11200     236.4224   -2047.1894    76453.516   -17385.039    1267.8098   -18652.849    28.931659 
   11250    233.11818   -1647.1318    76386.016   -17387.061     1250.091   -18637.152    29.049637 
   11300    246.96536    -1028.121    76243.155   -17402.762    1324.3461   -18727.108     29.34456 
   11350     240.0258   -692.18631    76134.555   -17400.806    1287.1329   -18687.939     29.40972 
   11400    236.45218   -1142.3312    76119.361   -17403.372    1267.9695   -18671.341    29.682428 
   11450    242.68888    -1497.316    76175.707   -17385.175    1301.4136   -18686.589    29.579402 
   11500    242.14914   -1375.2385    76262.274   -17363.194    1298.5193   -18661.713    29.561841 
   11550    239.91022   -1443.3398    76350.425   -17365.333    1286.5131   -18651.846    29.663357 
   11600    241.69476   -1466.1746    76404.982   -17388.449    1296.0826   -18684.532     29.70262 
   11650    244.22337   -810.69503    76448.132    -17404.24    1309.6423   -18713.882    29.811176 
   11700     237.7342   -1257.8472    76527.803   -17394.378    1274.8443   -18669.222    29.963789 
   11750    234.72163   -1826.1526    76574.086   -17420.062    1258.6894   -18678.751    30.006064 
   11800    244.61851   -1941.8284     76528.19   -17424.625    1311.7612   -18736.386    30.189384 
   11850    235.71495   -1880.8651    76432.639   -17431.634    1264.0161    -18695.65    30.175757 
   11900    238.18634   -1397.2223    76303.881   -17423.954    1277.2688   -18701.223    30.291532 
   11950    232.48345   -1378.7438     76169.48   -17434.789    1246.6872   -18681.476    30.604399 
   12000    243.65285   -1504.3953    76046.739   -17435.408    1306.5829   -18741.991    30.924834 
   12050    232.01189   -870.60298     75949.65   -17442.921    1244.1585    -18687.08    30.919714 
   12100    234.20421   -1176.6671    75892.924   -17421.959    1255.9147   -18677.874    31.179221 
   12150    235.70302   -1382.3484    75857.513   -17416.852    1263.9521   -18680.804    31.328778 
   12200    241.90377   -1292.8454     75781.71   -17402.841    1297.2035   -18700.044    31.327303 
   12250    241.59597   -1745.3209    75702.038   -17410.985    1295.5529   -18706.538    31.478673 
   12300    235.43282   -1193.0523    75637.273   -17391.579    1262.5032   -18654.082    31.743916 
   12350    235.11483   -1296.4562    75610.678   -17396.623    1260.7979   -18657.421    31.880941 
   12400    234.97316   -1665.4052    75581.269   -17385.704    1260.0383   -18645.742    31.867147 
   12450    240.49634   -1390.1677    75530.902   -17383.242    1289.6562   -18672.898    31.864786 
   12500    234.66117   -781.43363    75488.066   -17385.569    1258.3652   -18643.934     31.89927 
   12550    243.60712   -773.04662    75527.577   -17375.502    1306.3376    -18681.84    31.974976 
   12600    242.23127   -1332.4234    75637.351   -17384.804    1298.9597   -18683.764    32.101861 
   12650    236.24738   -1280.3766     75797.14   -17377.705    1266.8712   -18644.576    32.262254 
   12700     240.5953   -1242.4992    75971.172   -17377.258    1290.1868   -18667.445    32.239604 
   12750    239.02529   -1556.9516    76139.357   -17369.361    1281.7677   -18651.128    32.464725 
   12800    239.67259    -2197.436    76208.573   -17371.691    1285.2388    -18656.93    32.444303 
   12850    237.20751   -1750.0962    76187.242   -17375.671    1272.0199   -18647.691    32.548077 
   12900    242.63354   -1549.0638    76100.884   -17379.555    1301.1169   -18680.672    32.595777 
   12950    241.27675   -1618.1548    75973.485   -17381.614    1293.8411   -18675.455     33.01866 
   13000    242.52327   -1455.5242    75816.882   -17360.369    1300.5255   -18660.894    33.317198 
   13050    241.83405   -927.09749     75689.44    -17360.54    1296.8296    -18657.37    33.458402 
   13100    247.69579   -695.14758    75657.595   -17361.806     1328.263   -18690.069    33.404268 
   13150    246.04243   -1088.5668    75717.033   -17375.554    1319.3969   -18694.951    33.434826 
   13200    244.44621   -1008.7813    75800.898   -17350.236    1310.8372   -18661.073    33.276441 
   13250    246.70537   -1213.9526    75942.723   -17353.578     1322.952    -18676.53    33.343999 
   13300    245.33368   -1209.0613    76075.718   -17362.522    1315.5963   -18678.119    33.634601 
   13350     242.7138   -1942.5493     76124.84   -17366.627    1301.5473   -18668.174     33.65907 
   13400    248.74031   -1622.6412    76123.575   -17374.266    1333.8643    -18708.13    33.733538 
   13450    246.81424   -1541.7475    76099.258    -17368.61    1323.5358   -18692.146    33.786965 
   13500    242.60128   -1535.6361    76066.331   -17374.113    1300.9439   -18675.056    33.960872 
   13550     238.7149   -1725.7924    76011.613   -17372.731    1280.1032   -18652.834     33.92669 
   13600    241.81235   -1493.6373     75979.87   -17375.494    1296.7132   -18672.207    34.068204 
   13650    242.64906   -2058.3924    75958.913   -17391.566    1301.2001   -18692.766    34.212573 
   13700    240.16978   -1835.4935    75911.341   -17385.661     1287.905   -18673.566    34.357439 
   13750    239.40174   -1590.7826    75809.571    -17380.79    1283.7864   -18664.576    34.609633 
   13800    243.52729   -1206.0377    75717.378   -17375.413    1305.9095   -18681.322    34.812635 
   13850    243.06372   -1343.6165    75656.905   -17374.545    1303.4237   -18677.969    34.988407 
   13900     247.2758   -881.70411     75623.53   -17377.567    1326.0109   -18703.577    34.997409 
   13950    239.80342    -1396.886    75658.215   -17375.565    1285.9404   -18661.505    35.251108 
   14000    238.79117   -2166.5745    75734.621   -17384.089    1280.5122   -18664.602    35.287981 
   14050    241.81354   -1761.9259    75766.674   -17385.725    1296.7196   -18682.444    35.359095 
   14100    244.04679    -1476.876    75740.229    -17377.43    1308.6954   -18686.125    35.492673 
   14150    242.54227   -1477.2238      75668.5   -17389.523    1300.6274   -18690.151    35.795036 
   14200     240.4675   -1418.4264    75565.856   -17400.168    1289.5015   -18689.669    35.916579 
   14250    234.76153   -1562.4374    75466.146   -17424.252    1258.9034   -18683.155    36.012163 
   14300    246.59061   -1033.7622    75408.586   -17423.562    1322.3365   -18745.898    36.024495 
   14350    233.04353   -1269.8089    75431.118   -17425.817    1249.6906   -18675.508    36.058126 
   14400    241.13328   -1352.4341    75534.408   -17428.928    1293.0718   -18721.999    36.069896 
   14450    236.18145   -1297.4167    75670.845   -17420.704    1266.5177   -18687.222    35.991725 
   14500    237.72172   -1487.1188    75815.478   -17408.966    1274.7773   -18683.743    36.347816 
   14550    236.34277   -1874.2074    75970.744   -17424.629    1267.3827   -18692.011    36.413985 
   14600    230.08551   -2161.2037     76078.97   -17415.323    1233.8283   -18649.151    36.670786 
   14650    236.40555   -1887.6733    76118.986   -17405.271    1267.7194    -18672.99    36.825253 
   14700    240.31529    -1866.634    76117.689   -17391.033    1288.6853   -18679.718     36.78923 
   14750     241.3266   -2020.7879    76084.567   -17404.769    1294.1084   -18698.878    36.779945 
   14800     238.8657   -2002.4267    75984.575   -17397.319    1280.9119   -18678.231    37.003094 
   14850    241.73004    -1745.061    75851.207   -17402.924    1296.2718   -18699.196      37.0591 
   14900    239.05898   -1299.1056    75724.093   -17407.861    1281.9483   -18689.809    37.138485 
   14950    243.44674   -1166.4612    75650.625   -17424.544    1305.4776   -18730.022    37.331603 
   15000    240.30705   -1219.5165    75655.821   -17443.653    1288.6411   -18732.294    37.297031 
   15050    234.05117    -1800.947    75697.331   -17446.598    1255.0941   -18701.693    37.466442 
   15100     237.2753   -1670.3021    75708.718   -17455.473    1272.3834   -18727.856    37.510193 
   15150    236.53743   -1344.4972    75660.357   -17458.786    1268.4266   -18727.212    37.544667 
   15200    237.29619   -1797.6577    75577.908   -17477.783    1272.4954   -18750.279    37.644022 
   15250    236.60766   -1850.8181    75467.012   -17476.558    1268.8032   -18745.361    37.664028 
   15300    237.45408   -1474.0787    75371.226   -17471.867    1273.3421   -18745.209    38.031561 
   15350    235.31461   -926.11803    75312.709   -17481.982    1261.8693   -18743.851    38.242707 
   15400    227.04955   -812.49643    75355.575   -17499.875    1217.5481   -18717.423    38.354742 
   15450    231.44367   -1717.2615    75457.185   -17532.949    1241.1114   -18774.061    38.436632 
   15500    233.67161   -1991.4624     75500.33   -17547.572    1253.0587   -18800.631    38.468547 
   15550     235.1541   -1554.7093    75493.903   -17532.223    1261.0085   -18793.231     38.37074 
   15600    238.23305   -450.02902    75496.139   -17514.544    1277.5193   -18792.063    38.480934 
   15650    239.27721    -1263.656    75572.105   -17487.912    1283.1186   -18771.031    38.630769 
   15700    243.44009   -1495.0734     75679.07   -17471.127    1305.4419   -18776.569    38.539499 
   15750    234.52661    -1522.796    75746.415    -17464.31    1257.6436   -18721.954    38.713015 
   15800    235.81031   -778.01501    75786.917   -17468.565    1264.5274   -18733.093    38.745886 
   15850    238.08613   -1271.7526    75860.335   -17467.274    1276.7314   -18744.005    38.858937 
   15900    238.15266   -416.70356    75933.896   -17463.894    1277.0882   -18740.982    38.892438 
   15950     233.2651    -1313.005    76087.519   -17461.047    1250.8788   -18711.926    38.942223 
   16000    237.80217   -1292.4597    76224.152   -17455.654    1275.2087   -18730.863    38.931101 
   16050    236.10625   -1378.9116    76295.497   -17451.459    1266.1144   -18717.574    38.906337 
   16100    240.10359    -1536.239    76300.361   -17458.501      1287.55   -18746.051    39.164373 
   16150    244.11992   -1298.5538    76257.894   -17447.108    1309.0875   -18756.195    39.202695 
   16200    240.10274   -1491.2217    76195.106    -17434.06    1287.5455   -18721.605    39.021985 
   16250    237.38863   -1459.2059     76102.11   -17431.943    1272.9911   -18704.934    39.116832 
   16300    242.54151   -1405.9219    75970.832   -17432.157    1300.6233   -18732.781    39.268454 
   16350    242.49468   -1313.8989    75861.054   -17430.868    1300.3722    -18731.24    39.398261 
   16400    246.98443   -507.54257    75775.615   -17441.873    1324.4484   -18766.322    39.421082 
   16450    242.17959   -884.55222    75745.999   -17433.859    1298.6826   -18732.541    39.809908 
   16500    239.80249   -1506.1558    75767.839   -17449.307    1285.9354   -18735.242    39.921762 
   16550    243.53254   -1209.1375     75813.62   -17461.744    1305.9377   -18767.681    40.015263 
   16600     233.8788   -752.56718    75864.271   -17465.905    1254.1698   -18720.075    40.044679 
   16650    235.07923   -1451.2692    75927.036   -17466.924     1260.607   -18727.531    40.064403 
   16700     241.5284   -1660.4228    76024.259   -17447.246    1295.1906   -18742.436    40.108761 
   16750    239.16548   -1782.1132    76126.995   -17441.984    1282.5195   -18724.503    40.173015 
   16800    246.02648    -1285.592    76179.414   -17423.996    1319.3114   -18743.307    40.314264 
   16850    231.23344   -1481.3853    76214.933   -17418.806    1239.9841    -18658.79    40.507215 
   16900    231.96226   -1532.4993    76224.245   -17433.363    1243.8924   -18677.255    40.440344 
   16950    233.23731    -1297.126    76203.632   -17424.785    1250.7298   -18675.514    40.735408 
   17000    238.57818   -992.98741    76225.996   -17434.668    1279.3701   -18714.038    40.735538 
   17050    230.62119   -1327.0282    76284.664   -17417.534    1236.7009   -18654.235    40.655331 
   17100    235.70355   -1461.2155     76353.84    -17410.17    1263.9549   -18674.125    40.625086 
   17150    237.70291   -1602.5497    76393.739   -17406.118    1274.6765   -18680.795    40.698183 
   17200    238.83522   -1600.1423    76376.148    -17408.58    1280.7484   -18689.328     40.66902 
   17250    241.10912   -1302.1876    76317.817   -17423.885    1292.9422   -18716.827    40.709245 
   17300    237.24015   -900.08619      76252.4   -17427.092    1272.1949   -18699.287    40.997081 
   17350    232.51151   -1365.8577     76207.97   -17438.603    1246.8377    -18685.44    41.123793 
   17400     234.5662   -1353.7709    76181.429   -17438.546    1257.8559   -18696.402    41.173863 
   17450    235.38533   -1232.3277    76185.568   -17450.562    1262.2485    -18712.81    41.318048 
   17500    237.07214   -2287.8613     76227.67   -17463.248     1271.294   -18734.542     41.40928 
   17550    232.66779   -1941.9682     76228.56   -17460.959    1247.6757   -18708.634    41.287268 
   17600    240.96347   -1556.4752    76187.791   -17465.959    1292.1611    -18758.12    41.395649 
   17650    237.42826   -1578.2452    76186.359   -17459.657    1273.2036   -18732.861    41.477824 
   17700    235.96685   -1743.4116    76204.263   -17465.211    1265.3669   -18730.578    41.457338 
   17750    231.68827   -1885.0502    76210.959   -17478.565    1242.4231   -18720.988    41.656106 
   17800    233.59994   -1432.8527    76169.235   -17475.104    1252.6744   -18727.779    41.809047 
   17850     235.4014   -1349.0741    76103.126   -17485.844    1262.3347   -18748.178    41.694518 
   17900    237.57509   -1322.5898     76046.32   -17486.093     1273.991   -18760.084    41.714778 
   17950    235.54598   -1726.8417    75978.454   -17484.081      1263.11   -18747.191    41.865083 
   18000    241.66409   -1425.8053    75905.693   -17496.069    1295.9182   -18791.987    42.063132 
   18050    234.58897   -1231.4203    75852.573   -17513.351     1257.978   -18771.329    42.295205 
   18100    233.84371   -1281.7299    75806.301   -17504.254    1253.9816   -18758.235    42.371282 
   18150    235.33921   -1428.4559     75776.36   -17516.346    1262.0012   -18778.347    42.300388 
   18200    230.85035   -1200.0284    75768.258   -17524.621    1237.9298    -18762.55    42.243596 
   18250     236.2944   -1071.3375    75750.815   -17533.113    1267.1233   -18800.236    42.345192 
   18300    229.03026    -1466.194    75774.751   -17530.996    1228.1696   -18759.165    42.424431 
   18350    228.90013   -1082.4588     75833.07   -17510.067    1227.4717   -18737.538    42.549657 
   18400    235.63922   -1462.2079    75924.096   -17531.562      1263.61   -18795.172    42.671258 
   18450    235.05415   -1670.1947    75970.211    -17520.25    1260.4726   -18780.723    42.675907 
   18500    232.97683   -1680.6978     75982.97   -17499.465     1249.333   -18748.798    42.822999 
   18550    236.75271   -1436.0812    75963.891   -17500.129     1269.581    -18769.71    42.914073 
   18600    242.73687    -1345.372    75979.698   -17497.814    1301.6709   -18799.484     42.99275 
   18650    234.93119   -1280.4868    76033.959   -17479.389    1259.8132   -18739.202    42.961089 
   18700    240.65673   -775.65305    76080.962   -17473.875    1290.5162   -18764.391    43.035999 
   18750    237.09492   -1555.1032    76100.577   -17444.277    1271.4161   -18715.693     43.26942 
   18800    239.94681   -984.58628    76100.708   -17438.629    1286.7093   -18725.339    43.242825 
   18850    242.66535   -1319.2123    76077.154   -17453.266    1301.2874   -18754.554    43.379936 
   18900    236.00491   -1505.9902    76007.282   -17474.481     1265.571   -18740.052    43.449218 
   18950    240.14289   -1362.9456     75912.32   -17479.803    1287.7608   -18767.564    43.369229 
   19000    230.55797   -1497.8458    75829.506   -17471.462    1236.3619   -18707.824    43.526739 
   19050     234.2506   -1582.9454    75712.388   -17491.774    1256.1635   -18747.937    43.607938 
   19100    237.80499   -1245.8812    75632.216   -17484.425    1275.2238   -18759.649    43.653213 
   19150    236.46404   -1091.7465    75561.543   -17491.661     1268.033   -18759.694    43.885401 
   19200    236.04677   -1408.5114    75512.568   -17477.876    1265.7955   -18743.671    43.904954 
   19250    236.59706   -1369.2512    75450.963   -17489.679    1268.7464   -18758.425    43.979754 
   19300    235.93571   -1022.1306    75383.549   -17477.713    1265.1999   -18742.913    44.072395 
   19350    238.61822   -1382.8273    75390.584   -17477.117    1279.5848   -18756.702    44.209775 
   19400    237.31587   -1161.0135    75439.109   -17468.557     1272.601   -18741.158     44.27809 
   19450    240.55821   -725.67668    75500.861   -17468.013    1289.9879   -18758.001    44.530918 
   19500    233.12847   -1418.5405    75567.961   -17483.149    1250.1461   -18733.295    44.578412 
   19550    236.11708   -1133.8518     75661.94   -17487.764    1266.1725   -18753.937    44.715961 
   19600    242.51349   -1464.1627    75795.464   -17485.722    1300.4731   -18786.195    44.746887 
   19650    236.03333   -1791.9286     75935.42   -17478.796    1265.7234   -18744.519    44.947325 
   19700    237.86387    -1606.428    75973.548   -17485.503    1275.5396   -18761.043    45.043875 
   19750    232.53721   -1213.2964    75945.362   -17479.786    1246.9755   -18726.761    45.192153 
   19800    239.13546   -1712.4556    75903.795    -17484.91    1282.3585   -18767.269    45.292123 
   19850    233.86969   -1445.1479    75833.658   -17485.511    1254.1209   -18739.632     45.35259 
   19900    235.14165    -1212.821    75754.865   -17474.421    1260.9418   -18735.363     45.70883 
   19950    238.21229   -1398.6348    75721.383   -17476.019     1277.408   -18753.427    45.889161 
   20000    242.55801   -1290.5313    75754.077   -17486.731    1300.7118   -18787.443    45.835349 
   20050    241.43184   -1125.6451    75789.772   -17498.133    1294.6727   -18792.806    45.763853 
   20100     242.1639   -2008.8545    75796.234    -17522.05    1298.5984   -18820.648    46.103596 
   20150    246.44123   -676.10568    75763.643   -17503.172    1321.5355   -18824.707    46.154487 
   20200    236.57326   -799.14808    75768.363   -17520.273    1268.6187   -18788.892    46.326871 
   20250    237.71805   -1561.9403    75810.804   -17523.383    1274.7577   -18798.141    46.214679 
   20300    238.39415   -1777.8613    75849.728   -17504.327    1278.3832    -18782.71    46.282847 
   20350    243.51438   -1488.7632    75861.998   -17502.815    1305.8403   -18808.655    46.297483 
   20400    236.55419   -1452.3393    75865.483   -17508.103    1268.5165   -18776.619    46.344873 
   20450    237.63351    -1401.237    75894.415   -17516.177    1274.3043   -18790.481    46.438525 
   20500    234.99929   -1140.9809    75935.861   -17506.584    1260.1783   -18766.762    46.450645 
   20550    238.36306    -618.1618    75970.543   -17497.472    1278.2165   -18775.689    46.718841 
   20600    241.51805   -1222.2384     76010.77   -17500.783     1295.135   -18795.918    46.906989 
   20650    240.88102   -1399.3121    76081.336   -17506.469     1291.719   -18798.188     46.73861 
   20700    242.99394   -1738.9141    76177.207   -17480.307    1303.0495   -18783.357    46.721985 
   20750    233.54624   -1755.8925    76253.651   -17488.212    1252.3864   -18740.598    46.743329 
   20800    245.05845   -1253.1985    76289.785   -17482.017    1314.1204   -18796.138    46.831415 
   20850    241.09407   -2120.5681    76280.941     -17476.8    1292.8615   -18769.662    47.012888 
   20900    236.63106   -1736.6438    76199.623   -17496.386    1268.9287   -18765.314     47.09666 
   20950    240.49717    -1345.463    76101.167   -17499.088    1289.6606   -18788.748    47.139738 
   21000    237.15519   -1413.5078    76032.438   -17512.141    1271.7393   -18783.881    47.115579 
   21050    235.28682   -824.62441    76057.141   -17507.972    1261.7203   -18769.692    47.228075 
   21100    238.32415   -1147.0728    76199.124   -17505.894    1278.0079   -18783.902    47.465665 
   21150    243.68755   -2092.0417    76381.267   -17497.727    1306.7689   -18804.496    47.598036 
   21200    240.49133   -1200.0831    76497.415   -17506.388    1289.6293   -18796.017    47.637588 
   21250    241.83344   -1595.5142     76532.41   -17495.689    1296.8263   -18792.515    47.622215 
   21300     241.1465   -1307.9088    76500.967   -17502.385    1293.1426   -18795.528    47.627646 
   21350    243.03054   -2289.4446    76447.811   -17499.899    1303.2457   -18803.145    47.778853 
   21400    240.89372   -1953.9221    76326.944    -17494.05    1291.7871   -18785.837    47.829805 
   21450    246.15952   -1380.4616    76145.516   -17488.226    1320.0248   -18808.251    47.967605 
   21500    236.51102   -568.88528    75993.695   -17490.767     1268.285   -18759.052    48.027691 
   21550    243.46784   -776.77202    75954.405   -17488.511    1305.5908   -18794.102    48.298664 
   21600    245.44578   -925.81245    76004.874    -17480.93    1316.1974   -18797.127    48.276493 
   21650    239.03369   -1402.0188    76089.285   -17469.337    1281.8127    -18751.15    48.405119 
   21700     244.4874     -1270.91    76180.199   -17479.418    1311.0581   -18790.476     48.42103 
   21750     237.8093   -1556.2617    76266.402   -17462.022     1275.247   -18737.269    48.366535 
   21800    239.99297   -1287.7677    76336.354   -17454.003    1286.9569    -18740.96    48.532595 
   21850    243.22516   -1574.5101     76388.66   -17456.158    1304.2894   -18760.448    48.729298 
   21900    238.47402   -1653.5915    76433.757   -17460.156    1278.8115   -18738.968    48.840893 
   21950    242.80335   -1619.6128    76459.635   -17465.147    1302.0274   -18767.174    48.948735 
   22000    244.44606   -1470.1166    76463.216   -17453.483    1310.8364    -18764.32     48.95954 
   22050    240.78928   -838.99959    76437.126   -17449.447     1291.227   -18740.674    48.948067 
   22100    244.14161   -1120.4816    76416.807   -17454.062    1309.2038   -18763.266    49.212166 
   22150    249.51789    -1161.231    76439.548   -17436.641     1338.034   -18774.675    49.322645 
   22200      243.875   -1453.3786    76489.449    -17430.02    1307.7741   -18737.794    49.550507 
   22250     246.3175   -1894.0612    76505.948   -17408.575     1320.872   -18729.447     49.61149 
   22300     247.3284   -1545.7586    76491.349   -17413.354    1326.2929   -18739.647    49.729395 
   22350    242.62528   -1679.5715    76450.769   -17429.753    1301.0725   -18730.825    49.750771 
   22400    243.22096   -1470.7917    76389.266   -17422.377    1304.2669   -18726.644    49.678682 
   22450    240.76417   -1995.5652    76333.781    -17419.93    1291.0924   -18711.022    49.776428 
   22500    246.25046   -1001.9459    76251.184   -17426.877    1320.5125   -18747.389    50.057306 
   22550    246.36249    -825.1107    76169.817   -17431.977    1321.1132    -18753.09    50.301655 
   22600    243.40428   -963.23281    76114.805   -17435.158    1305.2499   -18740.408    50.222752 
   22650    245.47934   -1267.9958    76103.175   -17432.994    1316.3774   -18749.371    50.465396 
   22700    240.70828   -1129.1669    76141.866   -17447.011    1290.7927   -18737.804    50.428973 
   22750     237.5846   -1200.4305    76198.485   -17457.175     1274.042   -18731.217    50.396454 
   22800    233.76839   -1877.6841    76220.884   -17471.301    1253.5777   -18724.879    50.499227 
   22850    237.02634   -1294.9638    76191.456   -17455.759    1271.0484   -18726.808    50.661047 
   22900     238.3821   -1208.6935    76159.867   -17461.968    1278.3186   -18740.287    50.808897 
   22950    239.60263   -1531.3498    76159.736   -17469.602    1284.8636   -18754.466    51.105476 
   23000    237.16644    -1395.287    76188.732   -17458.977    1271.7996   -18730.777    51.349579 
   23050    245.91399    -1103.508     76237.37   -17444.111    1318.7082   -18762.819    51.326377 
   23100    242.09632   -1166.6702    76283.584   -17444.491     1298.236   -18742.727    51.357184 
   23150    234.46583   -1273.9642    76326.917   -17459.352    1257.3177    -18716.67    51.491844 
   23200    243.98105   -529.31259    76359.613    -17452.18    1308.3429   -18760.523    51.620485 
   23250     245.0295   -1379.3014    76374.498   -17462.606    1313.9651   -18776.571    51.630794 
   23300     240.0275   -1369.5602     76396.93   -17455.067     1287.142   -18742.209    51.740653 
   23350    245.80298   -858.80231    76415.115   -17467.006    1318.1129   -18785.119    51.391103 
   23400    242.63357   -1163.9822    76464.431   -17469.403     1301.117    -18770.52    51.326056 
   23450    243.97979   -1203.4116    76504.351   -17494.894    1308.3361    -18803.23    51.599456 
   23500     242.1388    -1301.731    76537.766   -17487.282    1298.4638   -18785.746     51.63264 
   23550    241.27763   -1434.2756    76534.804   -17485.716    1293.8458   -18779.562    51.713041 
   23600    242.10339   -1669.9371     76511.56   -17476.245    1298.2739   -18774.519     52.11903 
   23650    247.30742   -1428.9241    76528.215   -17458.316    1326.1804   -18784.496     52.36705 
   23700    241.40852   -1793.5189    76541.014   -17450.074    1294.5477   -18744.622     52.40047 
   23750    242.64222   -1526.0353    76527.225   -17456.765    1301.1634   -18757.928    52.283223 
   23800    240.03827   -1841.3338    76518.309   -17456.044    1287.1998   -18743.244    52.288812 
   23850    238.04363   -1169.4911    76453.376    -17453.33    1276.5036   -18729.834     52.44688 
   23900    243.80808   -1819.6357    76366.633    -17469.06    1307.4153   -18776.476    52.423419 
   23950    237.42012   -1250.4224    76241.491    -17480.62      1273.16    -18753.78    52.666993 
   24000    237.83266    -1355.853    76082.063   -17491.664    1275.3722   -18767.036    52.928034 
   24050    236.76894   -1441.8178    75921.212     -17479.3    1269.6681   -18748.968    52.919725 
   24100    239.78664   -996.23715    75804.632   -17466.491    1285.8504   -18752.342    53.005863 
   24150      239.959   -920.16722    75764.152   -17475.753    1286.7747   -18762.527    53.235003 
   24200    239.33266   -1180.2872    75792.102   -17472.703     1283.416   -18756.119    53.068702 
   24250    238.52747   -1213.4132     75864.88   -17475.004    1279.0981   -18754.102    53.123187 
   24300    243.37223    -1673.066    75965.278   -17482.414    1305.0781   -18787.492    53.289783 
   24350    239.21279   -1316.8728    76025.721   -17472.387    1282.7731   -18755.161    53.223773 
   24400    246.17784    -1273.817    76052.675   -17487.351    1320.1231   -18807.474    53.410361 
   24450    235.49478   -1814.8376    76058.515   -17484.929    1262.8354   -18747.764    53.445058 
   24500    239.76172   -1266.4876    76047.258   -17478.878    1285.7168   -18764.595    53.334212 
   24550    245.12492   -954.67314    76018.415   -17477.143    1314.4768    -18791.62     53.35604 
   24600    238.29384   -1188.2054    76014.972   -17470.832    1277.8453   -18748.678    53.641274 
   24650    234.37531   -873.61934    76051.286   -17464.134    1256.8323   -18720.966    53.612558 
   24700    242.68953   -872.26352    76141.547   -17446.591    1301.4171   -18748.008    53.679793 
   24750    245.56493   -1485.7219    76253.674   -17437.434    1316.8363    -18754.27    53.688866 
   24800    248.54562   -1068.2153    76330.483   -17431.597    1332.8202   -18764.417    53.709735 
   24850    244.47751   -924.70722    76343.056   -17411.694    1311.0051     -18722.7    53.990009 
   24900    237.33637   -1443.0499    76323.564   -17423.219    1272.7109    -18695.93    54.067671 
   24950    240.57899   -1309.3741    76219.585   -17433.341    1290.0994   -18723.441    54.182921 
   25000    244.45481   -1353.0716    76138.492   -17443.396    1310.8834   -18754.279    54.081528 
Loop time of 42.9092 on 12 procs for 25000 steps with 4560 atoms

Performance: 503.389 ns/day, 0.048 hours/ns, 582.626 timesteps/s
97.5% CPU use with 12 MPI tasks x no OpenMP threads

MPI task timing breakdown:
Section |  min time  |  avg time  |  max time  |%varavg| %total
---------------------------------------------------------------
Pair    | 20.468     | 24.858     | 30.062     |  83.2 | 57.93
Neigh   | 1.5273     | 3.3037     | 5.2379     |  96.9 |  7.70
Comm    | 5.0935     | 11.966     | 17.908     | 165.0 | 27.89
Output  | 0.13313    | 0.13702    | 0.17696    |   3.3 |  0.32
Modify  | 2.081      | 2.2705     | 2.4538     |   9.9 |  5.29
Other   |            | 0.3743     |            |       |  0.87

Nlocal:        380.000 ave         580 max         210 min
Histogram: 6 0 0 0 0 0 0 0 2 4
Nghost:        1497.00 ave        1557 max        1459 min
Histogram: 1 1 4 2 0 1 1 1 0 1
Neighs:        0.00000 ave           0 max           0 min
Histogram: 12 0 0 0 0 0 0 0 0 0
FullNghs:      38352.8 ave       70930 max       10084 min
Histogram: 6 0 0 0 0 0 0 0 2 4

Total # of neighbors = 460234
Ave neighs/atom = 100.92851
Neighbor list builds = 2800
Dangerous builds = 0

unfix           3
unfix           4
undump          1


# Run 0.25 ns equilibration of water in NVE ensemble
#
fix            3 water nve
dump		1 all custom 2000 nve.${NAME}.dump id type x y z
dump		1 all custom 2000 nve.ML_graphite_m1000atm_240K.dump id type x y z
run	        25000
Per MPI rank memory allocation (min/avg/max) = 5.054 | 5.057 | 5.062 Mbytes
Step c_2 v_water_press Volume TotEng KinEng PotEng c_1[4] 
   25000    244.45481   -1353.0716    76138.492   -17443.396    1310.8834   -18754.279    54.081528 
   25050     245.1743   -1247.4545    76138.492   -17443.455    1314.7416   -18758.196    54.122017 
   25100    242.90906   -1155.2167    76138.492   -17443.703    1302.5943   -18746.297    54.352583 
   25150    247.08914   -1562.8147    76138.492   -17444.527    1325.0099   -18769.537    54.527758 
   25200    243.77411   -1679.9502    76138.492   -17443.113    1307.2331   -18750.346    54.829143 
   25250    244.20754   -1345.8314    76138.492    -17443.71    1309.5574   -18753.268    54.652498 
   25300    242.08089   -1385.0201    76138.492   -17443.263    1298.1533   -18741.416    54.782763 
   25350     239.7797    -793.9404    76138.492    -17442.91    1285.8132   -18728.724    54.625796 
   25400    240.27024   -851.88168    76138.492   -17443.908    1288.4437   -18732.352    55.023978 
   25450    239.64287   -722.58509    76138.492   -17443.136    1285.0794   -18728.215    55.089896 
   25500    247.49817    -1585.097    76138.492    -17444.88    1327.2033   -18772.083    54.990173 
   25550    236.36021   -871.65853    76138.492   -17442.353    1267.4762   -18709.829    55.377555 
   25600    243.33585    -697.1966    76138.492   -17444.296     1304.883   -18749.179     55.76578 
   25650    247.18503   -1059.9039    76138.492   -17444.225    1325.5241   -18769.749    55.916525 
   25700    244.54471    56.227213    76138.492   -17442.996    1311.3655   -18754.362    56.096398 
   25750    250.18033   -955.51874    76138.492   -17444.807    1341.5864   -18786.393    55.976288 
   25800    253.64541    -887.7495    76138.492   -17444.021    1360.1678   -18804.188    56.365936 
   25850    246.92102   -1213.6265    76138.492   -17444.038    1324.1084   -18768.147     56.16545 
   25900    247.37174   -1707.7466    76138.492   -17443.232    1326.5253   -18769.757    56.254618 
   25950    250.51839    -1360.388    76138.492   -17443.677    1343.3992   -18787.076    56.533663 
   26000    244.02413   -1241.9892    76138.492   -17443.705    1308.5738   -18752.279    56.460287 
   26050    245.06395   -1348.8314    76138.492   -17444.017    1314.1498   -18758.167    56.373398 
   26100    241.98201   -924.84281    76138.492   -17442.361     1297.623   -18739.984    56.305497 
   26150    245.93262   -1182.5441    76138.492   -17444.074    1318.8081   -18762.882    56.159674 
   26200    251.45708   -1143.6243    76138.492   -17444.132    1348.4329   -18792.565    56.300887 
   26250    247.69101   -1056.3337    76138.492   -17443.606    1328.2374   -18771.843    56.664546 
   26300     245.1794   -797.95571    76138.492   -17443.181     1314.769    -18757.95    56.717134 
   26350    249.45999   -1290.7731    76138.492   -17444.403    1337.7235   -18782.126     56.86505 
   26400    241.44809   -1196.8315    76138.492   -17443.292    1294.7599   -18738.052    56.975523 
   26450    243.62828   -1407.2366    76138.492   -17443.737    1306.4511   -18750.188    56.799133 
   26500    243.55936   -1449.4982    76138.492   -17443.179    1306.0815   -18749.261    56.763228 
   26550    244.45108   -1369.1995    76138.492   -17443.393    1310.8634   -18754.256    56.769338 
   26600    243.21367   -1135.3044    76138.492   -17443.831    1304.2278   -18748.058    56.731062 
   26650    243.44774   -926.29335    76138.492   -17443.303     1305.483   -18748.786    57.190371 
   26700    244.33668   -1110.0886    76138.492   -17444.009    1310.2499   -18754.258    57.132679 
   26750    245.49997   -1273.6796    76138.492    -17444.14     1316.488   -18760.628    57.531254 
   26800    249.24243   -1767.0864    76138.492   -17443.484    1336.5569   -18780.041    57.663977 
   26850    238.61753   -1693.8677    76138.492   -17442.973    1279.5811   -18722.554     57.52023 
   26900    245.42946   -1550.0441    76138.492   -17443.201    1316.1099   -18759.311    57.773944 
   26950    244.77435   -1124.0874    76138.492   -17443.717    1312.5969   -18756.314    58.191712 
   27000    243.74419   -797.09904    76138.492   -17443.818    1307.0727   -18750.891    58.342217 
   27050    241.92508   -1599.4294    76138.492   -17443.347    1297.3177   -18740.664    58.498284 
   27100    241.84639   -1265.6718    76138.492   -17443.198    1296.8958   -18740.094     58.56802 
   27150    240.85703   -1432.3397    76138.492   -17443.672    1291.5904   -18735.262    58.727408 
   27200    242.86378   -1629.4116    76138.492   -17443.654    1302.3515   -18746.005     58.78496 
   27250    245.31075    -1663.619    76138.492   -17443.899    1315.4733   -18759.373    58.990651 
   27300    245.34515    -1606.072    76138.492   -17443.276    1315.6578   -18758.934    59.321442 
   27350    237.98161   -1216.7024    76138.492   -17443.465     1276.171   -18719.636    59.583126 
   27400    245.96495   -1754.8415    76138.492   -17444.645    1318.9815   -18763.627    59.651178 
   27450    240.50345   -1653.2528    76138.492   -17443.119    1289.6943   -18732.814    59.679237 
   27500    240.79704   -1376.9484    76138.492   -17442.777    1291.2686   -18734.046    59.855349 
   27550    245.84876   -1435.4707    76138.492   -17442.891    1318.3584   -18761.249    60.123286 
   27600     241.4009    -1400.609    76138.492   -17443.432    1294.5068   -18737.939    60.079878 
   27650    237.52835   -1239.3513    76138.492   -17442.785    1273.7404   -18716.526    59.914554 
   27700    239.48818     -1374.86    76138.492    -17443.48    1284.2499    -18727.73    59.871047 
   27750    239.08632   -1691.0945    76138.492   -17442.598    1282.0949   -18724.693    59.568984 
   27800    235.15977   -1576.3225    76138.492   -17443.406    1261.0389   -18704.445    59.431305 
   27850    238.01573    -1173.474    76138.492   -17442.745    1276.3539   -18719.099    59.487378 
   27900    237.58316    -1158.406    76138.492   -17443.028    1274.0343   -18717.063    59.773535 
   27950    234.98796   -1343.1076    76138.492   -17443.699    1260.1176   -18703.817    60.037958 
   28000    239.59224   -1746.9687    76138.492   -17443.495    1284.8079   -18728.303    60.266256 
   28050    238.06569   -1550.6408    76138.492   -17443.094    1276.6218   -18719.715    60.564967 
   28100    236.95225   -1551.0406    76138.492   -17443.608    1270.6511   -18714.259    60.361545 
   28150    237.59734   -1277.4442    76138.492   -17442.264    1274.1103   -18716.374    60.678521 
   28200    236.63056   -996.89381    76138.492   -17443.623     1268.926   -18712.549    60.597608 
   28250    243.50822   -1535.0907    76138.492   -17444.064    1305.8073   -18749.872    60.697702 
   28300    239.37123   -1374.3035    76138.492   -17443.048    1283.6228   -18726.671    60.810435 
   28350    234.34741   -1776.6882    76138.492    -17443.43    1256.6827   -18700.113    60.994844 
   28400    236.10375   -1212.4272    76138.492   -17442.609     1266.101    -18708.71    60.971927 
   28450    241.14651   -1673.0539    76138.492   -17443.481    1293.1427   -18736.624    61.217621 
   28500    244.56556   -1499.1492    76138.492   -17443.475    1311.4773   -18754.952    61.324513 
   28550     240.9377   -1777.3852    76138.492   -17442.874     1292.023   -18734.897    61.451908 
   28600     242.6517   -1836.5348    76138.492    -17444.05    1301.2142   -18745.264    61.425772 
   28650     245.1171   -1141.4484    76138.492   -17444.018    1314.4349   -18758.452    61.370812 
   28700     238.3143   -1201.0876    76138.492   -17442.335     1277.955    -18720.29    61.437069 
   28750    245.11199   -1203.3787    76138.492    -17443.56    1314.4075   -18757.968    61.650895 
   28800    240.42104   -1004.2318    76138.492   -17442.914    1289.2524   -18732.166    61.934431 
   28850    248.44279   -1526.8938    76138.492   -17444.191    1332.2688    -18776.46    61.686458 
   28900    241.05676   -1656.4462    76138.492   -17443.258    1292.6614    -18735.92    61.620546 
   28950    241.24135   -909.96846    76138.492   -17443.219    1293.6513    -18736.87    61.869366 
   29000     240.5922   -1334.4938    76138.492   -17442.799    1290.1702    -18732.97    61.873282 
   29050    240.20239   -1425.7422    76138.492   -17443.232    1288.0799   -18731.312    62.219643 
   29100    243.05136   -919.35408    76138.492   -17443.757    1303.3574   -18747.115    62.210584 
   29150    249.23658   -1318.1493    76138.492   -17444.012    1336.5255   -18780.537    62.412757 
   29200    240.18886   -1283.3138    76138.492   -17442.715    1288.0073   -18730.722    62.479532 
   29250    245.00666    -1643.882    76138.492   -17442.793    1313.8426   -18756.636     62.75763 
   29300    238.14525   -1403.5579    76138.492    -17442.74    1277.0485   -18719.788    62.922256 
   29350    240.55076   -1633.3566    76138.492   -17443.655     1289.948   -18733.603    63.135827 
   29400    245.62966   -1192.3666    76138.492   -17443.638    1317.1835   -18760.822    63.399354 
   29450    246.17541   -1387.8976    76138.492   -17443.665    1320.1101   -18763.775     63.54984 
   29500    243.27981    -1649.112    76138.492   -17444.197    1304.5824   -18748.779    63.420578 
   29550    244.85747   -1857.8181    76138.492   -17443.439    1313.0426   -18756.482    63.771374 
   29600    238.32895    -1317.716    76138.492   -17442.907    1278.0336    -18720.94    63.777264 
   29650    245.12504   -1575.9105    76138.492   -17443.356    1314.4775   -18757.834    63.880746 
   29700    241.55759   -1209.5248    76138.492   -17443.118    1295.3471   -18738.465    64.097954 
   29750     242.9669   -1547.2999    76138.492   -17443.999    1302.9045   -18746.904    64.025042 
   29800    242.13034   -1400.1486    76138.492    -17442.55    1298.4184   -18740.969    64.283197 
   29850    239.29291   -1765.6687    76138.492   -17443.029    1283.2028   -18726.232     64.38879 
   29900    240.12356   -1223.3091    76138.492   -17443.247    1287.6571   -18730.904    64.489285 
   29950    244.79144   -1026.3344    76138.492   -17443.272    1312.6885   -18755.961    64.706365 
   30000     246.5561    -1373.048    76138.492   -17443.932    1322.1515   -18766.084    64.829234 
   30050    241.46475   -1416.5297    76138.492   -17443.024    1294.8492   -18737.873    64.748124 
   30100    240.49651    -1442.829    76138.492   -17443.258    1289.6571   -18732.915    65.026155 
   30150    240.82801   -1821.4641    76138.492    -17443.73    1291.4348   -18735.165    65.261589 
   30200    245.83171   -1669.6543    76138.492   -17443.461    1318.2669   -18761.728    65.339992 
   30250    252.66124   -1665.0518    76138.492   -17444.191    1354.8902   -18799.081     65.15735 
   30300    252.69315   -1364.6471    76138.492   -17443.838    1355.0613   -18798.899    65.227146 
   30350    245.74625   -1742.3974    76138.492   -17442.694    1317.8087   -18760.503    65.066418 
   30400    242.69454   -1473.7761    76138.492    -17442.64     1301.444   -18744.084    65.046836 
   30450    244.92987    -1059.003    76138.492   -17442.832    1313.4309   -18756.262    65.176016 
   30500     238.0228   -1054.9886    76138.492   -17442.248    1276.3919    -18718.64    65.338783 
   30550    248.12731   -1011.7738    76138.492   -17443.289    1330.5771   -18773.866     65.10542 
   30600    239.50326   -1086.9344    76138.492   -17443.083    1284.3308   -18727.413     65.20255 
   30650    234.35559   -1641.7801    76138.492   -17442.542    1256.7265   -18699.269    65.337596 
   30700    252.94085   -1728.1216    76138.492   -17443.681    1356.3896   -18800.071    65.400207 
   30750    246.75502   -2189.7223    76138.492   -17443.501    1323.2182    -18766.72    65.495455 
   30800    240.53198    -1412.642    76138.492   -17442.946    1289.8473   -18732.793    65.565641 
   30850    239.82968   -863.27341    76138.492   -17443.034    1286.0812   -18729.115    65.428295 
   30900    245.59336   -1017.6111    76138.492   -17443.998    1316.9888   -18760.987    65.737521 
   30950    244.51382   -989.73729    76138.492   -17443.024    1311.1998   -18754.224    65.902663 
   31000     248.1743   -1817.2395    76138.492   -17443.715    1330.8291   -18774.544    65.716772 
   31050    245.01057   -1357.7073    76138.492   -17443.299    1313.8636   -18757.162    65.719422 
   31100    246.66495   -943.04735    76138.492   -17443.702    1322.7352   -18766.437    65.940984 
   31150    245.88739    -1257.114    76138.492   -17443.429    1318.5655   -18761.994    66.133745 
   31200     241.8123   -825.39385    76138.492   -17443.032     1296.713   -18739.745    66.346834 
   31250    242.55531   -1188.6928    76138.492   -17442.805    1300.6974   -18743.503    66.514793 
   31300    244.87688   -1441.4541    76138.492   -17443.331    1313.1467   -18756.478    66.652666 
   31350    241.32515   -1450.4987    76138.492   -17443.383    1294.1006   -18737.484    66.873353 
   31400     244.0083   -1153.5549    76138.492   -17442.838     1308.489   -18751.327    66.945965 
   31450    242.66049   -1017.3037    76138.492   -17442.136    1301.2613   -18743.398    67.199289 
   31500    240.25639   -1485.6218    76138.492   -17442.683    1288.3694   -18731.053     67.34266 
   31550    244.07894    -733.5346    76138.492   -17442.874    1308.8678   -18751.741    67.504525 
   31600    241.94769   -1692.1788    76138.492   -17443.034     1297.439   -18740.473    67.687609 
   31650    241.93796   -1348.4354    76138.492   -17443.117    1297.3868   -18740.504    68.098972 
   31700    239.23238     -1253.98    76138.492    -17442.35    1282.8782   -18725.228    68.118888 
   31750    240.56064   -1459.2652    76138.492   -17443.172     1290.001   -18733.173    67.949967 
   31800    243.71521   -1081.3322    76138.492   -17442.674    1306.9173   -18749.591    67.714027 
   31850    240.84161   -1135.4099    76138.492   -17441.906    1291.5076   -18733.414    67.785279 
   31900    240.59198   -1440.2465    76138.492   -17443.191     1290.169    -18733.36    67.865191 
   31950    245.05493   -1564.8435    76138.492   -17443.151    1314.1015   -18757.252    67.904427 
   32000    243.01685   -1883.4807    76138.492   -17442.791    1303.1724   -18745.963    67.742648 
   32050    248.89965   -1247.9707    76138.492   -17442.898    1334.7187   -18777.616    67.781728 
   32100    241.48055   -1032.1597    76138.492   -17442.323     1294.934   -18737.257    67.808076 
   32150    244.42107   -1201.1145    76138.492   -17442.959    1310.7024   -18753.661    67.814659 
   32200    244.08295   -913.02573    76138.492   -17443.395    1308.8893   -18752.284    67.761817 
   32250    241.36035   -1546.8763    76138.492   -17442.693    1294.2894   -18736.982    67.947079 
   32300    237.84153   -2273.5116    76138.492   -17442.459    1275.4198   -18717.879    68.370545 
   32350    235.53281   -1312.9077    76138.492   -17442.353    1263.0393   -18705.392    68.317494 
   32400     241.4994   -1582.8958    76138.492   -17442.772     1295.035   -18737.807    68.469173 
   32450    238.14633   -1870.5758    76138.492   -17441.924    1277.0543   -18718.979    68.750816 
   32500      241.549   -1744.3534    76138.492   -17443.096     1295.301   -18738.398    68.933356 
   32550    242.98293   -1531.8323    76138.492   -17443.391    1302.9904   -18746.381    69.330764 
   32600     243.0022   -1514.6833    76138.492   -17442.836    1303.0938   -18745.929    69.658684 
   32650    244.46854   -859.44468    76138.492   -17443.792     1310.957   -18754.749    69.641012 
   32700    241.00091   -1185.8966    76138.492    -17442.92    1292.3619   -18735.282    69.907645 
   32750    246.28675   -1486.8671    76138.492   -17443.742    1320.7071   -18764.449    69.664736 
   32800    241.44375   -1230.9719    76138.492   -17442.848    1294.7366   -18737.584    69.672659 
   32850    243.70491   -1222.0378    76138.492   -17443.588     1306.862    -18750.45    69.824088 
   32900    242.20955   -1039.1436    76138.492   -17443.168    1298.8432   -18742.011    69.784182 
   32950    243.79863   -987.76899    76138.492   -17443.643    1307.3646   -18751.008    69.695447 
   33000    244.02623   -1301.5027    76138.492   -17442.944    1308.5851   -18751.529    69.834252 
   33050    248.85435   -1248.5884    76138.492   -17443.628    1334.4758   -18778.103    69.621841 
   33100    247.79612   -1558.0041    76138.492   -17443.728    1328.8011   -18772.529    69.889931 
   33150    241.29471   -1607.5393    76138.492   -17443.036    1293.9374   -18736.973    70.028324 
   33200    245.70358   -1410.5513    76138.492     -17442.9    1317.5799    -18760.48    69.921723 
   33250    239.94614   -1172.0775    76138.492   -17442.897    1286.7057   -18729.603    69.899384 
   33300    235.53509   -1292.9586    76138.492   -17441.814    1263.0516   -18704.866    69.880563 
   33350    242.06826   -1403.5247    76138.492   -17442.866    1298.0855   -18740.952    70.276941 
   33400    245.71815   -1629.0369    76138.492   -17443.719     1317.658   -18761.377    70.429029 
   33450    244.04666   -1420.9534    76138.492   -17442.604    1308.6947   -18751.299     70.73442 
   33500    242.22333   -1129.6339    76138.492   -17442.478    1298.9171   -18741.395    71.035235 
   33550    236.92081   -1731.9726    76138.492   -17442.689    1270.4825   -18713.172    71.441225 
   33600     238.7424   -2103.2714    76138.492   -17442.735    1280.2507   -18722.985    71.456691 
   33650    243.32604    -1931.204    76138.492   -17442.437    1304.8304   -18747.267    71.417544 
   33700    243.89402    -1401.834    76138.492   -17442.938    1307.8761   -18750.814    71.258712 
   33750    235.20297   -2097.0596    76138.492   -17442.575    1261.2706   -18703.845    71.303941 
   33800    242.51025   -1023.0977    76138.492   -17442.563    1300.4557   -18743.019    71.251867 
   33850    241.67121   -967.46963    76138.492   -17443.075    1295.9564   -18739.032     71.40962 
   33900    246.90142   -1118.1339    76138.492   -17442.828    1324.0033   -18766.832    71.411876 
   33950     239.1956   -1512.2806    76138.492   -17442.724     1282.681   -18725.405    71.502957 
   34000    242.89169   -1338.6446    76138.492   -17443.219    1302.5012    -18745.72    71.567967 
   34050    244.57067   -1097.7168    76138.492   -17443.598    1311.5046   -18755.102    71.626458 
   34100    240.78843   -1317.9498    76138.492   -17443.261    1291.2225   -18734.483    71.542548 
   34150    242.31494    -899.5321    76138.492   -17443.122    1299.4083    -18742.53      71.3887 
   34200    245.34636   -726.86306    76138.492   -17442.571    1315.6643   -18758.236    71.758295 
   34250    242.63466   -1034.5192    76138.492   -17442.154    1301.1228   -18743.277    71.914031 
   34300    244.38884   -989.02523    76138.492   -17442.981    1310.5296    -18753.51     72.19897 
   34350    246.43133   -1476.2581    76138.492   -17443.786    1321.4824   -18765.268    72.452199 
   34400    242.67155   -1138.1957    76138.492   -17442.214    1301.3207   -18743.534    72.265931 
   34450    238.11833   -1228.1795    76138.492   -17442.604    1276.9041   -18719.508    72.316878 
   34500    245.36554   -1577.2005    76138.492   -17442.407    1315.7671   -18758.174      72.3737 
   34550    244.25673   -1266.4763    76138.492   -17442.762    1309.8211   -18752.583    72.694021 
   34600    243.08429   -1120.3345    76138.492   -17442.567     1303.534   -18746.101    72.883257 
   34650     243.5719   -1257.9671    76138.492   -17443.369    1306.1488   -18749.518    72.877138 
   34700    248.66753    -730.7625    76138.492   -17444.019     1333.474   -18777.493    72.897456 
   34750     244.2782   -1364.1326    76138.492   -17443.005    1309.9363   -18752.942    72.993397 
   34800    242.36993    -762.4556    76138.492    -17442.51    1299.7032   -18742.213    72.822257 
   34850    243.08935   -999.74733    76138.492    -17442.38    1303.5611   -18745.941    72.800671 
   34900    247.43736   -1134.9654    76138.492    -17443.34    1326.8772   -18770.217    72.795264 
   34950    246.42455   -1231.8806    76138.492   -17443.483     1321.446   -18764.929    73.032755 
   35000    239.55702   -978.03791    76138.492   -17442.129    1284.6191   -18726.748    73.105717 
   35050    243.61051    -1380.751    76138.492   -17442.636    1306.3558   -18748.991    73.378639 
   35100    244.58272   -832.04434    76138.492   -17442.699    1311.5693   -18754.268    73.556229 
   35150    244.39112   -1048.5146    76138.492   -17442.394    1310.5418   -18752.936    73.546112 
   35200    237.03191   -1565.1262    76138.492   -17441.786    1271.0782   -18712.864    73.575692 
   35250    242.59617   -1040.5133    76138.492   -17442.561    1300.9165   -18743.478    73.423292 
   35300    240.07983   -1224.5387    76138.492   -17441.905    1287.4226   -18729.327    73.670182 
   35350    244.63028   -718.97435    76138.492   -17443.008    1311.8243   -18754.832    73.761822 
   35400    245.03778   -1553.3481    76138.492   -17442.748    1314.0095   -18756.758    73.870786 
   35450    254.57567   -1134.1113    76138.492   -17443.703    1365.1562   -18808.859    74.197067 
   35500    247.39993   -1571.9608    76138.492    -17442.79    1326.6765   -18769.466    74.159178 
   35550    241.50585   -1543.0929    76138.492   -17442.501    1295.0696   -18737.571    74.439449 
   35600    238.41455   -1854.5012    76138.492   -17442.474    1278.4926   -18720.966    74.454895 
   35650     239.1704   -1677.7682    76138.492   -17442.211    1282.5459   -18724.757    74.416355 
   35700    246.33844   -1886.1769    76138.492   -17442.619    1320.9843   -18763.603    74.573761 
   35750    246.98994   -1525.0466    76138.492   -17443.654    1324.4779   -18768.132    74.644044 
   35800    248.11289   -1526.5521    76138.492   -17443.534    1330.4997   -18774.033    74.822867 
   35850    244.63232   -1815.6245    76138.492   -17443.772    1311.8353   -18755.608     74.83893 
   35900     246.3908    -1426.497    76138.492   -17443.368    1321.2651   -18764.633     74.94566 
   35950    239.25059   -1696.5783    76138.492   -17442.431    1282.9759   -18725.407    74.863104 
   36000    244.12889   -1509.4212    76138.492   -17442.909    1309.1356   -18752.044    75.013787 
   36050    248.56502   -1579.2519    76138.492   -17443.215    1332.9243   -18776.139     74.99139 
   36100    249.42901   -1028.6405    76138.492       -17444    1337.5574   -18781.558    75.183348 
   36150    244.41906   -909.17818    76138.492     -17443.6    1310.6917   -18754.292    75.473782 
   36200    240.42538   -1703.8535    76138.492   -17442.559    1289.2756   -18731.834    75.586023 
   36250    246.23711    -1495.351    76138.492   -17442.899    1320.4409    -18763.34    75.760305 
   36300    241.11168   -1765.1776    76138.492    -17443.29    1292.9559   -18736.246    75.855569 
   36350    244.83806   -954.87148    76138.492   -17442.127    1312.9385   -18755.065    76.202925 
   36400    239.23438   -1408.0002    76138.492   -17442.736    1282.8889   -18725.625    76.146077 
   36450    242.46617   -1670.7297    76138.492   -17443.056    1300.2193   -18743.276    76.239742 
   36500    243.93056   -1525.8758    76138.492   -17443.001    1308.0721   -18751.074    76.285105 
   36550     240.5536   -1339.2627    76138.492   -17442.343    1289.9632   -18732.307    76.097107 
   36600    245.68069   -1306.8174    76138.492   -17443.497    1317.4571   -18760.954    76.257953 
   36650    237.86073   -1295.8704    76138.492   -17442.891    1275.5228   -18718.414      76.4737 
   36700    243.56392   -1157.0771    76138.492   -17442.629     1306.106   -18748.735      76.4449 
   36750    242.11884   -1268.2002    76138.492   -17442.696    1298.3568   -18741.053     76.54536 
   36800    242.10543   -1721.1033    76138.492   -17442.691    1298.2849   -18740.976    76.700036 
   36850    248.84712   -1773.9951    76138.492   -17443.426     1334.437   -18777.863    76.932691 
   36900    241.09101   -1244.4526    76138.492   -17442.764    1292.8451   -18735.609    77.060045 
[...]
  140850    240.46581     -1716.85    78559.128   -18124.703    1289.4925   -19414.196    192.49632 
  140900    245.32092   -1817.0733    78606.227   -18125.988    1315.5279   -19441.515    192.37479 
  140950    237.63231   -2045.8752    78591.122   -18128.745    1274.2978   -19403.043    192.34073 
  141000    242.58561    -1473.631    78509.829   -18146.021    1300.8598   -19446.881    192.54659 
  141050    240.01382   -1634.1032    78456.438    -18125.02    1287.0687   -19412.088    192.55286 
  141100    233.76532   -1399.9276    78444.903   -18127.852    1253.5612   -19381.413    192.51557 
  141150    244.60428    -1805.819    78450.306   -18117.933    1311.6849   -19429.618    192.56862 
  141200    241.19904   -1625.2681    78489.135   -18124.796    1293.4244    -19418.22    192.65249 
  141250    242.54823   -1715.9486    78528.478   -18112.991    1300.6594   -19413.651    192.62474 
  141300    240.20302   -1939.9086    78551.639   -18126.947    1288.0832    -19415.03    192.62165 
  141350    238.44974   -1947.2319    78534.974    -18118.42    1278.6813   -19397.101    192.74267 
  141400    241.07838   -1830.4523    78491.924   -18140.387    1292.7773   -19433.165    192.97976 
  141450    250.85714   -1439.6791    78465.969   -18131.535    1345.2157   -19476.751     192.8793 
  141500    236.40749   -1916.9944    78476.961   -18131.914    1267.7298   -19399.644    193.14472 
  141550    236.76486   -1674.4348    78483.882   -18129.876    1269.6462   -19399.522    192.98147 
  141600    236.67134   -1595.0258    78500.396   -18127.633    1269.1447   -19396.777    192.90432 
  141650    237.44308   -1994.0587    78507.328   -18127.863    1273.2831   -19401.147    192.42053 
  141700    240.83215   -2134.1199    78471.221   -18132.926    1291.4569   -19424.383    192.46435 
  141750    244.02802   -1827.3413    78393.477   -18118.851    1308.5947   -19427.446    192.46992 
  141800    240.16487   -1764.9988    78317.997   -18130.433    1287.8787   -19418.311    193.08285 
  141850    240.42516   -1726.7969    78264.883   -18136.612    1289.2744   -19425.886    192.69457 
  141900    240.20463   -1344.6159    78288.176   -18136.105    1288.0919   -19424.197    192.54261 
  141950    242.48184   -1548.6097    78348.914   -18129.988    1300.3034   -19430.291    192.42212 
  142000    244.77424   -2009.9731    78443.028   -18147.194    1312.5963   -19459.791    192.40323 
  142050    239.40955   -1884.6278      78500.9   -18146.863    1283.8283   -19430.692    192.61734 
  142100    241.41053   -1909.8054    78512.192   -18153.871    1294.5585   -19448.429    192.51073 
  142150    241.02882   -1865.0151    78477.804   -18154.007    1292.5116   -19446.519     192.9271 
  142200    234.07204   -2142.7086    78414.322   -18154.867     1255.206   -19410.073    192.84869 
  142250    243.50969   -2045.2505    78309.543   -18126.564    1305.8152    -19432.38    192.75589 
  142300     231.5853   -1864.0197    78191.944    -18129.86    1241.8709   -19371.731    192.47641 
  142350    241.77909   -1319.1013    78084.724   -18126.435    1296.5349    -19422.97     192.2903 
  142400    241.32203   -1719.1898    78048.806   -18129.227    1294.0839   -19423.311    192.53751 
  142450     242.1104   -1527.8753    78065.148   -18138.197    1298.3115   -19436.508    192.50143 
  142500    240.88589   -1619.3264    78117.906    -18156.39    1291.7451   -19448.135    192.86388 
  142550     236.7935   -1594.2555    78227.582   -18169.844    1269.7997   -19439.643    193.01831 
  142600    241.78943     -1913.57     78333.59   -18154.654    1296.5903   -19451.245    192.78107 
  142650    239.03301   -2185.7392    78393.614   -18146.784    1281.8091   -19428.593      192.686 
  142700    238.75358   -2176.0325     78399.84   -18131.808    1280.3107   -19412.119    193.01073 
  142750    240.64099   -1853.8718    78363.699   -18136.803    1290.4318   -19427.235    192.98494 
  142800    238.38014   -1589.9979    78294.347   -18130.431    1278.3081   -19408.739    192.70108 
  142850    239.43387   -1973.0055    78210.321   -18125.775    1283.9587   -19409.733     192.8232 
  142900    236.45797   -1961.7234    78123.856   -18119.161    1268.0005   -19387.162    192.57252 
  142950    241.21604   -1661.1104    78022.183   -18104.666    1293.5156   -19398.182    192.92539 
  143000    247.48702   -1398.4345     77960.96   -18075.527    1327.1435    -19402.67    192.72959 
  143050    243.50744   -1589.8586    77947.611   -18079.675    1305.8031   -19385.478    192.81992 
  143100    244.89678   -1571.1692    77965.235   -18092.473    1313.2534   -19405.727    192.88797 
  143150     245.7729   -1699.9476    77982.716   -18093.164    1317.9516   -19411.115    192.76083 
  143200    234.18445   -1971.0417    77999.054   -18110.686    1255.8088   -19366.494    192.52868 
  143250    245.16877   -1737.9312    78001.825   -18105.099     1314.712   -19419.811    192.60411 
  143300    240.31587   -1785.8577    77972.986   -18101.004    1288.6884   -19389.692     192.7505 
  143350    240.75391   -1537.6336    77936.783   -18098.328    1291.0374   -19389.365     192.6364 
  143400    239.58743   -1931.6593    77898.079   -18087.927    1284.7821   -19372.709    192.81383 
  143450    236.06215   -1736.0906    77868.445   -18101.598    1265.8779   -19367.476    192.55885 
  143500    240.07937    -1858.094    77841.291   -18096.095    1287.4202   -19383.515    192.34015 
  143550     253.2543   -1775.2132     77800.72   -18093.421    1358.0704   -19451.491    192.09316 
  143600    246.65546   -1589.6383    77782.127    -18090.08    1322.6843   -19412.764    191.98917 
  143650    246.32099   -1673.9204    77843.414   -18075.261    1320.8907   -19396.152    192.25871 
  143700    246.16343   -1661.2865    77951.202   -18065.309    1320.0458   -19385.355    192.70433 
  143750    244.91406   -2023.2271    78085.341   -18070.308    1313.3461   -19383.654    192.82609 
  143800    240.09281    -1955.393      78217.1   -18090.348    1287.4923    -19377.84    192.80529 
  143850    246.12891   -2010.5376    78324.659   -18090.637    1319.8607   -19410.498      192.674 
  143900    246.44037   -1771.8365     78395.51   -18091.443    1321.5309   -19412.973    192.54649 
  143950    243.05432    -2159.881    78408.968   -18084.656    1303.3733   -19388.029     192.5438 
  144000    240.92591   -1986.1781     78368.12    -18120.71    1291.9597    -19412.67    192.87292 
  144050    240.02976   -2164.2285    78267.782   -18133.225    1287.1542   -19420.379    193.14022 
  144100    240.16619   -1845.6292    78161.718   -18143.743    1287.8857   -19431.629    193.35089 
  144150    234.28833   -1610.8569    78061.587   -18160.948    1256.3659   -19417.314    193.08967 
  144200    241.22689   -1667.1428    77972.481    -18152.94    1293.5737   -19446.514    192.90981 
  144250    239.11272   -1661.5627    77925.651   -18138.563    1282.2365     -19420.8    192.67953 
  144300    242.04891   -1735.2726    77911.379   -18144.043    1297.9818   -19442.024    192.97623 
  144350    237.31499   -1591.1252    77950.576   -18142.283    1272.5963    -19414.88    193.00191 
  144400     237.7239   -1612.2758    78021.955   -18151.476     1274.789   -19426.265    193.41746 
  144450    235.72146   -1815.6809    78156.607   -18150.167     1264.051   -19414.218    193.72323 
  144500    237.70156   -2110.6883    78304.597   -18154.131    1274.6692     -19428.8    193.54127 
  144550    235.29087   -2070.8278    78391.218   -18144.721    1261.7419   -19406.463    193.34575 
  144600     242.0509   -2069.3434    78397.439   -18150.521    1297.9925   -19448.513    193.26988 
  144650    245.42272   -1950.1935    78367.173   -18147.175    1316.0738   -19463.249    193.49282 
  144700    238.64289   -1877.6292    78331.567   -18146.255    1279.7171   -19425.972    193.52042 
  144750    234.05435   -1517.6174    78314.695   -18176.209    1255.1111   -19431.321    193.47717 
  144800    242.05368   -1720.6446    78330.317   -18188.974    1298.0074   -19486.981    193.70381 
  144850    238.77029   -1662.2782    78378.842   -18198.877    1280.4002   -19479.277    193.44109 
  144900    241.07296   -1956.4079    78435.688   -18191.499    1292.7483   -19484.247    193.19532 
  144950    245.60124   -1952.0542    78506.716   -18185.408    1317.0311   -19502.439    193.35735 
  145000    235.26319   -2029.3475    78600.754   -18201.285    1261.5935   -19462.878    193.49952 
  145050    234.60536   -2059.9527    78628.588   -18207.737    1258.0659   -19465.802    193.66449 
  145100    240.85723   -2425.7335    78569.999   -18192.866    1291.5914   -19484.458    193.63901 
  145150    235.84114   -2120.0869      78472.6   -18188.081    1264.6927   -19452.773    193.71554 
  145200    241.62121   -1623.3368    78346.109   -18197.081    1295.6883   -19492.769    193.46568 
  145250    240.60153   -1494.7627    78226.918   -18210.255    1290.2202   -19500.475    193.45101 
  145300    236.82312   -1547.0651    78191.041   -18231.835    1269.9586   -19501.794    193.22224 
  145350    230.62016    -1469.314    78213.435   -18217.887    1236.6954   -19454.582    193.17972 
  145400    240.28114   -1226.9392    78268.718   -18197.112    1288.5022   -19485.615     193.3063 
  145450     235.4151   -1667.4194    78364.376   -18186.366    1262.4081   -19448.774    193.63285 
  145500    235.72969   -1988.4796    78473.692   -18199.477    1264.0951   -19463.573    193.79498 
  145550     239.6023   -2107.6933    78569.823   -18182.102    1284.8619   -19466.964    193.66022 
  145600      237.303   -2365.5215    78643.235   -18183.895    1272.5319   -19456.427    193.84218 
  145650    240.56338   -1980.9548    78653.175   -18174.293    1290.0157   -19464.309     193.8515 
  145700    239.48935   -2025.3152    78603.157   -18174.074    1284.2562    -19458.33    193.67977 
  145750     235.4676   -1809.0007    78502.839   -18167.657    1262.6897   -19430.346    193.58959 
  145800     236.8949   -1883.7195    78402.319   -18167.849    1270.3435   -19438.192    193.39099 
  145850    242.95774   -1423.8747    78333.841   -18163.941    1302.8554   -19466.796    193.16541 
  145900    243.97791   -1134.6902    78303.855   -18170.262     1308.326   -19478.588    193.62009 
  145950    234.89025   -1837.4366    78359.922   -18160.031    1259.5936   -19419.625    193.60454 
  146000     234.6522   -1919.0977    78426.464   -18153.107    1258.3171   -19411.424    193.79268 
  146050    245.16533   -1635.4593    78485.284   -18139.397    1314.6935    -19454.09    193.61849 
  146100    239.19578   -1661.7085    78528.637   -18168.617    1282.6819   -19451.299    193.54079 
  146150    240.94599   -2215.5197    78538.949   -18171.623    1292.0674   -19463.691    193.79746 
  146200    246.31824   -1702.1782     78526.82   -18173.281     1320.876   -19494.157    193.30957 
  146250    241.58082    -1515.245    78530.452   -18176.133    1295.4717   -19471.605     193.3949 
  146300    243.31268    -1907.782    78567.491   -18170.512    1304.7587    -19475.27    193.90349 
  146350    244.26166    -1972.532    78624.142   -18171.775    1309.8476   -19481.622    193.96682 
  146400    237.27859   -2217.9348    78634.531   -18175.835    1272.4011   -19448.236    194.11016 
  146450     238.0469   -1938.3936     78555.22   -18170.141    1276.5211   -19446.662    194.22237 
  146500    243.88238    -1937.695    78444.749   -18162.395    1307.8137   -19470.209    193.82776 
  146550    238.68692   -2077.9337    78316.894   -18171.655    1279.9532   -19451.609    193.51164 
  146600    247.54548   -1702.9339    78195.798    -18191.61     1327.457   -19519.067    193.61737 
  146650    243.41561   -1181.9963    78125.594   -18204.509    1305.3107    -19509.82    193.61231 
  146700    231.65708    -1893.058     78139.91   -18208.365    1242.2558    -19450.62    193.65452 
  146750    239.74461   -1784.8804    78225.244   -18221.998     1285.625   -19507.623    193.64172 
  146800    240.58443   -1652.6481    78330.206   -18232.496    1290.1286   -19522.625    193.56519 
  146850    239.55269    -2183.347    78452.938    -18224.77    1284.5959   -19509.366    193.78724 
  146900    240.14429   -2512.9771     78536.55   -18210.252    1287.7683    -19498.02    193.80689 
  146950    234.65026   -2114.4934    78508.829   -18216.777    1258.3067   -19475.084    193.51866 
  147000    238.42371   -1807.1752    78396.115   -18191.086    1278.5417   -19469.628    193.77244 
  147050    239.27355   -1523.0972    78244.978   -18190.684     1283.099   -19473.782    193.99295 
  147100    241.75028   -1430.7767    78143.987   -18181.551    1296.3804   -19477.931    193.64396 
  147150    245.34646   -1883.7528    78118.782   -18200.786    1315.6648   -19516.451    193.31825 
  147200    240.85112   -1590.4756    78157.984   -18191.246    1291.5587   -19482.805    193.61988 
  147250    236.44835    -1532.661    78224.003   -18188.812    1267.9489   -19456.761    193.57831 
  147300     242.7027   -1811.3266    78264.762   -18170.303    1301.4877    -19471.79    193.66523 
  147350    237.34382   -2024.4407    78293.415   -18165.575    1272.7509   -19438.326    193.79098 
  147400    245.60977   -1779.2211    78284.339   -18161.534    1317.0768   -19478.611    193.80208 
  147450    247.58425   -1802.1462    78227.105   -18148.517    1327.6649   -19476.182    193.85751 
  147500    246.87003   -2038.3153    78169.943   -18160.417    1323.8349   -19484.252    193.90565 
  147550    242.99998    -1708.111    78108.264   -18155.249    1303.0819   -19458.331    193.42855 
  147600    252.84981   -1947.8465    78124.481   -18157.831    1355.9014   -19513.733    193.62708 
  147650    246.63517   -1755.6992    78182.411   -18147.272    1322.5755   -19469.847    193.82563 
  147700    247.50824    -1697.074    78241.399   -18149.948    1327.2573   -19477.205    194.03185 
  147750    241.11072   -2273.9436    78300.292   -18150.928    1292.9508   -19443.879    194.12409 
  147800    253.03338   -2084.5676    78300.851   -18161.485    1356.8858   -19518.371     194.2111 
  147850    246.00242    -2001.486    78308.019   -18154.413    1319.1824   -19473.596     193.7601 
  147900    250.04889   -1872.1704    78324.337   -18146.823    1340.8815   -19487.704    193.85359 
  147950    242.56589   -2177.9034    78352.799   -18148.061    1300.7541   -19448.815     193.9874 
  148000    243.93718   -1895.7006      78369.6   -18141.853    1308.1076   -19449.961    193.69816 
  148050    243.61223   -2166.7725     78392.04   -18150.495     1306.365    -19456.86    193.91165 
  148100    240.28865   -2026.9518    78407.514   -18159.806    1288.5424   -19448.349    193.99122 
  148150    242.98701   -2050.5477    78412.178    -18171.03    1303.0123   -19474.042      194.258 
  148200     238.8788    -2201.073    78396.292   -18160.039    1280.9822   -19441.022    193.89426 
  148250    240.42375   -1981.8709    78311.451   -18139.842    1289.2669   -19429.108    193.85398 
  148300     245.4827   -1496.3789    78178.142   -18140.162    1316.3954   -19456.558    194.07574 
  148350    244.67849   -1837.1192     78076.27   -18124.294    1312.0828   -19436.377    194.31855 
  148400    246.84886   -1393.3935    77992.377   -18140.911    1323.7214   -19464.633     194.5561 
  148450      242.145   -1507.9054    77949.483   -18152.341    1298.4971   -19450.838    194.41998 
  148500    242.45457   -1605.4456     77965.54   -18170.587    1300.1571   -19470.744     194.0276 
  148550    246.74098   -1533.9504    78050.215   -18167.526    1323.1429   -19490.669    194.34873 
  148600    239.31576   -1734.8665    78193.482   -18166.107    1283.3253   -19449.433    194.36926 
  148650    243.27369    -1821.264    78330.085   -18152.836    1304.5496   -19457.386    194.46184 
  148700    246.75659   -1962.5295    78449.328   -18156.229    1323.2266   -19479.456    194.44844 
  148750    247.87025   -1911.1164    78545.629   -18141.881    1329.1986    -19471.08    194.14538 
  148800    240.36445   -1983.5208    78574.135   -18151.755    1288.9489   -19440.704    194.66764 
  148850    240.43552   -2135.5092    78512.808   -18157.739      1289.33   -19447.069    194.48748 
  148900    239.24786   -1651.0231    78382.267   -18165.156    1282.9612   -19448.117    194.61412 
  148950    245.74058   -1659.8683    78253.989   -18159.312    1317.7783    -19477.09    194.44296 
  149000     246.4509   -1523.0438    78149.112   -18173.301    1321.5873   -19494.888    194.24556 
  149050    253.94864   -1567.9095     78099.76   -18195.914    1361.7938   -19557.708    193.83706 
  149100    243.61939   -1363.1371    78118.969   -18181.548    1306.4034   -19487.952    193.94433 
  149150    236.68049   -1777.9522    78168.609   -18204.825    1269.1938   -19474.018    194.43103 
  149200    241.12883   -1765.7076    78212.805   -18221.188    1293.0479   -19514.236    194.29454 
  149250    243.32166   -1883.5115     78253.32   -18235.063    1304.8069    -19539.87    194.33542 
  149300    239.59559   -1952.2854    78264.633   -18251.835    1284.8259   -19536.661    194.37848 
  149350    232.13856   -1950.8394    78209.954   -18284.092    1244.8378    -19528.93    194.13774 
  149400    237.86787   -1572.4815    78126.615    -18284.97    1275.5611   -19560.531    193.80139 
  149450    240.48818   -1979.0799    78067.862   -18268.191    1289.6124   -19557.804    193.90898 
  149500    240.57823   -1885.2839    78042.202   -18281.174    1290.0953    -19571.27    193.90949 
  149550    237.74738   -1432.3959    78061.992   -18296.217    1274.9149   -19571.132     193.8512 
  149600    238.13421   -1579.0331     78140.64   -18288.869    1276.9893   -19565.859    194.26061 
  149650    239.73451   -1739.0118    78283.761   -18266.248    1285.5709   -19551.819    194.02648 
  149700    242.92898   -2144.6469    78457.833   -18270.645    1302.7011   -19573.346    194.05383 
  149750    236.09723   -2360.4183    78573.413   -18267.831     1266.066   -19533.897    194.22294 
  149800    235.37758   -1902.1794    78588.558    -18273.34    1262.2069   -19535.547    194.26446 
  149850    238.43173   -2220.3781    78585.502   -18275.913    1278.5847   -19554.498    194.59823 
  149900    235.54128   -1791.7667    78553.745    -18267.41    1263.0848   -19530.494    194.42346 
  149950    238.15029   -2184.7222    78502.463   -18275.089    1277.0755   -19552.165    194.47861 
  150000    233.41341   -1960.9398    78402.349    -18259.25    1251.6741   -19510.924    194.09038 
Loop time of 168.633 on 12 procs for 100000 steps with 4560 atoms

Performance: 512.354 ns/day, 0.047 hours/ns, 593.002 timesteps/s
97.7% CPU use with 12 MPI tasks x no OpenMP threads

MPI task timing breakdown:
Section |  min time  |  avg time  |  max time  |%varavg| %total
---------------------------------------------------------------
Pair    | 79.844     | 98.202     | 121.03     | 174.2 | 58.23
Neigh   | 6.0666     | 13.215     | 21.553     | 194.5 |  7.84
Comm    | 17.019     | 47.297     | 71.777     | 341.5 | 28.05
Output  | 0.51646    | 0.5268     | 0.62813    |   4.2 |  0.31
Modify  | 7.3759     | 8.0517     | 8.7594     |  21.2 |  4.77
Other   |            | 1.341      |            |       |  0.80

Nlocal:        380.000 ave         581 max         208 min
Histogram: 6 0 0 0 0 0 0 0 2 4
Nghost:        1485.67 ave        1535 max        1447 min
Histogram: 1 1 2 3 1 0 1 1 0 2
Neighs:        0.00000 ave           0 max           0 min
Histogram: 12 0 0 0 0 0 0 0 0 0
FullNghs:      37553.2 ave       69954 max        9685 min
Histogram: 6 0 0 0 0 0 0 0 2 4

Total # of neighbors = 450638
Ave neighs/atom = 98.824123
Neighbor list builds = 10968
Dangerous builds = 0


# Create data file for import to other simulations
#
write_data data.${NAME}
write_data data.ML_graphite_m1000atm_240K
System init for write_data ...


Total wall time: 0:04:13
