
# Create simulation box of size 49.22 x 49.019 x 33.94 Angstrom
#
region 	     all block 0 ${XDIM} 0 ${YDIM} 0 ${ZDIM} units box
region 	     all block 0 49.22 0 ${YDIM} 0 ${ZDIM} units box
region 	     all block 0 49.22 0 49.019635930410494 0 ${ZDIM} units box
region 	     all block 0 49.22 0 49.019635930410494 0 33.94 units box
create_box          1 all
Created orthogonal box = (0.0000000 0.0000000 0.0000000) to (49.220000 49.019636 33.940000)
  3 by 2 by 2 MPI processor grid

# fill box with randomly distributed atoms of number density 0.0327 N/A**3
#  ~800 atoms will eventually be removed to insert the substrate
#
create_atoms        1 random 2677 63782 all
Created 2677 atoms
  create_atoms CPU = 0.000 seconds
mass                1 18.015

# Define potential
#
pair_style          sw
pair_coeff          * * ML.sw mW
Reading sw potential file ML.sw with DATE: 2019-02-27

# Run minimization
#
minimize            1.0e-8 1.0e-8 10000 1000
WARNING: Using 'neigh_modify every 1 delay 0 check yes' setting during minimization (../min.cpp:187)
Neighbor list info ...
  update every 1 steps, delay 0 steps, check yes
  max neighbors/atom: 2000, page size: 100000
  master list distance cutoff = 6.0032907
  ghost atom cutoff = 6.0032907
  binsize = 3.0016454, bins = 17 17 12
  1 neighbor lists, perpetual/occasional/extra = 1 0 0
  (1) pair sw, perpetual
      attributes: full, newton on
      pair build: full/bin/atomonly
      stencil: full/bin/3d
      bin: standard
Per MPI rank memory allocation (min/avg/max) = 4.207 | 4.208 | 4.209 Mbytes
Step Temp E_pair E_mol TotEng Press 
       0            0     11729707            0     11729707     13324765 
     625            0   -28949.859            0   -28949.859   -893.44476 
Loop time of 0.603851 on 12 procs for 625 steps with 2677 atoms

98.2% CPU use with 12 MPI tasks x no OpenMP threads

Minimization stats:
  Stopping criterion = max force evaluations
  Energy initial, next-to-last, final = 
      11729707.0176839   -28949.772469354  -28949.8591806607
  Force two-norm initial, final = 5.5538902e+08 2.4331059
  Force max component initial, final = 3.0045181e+08 0.51830411
  Final line search alpha, max atom move = 0.11142531 0.057752194
  Iterations, force evaluations = 625 1001

MPI task timing breakdown:
Section |  min time  |  avg time  |  max time  |%varavg| %total
---------------------------------------------------------------
Pair    | 0.34432    | 0.42906    | 0.50281    |   6.1 | 71.05
Neigh   | 0.0091665  | 0.0097057  | 0.010416   |   0.3 |  1.61
Comm    | 0.056852   | 0.13352    | 0.21664    |  10.9 | 22.11
Output  | 0          | 0          | 0          |   0.0 |  0.00
Modify  | 0          | 0          | 0          |   0.0 |  0.00
Other   |            | 0.03156    |            |       |  5.23

Nlocal:        223.083 ave         235 max         209 min
Histogram: 1 0 1 0 3 3 1 0 2 1
Nghost:        764.833 ave         782 max         754 min
Histogram: 3 0 1 2 0 4 1 0 0 1
Neighs:        0.00000 ave           0 max           0 min
Histogram: 12 0 0 0 0 0 0 0 0 0
FullNghs:      6264.33 ave        6738 max        5578 min
Histogram: 1 0 0 1 1 4 2 0 1 2

Total # of neighbors = 75172
Ave neighs/atom = 28.080687
Neighbor list builds = 25
Dangerous builds = 0

# Add velocity/set timestep
#
velocity            all create ${TEMP} 120593 rot yes dist gaussian
velocity            all create 240 120593 rot yes dist gaussian
timestep            5.0

# Define output
#
compute	            1 all msd
thermo	            100
thermo_style        custom step temp press vol etotal ke pe c_1[4] density

# Neighbor lists
#
neigh_modify        delay 0 every 1 check yes

# Run 0.5 ns equilibration in NPH ensemble
#
fix 3 all nph z ${PRES} ${PRES} ${PCOUPL}
fix 3 all nph z -1000 ${PRES} ${PCOUPL}
fix 3 all nph z -1000 -1000 ${PCOUPL}
fix 3 all nph z -1000 -1000 10000.0
fix 4 all temp/csvr ${TEMP} ${TEMP} ${TCOUPL} 837392
fix 4 all temp/csvr 240 ${TEMP} ${TCOUPL} 837392
fix 4 all temp/csvr 240 240 ${TCOUPL} 837392
fix 4 all temp/csvr 240 240 5000.0 837392

dump                1 all custom 1000 nph.${NAME}.dump id type x y z vx vy vz
dump                1 all custom 1000 nph.ML_m1000atm_240K.dump id type x y z vx vy vz
run                 100000
Per MPI rank memory allocation (min/avg/max) = 3.458 | 3.458 | 3.459 Mbytes
Step Temp Press Volume TotEng KinEng PotEng c_1[4] Density 
     625          240    175.21874    81888.616   -27035.464    1914.3954   -28949.859            0    0.9779309 
     700    123.08435   -676.67728    81940.523   -26967.462    981.80047   -27949.263   0.19432078    0.9773114 
     800    134.18958    -830.4616    82110.608   -26852.268     1070.383   -27922.651   0.40922288   0.97528698 
     900    140.77396     -946.421     82366.58   -26767.188    1122.9043   -27890.092   0.64485441   0.97225607 
    1000    149.29321   -1569.7778    82626.837   -26670.851    1190.8593   -27861.711   0.84625502   0.96919367 
    1100    157.67962   -1519.2152    82819.914   -26606.736    1257.7548   -27864.491    1.0863672    0.9669342 
    1200    164.30381    -1303.002    82906.096   -26528.547    1310.5936   -27839.141    1.3609211   0.96592906 
    1300    168.97741   -1096.0845    82915.826   -26459.015    1347.8732   -27806.888    1.6496706   0.96581571 
    1400    175.39884    -772.6547    82892.596   -26401.861    1399.0948   -27800.956    1.8257971   0.96608637 
    1500    179.26367   -668.73551    82871.613   -26352.371    1429.9231   -27782.294    1.9434902   0.96633099 
    1600    182.02592   -324.61964    82898.981   -26304.438    1451.9566   -27756.394     2.133141   0.96601197 
    1700    189.01204   -754.56699    82998.625    -26257.08    1507.6825   -27764.762    2.3289913   0.96485222 
    1800    189.62726   -701.39534    83101.894    -26226.27    1512.5898    -27738.86    2.5096989   0.96365321 
    1900    193.48444   -1010.2649    83208.202   -26190.722    1543.3572   -27734.079    2.7138801   0.96242203 
    2000    193.88708    -1051.326    83302.774   -26169.168     1546.569   -27715.737    2.9318318   0.96132942 
    2100    194.30299    -941.7201    83381.678   -26133.595    1549.8865   -27683.482    3.1658008   0.96041972 
    2200    203.80436   -808.64805     83481.49    -26100.01    1625.6756   -27725.685     3.378218   0.95927142 
    2300     201.8381   -1202.6468    83588.087   -26088.677    1609.9914   -27698.669    3.5425209    0.9580481 
    2400    205.40782   -748.66578    83661.877   -26063.306    1638.4658   -27701.772    3.7611334    0.9572031 
    2500     209.6021   -816.76102    83739.534   -26038.775    1671.9221   -27710.697    3.9295129   0.95631542 
    2600    210.98054   -1240.1812    83837.328   -26003.859    1682.9175   -27686.776    4.0399119    0.9551999 
    2700    211.96603   -910.54131    83953.468   -25987.647    1690.7783   -27678.426    4.2284251    0.9538785 
    2800     212.8467   -950.09048    84124.177   -25964.625    1697.8031   -27662.428     4.450633   0.95194283 
    2900    216.62022   -1141.3012    84294.206   -25946.528    1727.9032   -27674.431    4.6091692   0.95002268 
    3000    216.31361    -1235.791    84391.677   -25930.405    1725.4575   -27655.863    4.7788216   0.94892541 
    3100    221.55766   -1044.0112    84414.359   -25898.499    1767.2874   -27665.787    4.9230153   0.94867045 
    3200    221.67185   -1243.4403    84408.183   -25880.844    1768.1983   -27649.042     5.058871   0.94873986 
    3300    219.87527   -1240.2973    84389.991   -25881.649    1753.8676   -27635.516    5.2584628   0.94894438 
    3400    225.70242   -624.40094     84392.44   -25852.905    1800.3487   -27653.254    5.2885711   0.94891684 
    3500    217.59061   -1117.1563    84419.171   -25835.907    1735.6436   -27571.551    5.3893878   0.94861637 
    3600    226.43664   -825.87772    84433.609   -25817.731    1806.2053   -27623.936    5.6488973   0.94845416 
    3700    227.58148   -899.06191    84461.144   -25783.064    1815.3373   -27598.401    5.7583682   0.94814495 
    3800    227.01354   -1041.9754    84467.675   -25780.128     1810.807   -27590.935     6.017239   0.94807164 
    3900    230.44512   -846.63465    84470.882   -25765.928    1838.1795   -27604.108    6.2888612   0.94803565 
    4000    227.61268   -743.73191    84503.714   -25771.698    1815.5861   -27587.284    6.6030419   0.94766731 
    4100    227.86118   -1109.9691    84531.707    -25770.98    1817.5684   -27588.549    6.6592596   0.94735349 
    4200    232.78791   -998.60836      84522.1   -25785.059    1856.8671   -27641.926    6.8347642   0.94746116 
    4300    225.53481    -767.5479    84454.919   -25790.875    1799.0117   -27589.887    6.9402412   0.94821484 
    4400     228.8618    -795.5828    84407.233   -25760.793      1825.55   -27586.343    7.1920943   0.94875054 
    4500    223.23485   -644.29367    84410.891   -25743.058    1780.6657   -27523.724    7.4570391   0.94870942 
    4600    233.78385   -441.27246    84457.017    -25734.83    1864.8114   -27599.641    7.6732588   0.94819128 
    4700    231.44064   -807.52803    84575.532   -25726.226    1846.1205   -27572.347    7.9384073   0.94686259 
    4800    229.21288   -1020.4403    84730.248   -25724.472    1828.3504   -27552.822    8.0400925   0.94513364 
    4900    234.38551   -1232.6328    84848.207   -25730.577    1869.6106   -27600.187    8.2031203   0.94381968 
    5000    230.93748   -972.27046    84895.865   -25743.347    1842.1069   -27585.454    8.2957146   0.94328984 
    5100    233.97878   -1077.6073    84886.254   -25705.966    1866.3663   -27572.333    8.3095551   0.94339665 
    5200    236.31782   -1187.4845    84873.854   -25685.128     1885.024   -27570.152    8.4379929   0.94353448 
    5300    230.72103   -866.34774     84853.44   -25677.408    1840.3804   -27517.788    8.5766005   0.94376147 
    5400     237.8028   -758.22113    84864.869   -25655.239    1896.8691   -27552.108    8.6581232   0.94363437 
    5500    237.77247   -910.23281      84874.8   -25658.962    1896.6272   -27555.589    8.8718293   0.94352396 
    5600    235.17499   -752.68164     84845.08   -25653.652    1875.9081   -27529.561    9.1175767   0.94385446 
    5700    233.43455   -754.08458    84833.844   -25647.243    1862.0252   -27509.269    9.3397877   0.94397948 
    5800    239.27726   -466.76965    84837.686   -25652.509    1908.6304   -27561.139    9.5355426   0.94393672 
    5900    234.59561   -560.03551    84866.737   -25655.292    1871.2865   -27526.578    9.7643038    0.9436136 
    6000    233.25389   -764.86528    84964.853   -25657.888    1860.5841   -27518.472     9.867199   0.94252393 
    6100    233.06258   -923.15059     85052.13   -25668.404    1859.0581   -27527.462    10.071818   0.94155676 
    6200    228.56509   -1097.7459    85121.516   -25666.253    1823.1832   -27489.437    10.289628   0.94078925 
    6300    237.57313   -1259.3786    85128.898   -25623.004    1895.0372   -27518.042    10.270589   0.94070767 
    6400    238.02079   -907.93752    85087.099    -25603.09     1898.608   -27501.698    10.448893    0.9411698 
    6500     238.0963   -674.41211    85055.519   -25630.457    1899.2103   -27529.667    10.645176   0.94151923 
    6600    233.71996   -774.92558    85057.945   -25631.741    1864.3018   -27496.043    10.864449   0.94149238 
    6700    237.00726   -1093.3327    85092.368   -25611.512    1890.5234   -27502.036    11.004777   0.94111151 
    6800    241.17849   -818.96852    85146.187   -25595.897    1923.7958   -27519.693    11.195011   0.94051666 
    6900    237.73108   -1166.4092    85192.132   -25597.122    1896.2971   -27493.419    11.380054   0.94000943 
    7000    234.91799   -1013.6809    85205.556   -25629.409    1873.8581   -27503.267    11.553102   0.93986133 
    7100    234.03078   -1093.8566    85215.404   -25639.724    1866.7811   -27506.505    11.694021   0.93975272 
    7200    233.88365   -1240.7695    85241.716   -25642.313    1865.6075   -27507.921    11.788474   0.93946264 
    7300    241.29801   -1112.4805    85224.897   -25650.097    1924.7492   -27574.846    11.890624   0.93964804 
    7400    237.63106   -534.97177    85190.223   -25624.497    1895.4992   -27519.996    12.052779   0.94003049 
    7500    236.89967   -606.24294    85179.007   -25629.656    1889.6652   -27519.321    12.139578   0.94015428 
    7600    237.40915   -1076.9575    85224.971   -25630.238    1893.7292   -27523.967    12.384664   0.93964722 
    7700    236.71851   -1321.6583    85252.479    -25619.51    1888.2202   -27507.731    12.471816   0.93934403 
    7800    237.70283   -1197.4412    85223.241   -25605.202    1896.0718   -27501.274    12.531982    0.9396663 
    7900    241.43685   -1087.8611    85157.672   -25595.834    1925.8567   -27521.691    12.751383   0.94038981 
    8000    233.62564   -842.30581     85082.19   -25614.257    1863.5494   -27477.806    12.940445   0.94122409 
    8100    231.86323   -928.25083    85008.079   -25599.224    1849.4913   -27448.715    13.173901   0.94204467 
    8200    234.69875   -869.90517     84935.38   -25597.558    1872.1093   -27469.667    13.112739     0.942851 
    8300    238.82295    -733.9737    84874.172   -25597.762    1905.0065   -27502.769    13.218114   0.94353094 
    8400    240.14166   -817.24778    84862.941   -25588.666    1915.5254   -27504.191    13.536856   0.94365581 
    8500    236.17838   -688.37345    84862.844   -25590.053    1883.9117   -27473.965    13.673832   0.94365689 
    8600    238.99015   -1060.3423    84876.443   -25605.493    1906.3402   -27511.833    14.004943    0.9435057 
    8700     237.7366    -901.1994     84866.18   -25598.583    1896.3411   -27494.924    14.064088    0.9436198 
    8800    244.48588    -852.6097     84836.67   -25576.002    1950.1778    -27526.18    14.136957   0.94394803 
    8900    237.19984   -528.01744    84780.871   -25563.831    1892.0595   -27455.891    14.308375   0.94456929 
    9000    239.72704   -1056.1713     84747.69   -25566.592    1912.2181    -27478.81    14.411675   0.94493912 
    9100    233.36238    -911.1521    84715.786   -25588.988    1861.4495   -27450.437    14.520739   0.94529498 
    9200    233.36687   -598.63745    84687.698   -25592.673    1861.4853   -27454.158    14.766056   0.94560851 
    9300    235.40281   -927.00599    84704.595   -25594.282    1877.7253   -27472.007    15.004551   0.94541987 
    9400     240.0128   -890.23897    84723.729   -25611.534    1914.4975   -27526.031    15.296276   0.94520636 
    9500    238.17072   -933.13403    84772.048   -25602.507    1899.8039   -27502.311    15.448059    0.9446676 
    9600    234.41175   -879.84106    84818.007   -25594.622      1869.82   -27464.442    15.596668   0.94415573 
    9700    237.26522    -989.1827    84867.634   -25573.881    1892.5811   -27466.462     15.83548   0.94360363 
    9800    232.48541   -990.10594    84914.981   -25580.212    1854.4542   -27434.666    16.078486   0.94307749 
    9900    245.33184    -482.0886    84961.302   -25567.075    1956.9256   -27524.001    16.193042   0.94256332 
   10000    234.16613   -826.18048    85056.652   -25560.551    1867.8608   -27428.412    16.408602    0.9415067 
   10100    236.45526   -1275.2138    85165.998   -25568.449    1886.1203    -27454.57    16.421403   0.94029788 
   10200    238.62924   -1256.5672    85216.564    -25564.15    1903.4614   -27467.611    16.782683   0.93973992 
   10300    240.01739   -847.88742    85229.327   -25557.222    1914.5342   -27471.757    17.092041    0.9395992 
   10400    240.50887   -1222.8834    85272.769   -25527.692    1918.4545   -27446.147    17.178346   0.93912052 
   10500    238.40308    -1619.448    85329.057   -25513.743    1901.6574     -27415.4    17.384428   0.93850103 
   10600    237.00861   -1544.0634    85300.561   -25514.589    1890.5341   -27405.123    17.456527   0.93881454 
   10700    245.28906    -1156.356    85169.767   -25509.307    1956.5844   -27465.891    17.685701   0.94025627 
   10800    239.26363   -672.61764    85003.076   -25517.673    1908.5217   -27426.195    17.908973   0.94210011 
   10900    236.86142   -670.95705    84871.777   -25546.842    1889.3601   -27436.202    17.913191   0.94355757 
   11000    240.11574   -1187.9767    84780.107   -25544.678    1915.3187   -27459.996    18.148689    0.9445778 
   11100    238.70159   -915.83673    84686.157   -25530.659    1904.0385   -27434.698    18.446586   0.94562572 
   11200    237.56429   -825.45369    84584.143   -25519.471    1894.9666   -27414.437    18.506564   0.94676619 
   11300    236.32137   -724.87206     84526.23   -25518.242    1885.0523   -27403.294    18.501385   0.94741487 
   11400    240.56172   -439.32651    84502.867   -25536.714    1918.8761    -27455.59    18.677713   0.94767681 
   11500    236.56754   -570.11441    84508.788   -25524.988    1887.0159   -27412.004    19.012939   0.94761041 
   11600    243.82292   -780.99171    84562.458   -25543.345    1944.8895   -27488.234    19.151322   0.94700898 
   11700    237.34911   -862.55509    84635.687   -25544.853    1893.2503   -27438.104     19.31378   0.94618961 
   11800    238.93056   -634.03091    84734.383   -25523.974    1905.8649   -27429.839    19.642621   0.94508752 
   11900    236.02403   -1272.7229    84883.717   -25535.707    1882.6805   -27418.388    19.709343   0.94342484 
   12000    238.99289   -883.90697    85016.972   -25526.525    1906.3621   -27432.887    19.911325   0.94194613 
   12100    236.27023   -1399.5151    85146.589   -25512.401    1884.6444   -27397.045    20.300548   0.94051221 
   12200    243.42182   -1175.8641    85260.598   -25506.207    1941.6901   -27447.898    20.636641   0.93925458 
   12300     235.7107    -1051.139    85335.717   -25517.645    1880.1812   -27397.826    20.664597   0.93842778 
   12400    242.63005    -1105.487    85374.116   -25517.849    1935.3744   -27453.223    20.851018    0.9380057 
   12500    241.77235   -1190.4085    85389.523    -25536.46    1928.5328   -27464.993    20.976817   0.93783645 
   12600    239.18637   -956.06372    85387.899   -25527.179    1907.9054   -27435.084    21.211506   0.93785429 
   12700    234.90787   -1160.9253    85403.307    -25521.36    1873.7773   -27395.138    21.315905   0.93768509 
   12800    233.90605   -1139.1175    85406.038   -25544.608    1865.7862   -27410.394    21.519499    0.9376551 
   12900     236.6531    -1179.655    85423.085   -25563.538    1887.6984   -27451.236    21.688645   0.93746798 
   13000    232.03164   -962.00748    85406.901   -25577.024    1850.8346   -27427.859     21.85644   0.93764563 
   13100    239.75129   -1162.5476    85358.479   -25587.415    1912.4116   -27499.826    22.124771   0.93817753 
   13200    238.84029   -973.60086    85272.439   -25574.627    1905.1448   -27479.772    22.300385   0.93912416 
   13300    240.21456   -1176.3728    85179.369   -25569.313    1916.1069    -27485.42    22.437606   0.94015027 
   13400    241.77057   -624.17102    85092.298   -25557.696    1928.5187   -27486.215    22.573236   0.94111229 
   13500    238.87201   -837.80324     85042.55   -25561.901    1905.3978   -27467.299    22.587567   0.94166282 
   13600    241.42476   -886.53227    85007.933   -25557.497    1925.7603   -27483.257    22.975309   0.94204628 
   13700    240.30732   -1004.2107    84992.194   -25553.221    1916.8468   -27470.068     23.32231   0.94222073 
   13800    240.00962        -1126    84987.819   -25533.301    1914.4722   -27447.773    23.380938   0.94226924 
   13900     237.6496   -637.74619     84991.06   -25527.756    1895.6471   -27423.403    23.679422    0.9422333 
   14000    247.62168   -833.25773    85048.962   -25518.884    1975.1909   -27494.075    23.775203   0.94159183 
   14100    237.60325   -1197.4705    85161.041   -25507.207    1895.2774   -27402.484    23.881541   0.94035262 
   14200    246.42755   -1429.2608    85269.189   -25505.726    1965.6658   -27471.392    23.993039   0.93915995 
   14300    242.70966   -1187.3009    85296.257   -25503.876    1936.0095   -27439.886    24.185833   0.93886192 
   14400    236.36979   -1300.3164    85261.364   -25520.225    1885.4385   -27405.664    24.233396   0.93924614 
   14500    240.64794   -1454.2906    85162.978   -25520.194    1919.5638   -27439.758     24.47932   0.94033123 
   14600     241.0652   -1093.6316     85025.72   -25499.142    1922.8922   -27422.034    24.822643   0.94184921 
   14700    239.71552   -1067.1367     84866.45   -25483.689    1912.1262   -27395.816     24.99339    0.9436168 
   14800    240.42484   -983.99935    84736.372   -25500.046    1917.7842    -27417.83    25.116957   0.94506533 
   14900    237.84138   -423.56693     84682.88   -25490.209    1897.1769   -27387.386     25.47562    0.9456623 
   15000    240.71234    -927.4603    84711.689   -25489.504    1920.0775   -27409.582    25.680525    0.9453407 
   15100    237.70712   -862.80992    84757.154   -25503.974     1896.106    -27400.08     25.94732    0.9448336 
   15200    240.84442   -1274.4138    84844.154   -25516.182    1921.1311   -27437.313    26.130093   0.94386477 
   15300    237.94827   -934.94795    84911.636   -25509.205    1898.0295   -27407.235    26.354241   0.94311464 
   15400    238.45653   -1177.0448    84979.627   -25519.454    1902.0837   -27421.538    26.303998   0.94236007 
   15500    237.27839   -990.36964    85061.726   -25516.087    1892.6862   -27408.773    26.508328   0.94145053 
   15600    235.63027   -1104.1038    85136.577   -25528.033    1879.5397   -27407.572    26.810595   0.94062282 
   15700    238.00529   -1318.5801    85192.213   -25528.747    1898.4844   -27427.231    27.115126   0.94000853 
   15800     238.6669   -1036.1951    85179.838   -25543.154    1903.7618   -27446.916    27.414612    0.9401451 
   15900    235.40621   -725.63163     85102.69   -25541.438    1877.7524    -27419.19     27.70837   0.94099737 
   16000    242.97593   -638.18001    85049.122   -25539.098    1938.1334   -27477.231    27.820161   0.94159005 
   16100     242.0148   -709.31198    85021.418   -25519.069    1930.4668   -27449.536     28.23669   0.94189686 
   16200    240.60596   -1144.8763     84991.27   -25506.419    1919.2289   -27425.648    28.302562   0.94223098 
   16300    239.86617   -380.18985    84940.388   -25513.591    1913.3279   -27426.919    28.465702    0.9427954 
   16400    240.33482   -1003.9028    84949.448   -25509.101    1917.0662   -27426.167    28.661125   0.94269485 
   16500    235.06749   -845.71867    84972.583   -25527.143    1875.0505   -27402.194    28.887249   0.94243819 
   16600    237.35209   -911.91391    85026.384   -25517.928     1893.274   -27411.202    29.112997   0.94184186 
   16700    243.80038   -939.75595    85089.654   -25503.645    1944.7098   -27448.355    29.096304   0.94114153 
   16800    237.50107   -1027.4885    85158.691   -25491.966    1894.4624   -27386.428    29.544927   0.94037856 
   16900    238.05021   -1205.4559    85220.388   -25500.139    1898.8427   -27398.982    30.078082   0.93969776 
   17000    237.95019   -1143.9746    85244.539   -25474.153    1898.0448   -27372.198     30.31757   0.93943153 
   17100    242.05363   -990.33036    85222.259   -25462.951    1930.7765   -27393.728    30.316496   0.93967713 
   17200    238.77802   -696.69378    85220.062   -25473.965    1904.6481   -27378.613    30.735057   0.93970136 
   17300    237.83362    -1084.628    85261.576   -25494.824     1897.115   -27391.939    30.892019   0.93924381 
   17400    237.77598   -1311.6542    85285.138   -25492.343    1896.6552   -27388.998    31.285095   0.93898432 
   17500    230.85025   -876.23423    85292.878   -25482.778    1841.4111   -27324.189    31.338956   0.93889911 
   17600    238.95152   -998.22022    85329.502   -25478.268    1906.0321     -27384.3    31.499928   0.93849613 
   17700    240.81633   -888.17076    85395.964   -25460.467     1920.907   -27381.374     31.78041   0.93776572 
   17800    239.79045   -1062.2356    85489.781    -25450.86    1912.7239   -27363.584    31.822085   0.93673661 
   17900     236.0988   -1198.0546    85551.009   -25454.281     1883.277   -27337.557    31.773598    0.9360662 
   18000    239.08696   -1441.5526    85565.289   -25451.204    1907.1125   -27358.317    31.834306   0.93590997 
   18100    241.44657   -639.64219    85520.054   -25439.178    1925.9342   -27365.112    31.812716   0.93640501 
   18200    240.57532   -963.42965    85510.567   -25436.337    1918.9846   -27355.322    32.018432    0.9365089 
   18300    239.13026   -1130.4224    85518.807   -25422.161    1907.4578   -27329.618    32.301769   0.93641867 
   18400    240.27245   -1084.5913    85515.625   -25413.639    1916.5687   -27330.208    32.804717   0.93645351 
   18500    240.36435   -1285.8782    85492.099     -25428.4    1917.3018   -27345.702    32.555351   0.93671121 
   18600    240.75204   -1182.5989    85447.791   -25438.229    1920.3942   -27358.623    32.577777   0.93719693 
   18700    232.03162   -785.03055    85390.791   -25453.307    1850.8345   -27304.142    32.835328   0.93782253 
   18800    241.21106   -1117.7002    85307.793   -25463.886    1924.0556   -27387.942    33.069097   0.93873495 
   18900    238.61419    -975.3325    85169.616   -25458.459    1903.3414     -27361.8    33.208114   0.94025794 
   19000     243.0719    -878.9453    85042.452   -25463.445    1938.8989   -27402.344    33.532231   0.94166391 
   19100    240.93015   -680.91638     84929.95   -25449.844     1921.815   -27371.659     33.59608   0.94291128 
   19200     237.5111    -1232.818    84822.138   -25448.331    1894.5424   -27342.873    33.841602   0.94410975 
   19300    241.00482   -1037.2546    84686.398   -25444.771    1922.4106   -27367.181    33.807144   0.94562302 
   19400    234.69134   -719.04398    84569.889   -25437.285    1872.0502   -27309.335    34.100689   0.94692577 
   19500    241.60815   -879.31826    84533.861   -25439.689    1927.2231   -27366.912     34.42359   0.94732934 
   19600    241.49551   -562.18817    84589.049   -25437.252    1926.3246   -27363.577    34.731238   0.94671129 
   19700    241.79691   -519.96921    84761.588   -25434.343    1928.7287   -27363.072    34.914476   0.94478418 
   19800    238.45691   -1026.3576    85017.661   -25435.844    1902.0868   -27337.931    35.060969   0.94193849 
   19900    236.84092   -1378.2467    85260.352   -25435.817    1889.1965   -27325.013    35.169724   0.93925729 
   20000    242.69688   -1259.9895    85446.071   -25439.857    1935.9075   -27375.765    35.409318    0.9372158 
   20100    239.71513   -1575.6059     85518.82   -25437.264    1912.1231   -27349.387     35.46203   0.93641853 
   20200    243.81568   -1091.7769     85480.57   -25438.976    1944.8318   -27383.808    35.689756   0.93683754 
   20300    240.11075   -1513.4337    85387.523   -25428.668    1915.2789   -27343.947    35.976221   0.93785842 
   20400    242.07619   -1338.1312    85217.794   -25443.114    1930.9565   -27374.071    35.834527   0.93972636 
   20500    241.90372   -978.10376    85015.068   -25443.234    1929.5808   -27372.815    35.594483   0.94196722 
   20600    236.52673   -824.87044    84811.044    -25429.13    1886.6904    -27315.82    35.835636   0.94423325 
   20700    238.70388   -871.50359    84645.203   -25444.154    1904.0567   -27348.211    35.895325   0.94608324 
   20800    241.62213   -764.82864    84550.735   -25441.508    1927.3346   -27368.842    36.340775   0.94714028 
   20900     239.7421   -540.02259    84519.871   -25447.419    1912.3382   -27359.757    36.762845   0.94748615 
   21000    242.36807   -629.47815    84569.103   -25441.717    1933.2847   -27375.001    36.969142   0.94693458 
   21100    241.71288   -956.74851    84698.189   -25453.838    1928.0585   -27381.896    37.325009   0.94549138 
   21200    247.13587   -1012.2278    84889.092   -25460.185    1971.3157   -27431.501    37.546813   0.94336511 
   21300    237.79608   -1476.2623    85078.273   -25462.165    1896.8156   -27358.981    37.634548   0.94126743 
   21400    240.70257   -1585.8223    85182.805   -25457.407    1919.9996   -27377.407     37.68822   0.94011235 
   21500    240.65374   -1303.7357    85190.272   -25471.402    1919.6101   -27391.013     37.84835   0.94002995 
   21600    244.40122   -1332.2758    85089.925   -25461.684    1949.5024   -27411.187    38.252177   0.94113854 
   21700    245.21522    -255.2028    84890.815   -25471.553    1955.9954   -27427.548    38.214519   0.94334596 
   21800    239.96913   -857.12891    84729.988   -25464.082    1914.1492   -27378.231     38.60916   0.94513654 
   21900    244.03255   -880.86226    84608.511   -25476.208    1946.5617    -27422.77    38.437666   0.94649352 
   22000    245.36436   -605.24533    84539.764   -25488.561     1957.185   -27445.746    38.566854    0.9472632 
   22100    240.76343   -568.97253    84537.143   -25507.982    1920.4851   -27428.467    38.956905   0.94729257 
   22200    239.26847   -441.99153    84625.344   -25514.424    1908.5603   -27422.984    38.817131   0.94630525 
   22300    240.17289   -860.32863    84793.149   -25521.377    1915.7745   -27437.152    39.153136   0.94443252 
   22400    240.20872   -851.23647    84989.929   -25511.477    1916.0604   -27427.537    39.258812   0.94224585 
   22500    236.91735    -1208.442    85177.249   -25528.726    1889.8063   -27418.532    39.538034   0.94017367 
   22600    240.90638   -1250.6453     85313.75   -25483.568    1921.6253   -27405.193    39.894561   0.93866941 
   22700    235.80708   -1650.5614    85380.437   -25493.337      1880.95   -27374.287    40.323727   0.93793626 
   22800     239.8487   -1383.4194    85336.336   -25504.755    1913.1886   -27417.944    40.339766   0.93842097 
   22900     239.0937   -1150.3067    85191.424   -25497.814    1907.1663    -27404.98    40.532479   0.94001724 
   23000    240.41364   -996.47092     85008.81   -25537.436    1917.6949    -27455.13    40.749982   0.94203656 
   23100    236.46451   -876.61795    84871.382   -25544.115    1886.1941   -27430.309    40.633958   0.94356196 
   23200    242.10408   -650.98174    84805.844   -25528.893    1931.1789   -27460.072    40.945529   0.94429114 
   23300    238.71266   -875.83602    84813.912   -25526.151    1904.1268   -27430.278    41.250211   0.94420131 
   23400    235.95806   -845.71658     84839.93    -25554.47    1882.1543   -27436.624    41.445234   0.94391175 
   23500    234.07115   -1125.6273    84864.643   -25562.704    1867.1031   -27429.807    41.567794   0.94363688 
   23600    237.72297   -1269.1147    84856.358   -25549.938    1896.2324   -27446.171    42.013116   0.94372901 
   23700    238.54635   -1073.2219    84819.233   -25535.753    1902.8002   -27438.554    42.336557   0.94414209 
   23800    234.26542   -591.44566    84789.283    -25531.06    1868.6528   -27399.713      42.3389   0.94447558 
   23900    240.26028   -494.99876    84866.611   -25532.666    1916.4716   -27449.138     42.48325   0.94361501 
   24000    238.13355   -943.04642    85082.765   -25526.056    1899.5074   -27425.563    42.742393   0.94121774 
   24100    241.41637   -1339.5996    85338.706   -25511.022    1925.6933   -27436.715    43.040991   0.93839491 
   24200     237.5512   -1308.4248    85532.597   -25497.368    1894.8623    -27392.23    43.265352   0.93626769 
   24300     239.6154   -1341.1141    85623.381   -25511.394    1911.3277   -27422.721    43.224518     0.935275 
   24400    235.74922   -1562.0684    85643.005   -25507.121    1880.4884    -27387.61    43.611328   0.93506069 
   24500     241.5286   -1088.5094    85573.216   -25503.836    1926.5885   -27430.425    43.499117   0.93582327 
   24600    236.96798   -1419.0932    85462.987   -25487.728    1890.2101   -27377.938     43.68418   0.93703029 
   24700    240.99119   -728.60677    85331.885   -25485.956    1922.3019   -27408.258    43.757213   0.93846992 
   24800    239.21912   -791.99511    85237.783   -25497.079    1908.1666   -27405.246    44.224015   0.93950599 
   24900    239.51433    -1028.369    85166.838   -25506.582    1910.5214   -27417.104    43.971949    0.9402886 
   25000    240.11943   -990.44171    85100.049   -25512.247    1915.3481   -27427.595    43.974443   0.94102657 
   25100    235.87317   -879.22692     85064.88   -25493.417    1881.4772   -27374.894    44.291198   0.94141562 
   25200    240.22891   -1021.2142    85100.207   -25490.273    1916.2214   -27406.494    44.671075   0.94102482 
   25300    239.88855   -821.38506    85166.266   -25492.858    1913.5065   -27406.365    45.059355   0.94029492 
   25400    241.14264   -1161.2495    85238.053   -25466.389    1923.5099   -27389.899     45.22975   0.93950301 
   25500    244.43411   -1326.6324    85256.879   -25426.186    1949.7648   -27375.951    45.378254   0.93929556 
   25600    245.65945   -804.17842    85204.879   -25422.976    1959.5389   -27382.515    45.523065    0.9398688 
   25700    243.97378   -1030.0928    85140.228   -25415.839    1946.0929   -27361.932    45.694118   0.94058249 
   25800    247.20654   -1000.6062    85089.313   -25425.127    1971.8795   -27397.007    45.734182    0.9411453 
   25900    240.75733   -893.80382    85060.972   -25456.881    1920.4364   -27377.317    46.056003   0.94145888 
   26000    246.66505   -837.43131    85085.276   -25479.205    1967.5602   -27446.765    46.235389   0.94118996 
   26100    241.07046   -991.81014    85128.413   -25464.218    1922.9341   -27387.152    46.332192   0.94071303 
   26200    239.47557   -1244.8531    85162.788   -25445.558    1910.2123   -27355.771    46.486744   0.94033332 
   26300    240.64078   -1145.3904    85154.868    -25433.58    1919.5067   -27353.086    46.778409   0.94042078 
   26400    236.21086   -936.25008    85109.932   -25454.457    1884.1708   -27338.628    47.294954    0.9409173 
   26500    244.13995   -666.56535    85058.028   -25454.977    1947.4184   -27402.395    47.250296   0.94149147 
   26600    236.99491   -871.96155    85013.282     -25475.5    1890.4249   -27365.925    47.240131   0.94198701 
   26700    244.96265   -742.90999    84987.398   -25465.182    1953.9807   -27419.163    47.581569    0.9422739 
   26800    240.94525   -864.44472    84988.121   -25446.609    1921.9354   -27368.544    47.633367   0.94226589 
   26900    242.47404   -936.74648    84991.884   -25423.461      1934.13   -27357.591    48.104855   0.94222417 
   27000    239.78161   -1004.3904    85000.269   -25450.783    1912.6535   -27363.436    48.198572   0.94213123 
   27100    237.73207   -672.08342    85012.029     -25456.7    1896.3049   -27353.005    48.393109   0.94200089 
   27200    241.21504   -858.64184    85088.859   -25457.278    1924.0874   -27381.365    48.577847   0.94115032 
   27300    242.04066   -887.63595    85205.646   -25459.115    1930.6731   -27389.788    48.862388   0.93986034 
   27400    235.21786   -1122.2994    85344.608   -25444.779      1876.25   -27321.029    49.480233   0.93833001 
   27500    238.64855   -981.88669     85494.35   -25425.801    1903.6154   -27329.417    49.544387   0.93668655 
   27600    237.57868   -1404.5651    85610.898   -25411.565    1895.0814   -27306.646    49.661735   0.93541137 
   27700    242.87347   -949.23735    85638.043   -25411.727    1937.3161   -27349.043     49.43285   0.93511487 
   27800    241.66656   -1273.6326      85626.9   -25400.761     1927.689    -27328.45    49.722286   0.93523656 
   27900    244.42717   -1157.7978    85565.323   -25419.093    1949.7094   -27368.803    49.864989   0.93590961 
   28000    241.97019   -1108.2241    85462.513   -25442.108     1930.111   -27372.219    49.710651   0.93703548 
   28100    238.93163   -985.95423    85370.539   -25420.998    1905.8734   -27326.871    49.863786     0.938045 
   28200    247.03554   -830.96239    85325.459   -25419.206    1970.5155   -27389.722    50.055061    0.9385406 
   28300    241.74961   -1109.6514    85330.513   -25413.748    1928.3515     -27342.1    50.111064   0.93848501 
   28400    242.65423    -783.3593    85340.477   -25424.364    1935.5673   -27359.931    50.249693   0.93837544 
   28500     243.4683   -481.69245    85375.111   -25432.519    1942.0608    -27374.58    50.124632   0.93799477 
   28600    247.59645   -877.28114    85431.841   -25443.691    1974.9897   -27418.681    50.480419    0.9373719 
   28700    237.56612   -1128.0031    85440.462   -25467.174    1894.9812   -27362.155    50.783691   0.93727732 
   28800    240.62993   -1156.9775    85402.979    -25481.47    1919.4202    -27400.89    50.757685   0.93768868 
   28900    238.82308   -1006.1351    85324.536   -25494.796    1905.0076   -27399.803     50.82033   0.93855075 
   29000    241.40899   -1095.1103    85210.008   -25500.585    1925.6345    -27426.22    51.164918   0.93981222 
   29100    238.07668   -1127.4133    85068.087   -25512.537    1899.0538   -27411.591    51.353238   0.94138014 
   29200    235.83252   -748.11269    84912.938   -25538.558     1881.153   -27419.711    51.832951   0.94310018 
   29300    230.55194   -925.58785    84800.053   -25525.221    1839.0316   -27364.253    51.824908   0.94435563 
   29400    237.43895   -1084.2883    84718.475   -25521.433    1893.9668     -27415.4    51.967862   0.94526498 
   29500    239.01634   -1018.5717    84657.381   -25551.124    1906.5491   -27457.673    51.846861   0.94594714 
   29600    233.49005   -970.01334     84608.69    -25564.48    1862.4678   -27426.947    51.910646   0.94649151 
   29700    233.64166   -913.26103     84575.79    -25535.63    1863.6772   -27399.307    52.106091    0.9468597 
   29800    235.29807   -908.83121    84568.336   -25547.529    1876.8898   -27424.419    52.428578   0.94694316 
   29900    237.91025    -929.8928    84565.152   -25540.951    1897.7263   -27438.677     52.50712   0.94697881 
   30000    237.67779   -716.34899    84564.658   -25526.034     1895.872   -27421.906    52.793869   0.94698434 
   30100    235.05046   -1161.9505    84610.226   -25535.038    1874.9147   -27409.953    53.137366   0.94647433 
   30200    237.32063   -1069.8721    84665.956   -25531.114    1893.0231   -27424.137    53.292572   0.94585133 
   30300    237.02423   -1058.0927    84703.266    -25529.58    1890.6588   -27420.239    53.671849   0.94543471 
   30400    234.69296   -827.85021    84717.238   -25526.807     1872.063    -27398.87    53.805488   0.94527878 
   30500    238.05948   -793.93315    84732.111   -25527.485    1898.9166   -27426.402    53.859066   0.94511285 
   30600     239.5894   -955.52164    84768.704    -25515.03    1911.1202   -27426.151    54.339846   0.94470487 
   30700    234.29591   -1375.1132    84777.518   -25512.333    1868.8959   -27381.228    54.794369   0.94460665 
   30800     241.4117   -943.73147    84741.949   -25527.808     1925.656   -27453.464    54.775408   0.94500313 
   30900    237.96788   -927.47852    84712.487   -25535.062     1898.186   -27433.248    54.987515    0.9453318 
   31000    240.69183   -827.22233     84689.73   -25526.159    1919.9139   -27446.073    55.395277   0.94558582 
   31100    239.40756   -891.65193    84654.558   -25508.262    1909.6697   -27417.932     55.51064   0.94597868 
   31200    238.55767   -780.99609    84599.867   -25513.232    1902.8905   -27416.122    55.574796   0.94659023 
   31300    240.82674   -789.04659    84574.752   -25505.827      1920.99   -27426.817    55.789916   0.94687133 
   31400    239.58458   -991.56957    84604.391   -25517.373    1911.0818   -27428.455    55.916802   0.94653961 
   31500    241.74878   -952.60917    84655.315   -25509.847    1928.3449   -27438.192    56.069147   0.94597023 
   31600    237.31397   -1078.0259     84722.08   -25501.001    1892.9699   -27393.971    56.398927   0.94522476 
   31700    236.18398   -1169.7903    84794.753   -25498.185    1883.9564   -27382.142    56.793063   0.94441466 
   31800    236.82284   -1296.2643    84860.126   -25471.484    1889.0524   -27360.537    56.791765   0.94368712 
   31900    237.11079   -939.48189     84899.92   -25500.327    1891.3492   -27391.676     57.05476   0.94324479 
   32000    236.85048   -1244.9407    84938.373    -25518.23    1889.2728   -27407.503    57.236782   0.94281777 
   32100    240.33416   -833.34857    84950.185   -25511.721    1917.0609   -27428.782    57.524542   0.94268667 
   32200    239.05611   -1026.9249    84958.931   -25522.752    1906.8664   -27429.619    57.745152   0.94258963 
   32300     240.2297   -1127.6661    84955.126   -25532.423    1916.2277   -27448.651    57.718406   0.94263185 
   32400    238.23708   -731.02353    84978.692   -25534.145    1900.3332   -27434.479    58.084424   0.94237044 
   32500    239.53915    -764.1318    85029.131   -25519.486    1910.7194   -27430.205    58.240422   0.94181143 
   32600    238.41383   -1137.8654    85090.689   -25542.658    1901.7432   -27444.401    58.698027   0.94113009 
   32700    237.50223   -951.96311    85162.378   -25519.586    1894.4716   -27414.058    58.690521   0.94033785 
   32800    240.60533   -1386.1772    85219.086   -25504.358     1919.224   -27423.582    58.433922   0.93971212 
   32900    240.96459   -1017.8243    85229.806   -25509.193    1922.0896   -27431.283    58.682715   0.93959392 
   33000     236.6108   -1455.2428    85187.807   -25520.189     1887.361    -27407.55    58.818788   0.94005716 
   33100    241.70587   -1115.2013    85071.517    -25487.65    1928.0025   -27415.652    58.981206   0.94134218 
   33200    238.04217   -670.38377    84939.038   -25512.445    1898.7785   -27411.224     59.37192   0.94281038 
   33300    241.00452   -727.56182    84874.046   -25529.066    1922.4082   -27451.474    59.607903   0.94353235 
   33400    243.81798   -549.43709    84908.747   -25536.526    1944.8501   -27481.376    59.970472   0.94314674 
   33500    241.07372   -979.77927    85013.266   -25542.073    1922.9601   -27465.033    60.170403   0.94198719 
   33600    239.98493   -980.36422    85135.438    -25550.65    1914.2753   -27464.925    60.351805   0.94063541 
   33700    232.63318    -1470.294    85248.999    -25535.76    1855.6329   -27391.393    60.604091   0.93938238 
   33800    238.50611   -1406.4337    85253.746   -25525.656    1902.4792   -27428.135    60.547327   0.93933007 
   33900     236.4392   -1302.5586    85147.836   -25530.544    1885.9922   -27416.536    60.746371   0.94049844 
   34000    242.20886   -991.92124    84946.895   -25509.422    1932.0147   -27441.437    61.067645   0.94272319 
   34100    236.30441   -712.29314     84724.55    -25510.83     1884.917   -27395.747    60.902064    0.9451972 
   34200    243.38143   -483.33849    84588.505   -25501.111     1941.368   -27442.479     61.27435   0.94671737 
   34300    245.13191   -965.20647    84580.659   -25509.257    1955.3309   -27464.588    61.180691   0.94680519 
   34400    237.82364   -830.63046    84668.512   -25514.847    1897.0354   -27411.883    61.621078   0.94582278 
   34500    247.85574   -767.48003    84822.622   -25491.272     1977.058    -27468.33    61.857993   0.94410436 
   34600    243.72869   -1241.1083    85016.562   -25493.794    1944.1379   -27437.932    62.367653   0.94195067 
   34700     244.1004   -1182.5059    85196.114   -25487.396    1947.1029   -27434.499    62.465075   0.93996549 
   34800    238.91812   -1477.5185     85344.46   -25487.788    1905.7657   -27393.553    63.055353   0.93833165 
   34900    246.51005   -939.86946    85449.876   -25476.383    1966.3238   -27442.707    63.111437   0.93717406 
   35000     242.0296   -1307.9856    85540.469   -25460.472    1930.5849   -27391.057    63.344026   0.93618154 
   35100    245.02934   -1380.2948    85587.152    -25443.58    1954.5128   -27398.092    63.603217    0.9356709 
   35200    241.35096    -1229.056    85556.238   -25462.353    1925.1716   -27387.525    63.870405   0.93600898 
   35300    241.52637   -1111.0482    85474.612   -25458.773    1926.5708   -27385.343    64.083731   0.93690285 
   35400    241.08822   -976.08291    85415.471   -25465.963    1923.0758   -27389.038     64.35979   0.93755155 
   35500    240.77504   -801.54613    85392.252   -25461.286    1920.5777   -27381.863     64.52637   0.93780648 
   35600    243.01204   -1204.7897    85406.727   -25453.143    1938.4215   -27391.565    64.459558   0.93764754 
   35700     240.5469    -1134.687     85424.61   -25467.885    1918.7579   -27386.643    64.684354   0.93745124 
   35800    236.28977   -1300.3101    85464.221   -25496.229    1884.8003   -27381.029    64.905179   0.93701676 
   35900    242.88936   -1403.9092    85478.535   -25511.031    1937.4429   -27448.474     65.39292   0.93685985 
   36000    237.22878    -1003.911    85455.496     -25509.1    1892.2904   -27401.391    65.682054   0.93711243 
   36100    238.12864   -1336.4361    85394.211   -25525.462    1899.4682   -27424.931    65.996452   0.93778497 
   36200    238.67544   -1075.6838    85287.027   -25522.357    1903.8299   -27426.187    65.974226   0.93896353 
   36300    237.41758   -1130.9017    85173.643    -25517.78    1893.7964   -27411.576    65.922332   0.94021348 
   36400    240.55543   -1016.6855    85055.915   -25530.243    1918.8259   -27449.069    66.236988   0.94151485 
   36500    242.15397   -1032.9639    84952.443   -25545.567    1931.5769   -27477.144    66.634951   0.94266162 
   36600     240.4387   -1116.0267    84900.527   -25515.343    1917.8948   -27433.238    66.986968   0.94323804 
   36700    243.52844   -860.28308    84899.545   -25495.678    1942.5406   -27438.218    67.314413   0.94324896 
   36800    242.49458   -819.05428    84932.628   -25493.897    1934.2938   -27428.191    67.491741   0.94288154 
   36900    239.67198   -890.86477    85014.799   -25489.981    1911.7789    -27401.76    67.336651    0.9419702 
   37000    242.66415   -726.98486    85146.937   -25491.735    1935.6464   -27427.381    67.555502   0.94050838 
   37100    236.97545    -1184.136    85312.128   -25498.121    1890.2697    -27388.39    67.807449   0.93868725 
   37200    237.55758   -1568.3942    85421.357   -25494.057    1894.9132    -27388.97    67.971646   0.93748695 
   37300    237.48729    -1224.532    85402.305   -25507.203    1894.3524   -27401.556    68.604563   0.93769609 
   37400    240.81778   -1370.8285    85314.764   -25510.989    1920.9186   -27431.907    68.433314   0.93865825 
   37500      239.574   -1198.0874    85167.918   -25513.995    1910.9974   -27424.992    68.604559   0.94027668 
   37600    237.19062   -912.66154    85016.595   -25509.383     1891.986   -27401.369    68.919641    0.9419503 
   37700    244.90706   -1047.4678    84882.078   -25492.349    1953.5374   -27445.886    69.042924   0.94344306 
   37800    240.41067   -778.44249    84775.248   -25513.946    1917.6712   -27431.617    69.468004   0.94463195 
   37900    240.92336   -962.43935    84673.046   -25488.082    1921.7607   -27409.843    69.751642   0.94577214 
   38000    243.70617   -588.81974    84595.067   -25467.954    1943.9583   -27411.912    69.796939   0.94664394 
   38100    237.69262   -739.37364    84607.329   -25469.413    1895.9903   -27365.403     69.79578   0.94650674 
   38200    234.32094   -860.27748    84672.251     -25501.6    1869.0956   -27370.696    69.859133   0.94578102 
   38300    236.97193   -1022.4024    84765.065   -25504.666    1890.2416   -27394.907    70.397181   0.94474542 
   38400    238.84424   -1414.9608    84817.214   -25472.912    1905.1764   -27378.088    70.784314   0.94416456 
   38500     240.2785    -1140.109    84830.915    -25465.52     1916.617   -27382.136    71.001333   0.94401206 
   38600    244.16218   -1442.2867    84813.479    -25444.76    1947.5957   -27392.356    70.717755   0.94420614 
   38700    244.78043   -915.16793    84752.022   -25467.455    1952.5273   -27419.982     70.71336   0.94489082 
   38800    233.08625   -641.80552    84693.457    -25466.52    1859.2469   -27325.767    70.816645    0.9455442 
   38900    241.82496   -686.88503    84696.523   -25485.413    1928.9525   -27414.365      71.0018   0.94550997 
   39000    239.27321   -661.01545    84766.907   -25471.902    1908.5981     -27380.5    71.372889    0.9447249 
   39100    245.84952   -1105.1977    84899.866   -25457.816     1961.055   -27418.871    71.470227   0.94324539 
   39200    240.58449   -751.39361    85035.667   -25476.437    1919.0577   -27395.495    71.774209   0.94173904 
   39300    241.14234   -1233.7152    85167.055   -25475.118    1923.5075   -27398.626    71.958822   0.94028621 
   39400    238.47311   -1380.6512    85238.355   -25474.852     1902.216   -27377.068      72.0121   0.93949968 
   39500    235.73713   -1137.5486    85251.151   -25470.947     1880.392   -27351.339    72.495072   0.93935867 
   39600    241.10675   -988.02929    85240.953   -25469.837    1923.2236   -27393.061    72.755478   0.93947105 
   39700    244.97934   -967.35953    85241.709   -25462.859    1954.1139   -27416.973    72.873589   0.93946272 
   39800    244.70722   -839.47807    85263.909   -25480.032    1951.9433   -27431.975    72.760206   0.93921811 
   39900    243.96381   -796.92458    85307.119   -25492.787    1946.0133     -27438.8    73.175945   0.93874238 
   40000     242.7415   -1120.7883    85373.498    -25462.63    1936.2634   -27398.894    73.055178   0.93801249 
   40100    248.10922   -1186.7943    85423.281   -25446.275    1979.0798   -27425.355    73.109091   0.93746584 
   40200    244.76188   -1589.8707    85414.037   -25451.427    1952.3793   -27403.807    73.340676    0.9375673 
   40300    247.48632   -1257.4828    85288.287   -25452.301    1974.1112   -27426.412    73.672718   0.93894965 
   40400    235.89499   -1236.0595    85125.391   -25461.071    1881.6512   -27342.722    73.894533   0.94074643 
   40500    244.68065   -737.37066    84986.174   -25456.964    1951.7313   -27408.696    74.414331   0.94228748 
   40600    243.08361   -545.31698    84910.958   -25456.132    1938.9923   -27395.125    74.600078   0.94312218 
   40700    241.38257   -720.90633    84943.385   -25456.615    1925.4238   -27382.039    74.643057   0.94276214 
   40800    244.79415     -931.442    85030.915   -25443.577    1952.6367   -27396.214    74.617843   0.94179167 
   40900    242.25808   -1234.9675    85100.193   -25450.446    1932.4074   -27382.853     74.93801   0.94102498 
   41000    246.32641   -1135.4287     85099.07   -25465.082     1964.859   -27429.941    75.298893    0.9410374 
   41100    239.04136   -1309.0649    85063.753   -25477.123    1906.7487   -27383.872    75.240191    0.9414281 
   41200    241.97295   -1123.6517    84982.911   -25475.796     1930.133   -27405.929    75.187038   0.94232366 
   41300     246.6496   -1042.3654    84884.214   -25478.658     1967.437   -27446.095    75.443135   0.94341932 
   41400     242.7281    -595.9029    84797.832   -25491.256    1936.1565   -27427.413     75.51143   0.94438036 
   41500    240.71935   -636.42275    84770.903   -25486.348    1920.1334   -27406.482    75.776121   0.94468036 
   41600    245.36073    -1032.301    84796.371   -25490.622    1957.1561   -27447.778    75.747638   0.94439663 
   41700     239.2144   -1179.0116    84805.117    -25511.46     1908.129   -27419.589     76.22568   0.94429924 
   41800    243.49899   -1161.6843    84758.064   -25498.295    1942.3056     -27440.6    76.308631   0.94482346 
   41900    235.64567   -999.56636    84698.527   -25514.194    1879.6625   -27393.856    76.325507   0.94548761 
   42000    237.67378   -766.53719    84641.906   -25501.073      1895.84   -27396.913    76.945637   0.94612009 
   42100    235.95446   -798.01836    84625.162   -25498.331    1882.1256   -27380.456    77.046175   0.94630729 
   42200    238.36344   -989.17746    84654.205   -25526.492    1901.3412   -27427.833    76.850797   0.94598263 
   42300    241.29296   -955.80403    84695.791   -25519.067    1924.7089   -27443.776    77.264196   0.94551815 
   42400    238.31488   -923.70556    84725.709   -25516.385    1900.9539   -27417.339    77.607441   0.94518427 
   42500    234.39082   -1239.2331    84729.006   -25543.557     1869.653    -27413.21    78.201977   0.94514749 
   42600    236.41381   -971.97347    84692.967   -25559.747    1885.7897   -27445.537    78.158702   0.94554967 
   42700    238.65463   -1287.6646     84647.84   -25561.802    1903.6639   -27465.466    78.205303   0.94605376 
   42800    235.06555   -1000.5086    84570.872   -25546.107     1875.035   -27421.142    78.445612   0.94691477 
   42900    239.75407   -788.49849    84496.654   -25559.555    1912.4337   -27471.988    78.551408   0.94774649 
   43000    231.82842   -858.58467     84458.75   -25543.736    1849.2136   -27392.949    78.705941   0.94817183 
   43100    228.70787   -898.12467    84425.621   -25564.644    1824.3221   -27388.966    78.759888    0.9485439 
   43200    237.78637   -1176.4625    84417.933   -25568.451    1896.7381   -27465.189    79.214849   0.94863028 
   43300    231.57985    -1059.182    84407.547   -25574.057    1847.2308   -27421.288     79.12935     0.948747 
   43400     236.3324   -1068.5147    84404.137   -25537.571    1885.1403   -27422.711    79.031905   0.94878534 
   43500    236.70174   -873.28382    84370.165   -25531.095    1888.0864   -27419.181    78.973626   0.94916737 
   43600    234.42857   -829.29626    84292.329   -25543.518    1869.9542   -27413.472    79.236065   0.95004383 
   43700    237.60531   -647.07605     84249.13   -25526.137    1895.2938    -27421.43    79.374116   0.95053097 
   43800    237.88288   -997.00466    84278.171   -25521.001    1897.5079   -27418.509    79.762908   0.95020343 
   43900     239.6674   -723.07134    84320.559   -25498.572    1911.7424   -27410.315    80.011976   0.94972577 
   44000    235.79856   -1151.6138    84366.248   -25498.005     1880.882   -27378.887    80.476303   0.94921144 
   44100    229.67914    -1135.567    84423.137   -25510.556    1832.0696   -27342.626    80.900411    0.9485718 
   44200    228.66068   -1147.8909    84480.704   -25534.913    1823.9457   -27358.859    81.210615   0.94792543 
   44300    234.44733   -678.85462    84507.112   -25523.419    1870.1038   -27393.523    81.347237   0.94762921 
   44400    233.66155   -1250.6881    84556.105   -25514.877    1863.8358   -27378.712    81.717638   0.94708013 
   44500    232.41463   -1087.7253    84580.761   -25527.247    1853.8896   -27381.137    82.120822   0.94680405 
   44600    235.79188   -1365.9599    84596.323   -25517.317    1880.8287   -27398.146    82.307719   0.94662989 
   44700    236.86776   -747.32893    84597.279   -25501.966    1889.4107   -27391.377    82.700486   0.94661919 
   44800    238.11296   -1023.9875    84654.559   -25520.693    1899.3432   -27420.036      83.1668   0.94597867 
   44900    231.54141   -1095.8553    84723.378   -25522.423    1846.9243   -27369.348    83.842826   0.94521028 
   45000    236.03285   -1086.4667    84774.519   -25526.225    1882.7509   -27408.976      83.8625   0.94464007 
   45100    235.57148   -754.93267    84815.408   -25523.675    1879.0707   -27402.746    83.631041   0.94418466 
   45200     232.9759   -1121.2514    84873.662   -25536.827    1858.3667   -27395.193    83.940114   0.94353661 
   45300    234.92965   -1072.9923    84932.411   -25509.072    1873.9511   -27383.023    84.016539   0.94288395 
   45400    238.87584   -1171.5251    84972.367    -25497.51    1905.4284   -27402.939    84.117365   0.94244059 
   45500    235.91968   -1178.0949    84968.467   -25495.584    1881.8482   -27377.432    84.132037   0.94248385 
   45600    237.56393   -1013.5214    84930.828   -25472.468    1894.9638   -27367.432    83.945598   0.94290152 
   45700    236.78536   -729.46718    84869.343   -25469.424    1888.7534   -27358.177    84.176489   0.94358463 
   45800    242.60318   -531.71355    84851.625   -25489.592    1935.1601   -27424.752    84.716031   0.94378166 
   45900    243.67755   -1241.7783    84859.656   -25478.944    1943.7299   -27422.674    84.661094   0.94369234 
   46000    241.87408   -674.29422    84837.942   -25459.829    1929.3443   -27389.173    85.503331   0.94393387 
   46100    242.38521    -696.6037     84811.99   -25460.601    1933.4214   -27394.022    85.763759   0.94422272 
   46200    238.99207   -895.09333    84826.476   -25486.819    1906.3555   -27393.175    85.682256   0.94406147 
   46300    237.50724   -910.39171    84881.339   -25496.504    1894.5116   -27391.016    86.101646   0.94345127 
   46400     238.9201   -963.12637    84951.766    -25505.28    1905.7815   -27411.062    86.461836   0.94266913 
   46500    237.70839   -1162.8128    85022.785   -25504.158    1896.1161   -27400.274    86.708475   0.94188173 
   46600    238.01457   -962.88046    85082.009   -25509.143    1898.5584   -27407.701    86.781545    0.9412261 
   46700    236.28273   -967.70856    85083.504   -25492.541    1884.7441   -27377.285    87.224241   0.94120956 
   46800    238.20779     -953.357    85047.409   -25491.993    1900.0996   -27392.092    86.952348   0.94160902 
   46900    238.12897   -961.48737    85002.876   -25483.917    1899.4709   -27383.388    87.337898   0.94210233 
   47000    245.72282   -835.83116    84963.161   -25449.181    1960.0443   -27409.225    87.937231    0.9425427 
   47100     241.0711   -585.93666    84921.933   -25453.095    1922.9393   -27376.035    87.976515   0.94300029 
   47200    243.89698   -934.01316     84918.97   -25465.743    1945.4803   -27411.223    87.972743   0.94303319 
   47300    239.25073   -1089.1068    84924.537   -25481.623    1908.4188   -27390.042    88.179045   0.94297138 
   47400    243.20142   -1018.1076    84908.979   -25500.995     1939.932   -27440.927    88.110122   0.94314416 
   47500    237.95686   -564.67827    84921.472   -25504.023    1898.0981   -27402.121    88.445881   0.94300541 
   47600    237.95681   -1063.2017     85011.08   -25523.231    1898.0976   -27421.328    88.750892   0.94201141 
   47700      236.738   -984.50148    85161.255   -25533.615    1888.3756   -27421.991    89.079957   0.94035025 
   47800    230.45998   -1207.1905    85308.617   -25534.227    1838.2981   -27372.525    88.993397   0.93872589 
   47900    244.51673   -1004.3172    85425.165   -25525.466    1950.4238    -27475.89    89.098913   0.93744516 
   48000    238.72603   -1579.5978    85498.978   -25532.176    1904.2334    -27436.41    89.583115   0.93663584 
   48100    241.47673   -1405.7498     85475.29   -25527.926    1926.1748   -27454.101     90.16906   0.93689542 
   48200    235.92131   -1056.8437    85353.191   -25513.118    1881.8611   -27394.979    89.936765   0.93823566 
   48300    239.21219   -925.28292    85203.784    -25502.49    1908.1113   -27410.601    89.660209   0.93988088 
   48400    238.72201   -655.71114    85104.395   -25518.865    1904.2014   -27423.066    89.479465   0.94097852 
   48500     242.6461   -860.03034     85099.55   -25519.656    1935.5025   -27455.159    89.391252   0.94103209 
   48600    237.06836   -1025.8204    85103.263   -25516.247    1891.0108   -27407.258    89.677137   0.94099103 
   48700    231.13215   -1068.0939    85095.871   -25514.791    1843.6597   -27358.451    89.971961   0.94107278 
   48800    237.83679   -1031.4755     85069.64   -25499.309    1897.1403   -27396.449    90.031006   0.94136295 
   48900    236.83138   -671.51385    84990.551   -25505.528    1889.1205   -27394.648    90.165325   0.94223895 
   49000    238.70606   -782.33605     84912.83   -25506.768    1904.0741   -27410.842    90.292462   0.94310138 
   49100    237.04948   -978.67009    84856.698   -25487.488    1890.8602   -27378.348    90.439944   0.94372524 
   49200    243.08474   -800.49011    84788.395   -25479.049    1939.0014    -27418.05    90.529135   0.94448548 
   49300    247.60348    -659.2162    84725.661   -25460.954    1975.0458       -27436    90.386826    0.9451848 
   49400    244.51193   -359.67069    84727.164    -25487.59    1950.3855   -27437.976     90.60987   0.94516804 
   49500    244.10339    -1098.454     84801.72   -25481.526    1947.1267   -27428.653    91.172715   0.94433707 
   49600     235.3116   -577.22358    84838.509   -25491.504    1876.9978   -27368.502    91.716054   0.94392757 
   49700    239.45586    -1005.274    84851.947   -25506.418     1910.055   -27416.473    91.866694   0.94377808 
   49800    234.90086   -870.94526     84841.35   -25535.249    1873.7214   -27408.971    91.937831   0.94389596 
   49900     234.1244    -852.2492    84812.531   -25527.171    1867.5278   -27394.699    91.671127   0.94421669 
   50000    238.91702   -983.21999    84789.412   -25538.697    1905.7569   -27444.454    91.849197   0.94447414 
   50100    241.72407   -1193.8457    84766.956   -25523.461    1928.1478   -27451.609    92.169226   0.94472435 
   50200    238.60065   -912.88779    84730.402   -25511.278    1903.2333   -27414.511    92.050339   0.94513191 
   50300    240.13954   -1041.3858    84694.639   -25514.582    1915.5085   -27430.091    92.716985   0.94553101 
   50400    239.46338   -624.66521    84634.443   -25508.775     1910.115    -27418.89    92.596241   0.94620352 
   50500    232.18851   -763.91024    84628.177   -25514.842    1852.0859   -27366.928    93.040613   0.94627358 
   50600     233.6154   -636.05946    84682.363   -25517.124    1863.4677   -27380.591    93.326749   0.94566807 
   50700    236.03835   -625.48266    84751.649   -25512.789    1882.7948   -27395.584    93.198992   0.94489498 
   50800    236.90623    -941.7637    84854.681   -25518.931    1889.7175   -27408.649    93.626638   0.94374766 
   50900    239.80781   -923.71355    84945.682   -25527.617    1912.8624   -27440.479    94.333833   0.94273665 
   51000    229.80871   -1250.3367    85021.116   -25518.204    1833.1031   -27351.307    94.703502   0.94190022 
   51100    235.90703   -1128.7233    85039.637   -25517.325    1881.7473   -27399.072    95.285339   0.94169507 
   51200    240.41549   -869.69789    85048.109   -25516.316    1917.7097   -27434.025    95.672687   0.94160127 
   51300    239.43192   -982.85361    85062.284   -25525.154    1909.8641   -27435.018    96.092885   0.94144436 
   51400    238.32507   -900.75292    85046.294   -25565.103    1901.0352   -27466.138    96.316048   0.94162136 
   51500     235.6055   -1112.9407    85015.103   -25563.502    1879.3421   -27442.844    96.083155   0.94196683 
   51600    234.48271   -861.94828    84961.851   -25554.518     1870.386   -27424.904    96.265673   0.94255724 
   51700    235.59062   -934.67438    84932.195   -25544.973    1879.2234   -27424.196    96.247696   0.94288635 
   51800    238.66996   -702.41075    84931.788   -25533.587    1903.7862   -27437.373    95.949055   0.94289087 
   51900    231.76537   -889.72833    84973.555   -25547.467    1848.7107   -27396.178    96.224599   0.94242741 
   52000    238.32724   -619.91376    85058.986   -25544.862    1901.0524   -27445.914     96.63881   0.94148086 
   52100    240.98485   -692.73912     85210.93   -25565.106    1922.2513   -27487.357    96.964569   0.93980205 
   52200     238.2261   -1208.4333    85387.876   -25558.359    1900.2457   -27458.605    97.451183   0.93785455 
   52300    234.03929   -1421.2153    85514.128   -25525.185     1866.849   -27392.034    97.850419   0.93646991 
   52400    235.71444   -1413.0913    85567.906    -25526.48    1880.2111   -27406.691    97.953051   0.93588135 
   52500    236.04538   -1433.0088      85536.5   -25527.033    1882.8508   -27409.884    98.140099   0.93622497 
   52600    233.86558   -1301.0773    85418.868   -25529.727    1865.4633   -27395.191    97.794167   0.93751427 
   52700    235.16507   -988.69586    85251.103   -25549.124    1875.8289   -27424.953    98.286256   0.93935919 
   52800    241.13808   -873.61253     85088.07   -25539.956    1923.4735   -27463.429    98.519456   0.94115906 
   52900    239.39488   -664.76373    84985.159   -25540.362    1909.5686    -27449.93    98.691321   0.94229873 
   53000    242.02624   -534.96731    84981.324   -25558.818     1930.558   -27489.376    98.844836   0.94234125 
   53100    235.39638   -968.49764     85073.93   -25559.753     1877.674   -27437.427    99.309451   0.94131548 
   53200    236.45146   -942.21671    85170.507   -25534.865      1886.09   -27420.955    99.283186    0.9402481 
   53300    238.65768   -917.26688    85229.253   -25512.614    1903.6882   -27416.302    99.166022   0.93960001 
   53400    242.50199   -1052.8383    85280.334   -25504.814    1934.3529   -27439.167    99.619075   0.93903722 
   53500    235.87324   -1437.2401    85312.909   -25509.096    1881.4777   -27390.573     99.48541   0.93867866 
   53600    245.94459   -1177.8988    85258.998   -25516.626    1961.8134   -27478.439    99.459346   0.93927221 
   53700    238.00692   -707.26038    85147.633   -25512.811    1898.4973   -27411.308    99.638042   0.94050068 
   53800    243.02272    -838.6839    85062.549   -25534.267    1938.5066   -27472.774     99.49909   0.94144143 
   53900    233.92104   -1194.6978    85023.031   -25519.965    1865.9058    -27385.87    99.304377     0.941879 
   54000    235.81124   -1062.6419    85002.739   -25513.112    1880.9832   -27394.096    99.259929   0.94210384 
   54100     237.8231   -944.36914    84986.494   -25511.368    1897.0311   -27408.399    99.548045   0.94228393 
   54200    240.31308   -1119.8624    84977.214   -25500.465    1916.8927   -27417.358    99.779981   0.94238683 
   54300    234.57747   -864.95564    84962.649   -25489.401    1871.1418   -27360.543    99.808095   0.94254838 
   54400    243.60943   -824.60298    84961.657   -25483.906    1943.1866   -27427.093    99.940268   0.94255939 
   54500     234.7282    -1189.859    84971.817   -25451.013    1872.3442   -27323.357    100.32246   0.94244669 
   54600    239.74898   -1169.4239    84980.083   -25446.806    1912.3932   -27359.199     100.8164   0.94235502 
   54700    241.65498   -1251.4094    84977.586   -25429.367    1927.5966   -27356.964    100.85922    0.9423827 
   54800    241.07984   -1097.5614     84967.95   -25423.628     1923.009   -27346.637    100.88859   0.94248958 
   54900    243.27772   -1131.6414    84964.262   -25399.904    1940.5407   -27340.445    101.27879   0.94253049 
   55000    245.84224   -899.64931     85005.15   -25406.561    1960.9969   -27367.558    101.85218   0.94207713 
   55100    239.54206   -1114.7365    85080.349   -25438.731    1910.7426   -27349.473    102.13576   0.94124447 
   55200    243.82115   -891.34419    85141.941   -25413.245    1944.8754   -27358.121    102.85041   0.94056356 
   55300    244.11785   -1329.2788    85220.099   -25413.203    1947.2421   -27360.445    103.32939   0.93970094 
   55400    246.83668   -862.33298    85303.825   -25418.347    1968.9293   -27387.277    103.72025   0.93877863 
   55500    241.90965   -1015.0629    85392.651   -25431.563    1929.6281   -27361.191    104.01711    0.9378021 
   55600    241.07597   -1328.2564    85475.927   -25438.653    1922.9781   -27361.631    104.40053   0.93688843 
   55700    242.88782   -1050.3792    85505.245   -25411.832    1937.4306   -27349.262    104.06953    0.9365672 
   55800    247.65682   -1205.5741     85495.68   -25420.919    1975.4712    -27396.39    104.29164   0.93667198 
   55900    245.45993   -1329.5854    85463.434   -25397.419    1957.9474   -27355.366    104.19952   0.93702539 
   56000    245.72597   -1127.8089    85412.831   -25405.265    1960.0695   -27365.335     103.8573   0.93758053 
   56100    246.69025    -1262.779    85345.654   -25412.688    1967.7613    -27380.45    103.75068   0.93831851 
   56200    247.62219   -921.11755      85297.2   -25405.813     1975.195   -27381.008    104.14932   0.93885154 
   56300    242.60123   -1204.9173        85271   -25428.309    1935.1445   -27363.454     104.3854      0.93914 
   56400    238.75521   -1329.6601    85253.463   -25415.263    1904.4662   -27319.729    104.64507   0.93933319 
   56500    239.00031   -1200.1653    85215.436   -25421.425    1906.4213   -27327.846    104.58565   0.93975236 
   56600    250.83748   -1290.5291    85155.143   -25393.871    2000.8422   -27394.713    104.73934   0.94041775 
   56700    245.75739   -1202.9053    85066.512   -25389.637    1960.3201   -27349.957    104.76038   0.94139757 
   56800    245.35317   -791.82494    84926.968   -25399.489    1957.0958   -27356.585    105.11646   0.94294439 
   56900    236.68525   -868.14804    84791.656   -25430.385    1887.9549    -27318.34    105.43535   0.94444915 
   57000    244.31591   -725.16619    84666.232   -25417.091     1948.822   -27365.913    105.12737   0.94584825 
   57100    246.83423   -792.47179    84578.184   -25419.359    1968.9097   -27388.268    104.87916    0.9468329 
   57200    238.65156   -528.71965    84540.223   -25385.644    1903.6394   -27289.283    105.40742   0.94725806 
   57300    240.59446   -544.20016    84573.745     -25389.3    1919.1373   -27308.438    105.87233   0.94688259 
   57400    237.90856   -1006.8967    84663.689   -25381.304    1897.7127   -27279.017    106.56436   0.94587666 
   57500    244.53632   -1138.2038    84777.024   -25361.558    1950.5801   -27312.138    106.99645   0.94461215 
   57600    234.81865   -1107.8858    84883.286   -25367.266    1873.0656   -27240.331    107.45743   0.94342964 
   57700    242.75363   -1000.2272     84951.68   -25378.934    1936.3602   -27315.294     107.5382   0.94267008 
   57800    241.40273   -980.38758    84990.366   -25382.112    1925.5845   -27307.697    108.20944     0.942241 
   57900    245.98531   -1137.2538    85018.108   -25407.407    1962.1381   -27369.545    108.66799   0.94193354 
   58000    243.63361   -927.30522    85022.491   -25415.116    1943.3794   -27358.496    108.97309   0.94188498 
   58100    239.50015   -1079.9054    85003.779   -25435.662    1910.4084    -27346.07      108.919   0.94209232 
   58200    243.38143   -921.88669    84957.072   -25452.571    1941.3679   -27393.939    108.99086   0.94261026 
   58300    237.71571   -687.16688    84925.009   -25440.358    1896.1744   -27336.533    109.41428   0.94296613 
   58400    240.45606   -1296.8554    84903.987   -25440.617    1918.0333    -27358.65    109.99957   0.94319961 
   58500     236.3563   -942.24926     84867.11   -25474.062    1885.3309   -27359.393    110.46227   0.94360946 
   58600    237.75127   -629.17962    84840.929   -25480.357    1896.4581   -27376.815    110.39227   0.94390064 
   58700    234.54938   -1168.6504    84836.887   -25476.596    1870.9178   -27347.514    111.08733   0.94394562 
   58800    240.81856   -1111.8386    84806.642    -25444.64    1920.9248   -27365.565    111.13818   0.94428226 
   58900    232.92519   -971.01282    84770.035   -25449.963    1857.9621   -27307.925    110.83237   0.94469003 
   59000    238.91384   -807.80929    84741.426   -25445.666    1905.7315   -27351.398    111.08592   0.94500897 
   59100    239.58917   -1207.2637    84738.895   -25440.933    1911.1184   -27352.052    111.32125    0.9450372 
   59200    242.04521   -731.24628    84747.654   -25428.991    1930.7093     -27359.7    111.51016   0.94493952 
   59300    244.04974   -957.14453    84788.593   -25433.684    1946.6988   -27380.383    112.10167   0.94448326 
   59400    237.37388   -983.58014    84812.214   -25427.486    1893.4478   -27320.933     112.5393   0.94422022 
   59500    239.64524   -955.77928    84858.983   -25406.885    1911.5657   -27318.451    112.59539   0.94369982 
   59600    244.43477   -1188.3285    84932.546   -25392.813      1949.77   -27342.583    113.28135   0.94288245 
   59700    244.73591   -1487.1216    84979.392   -25404.873    1952.1721   -27357.046    113.41918   0.94236267 
   59800    244.43996    -1222.446     84953.13   -25372.799    1949.8115    -27322.61    113.69431     0.942654 
   59900    242.56883   -1063.8696     84903.13   -25381.497    1934.8861   -27316.383    113.87626   0.94320913 
   60000    241.93162    -850.3217    84838.164   -25401.837    1929.8033    -27331.64    113.97667   0.94393141 
   60100    243.54584   -946.59583    84776.653   -25389.853    1942.6794   -27332.532    114.13106   0.94461629 
   60200    242.95246   -1075.0895    84697.971   -25394.633    1937.9461   -27332.579     114.1806   0.94549381 
   60300    252.11263   -482.98182    84626.258   -25425.048    2011.0137   -27436.062    114.29314   0.94629503 
   60400    239.54641   -590.22143    84599.387   -25427.992    1910.7773   -27338.769    114.41333    0.9465956 
   60500    239.00454   -878.90301    84624.752   -25426.446     1906.455   -27332.901    114.27303   0.94631187 
   60600     242.8491   -1045.9682    84671.367   -25419.415    1937.1218   -27356.537    114.42197   0.94579089 
   60700    244.24575   -1054.7141    84714.689   -25401.825    1948.2623   -27350.088    114.65214   0.94530722 
   60800    238.30712   -1061.4519    84739.319    -25442.86    1900.8919   -27343.752    115.04504   0.94503246 
   60900    236.83681   -804.94428    84749.567   -25456.208    1889.1638   -27345.372      115.575   0.94491819 
   61000    244.73853   -759.46151    84773.703   -25438.743     1952.193   -27390.936    116.08692   0.94464917 
   61100    239.11232   -1272.7423    84818.792   -25443.198    1907.3147   -27350.513    115.92962   0.94414699 
   61200    236.50169   -763.09485    84830.422   -25432.937    1886.4907   -27319.427    116.16524   0.94401755 
   61300    240.50646   -1147.4261    84841.118   -25438.294    1918.4353   -27356.729    115.78142   0.94389854 
   61400    235.03473   -931.09482    84859.251   -25444.895    1874.7892   -27319.685    116.10303   0.94369685 
   61500    236.87081   -1004.9832    84935.071   -25465.501     1889.435   -27354.936    116.15827   0.94285442 
   61600    235.47802   -1124.0545    85053.292   -25487.614    1878.3252    -27365.94    116.95843   0.94154389 
   61700    234.92175   -1321.5413    85133.642   -25496.569    1873.8881   -27370.457    117.01999   0.94065525 
   61800    236.73355    -1399.192    85175.409    -25487.65    1888.3401    -27375.99    117.51383   0.94019398 
   61900    236.26603   -1057.6925    85135.357   -25487.117    1884.6109   -27371.728     117.4816   0.94063631 
   62000    236.84464   -717.83967    85048.218   -25475.708    1889.2263   -27364.934     117.6953   0.94160006 
   62100     239.0637   -1052.9569    84999.493   -25477.874    1906.9269   -27384.801    117.73831   0.94213983 
   62200    234.80883   -1019.7127    84960.734    -25485.53    1872.9873   -27358.518     117.9265   0.94256962 
   62300    244.60899   -1178.4455    84881.195    -25463.27    1951.1598   -27414.429    118.03383   0.94345287 
   62400    244.38685   -875.51471    84784.769   -25468.553    1949.3878   -27417.941    117.76904   0.94452587 
   62500    242.93941   -645.36136    84724.123   -25500.803    1937.8421   -27438.646     117.7526   0.94520197 
   62600    234.81703   -895.47539    84742.885   -25470.071    1873.0528   -27343.123    117.85604    0.9449927 
   62700    240.68074   -612.54703     84788.59   -25486.684    1919.8255   -27406.509    117.93569    0.9444833 
   62800    237.22447   -813.14103    84864.156   -25491.382     1892.256   -27383.638    117.98545    0.9436423 
   62900    236.49058   -789.39729    84953.865   -25494.187    1886.4021   -27380.589    118.53457   0.94264584 
   63000    234.33833    -1260.489    85068.122   -25494.323    1869.2343   -27363.557    118.69774   0.94137975 
   63100    236.67267   -1007.4997    85194.258    -25502.26    1887.8545   -27390.115    119.49691   0.93998598 
   63200     238.8965   -1580.6025    85304.779   -25474.303    1905.5932   -27379.897    119.77206   0.93876813 
   63300    244.65913   -1196.2372    85359.636   -25481.984    1951.5597   -27433.544    120.00519   0.93816482 
   63400    240.58637   -1167.4019    85400.122   -25482.737    1919.0727    -27401.81    120.52326   0.93772006 
   63500    242.09144   -1343.3705    85419.454   -25487.625    1931.0781   -27418.703    120.12608   0.93750783 
   63600    235.83131    -1219.776    85438.842   -25524.071    1881.1433   -27405.214    120.45613    0.9372951 
   63700    241.02415   -1425.4191    85430.619   -25528.357    1922.5647   -27450.922    120.46069   0.93738532 
   63800    238.56699   -1472.6444    85397.899   -25535.746    1902.9648   -27438.711    121.07061   0.93774447 
   63900    236.29388   -1388.5888    85305.999   -25563.068     1884.833   -27447.901    120.68622    0.9387547 
   64000    238.28088   -1001.0521    85159.747   -25557.285    1900.6827   -27457.968    120.69559    0.9403669 
   64100    234.59764   -971.54239     85046.73   -25562.305    1871.3027   -27433.608     119.9218   0.94161654 
   64200    238.06736   -1353.0965    84960.483   -25569.908    1898.9795   -27468.888    120.27747   0.94257241 
   64300    236.89739   -820.69408    84864.219   -25576.568     1889.647   -27466.215    119.83598    0.9436416 
   64400     232.0828   -584.40436    84833.028   -25571.314    1851.2427   -27422.556    120.27475   0.94398855 
   64500    238.02454   -677.19078    84893.699   -25562.345    1898.6379   -27460.983    120.64939   0.94331391 
   64600    237.77618   -1209.2773    85036.535   -25554.557    1896.6568   -27451.214    120.97642   0.94172942 
   64700    232.03894   -1230.3882    85196.765   -25567.535    1850.8929   -27418.428    121.61069   0.93995831 
   64800    236.86167   -1313.5513     85351.95   -25583.302    1889.3621   -27472.665    121.59526    0.9382493 
   64900    236.78992   -1233.9525    85485.659   -25575.998    1888.7897   -27464.787    121.93665   0.93678178 
   65000    239.23058   -1331.9937    85559.993   -25544.494     1908.258   -27452.753    121.81346   0.93596791 
   65100     236.4849   -1676.4059     85595.86    -25555.32    1886.3568   -27441.677    121.94645   0.93557571 
   65200     232.0168   -1321.7469    85565.942   -25546.828    1850.7163   -27397.544    121.91691   0.93590283 
   65300    240.23929   -951.25728    85516.493   -25550.474    1916.3041   -27466.778    121.98826   0.93644401 
   65400    236.93485   -1176.3712    85491.016   -25557.506    1889.9459   -27447.452    122.30507   0.93672307 
   65500    242.20968   -1087.4648    85451.451   -25562.396    1932.0213   -27494.417    123.03333   0.93715678 
   65600    237.71869   -1465.2591    85398.212   -25566.315    1896.1983   -27462.513    123.54621   0.93774103 
   65700    236.25568    -982.9254    85307.522   -25567.183    1884.5283   -27451.712     123.2276   0.93873794 
   65800    236.01979   -776.52925    85221.356   -25593.426    1882.6467   -27476.072    123.64132   0.93968708 
   65900    236.79787   -998.38846    85182.066   -25587.027    1888.8532    -27475.88    123.30058   0.94012051 
   66000     232.6805   -1090.9848    85165.488   -25606.445    1856.0104   -27462.456    123.16666   0.94030351 
   66100    232.57386   -1022.2339    85176.744   -25616.808    1855.1598   -27471.967    123.50041   0.94017925 
   66200    238.26432   -887.53604    85207.277   -25611.377    1900.5506   -27511.927    123.70667   0.93984235 
   66300    235.11109   -906.61573    85283.025   -25612.901    1875.3983   -27488.299    123.79987   0.93900759 
   66400    239.95482   -901.41466      85387.1   -25615.608    1914.0351   -27529.643    123.91441   0.93786306 
   66500    239.73758   -1002.1582    85488.078   -25615.686    1912.3022   -27527.988    124.04671   0.93675526 
   66600     241.8833   -866.48473    85574.763    -25598.86    1929.4179   -27528.277    124.45277   0.93580636 
   66700    239.72216   -1015.9435     85648.58   -25597.419    1912.1792   -27509.598    124.83113   0.93499983 
   66800    243.02981   -1138.0136    85685.847   -25607.988    1938.5632   -27546.551    125.25573   0.93459317 
[...]
  184500    238.74715   -1260.5152    85075.489   -25437.082    1904.4019   -27341.484    361.13616   0.94129823 
  184600    241.19947   -1114.9526    85075.489   -25437.269    1923.9632   -27361.232    361.77841   0.94129823 
  184700    243.97942   -817.77103    85075.489   -25437.187    1946.1379   -27383.325    361.59459   0.94129823 
  184800    242.70568   -1095.1161    85075.489   -25437.213    1935.9777   -27373.191    361.64114   0.94129823 
  184900    245.50102    -956.8961    85075.489   -25437.322    1958.2752   -27395.598    361.19368   0.94129823 
  185000    246.12979   -792.82449    85075.489   -25437.379    1963.2907   -27400.669    361.38338   0.94129823 
  185100    241.87411   -879.84534    85075.489   -25437.091    1929.3446   -27366.436     361.3087   0.94129823 
  185200    245.44944    -1604.942    85075.489   -25437.193    1957.8637   -27395.057    361.55759   0.94129823 
  185300    241.78435   -1646.7322    85075.489   -25437.159    1928.6286   -27365.788    362.01289   0.94129823 
  185400    241.56183   -1218.9757    85075.489   -25437.119    1926.8536   -27363.973    362.47756   0.94129823 
  185500    240.83843    -1180.546    85075.489   -25437.265    1921.0833   -27358.349    363.25768   0.94129823 
  185600    244.38764   -811.83978    85075.489   -25437.261    1949.3941   -27386.655     363.1427   0.94129823 
  185700    239.77749   -926.88288    85075.489   -25436.929    1912.6205    -27349.55    362.85075   0.94129823 
  185800     240.0547   -1045.1924    85075.489   -25437.059    1914.8318   -27351.891    363.74666   0.94129823 
  185900     239.3726   -773.84611    85075.489   -25436.968    1909.3909   -27346.359    363.85367   0.94129823 
  186000    239.61635   -1011.6999    85075.489   -25437.268    1911.3352   -27348.603    364.35631   0.94129823 
  186100    243.52712   -1116.6654    85075.489   -25437.378      1942.53   -27379.908     364.7096   0.94129823 
  186200    242.05765    -999.4221    85075.489   -25437.296    1930.8086   -27368.104    364.43237   0.94129823 
  186300     243.2666   -1178.5982    85075.489   -25437.388     1940.452    -27377.84    364.85391   0.94129823 
  186400    238.36282   -1131.4601    85075.489   -25437.144    1901.3362    -27338.48    365.09006   0.94129823 
  186500    239.65238   -942.68687    85075.489   -25437.329    1911.6226   -27348.952    365.61113   0.94129823 
  186600    241.85304   -1051.9017    85075.489   -25437.252    1929.1765   -27366.428    365.70378   0.94129823 
  186700    240.98617   -1265.5863    85075.489   -25437.146    1922.2618   -27359.408    366.13888   0.94129823 
  186800    246.81908   -1083.4237    85075.489   -25437.134    1968.7888   -27405.923    366.64304   0.94129823 
  186900    238.07296   -902.56633    85075.489   -25437.021    1899.0241   -27336.045    366.09398   0.94129823 
  187000    236.71618   -632.67255    85075.489   -25436.974    1888.2015   -27325.176    366.68347   0.94129823 
  187100    241.31998   -839.83523    85075.489   -25436.974    1924.9244   -27361.898    366.12238   0.94129823 
  187200    239.36403   -875.39455    85075.489   -25436.999    1909.3225   -27346.322    366.64676   0.94129823 
  187300     237.8788   -934.17767    85075.489   -25436.992    1897.4754   -27334.468    366.74904   0.94129823 
  187400    239.17599   -712.81901    85075.489   -25437.198    1907.8226   -27345.021    367.71074   0.94129823 
  187500    243.73804   -1045.7132    85075.489   -25437.358    1944.2125   -27381.571    368.03119   0.94129823 
  187600    237.12476   -949.67894    85075.489   -25437.045    1891.4607   -27328.506    368.17851   0.94129823 
  187700    238.12959   -1118.4883    85075.489   -25437.085    1899.4758   -27336.561    368.28011   0.94129823 
  187800    240.31554   -1377.2477    85075.489   -25437.125    1916.9124   -27354.038    368.50127   0.94129823 
  187900    243.14803   -938.15927    85075.489   -25437.334    1939.5061    -27376.84     368.9342   0.94129823 
  188000    243.51222   -1269.5789    85075.489   -25437.285    1942.4112   -27379.696    369.33953   0.94129823 
  188100    241.95365    -1024.322    85075.489   -25437.099     1929.979   -27367.078    369.51598   0.94129823 
  188200      243.426   -989.19129    85075.489   -25437.244    1941.7235   -27378.967     369.6191   0.94129823 
  188300    237.13017    -845.2677    85075.489   -25436.986    1891.5038    -27328.49    370.95743   0.94129823 
  188400    240.08879   -971.92344    85075.489   -25437.124    1915.1037   -27352.228    370.89665   0.94129823 
  188500    244.43111   -1206.8842    85075.489   -25437.299    1949.7409    -27387.04    370.69338   0.94129823 
  188600    245.32291   -930.49977    85075.489   -25437.207    1956.8544   -27394.061    370.53782   0.94129823 
  188700    239.33545   -1406.4246    85075.489   -25437.095    1909.0946    -27346.19    371.00331   0.94129823 
  188800    239.12555   -1362.0854    85075.489   -25437.092    1907.4203   -27344.512    371.36616   0.94129823 
  188900    244.35967   -1215.5306    85075.489   -25437.588     1949.171   -27386.759    372.23242   0.94129823 
  189000    239.58459   -1318.8284    85075.489   -25437.206    1911.0819   -27348.288    372.39194   0.94129823 
  189100    242.39078   -959.74602    85075.489   -25437.066    1933.4658   -27370.532    371.98358   0.94129823 
  189200     243.1546   -1153.1109    85075.489    -25437.31    1939.5586   -27376.869    371.22089   0.94129823 
  189300    243.12492   -1173.0072    85075.489   -25437.288    1939.3218   -27376.609    372.22698   0.94129823 
  189400    235.21081   -1507.3499    85075.489    -25436.94    1876.1938   -27313.133    372.42542   0.94129823 
  189500    239.30062   -907.93815    85075.489   -25437.258    1908.8167   -27346.075    372.76147   0.94129823 
  189600    232.72616   -1187.4078    85075.489   -25436.802    1856.3746   -27293.176    373.15201   0.94129823 
  189700    241.19898   -916.49056    85075.489   -25437.178    1923.9593   -27361.137    373.10459   0.94129823 
  189800    240.79591   -552.45249    85075.489   -25437.155    1920.7441     -27357.9    373.15713   0.94129823 
  189900    241.94878   -983.05144    85075.489   -25437.418    1929.9402   -27367.358    372.67028   0.94129823 
  190000     237.5759   -729.27592    85075.489   -25436.945    1895.0592   -27332.004    371.87854   0.94129823 
  190100    238.53234   -1011.1813    85075.489   -25437.148    1902.6884   -27339.837     372.3403   0.94129823 
  190200    239.64071   -838.71626    85075.489   -25436.995    1911.5295   -27348.525     372.6728   0.94129823 
  190300    240.14215   -1016.3036    85075.489   -25437.117    1915.5294   -27352.646    372.84717   0.94129823 
  190400    237.33528   -925.89137    85075.489   -25436.988    1893.1399   -27330.128    373.61555   0.94129823 
  190500    240.30334   -1020.7126    85075.489    -25437.01    1916.8151   -27353.825    373.35021   0.94129823 
  190600     242.8417   -1016.3841    85075.489   -25437.328    1937.0627    -27374.39    373.89642   0.94129823 
  190700    244.36627   -1134.2289    85075.489   -25437.538    1949.2237   -27386.761    373.68669   0.94129823 
  190800    239.11998    -1085.531    85075.489   -25437.111    1907.3758   -27344.487    374.01117   0.94129823 
  190900    239.55334   -1190.8365    85075.489   -25437.033    1910.8326   -27347.865    373.87433   0.94129823 
  191000    241.63068   -1143.5521    85075.489   -25437.284    1927.4028   -27364.687    374.23333   0.94129823 
  191100    240.78933   -1085.0477    85075.489   -25437.105    1920.6917   -27357.797    375.22698   0.94129823 
  191200    243.36976   -942.21682    85075.489    -25437.59    1941.2749   -27378.865    375.18931   0.94129823 
  191300    244.43191   -895.96996    85075.489     -25437.3    1949.7473   -27387.048    375.41048   0.94129823 
  191400    234.25922   -927.47504    85075.489   -25436.677    1868.6032   -27305.281    376.36823   0.94129823 
  191500    239.97917    -1099.849    85075.489   -25437.182    1914.2293   -27351.411    376.14344   0.94129823 
  191600    241.80168    -1119.102    85075.489   -25437.032    1928.7668   -27365.799    377.18375   0.94129823 
  191700    242.80052   -1118.1404    85075.489   -25437.308    1936.7342   -27374.042    376.93786   0.94129823 
  191800    238.16741     -920.991    85075.489   -25437.022    1899.7775   -27336.799     377.3252   0.94129823 
  191900      239.005   -1090.7532    85075.489   -25437.305    1906.4587   -27343.763    377.43185   0.94129823 
  192000    242.39566   -739.84844    85075.489   -25437.376    1933.5048    -27370.88    377.68438   0.94129823 
  192100    239.19444   -869.94027    85075.489   -25437.127    1907.9698   -27345.096    377.67367   0.94129823 
  192200    243.98653   -1063.0727    85075.489   -25437.377    1946.1946   -27383.571    377.95882   0.94129823 
  192300    235.45233   -948.31986    85075.489   -25437.055    1878.1203   -27315.176    377.82727   0.94129823 
  192400    237.04711   -857.70215    85075.489   -25436.963    1890.8413   -27327.804    378.19599   0.94129823 
  192500    236.57046   -1185.5932    85075.489   -25436.942    1887.0392   -27323.981    378.69459   0.94129823 
  192600     245.2438   -910.46257    85075.489   -25437.303    1956.2234   -27393.526     379.0947   0.94129823 
  192700    246.78506   -883.12741    85075.489   -25437.506    1968.5175   -27406.023    378.55288   0.94129823 
  192800    243.89635   -692.24689    85075.489    -25437.15    1945.4753   -27382.625    378.46297   0.94129823 
  192900     241.4069   -1012.9406    85075.489   -25437.112    1925.6178    -27362.73    378.70555   0.94129823 
  193000    245.28425   -1137.7804    85075.489   -25437.407     1956.546   -27393.953    378.92644   0.94129823 
  193100    244.85967   -1118.1974    85075.489   -25437.328    1953.1593   -27390.487    378.92306   0.94129823 
  193200    245.28861   -1143.2843    85075.489   -25437.495    1956.5808   -27394.076     379.6349   0.94129823 
  193300    239.20633   -1036.0525    85075.489   -25437.299    1908.0646   -27345.363    380.19309   0.94129823 
  193400     236.9128   -1708.1254    85075.489    -25437.05    1889.7699    -27326.82    380.45725   0.94129823 
  193500    246.17885   -1335.4887    85075.489   -25437.532     1963.682   -27401.214    381.16124   0.94129823 
  193600    241.88718   -1022.8035    85075.489   -25437.098    1929.4489   -27366.547    380.23225   0.94129823 
  193700     243.9916   -892.30827    85075.489   -25437.156    1946.2351   -27383.391    381.05722   0.94129823 
  193800     241.7847   -963.42073    85075.489   -25437.128    1928.6314   -27365.759    381.13201   0.94129823 
  193900    240.99143   -872.60158    85075.489   -25437.304    1922.3038   -27359.608     381.1494   0.94129823 
  194000    243.85468    -1298.259    85075.489   -25437.304    1945.1429   -27382.447    381.94341   0.94129823 
  194100    245.91495   -956.40071    85075.489   -25437.311    1961.5769   -27398.888    382.05613   0.94129823 
  194200    240.81248   -902.03454    85075.489   -25437.153    1920.8763   -27358.029    382.79046   0.94129823 
  194300    241.73445   -907.33567    85075.489   -25437.189    1928.2305    -27365.42    382.71588   0.94129823 
  194400    243.75614   -1019.1391    85075.489   -25437.471    1944.3569   -27381.828    382.48154   0.94129823 
  194500      238.917   -1001.2356    85075.489   -25437.092    1905.7567   -27342.849    382.53011   0.94129823 
  194600    245.68484   -1256.0057    85075.489   -25437.315    1959.7414   -27397.057    382.97441   0.94129823 
  194700    245.25289   -1029.7617    85075.489   -25437.473    1956.2959   -27393.769    382.52562   0.94129823 
  194800    242.55128   -1410.3563    85075.489   -25437.372    1934.7461   -27372.119    383.23196   0.94129823 
  194900    237.89843   -993.75992    85075.489   -25437.059     1897.632   -27334.691    383.17185   0.94129823 
  195000    242.21635   -1142.4249    85075.489   -25437.201    1932.0745   -27369.276    383.05992   0.94129823 
  195100    239.59693   -1111.2056    85075.489    -25437.15    1911.1803    -27348.33    383.31426   0.94129823 
  195200    242.89216   -666.77944    85075.489   -25437.163    1937.4652   -27374.628    382.87408   0.94129823 
  195300    239.07807   -1303.2113    85075.489   -25437.148    1907.0415   -27344.189     382.6416   0.94129823 
  195400    242.10223   -973.23486    85075.489   -25437.343    1931.1642   -27368.507    383.77146   0.94129823 
  195500    242.62245   -956.12822    85075.489   -25437.266    1935.3138    -27372.58    384.45581   0.94129823 
  195600    238.44972   -724.99255    85075.489   -25436.715    1902.0294   -27338.745    384.74857   0.94129823 
  195700    244.16898    -1146.323    85075.489   -25437.302      1947.65   -27384.952    384.95485   0.94129823 
  195800    239.29158    -900.9044    85075.489   -25437.197    1908.7446   -27345.941    384.77834   0.94129823 
  195900    246.45313   -1040.7525    85075.489   -25437.303    1965.8698   -27403.173    384.84532   0.94129823 
  196000    236.63955   -1075.5548    85075.489   -25437.101    1887.5903   -27324.691    384.41434   0.94129823 
  196100    244.02096     -1245.64    85075.489   -25437.281    1946.4692   -27383.751    384.67739   0.94129823 
  196200    243.57801   -1336.7103    85075.489   -25437.281     1942.936   -27380.217    385.20085   0.94129823 
  196300    238.49014   -1553.3987    85075.489   -25436.957    1902.3519   -27339.308    386.24503   0.94129823 
  196400    239.94368   -1294.9647    85075.489   -25437.329    1913.9462   -27351.275    386.02506   0.94129823 
  196500    239.35617   -1192.4213    85075.489   -25437.321    1909.2598   -27346.581    386.76656   0.94129823 
  196600    230.44104   -1492.2303    85075.489   -25436.699     1838.147   -27274.846    386.42295   0.94129823 
  196700    240.95022   -1455.4532    85075.489   -25436.976     1921.975   -27358.951    386.19762   0.94129823 
  196800    240.63012   -785.88864    85075.489   -25437.104    1919.4217   -27356.525    387.14513   0.94129823 
  196900    239.28729   -1074.6353    85075.489   -25437.191    1908.7104   -27345.901    387.39216   0.94129823 
  197000    235.90176   -777.18283    85075.489   -25436.887    1881.7052   -27318.592    387.53979   0.94129823 
  197100    238.04718   -852.66639    85075.489   -25437.031    1898.8185   -27335.849    387.67635   0.94129823 
  197200    239.71267   -1175.1192    85075.489   -25437.254    1912.1035   -27349.358    387.47737   0.94129823 
  197300    240.96583    -1223.089    85075.489     -25437.2    1922.0996   -27359.299    388.24155   0.94129823 
  197400    240.68577   -660.17449    85075.489   -25437.141    1919.8656   -27357.006    388.21333   0.94129823 
  197500    240.52819   -1088.9845    85075.489    -25437.19    1918.6086   -27355.799     388.3819   0.94129823 
  197600      238.179   -1067.6713    85075.489   -25437.189      1899.87   -27337.059    388.66531   0.94129823 
  197700    240.15512   -1301.1344    85075.489   -25437.193    1915.6328   -27352.826    388.70802   0.94129823 
  197800    243.36981   -1054.7082    85075.489   -25437.444    1941.2752    -27378.72    388.84764   0.94129823 
  197900     242.9928   -1212.9249    85075.489   -25437.323     1938.268   -27375.591    389.54333   0.94129823 
  198000    240.16763   -1165.4886    85075.489   -25437.222    1915.7325   -27352.955    389.75836   0.94129823 
  198100    242.69108   -1056.9801    85075.489   -25437.231    1935.8612   -27373.092    389.45584   0.94129823 
  198200    239.03535   -1366.8892    85075.489   -25437.209    1906.7008    -27343.91    388.97666   0.94129823 
  198300    239.85149   -1271.6678    85075.489   -25437.055    1913.2109   -27350.266     389.5522   0.94129823 
  198400    239.63019   -1326.5912    85075.489   -25437.227    1911.4456   -27348.672    389.76355   0.94129823 
  198500    235.76954   -776.13891    85075.489   -25437.028    1880.6506   -27317.679    390.17053   0.94129823 
  198600    243.14936    -806.2937    85075.489   -25437.432    1939.5167   -27376.949    389.62361   0.94129823 
  198700    241.07581   -1020.3566    85075.489   -25437.356    1922.9768   -27360.333    390.11207   0.94129823 
  198800    247.87828   -1355.1582    85075.489   -25437.542    1977.2377    -27414.78    390.13478   0.94129823 
  198900    239.62053    -1038.008    85075.489   -25437.171    1911.3686    -27348.54    390.09206   0.94129823 
  199000    239.18257   -1342.0333    85075.489   -25437.205    1907.8751    -27345.08    390.14881   0.94129823 
  199100    237.63618   -1036.1065    85075.489   -25437.009    1895.5401   -27332.549    390.69543   0.94129823 
  199200    242.74536   -881.46099    85075.489   -25437.379    1936.2942   -27373.673    390.93214   0.94129823 
  199300    238.39945   -1278.3747    85075.489   -25437.009    1901.6284   -27338.637    391.39087   0.94129823 
  199400    238.40277   -961.20934    85075.489   -25437.012    1901.6549   -27338.667    391.85483   0.94129823 
  199500     241.7361   -1261.2172    85075.489   -25437.233    1928.2437   -27365.477    392.12877   0.94129823 
  199600     243.8577   -1018.7086    85075.489   -25437.313     1945.167    -27382.48    391.40641   0.94129823 
  199700    243.91259   -1206.8267    85075.489   -25437.313    1945.6048   -27382.918    392.07717   0.94129823 
  199800    238.81986    -1234.785    85075.489   -25437.263    1904.9819   -27342.245    392.72325   0.94129823 
  199900    239.99297   -899.55895    85075.489   -25437.079    1914.3394   -27351.418    392.64478   0.94129823 
  200000    242.74411   -977.16339    85075.489     -25437.3    1936.2842   -27373.584    392.34811   0.94129823 
  200100    235.36027    -965.5691    85075.489    -25436.76     1877.386   -27314.146    392.95503   0.94129823 
  200200    238.76158   -1048.8252    85075.489   -25437.047     1904.517   -27341.564     393.1896   0.94129823 
  200300    243.89393   -1065.6667    85075.489    -25437.32    1945.4559   -27382.776    393.76303   0.94129823 
  200400     244.6164   -835.40418    85075.489   -25437.228    1951.2188   -27388.447    393.62211   0.94129823 
  200500    244.50562   -1003.7957    85075.489   -25437.208    1950.3352   -27387.543    394.45585   0.94129823 
  200600    247.21693   -1013.9655    85075.489    -25437.31    1971.9623   -27409.272    394.89867   0.94129823 
  200625    243.62579   -1120.5927    85075.489   -25437.275    1943.3171   -27380.592    395.21649   0.94129823 
Loop time of 51.2938 on 12 procs for 100000 steps with 2677 atoms

Performance: 842.208 ns/day, 0.028 hours/ns, 1949.555 timesteps/s
96.7% CPU use with 12 MPI tasks x no OpenMP threads

MPI task timing breakdown:
Section |  min time  |  avg time  |  max time  |%varavg| %total
---------------------------------------------------------------
Pair    | 32.829     | 33.446     | 34.783     |  10.0 | 65.21
Neigh   | 2.2806     | 2.3143     | 2.3441     |   1.3 |  4.51
Comm    | 11.896     | 13.308     | 13.934     |  16.2 | 25.95
Output  | 0.15698    | 0.16173    | 0.20832    |   3.5 |  0.32
Modify  | 0.27315    | 0.27706    | 0.28151    |   0.4 |  0.54
Other   |            | 1.786      |            |       |  3.48

Nlocal:        223.083 ave         236 max         218 min
Histogram: 2 3 4 1 0 1 0 0 0 1
Nghost:        747.833 ave         761 max         727 min
Histogram: 1 0 0 1 1 2 3 1 1 2
Neighs:        0.00000 ave           0 max           0 min
Histogram: 12 0 0 0 0 0 0 0 0 0
FullNghs:      6115.17 ave        6704 max        5942 min
Histogram: 6 0 3 2 0 0 0 0 0 1

Total # of neighbors = 73382
Ave neighs/atom = 27.412028
Neighbor list builds = 5769
Dangerous builds = 0

write_data		data.${NAME}
write_data		data.ML_m1000atm_240K
System init for write_data ...
Total wall time: 0:01:46
