
# Create simulation box of size 49.22 x 49.019 x 33.94 Angstrom
#
region 	     all block 0 ${XDIM} 0 ${YDIM} 0 ${ZDIM} units box
region 	     all block 0 49.22 0 ${YDIM} 0 ${ZDIM} units box
region 	     all block 0 49.22 0 49.019635930410494 0 ${ZDIM} units box
region 	     all block 0 49.22 0 49.019635930410494 0 33.94 units box
create_box          1 all
Created orthogonal box = (0.0000000 0.0000000 0.0000000) to (49.220000 49.019636 33.940000)
  2 by 2 by 2 MPI processor grid

# fill box with randomly distributed atoms of number density 0.0327 N/A**3
#  ~800 atoms will eventually be removed to insert the substrate
#
create_atoms        1 random 2677 63782 all
Created 2677 atoms
  create_atoms CPU = 0.030 seconds
mass                1 18.015

# Define potential
#
pair_style          sw
pair_coeff          * * ML.sw mW
Reading sw potential file ML.sw with DATE: 2019-02-27

# Run minimization
#
minimize            1.0e-8 1.0e-8 10000 1000
WARNING: Using 'neigh_modify every 1 delay 0 check yes' setting during minimization (../min.cpp:187)
Neighbor list info ...
  update every 1 steps, delay 0 steps, check yes
  max neighbors/atom: 2000, page size: 100000
  master list distance cutoff = 6.0032907
  ghost atom cutoff = 6.0032907
  binsize = 3.0016454, bins = 17 17 12
  1 neighbor lists, perpetual/occasional/extra = 1 0 0
  (1) pair sw, perpetual
      attributes: full, newton on
      pair build: full/bin/atomonly
      stencil: full/bin/3d
      bin: standard
Per MPI rank memory allocation (min/avg/max) = 4.218 | 4.219 | 4.220 Mbytes
Step Temp E_pair E_mol TotEng Press 
       0            0     11729707            0     11729707     13324765 
     628            0   -28931.229            0   -28931.229   -834.58972 
Loop time of 1.10462 on 8 procs for 628 steps with 2677 atoms

98.2% CPU use with 8 MPI tasks x no OpenMP threads

Minimization stats:
  Stopping criterion = max force evaluations
  Energy initial, next-to-last, final = 
      11729707.0176839  -28931.0975554258  -28931.2288405063
  Force two-norm initial, final = 5.5538902e+08 3.0504902
  Force max component initial, final = 3.0045181e+08 0.77200789
  Final line search alpha, max atom move = 0.06589714 0.050873112
  Iterations, force evaluations = 628 1000

MPI task timing breakdown:
Section |  min time  |  avg time  |  max time  |%varavg| %total
---------------------------------------------------------------
Pair    | 0.73968    | 0.85021    | 0.94632    |   6.1 | 76.97
Neigh   | 0.020545   | 0.021159   | 0.021629   |   0.3 |  1.92
Comm    | 0.089844   | 0.18217    | 0.28427    |  12.9 | 16.49
Output  | 0          | 0          | 0          |   0.0 |  0.00
Modify  | 0          | 0          | 0          |   0.0 |  0.00
Other   |            | 0.05109    |            |       |  4.62

Nlocal:        334.625 ave         342 max         324 min
Histogram: 1 0 0 0 2 2 0 0 1 2
Nghost:        938.500 ave         950 max         929 min
Histogram: 2 0 1 1 1 0 1 0 1 1
Neighs:        0.00000 ave           0 max           0 min
Histogram: 8 0 0 0 0 0 0 0 0 0
FullNghs:      9409.50 ave        9818 max        8813 min
Histogram: 1 0 0 0 2 1 1 1 1 1

Total # of neighbors = 75276
Ave neighs/atom = 28.119537
Neighbor list builds = 27
Dangerous builds = 0

# Add velocity/set timestep
#
velocity            all create ${TEMP} 120593 rot yes dist gaussian
velocity            all create 250 120593 rot yes dist gaussian
timestep            5.0

# Define output
#
compute	            1 all msd
thermo	            100
thermo_style        custom step temp press vol etotal ke pe c_1[4] density

# Neighbor lists
#
neigh_modify        delay 0 every 1 check yes

# Run 0.5 ns equilibration in NPH ensemble
#
fix 3 all nph z ${PRES} ${PRES} ${PCOUPL}
fix 3 all nph z -1000 ${PRES} ${PCOUPL}
fix 3 all nph z -1000 -1000 ${PCOUPL}
fix 3 all nph z -1000 -1000 10000.0
fix 4 all temp/csvr ${TEMP} ${TEMP} ${TCOUPL} 837392
fix 4 all temp/csvr 250 ${TEMP} ${TCOUPL} 837392
fix 4 all temp/csvr 250 250 ${TCOUPL} 837392
fix 4 all temp/csvr 250 250 5000.0 837392

dump                1 all custom 1000 nph.${NAME}.dump id type x y z vx vy vz
dump                1 all custom 1000 nph.ML_m1000atm_250K.dump id type x y z vx vy vz
run                 100000
Per MPI rank memory allocation (min/avg/max) = 3.468 | 3.469 | 3.470 Mbytes
Step Temp Press Volume TotEng KinEng PotEng c_1[4] Density 
     628          250    278.60143    81888.616   -26937.067    1994.1619   -28931.229 4.5327273e-34    0.9779309 
     700    125.74441   -338.80544    81947.912   -26868.873    1003.0189   -27871.892   0.23954678   0.97722328 
     800    143.80083   -1137.6125    82124.402   -26747.595    1147.0485   -27894.643   0.50572918   0.97512318 
     900    149.41273   -1231.9134    82332.764   -26659.117    1191.8127    -27850.93   0.73932341   0.97265539 
    1000    159.99273   -1178.2304    82552.972   -26562.059    1276.2057   -27838.264   0.96536419   0.97006086 
    1100    162.77485   -1228.9199    82726.645   -26497.943    1298.3976   -27796.341    1.1565779   0.96802436 
    1200    164.44705   -1544.3469    82860.173   -26421.501    1311.7362   -27733.237    1.3684536    0.9664644 
    1300    173.53873   -1366.8526    82935.382   -26342.983    1384.2573    -27727.24    1.6104819   0.96558798 
    1400    181.44347   -1038.5416    82967.615   -26282.393    1447.3107   -27729.704    1.7271488   0.96521284 
    1500    188.65892   -1066.0925    82974.803   -26231.766    1504.8657   -27736.632    1.9984125   0.96512922 
    1600    190.54609   -1272.4556    83023.112   -26183.289     1519.919   -27703.208    2.1702562   0.96456764 
    1700    195.89559    -955.0683      83097.8   -26129.961    1562.5901   -27692.551    2.4517424    0.9637007 
    1800    201.99588   -688.38845    83224.653   -26098.978      1611.25   -27710.228    2.6368688   0.96223179 
    1900    202.82854   -615.41631    83376.739   -26066.352    1617.8918   -27684.244    2.7622446    0.9604766 
    2000    204.84358   -1053.8217    83565.997   -26035.446     1633.965   -27669.411    2.9182595   0.95830135 
    2100    203.38241   -705.53756    83754.224   -25998.304    1622.3098   -27620.614    3.0393695   0.95614769 
    2200    205.98779   -1343.7968    83920.589   -25961.462     1643.092   -27604.554    3.2187665   0.95425221 
    2300    211.03822    -1096.427    84027.363   -25946.582    1683.3776   -27629.959    3.4388294   0.95303963 
    2400     211.7678    -1107.113    84078.718   -25919.673    1689.1972    -27608.87    3.6184338   0.95245752 
    2500    212.69819   -774.65875    84095.321   -25890.998    1696.6185   -27587.617    3.7616597   0.95226947 
    2600    214.42762   -822.09536    84152.659   -25856.164    1710.4136   -27566.578    3.9238839   0.95162064 
    2700    220.21208   -927.69102    84234.291   -25838.079    1756.5542   -27594.633       4.1195   0.95069843 
    2800     216.4444   -898.18281    84322.542   -25818.073    1726.5007   -27544.574    4.3688294   0.94970343 
    2900    219.73844   -821.55673    84398.144   -25802.019    1752.7761   -27554.795    4.5335007   0.94885271 
    3000    223.68641   -884.60344    84446.929   -25781.039    1784.2677   -27565.307    4.7317422   0.94830456 
    3100    225.16921   -799.44659    84493.377   -25751.744    1796.0955   -27547.839     5.025703   0.94778325 
    3200    226.82224   -1165.8588    84524.024   -25722.253    1809.2811   -27531.534    5.2142005    0.9474396 
    3300    221.36663   -1007.0115    84535.425   -25720.303    1765.7636   -27486.067    5.3537418   0.94731182 
    3400    221.76636    -1013.475    84523.542   -25685.324    1768.9521   -27454.277    5.5450571   0.94744501 
    3500    225.95965   -767.75327    84486.569    -25666.78    1802.4006   -27469.181    5.7060207   0.94785962 
    3600    228.38194   -827.42539    84441.302   -25648.814    1821.7223   -27470.536    6.0644371   0.94836775 
    3700    235.52095   -813.93471    84398.457     -25614.7    1878.6677   -27493.367    6.2157925   0.94884919 
    3800    232.25823   -574.97792    84405.045   -25600.107    1852.6421   -27452.749    6.3664898   0.94877513 
    3900    232.61156   -907.62012    84485.185   -25584.635    1855.4605   -27440.095    6.4132502   0.94787515 
    4000    229.16167   -948.08739    84589.937    -25590.24    1827.9419   -27418.182    6.6411634   0.94670135 
    4100    236.18554   -1212.1753    84651.065   -25583.497    1883.9688   -27467.466    6.7647953   0.94601771 
    4200     229.9932   -742.52333    84682.171   -25591.462    1834.5747   -27426.036    6.9869282   0.94567022 
    4300    232.25225   -738.80457     84753.16   -25591.822    1852.5944   -27444.416    7.0013649   0.94487813 
    4400    233.98526   -1097.1569    84859.515   -25555.718     1866.418   -27422.136    7.4688412   0.94369391 
    4500     234.3848   -1091.6199    84937.831    -25531.56     1869.605   -27401.165    7.6148409   0.94282379 
    4600    241.37303    -1331.629    84963.872   -25519.047    1925.3476   -27444.395    7.7866607   0.94253481 
    4700     238.8486   -1394.5015    84942.198   -25506.271    1905.2111   -27411.482    8.0380608   0.94277532 
    4800     233.5735   -1271.8659    84877.471   -25504.951    1863.1335   -27368.084    8.2764813   0.94349427 
    4900    234.75095    -815.0454      84749.3   -25505.019    1872.5257   -27377.544    8.3873485   0.94492117 
    5000    238.55976    -909.9871    84612.214   -25517.991    1902.9071   -27420.898    8.5641348   0.94645209 
    5100    243.01446   -702.84236    84485.655   -25480.945    1938.4408   -27419.386    8.7289724   0.94786988 
    5200    241.47505   -701.28007    84413.638   -25459.198    1926.1614   -27385.359    9.0030925   0.94867854 
    5300    238.00906   -794.52453    84382.561   -25446.363    1898.5144   -27344.877    9.2713317   0.94902793 
    5400    244.07181   -992.77746    84378.917   -25422.311    1946.8749   -27369.185    9.6135936   0.94906892 
    5500    242.99397   -474.23577     84378.38   -25420.281    1938.2773   -27358.558    9.6970061   0.94907495 
    5600    241.55986   -875.05814    84424.181   -25414.679    1926.8379   -27341.517    9.7940427   0.94856007 
    5700    239.95347   -575.81913    84483.995   -25406.255    1914.0243   -27320.279    9.8624133    0.9478885 
    5800    241.02101   -967.63992     84566.51   -25405.184    1922.5397   -27327.724      10.0307    0.9469636 
    5900    236.95924   -1514.0963    84595.426   -25402.971    1890.1404   -27293.112    10.396474   0.94663992 
    6000    244.28074   -1026.5246    84549.568   -25409.293    1948.5414   -27357.835     10.66441   0.94715336 
    6100    238.60559   -943.30565    84495.071   -25416.197    1903.2727   -27319.469    10.935279   0.94776425 
    6200    243.21446   -945.65068    84412.527   -25412.463     1940.036   -27352.499     10.95273   0.94869104 
    6300    238.74811   -887.73304    84343.152   -25370.363    1904.4096   -27274.772    11.173335   0.94947136 
    6400    246.58169   -1050.9531    84302.468   -25346.367    1966.8952   -27313.263    11.500333   0.94992958 
    6500    239.98013    -524.4831    84281.438   -25368.658     1914.237   -27282.895    11.820132    0.9501666 
    6600    244.36934   -1084.7429    84321.212    -25363.85    1949.2481   -27313.098     12.08562   0.94971841 
    6700    242.59996   -786.53875    84378.984   -25336.762    1935.1344   -27271.897    12.376408   0.94906817 
    6800    246.24625   -776.75331    84470.503   -25319.294    1964.2196   -27283.514    12.680765    0.9480399 
    6900    242.08421   -941.76421    84623.467   -25317.663    1931.0204   -27248.684    12.841645   0.94632624 
    7000    244.58661   -918.46473    84808.301   -25345.543    1950.9812   -27296.525    13.194859   0.94426379 
    7100    239.37463   -1415.5719    84990.773   -25356.008    1909.4071   -27265.416    13.633365   0.94223649 
    7200    241.26773   -1345.0274     85118.54   -25354.369    1924.5077   -27278.877     13.77062   0.94082215 
    7300    243.30956   -1222.1611     85181.84   -25352.795    1940.7947    -27293.59    13.950698   0.94012301 
    7400    244.36898   -1371.6821    85208.414    -25330.52    1949.2453   -27279.765    14.242028   0.93982981 
    7500    242.30373   -1134.1974    85173.394   -25331.472    1932.7715   -27264.243    14.426102   0.94021622 
    7600    248.48421   -1089.3029    85087.924    -25330.88     1982.071   -27312.951     14.88859   0.94116067 
    7700    245.04529    -1237.255    85015.383   -25325.274    1954.6399   -27279.914    15.105914   0.94196373 
    7800    249.82695   -905.59456     84927.78   -25309.307    1992.7815   -27302.089    15.260289   0.94293537 
    7900    247.81664   -684.18074    84835.887   -25304.803     1976.746   -27281.549    15.379545   0.94395674 
    8000    243.31279   -948.05405    84771.624    -25322.45    1940.8204   -27263.271    15.638475   0.94467232 
    8100    241.74687    -881.2789    84710.701   -25305.658    1928.3296   -27233.988    16.077109   0.94535173 
    8200    240.14758    -951.6516    84668.359   -25302.626    1915.5727   -27218.198    16.223124   0.94582449 
    8300    248.72805    -742.1268    84653.634    -25303.24     1984.016   -27287.256    16.520306   0.94598901 
    8400    246.87035   -978.09354    84666.961   -25294.458    1969.1978   -27263.656    16.611097   0.94584011 
    8500    243.15972   -1083.6511    84677.994   -25293.197    1939.5994   -27232.796    16.712387   0.94571687 
    8600    244.70927    -1007.302    84686.128   -25308.767    1951.9597   -27260.727     16.95629   0.94562604 
    8700    246.30881   -891.47629     84689.35   -25299.608    1964.7186   -27264.326    17.367525   0.94559006 
    8800    246.50774   -777.03372    84718.528   -25276.359    1966.3054   -27242.664    17.667614   0.94526439 
    8900    243.48421   -891.29533    84735.228   -25262.302    1942.1877   -27204.489     17.81029   0.94507809 
    9000    250.00687   -1195.1139    84727.608   -25265.638    1994.2167   -27259.855     18.19273   0.94516309 
    9100    246.22015   -1156.2376    84710.421   -25286.331    1964.0114   -27250.342    18.418517   0.94535486 
    9200    240.42686    -852.4982    84667.985   -25294.278    1917.8003   -27212.079    18.696462   0.94582866 
    9300    243.86832     -546.686     84655.02   -25293.929    1945.2516   -27239.181    19.032223   0.94597352 
    9400    246.08516   -1124.7789    84721.712   -25315.679    1962.9346   -27278.613    19.226834   0.94522886 
    9500    250.44476   -1074.4272    84803.182   -25303.361    1997.7096   -27301.071     19.39689   0.94432078 
    9600    244.27234   -758.86694    84870.244     -25293.8    1948.4744   -27242.274    19.951042   0.94357462 
    9700      245.179   -988.19677    84925.001   -25276.121    1955.7065   -27231.828    19.925614   0.94296622 
    9800    243.58894   -939.48651     84962.03       -25282    1943.0231   -27225.023    19.972943   0.94255525 
    9900    240.76287   -1484.2851    84982.893   -25267.111    1920.4806   -27187.592    20.193921   0.94232385 
   10000    247.72712   -890.82061    84961.857   -25261.182     1976.032   -27237.214    20.510374   0.94255717 
   10100    246.06829   -1408.4742     84904.59   -25265.972    1962.8001   -27228.772    20.891112   0.94319291 
   10200    245.56064    -1092.698    84770.947   -25265.112    1958.7507   -27223.862    20.920913   0.94467987 
   10300    250.31166   -633.60702    84604.462   -25259.946    1996.6479   -27256.594    21.307412   0.94653881 
   10400    248.75557   -689.75287     84471.06   -25235.064    1984.2355   -27219.299    21.722362   0.94803365 
   10500    243.57304   -965.25669    84402.213   -25219.102    1942.8963   -27161.998    21.863772   0.94880696 
   10600    251.04166   -685.19155    84373.565   -25223.587    2002.4709   -27226.057    22.119061   0.94912912 
   10700    250.49871   -828.92434    84331.441   -25210.528    1998.1399   -27208.668    22.247657   0.94960321 
   10800    244.42014   -737.53345    84256.645   -25212.603    1949.6534   -27162.257    22.550247   0.95044619 
   10900    248.33358   -396.46056    84215.979   -25241.601    1980.8694   -27222.471    22.880595   0.95090514 
   11000    247.16221    -484.5004    84233.432   -25234.203    1971.5259   -27205.729    23.243797   0.95070812 
   11100    242.84747   -931.04589    84296.421   -25219.796    1937.1087   -27156.904    23.557098   0.94999771 
   11200    246.40945   -1041.4897    84393.756   -25203.889    1965.5214    -27169.41    23.983749   0.94890205 
   11300    248.78194   -820.31113    84490.453   -25198.338    1984.4459   -27182.784    24.153531   0.94781605 
   11400    244.77551   -1323.7659    84589.794   -25214.653     1952.488   -27167.141    24.500623   0.94670295 
   11500    249.05024   -1273.6315     84656.43   -25197.681     1986.586   -27184.267    24.865488   0.94595777 
   11600    246.12723   -1106.0279    84673.437   -25218.067    1963.2702   -27181.337      24.9789   0.94576777 
   11700      249.874   -1248.4834    84678.618   -25217.937    1993.1568   -27211.094    25.065146    0.9457099 
   11800    255.55917   -1417.4943    84658.991   -25203.413    2038.5054   -27241.919    25.601187   0.94592915 
   11900    249.13657   -1281.0317    84550.867   -25211.665    1987.2746    -27198.94    25.772949   0.94713881 
   12000    250.41688   -1218.3783    84372.865    -25211.15    1997.4872   -27208.637      25.9659     0.949137 
   12100    251.61859   -516.68433    84196.158   -25203.163    2007.0728   -27210.236    26.104681   0.95112899 
   12200    248.99926   -223.56879    84135.085   -25197.163    1986.1794   -27183.342    26.488149   0.95181942 
   12300    251.15871   -967.31178    84192.377   -25208.889    2003.4046   -27212.294    26.805061   0.95117172 
   12400    247.23317    -1057.743    84308.163   -25207.716    1972.0919   -27179.808    27.109342    0.9498654 
   12500    251.42904   -824.46681    84446.642    -25222.94    2005.5609   -27228.501    27.385619   0.94830778 
   12600    249.24406   -1047.3071    84613.285   -25208.807     1988.132   -27196.939    27.655833   0.94644012 
   12700    243.62276   -1168.7641    84787.572   -25198.743    1943.2929   -27142.036    27.787408   0.94449464 
   12800    244.49578   -1318.0707     84930.68   -25217.552    1950.2567   -27167.808    28.055204   0.94290317 
   12900    247.03762   -1476.9895    85009.995   -25233.817     1970.532   -27204.349    28.300077   0.94202344 
   13000     244.2285   -1355.7868    85039.569   -25242.516    1948.1247   -27190.641    28.907248   0.94169583 
   13100    244.54638    -1465.403    84997.257   -25250.962    1950.6604   -27201.622    29.328517   0.94216461 
   13200    247.21586   -1287.9423    84870.183   -25238.286    1971.9538    -27210.24    29.526188   0.94357529 
   13300    243.06711   -887.03434     84712.94   -25226.327    1938.8607   -27165.188    29.552134   0.94532674 
   13400    247.51233   -696.63443    84570.828   -25218.068    1974.3187   -27192.387    29.968206   0.94691526 
   13500    251.77866   -855.36019    84470.824   -25220.495    2008.3497   -27228.845    30.168839   0.94803629 
   13600    240.35014     -1195.03     84407.49   -25209.418    1917.1884   -27126.606    30.394082   0.94874764 
   13700    246.03257    -337.4911    84343.171   -25204.652    1962.5151   -27167.168    30.923619   0.94947115 
   13800    246.26386   -1086.0417    84339.417   -25183.016    1964.3601   -27147.376    31.620695   0.94951341 
   13900    243.08827   -906.19804    84316.487   -25176.425    1939.0295   -27115.454    31.644592   0.94977164 
   14000    251.15804   -1127.7914    84275.185   -25169.948    2003.3992   -27173.347    31.851033    0.9502371 
   14100    251.76998   -1044.5746    84246.541   -25156.061    2008.2804   -27164.342    32.320613   0.95056019 
   14200    248.42634   -1546.3636    84225.999   -25143.424    1981.6094   -27125.033    32.778723   0.95079202 
   14300    254.47177   -1094.3502    84168.994   -25144.432    2029.8316   -27174.263    33.058124   0.95143596 
   14400     245.4869   -937.30998     84094.52   -25165.627    1958.1625    -27123.79    33.495256   0.95227855 
   14500    250.37192   -915.09415    84024.129   -25162.789    1997.1286   -27159.917    33.668189   0.95307632 
   14600    245.10378     -1015.85    83946.341   -25139.255    1955.1065   -27094.361    33.764005   0.95395947 
   14700    251.23274   -743.61657     83877.06   -25126.165    2003.9951    -27130.16    34.146351   0.95474743 
   14800     251.3791   -872.49459    83846.852   -25136.517    2005.1625   -27141.679     34.79536   0.95509141 
   14900    250.67288   -1161.2171    83867.079   -25127.416    1999.5292   -27126.946    35.451411   0.95486106 
   15000    248.20062   -1341.7484    83878.492   -25125.295    1979.8089   -27105.104    35.769344   0.95473112 
   15100    245.59074   -1133.3067    83862.157   -25135.574    1958.9908   -27094.565    35.841118   0.95491709 
   15200    245.35369   -1131.3281    83799.875   -25153.519    1957.0999   -27110.619    36.234519   0.95562681 
   15300    246.81019   -1228.2347    83691.137   -25147.657    1968.7179   -27116.375    36.255665   0.95686843 
   15400    249.57211   -878.24657    83553.254   -25158.914    1990.7488   -27149.663     36.59238    0.9584475 
   15500    248.16891   -849.16923    83422.192    -25153.37    1979.5559   -27132.926     37.08316   0.95995329 
   15600     244.6116   -597.81734    83342.503   -25167.774    1951.1806   -27118.954    37.390949   0.96087116 
   15700    250.02571   -297.15657    83349.437   -25169.114     1994.367   -27163.481    37.285252   0.96079122 
   15800    240.61652   -1159.7056    83440.269   -25180.965    1919.3132   -27100.278    37.666647   0.95974531 
   15900    245.17127   -1147.2387    83517.466   -25174.782    1955.6448   -27130.427    37.976604   0.95885821 
   16000     243.0326   -661.90146    83566.727   -25167.845    1938.5854   -27106.431    38.163641   0.95829298 
   16100    254.05829   -1019.5791    83667.298   -25143.327    2026.5335    -27169.86    38.741193   0.95714107 
   16200    248.81496   -1295.4481    83795.164   -25128.223    1984.7092   -27112.933    38.854152   0.95568053 
   16300    251.96262   -1507.3768    83907.869    -25128.44    2009.8171   -27138.258    38.956051   0.95439687 
   16400    247.28657   -730.52013    84023.183   -25121.053    1972.5179   -27093.571    39.431346   0.95308705 
   16500    246.98925   -1191.1697     84164.61    -25139.53    1970.1462   -27109.676    39.877427   0.95148552 
   16600    247.62839   -1392.1437     84325.61   -25127.704    1975.2444   -27102.948    40.455523   0.94966888 
   16700    241.57132   -1456.7274    84458.899     -25107.8    1926.9293   -27034.729    40.727361   0.94817016 
   16800    254.15485   -1019.8176    84495.035   -25092.542    2027.3037   -27119.845    41.064018   0.94776465 
   16900    251.47516   -969.70555    84502.178   -25107.242    2005.9288   -27113.171     41.67344   0.94768454 
   17000    252.28362   -1370.7096    84505.542   -25082.295    2012.3775   -27094.673    41.633783   0.94764682 
   17100    246.09322   -965.92219    84461.657   -25064.412    1962.9989   -27027.411      42.0383   0.94813919 
   17200    246.28561    -1278.508    84387.957    -25072.95    1964.5335   -27037.483    42.391305   0.94896725 
   17300    245.91457   -1237.7103     84260.54   -25099.492    1961.5739   -27061.066    42.570655   0.95040225 
   17400    248.41428   -1179.5114    84084.139   -25100.934    1981.5132   -27082.447    42.659356   0.95239611 
   17500    247.58308   -946.14416    83882.286   -25096.857     1974.883    -27071.74    42.369842   0.95468794 
   17600    249.81697   -1014.3734    83728.563   -25097.174     1992.702   -27089.876    42.641837   0.95644072 
   17700    251.25799   -469.63243    83640.977   -25085.897    2004.1964   -27090.094    42.992179   0.95744228 
   17800    246.17404   -741.21351    83637.659   -25078.845    1963.6436   -27042.488    43.303363   0.95748026 
   17900    248.87685   -333.53253    83727.687   -25079.785    1985.2029   -27064.988    43.912139   0.95645073 
   18000    252.24722    -1009.358    83912.363   -25074.168    2012.0872   -27086.255    44.499544   0.95434576 
   18100    243.02498   -1002.0238    84105.546   -25055.525    1938.5246   -26994.049    44.778719   0.95215371 
   18200    249.40653   -1187.8083    84253.157     -25046.2     1989.428   -27035.628    44.978718   0.95048554 
   18300     249.1036   -1288.2191    84309.173    -25028.39    1987.0117   -27015.402    45.684223   0.94985402 
   18400    251.33337   -1572.6534    84287.957   -25024.165    2004.7977   -27028.963    45.912325   0.95009311 
   18500    251.58067   -1362.7655    84204.002   -25039.682    2006.7704   -27046.452    45.821958   0.95104039 
   18600     252.5615   -1054.9897     84101.54   -25050.175    2014.5941    -27064.77    45.981556   0.95219906 
   18700    245.55353   -1460.5508    83982.762    -25071.06     1958.694   -27029.754    46.227334   0.95354577 
   18800    245.46858   -1115.9875    83830.485    -25083.58    1958.0164   -27041.597    46.737914   0.95527787 
   18900    249.59047   -620.16777    83709.562   -25076.695    1990.8952    -27067.59    46.892337   0.95665782 
   19000    251.97017   -829.00492    83703.223   -25078.213    2009.8773    -27088.09    47.381724   0.95673027 
   19100    247.35457   -1124.4964    83733.335   -25061.619    1973.0603   -27034.679    47.922299   0.95638622 
   19200    247.05334   -1390.3283    83741.797   -25061.189    1970.6575   -27031.846    48.344709   0.95628957 
   19300    249.67572   -665.18738    83722.274   -25049.726    1991.5752   -27041.301    48.735661   0.95651257 
   19400    251.47741   -622.24876    83720.522   -25045.565    2005.9467   -27051.512    49.213219   0.95653258 
   19500    247.50273   -944.53036      83749.6    -25039.44    1974.2421   -27013.682     49.98712   0.95620048 
   19600    250.42583   -760.40159      83785.9    -25039.24    1997.5586   -27036.799      50.3693   0.95578621 
   19700     247.8839   -611.36948    83864.835   -25028.864    1977.2825   -27006.147    50.957688    0.9548866 
   19800    250.82059   -497.71919    83960.059   -25031.364    2000.7075   -27032.071    51.299445   0.95380361 
   19900    247.32667   -873.11681    84089.482   -25032.414    1972.8377   -27005.251    51.861688    0.9523356 
   20000     249.7608   -782.40972    84219.443   -25039.443    1992.2539   -27031.697    52.640181   0.95086603 
   20100    244.89434   -1069.3663    84330.383   -25033.448    1953.4359   -26986.884    53.020733   0.94961513 
   20200    252.01381   -1162.9193    84409.195     -25031.7    2010.2254   -27041.926    53.375416   0.94872848 
   20300     245.7803   -1194.3644    84463.756   -25013.599    1960.5028   -26974.102    54.026027   0.94811564 
   20400    251.61381   -1168.7581    84475.587   -25020.924    2007.0347   -27027.959    54.177507   0.94798285 
   20500    249.57291   -790.58269    84441.402   -25012.165    1990.7552    -27002.92     54.41003   0.94836662 
   20600    252.32957   -782.12581     84392.57   -24998.414     2012.744   -27011.158    54.834311   0.94891538 
   20700    255.31404   -993.55589    84371.386   -25015.009    2036.5501   -27051.559    55.616359   0.94915363 
   20800    255.58059   -1118.6634     84341.99   -25012.167    2038.6763   -27050.844    56.171378   0.94948444 
   20900    247.00579   -1069.3726    84277.423   -25014.117    1970.2782   -26984.395    56.018491   0.95021186 
   21000    255.18411   -939.94935    84203.819    -25015.51    2035.5138   -27051.024    56.135475   0.95104247 
   21100    254.84824    -1112.565    84122.936   -25031.402    2032.8346   -27064.237    56.258238   0.95195687 
   21200    254.24358   -817.02655    84018.157   -25037.945    2028.0115   -27065.956    56.361401   0.95314406 
   21300    255.11986   -1030.5811    83941.926   -25043.773    2035.0012   -27078.774    57.041906   0.95400965 
   21400    242.88343   -1103.9546    83871.275   -25039.637    1937.3955   -26977.033    57.945042   0.95481328 
   21500    254.43481   -868.84626     83829.56   -25057.617    2029.5368   -27087.154    57.987733   0.95528841 
   21600    249.39209    -943.6547    83827.279   -25045.085    1989.3128   -27034.398    58.286694    0.9553144 
   21700    246.01401   -1105.9271    83828.244   -25051.608    1962.3671   -27013.975     58.80783   0.95530342 
   21800    248.08149   -980.03419    83822.626   -25031.985    1978.8587   -27010.844    58.986375   0.95536744 
   21900    247.22964   -1220.4398    83792.643   -25039.535    1972.0637   -27011.599      59.0814   0.95570929 
   22000    246.02887   -1229.2742    83757.705   -25046.538    1962.4856   -27009.024    59.290473   0.95610795 
   22100    246.49884   -448.34569     83721.68   -25064.541    1966.2344   -27030.775    59.902966   0.95651936 
   22200     255.6452   -858.56665    83748.973   -25072.226    2039.1917   -27111.417    60.182977   0.95620763 
   22300    253.84086   -792.46066    83835.615   -25079.094    2024.7991   -27103.893    60.699203   0.95521942 
   22400     250.2301   -675.93005    83964.834   -25071.842    1995.9974   -27067.839    60.555117   0.95374936 
   22500    247.41016   -1303.2391    84130.073   -25093.966    1973.5037    -27067.47    61.196287   0.95187612 
   22600    252.79224   -1040.1127    84248.059   -25042.723    2016.4346   -27059.158     61.66979   0.95054305 
   22700    249.79858   -1264.4443    84307.953   -25056.338    1992.5553   -27048.893    62.278575   0.94986777 
   22800    248.85632   -1262.7387    84281.184   -25066.105    1985.0392   -27051.144    62.839843   0.95016946 
   22900    247.35803   -1094.7062    84203.641   -25057.898    1973.0878   -27030.986    63.284602   0.95104447 
   23000    250.32093   -1131.5696    84114.475   -25101.793    1996.7218   -27098.515    63.879527   0.95205264 
   23100    244.97753   -991.66866    84014.902    -25105.17    1954.0994   -27059.269    64.711906   0.95318099 
   23200    246.25925   -1010.8375    83926.135   -25087.068    1964.3233   -27051.391    65.306152   0.95418915 
   23300    246.24416   -859.68793    83863.896   -25088.485    1964.2029   -27052.688    65.220248    0.9548973 
   23400     249.3943   -387.04738    83864.955   -25111.832    1989.3305   -27101.163    65.695773   0.95488523 
   23500    243.26299   -1020.9808    83946.021   -25128.459    1940.4232   -27068.882    66.302659   0.95396312 
   23600    249.44773   -774.38629    84019.978   -25113.626    1989.7567   -27103.383    66.645894    0.9531234 
   23700    246.37861   -975.00888     84081.98   -25092.475    1965.2754    -27057.75    67.217615   0.95242057 
   23800    245.23242    -1181.643    84136.805   -25091.713    1956.1326   -27047.846    67.466053   0.95179996 
   23900    247.12082    -1187.443    84167.837    -25088.06    1971.1957   -27059.255    67.846262   0.95144904 
   24000    251.59838   -853.49311    84161.023   -25084.634    2006.9116   -27091.546    68.030287   0.95152607 
   24100    251.48037   -1070.4818     84161.18   -25072.057    2005.9703   -27078.028    68.581468    0.9515243 
   24200    248.26442   -1127.5505    84170.519   -25060.243    1980.3178   -27040.561    68.995967   0.95141872 
   24300    252.45366   -1354.7869    84183.738   -25076.161    2013.7339   -27089.895    69.550342   0.95126933 
   24400    248.80603   -1378.9142    84192.158   -25073.427     1984.638   -27058.065     69.85893   0.95117419 
   24500    248.85194   -847.68212    84189.295   -25067.151    1985.0043   -27052.155     69.56383   0.95120653 
   24600    248.11944    -743.8499    84185.649   -25050.955    1979.1614   -27030.117    70.080485   0.95124773 
   24700    246.55493   -451.61178    84212.613   -25039.047    1966.6818   -27005.729    70.740197   0.95094315 
   24800    249.33002    -924.6768    84303.547   -25054.451    1988.8177   -27043.269    71.640258   0.94991742 
   24900    245.16618   -1043.2829    84432.527   -25061.591    1955.6042   -27017.195    71.874474   0.94846631 
   25000    247.58167   -1037.5065    84580.299   -25064.048    1974.8718    -27038.92    72.986189   0.94680922 
   25100     245.1737   -1131.3987    84712.877   -25045.457    1955.6642   -27001.121    73.869033   0.94532745 
   25200    255.89876   -1439.2442    84785.262   -25043.285    2041.2143   -27084.499    74.219219   0.94452037 
   25300    249.04358   -1501.8233    84769.457   -25040.384    1986.5329   -27026.917      74.5315   0.94469648 
   25400    250.33937    -1226.648    84662.006   -25016.683     1996.869   -27013.552    74.929563   0.94589547 
   25500    254.55231   -832.46642    84491.784   -24976.228    2030.4741   -27006.702    75.331507   0.94780112 
   25600    250.12943   -1088.4411     84331.93   -24968.347    1995.1943   -26963.542    75.889099   0.94959771 
   25700    248.38476   -954.35138    84178.626   -24963.609    1981.2778   -26944.886    76.129397   0.95132709 
   25800    247.16272   -963.06667    84062.057   -24974.188    1971.5299   -26945.718    76.494069   0.95264629 
   25900    254.39906   -1080.7602    83990.043   -24999.665    2029.2517   -27028.916    77.092238   0.95346311 
   26000    240.37435    -1032.834    83930.457   -25024.205    1917.3815   -26941.587    77.724195   0.95414001 
   26100    247.67044   -1539.9222    83858.523   -25009.223    1975.5799   -26984.803    78.029946   0.95495848 
   26200    253.55741   -883.22811    83731.055    -24994.24    2022.5381   -27016.778    78.383865   0.95641226 
   26300    251.82948   -924.74415    83614.657   -24985.414     2008.755   -26994.169    78.669982   0.95774365 
   26400    248.07227   -224.11344    83543.389   -25005.109    1978.7851   -26983.894    79.194861   0.95856067 
   26500    248.22285   -857.19513    83570.587   -25005.342    1979.9862   -26985.329    79.618404   0.95824871 
   26600    247.94191   -551.33601    83622.884   -25023.525    1977.7453    -27001.27    80.281267   0.95764943 
   26700    252.62582   -875.75981     83687.53   -25007.182    2015.1072    -27022.29     81.08037   0.95690967 
   26800    251.91253   -1101.7678    83763.375   -24989.818    2009.4175   -26999.235    81.692022   0.95604322 
   26900    248.11303   -1076.6878    83825.624   -24964.572    1979.1103   -26943.682    82.062545   0.95533327 
   27000    248.25859   -975.50037     83855.02   -24992.496    1980.2713   -26972.767    82.453675   0.95499837 
   27100    251.14231   -981.50387     83891.85   -24993.915    2003.2737   -26997.189    82.710124   0.95457911 
   27200    244.52261   -464.61928    83909.495   -24998.531    1950.4707   -26949.002    82.955456   0.95437838 
   27300    248.00634   -1135.3772    83971.065   -24996.278    1978.2592   -26974.537    83.297351    0.9536786 
   27400    251.61447   -999.90424     84056.11   -24986.969      2007.04   -26994.009    83.706099    0.9527137 
   27500    254.37637   -1422.9599     84132.28   -24967.705    2029.0707   -26996.776    84.510703   0.95185115 
   27600    258.39644    -1298.487    84183.709   -24955.807    2061.1374   -27016.944     85.04953   0.95126965 
   27700    249.75995   -831.07065     84192.93   -24963.141    1992.2472   -26955.388    85.618433   0.95116546 
   27800    249.97714   -804.14665    84212.093   -24953.357    1993.9796   -26947.337    86.264653   0.95094902 
   27900    252.69093   -1322.8802    84234.919   -24969.251    2015.6265   -26984.877    86.546779   0.95069134 
   28000      248.712     -1355.83    84197.858   -24990.363     1983.888   -26974.251    87.118298   0.95110979 
   28100      254.878   -957.33389    84109.506   -24968.589     2033.072   -27001.661    87.269425   0.95210887 
   28200    256.75019   -789.90588    84038.613   -24967.617    2048.0058   -27015.623    87.689936   0.95291205 
   28300    252.41957   -925.77382    83989.306     -24953.3     2013.462   -26966.762    88.530497   0.95347148 
   28400    255.34284   -1228.3001    83961.933   -24967.245    2036.7798   -27004.025     89.31725   0.95378232 
   28500    249.51722   -971.19626    83938.244    -24971.43    1990.3109   -26961.741    89.749323   0.95405149 
   28600    252.59636   -901.39674    83930.929   -24985.317    2014.8722    -27000.19    90.289008   0.95413464 
   28700    249.38189   -610.59677    83958.642   -25007.165    1989.2315   -26996.397    90.834909   0.95381971 
   28800    254.59189   -882.00319     84008.17   -25023.851    2030.7898   -27054.641    91.095444   0.95325738 
   28900    253.38323    -975.7461    84060.618   -25032.625    2021.1487   -27053.774    91.610901   0.95266261 
   29000    247.33022   -886.07701    84105.618   -25039.296    1972.8661   -27012.162     92.30154    0.9521529 
   29100    254.81371   -1245.2088    84152.432   -25050.037    2032.5592   -27082.597    92.716102   0.95162321 
   29200     245.5978   -773.77578    84164.963   -25082.063    1959.0471    -27041.11     93.31266   0.95148153 
   29300      249.098   -913.08872    84166.385    -25071.34     1986.967   -27058.307    93.719276   0.95146545 
   29400    249.34207   -1146.4315    84159.235   -25064.538    1988.9138   -27053.452    93.423018   0.95154628 
   29500    244.83846   -997.27612     84146.68   -25096.258    1952.9901   -27049.248    93.470176   0.95168826 
   29600    244.74057    -1166.911    84110.896   -25112.854    1952.2093   -27065.064    93.732624   0.95209314 
   29700    251.12197   -967.94821    84047.976   -25091.645    2003.1115   -27094.757    94.212526    0.9528059 
   29800    246.01776   -600.84562     83993.42   -25106.206     1962.397   -27068.603    94.537875   0.95342478 
   29900    247.70613   -826.62395    83951.556   -25101.001    1975.8645   -27076.865    94.711638   0.95390022 
   30000    244.84829   -817.01921    83928.779   -25089.903    1953.0686   -27042.971    95.355294   0.95415909 
   30100    248.13659   -1016.1278     83939.65   -25102.098    1979.2981   -27081.396    96.037726   0.95403551 
   30200    246.46833   -639.00943    83944.381   -25097.183     1965.991   -27063.174    96.559089   0.95398174 
   30300    249.86401   -806.28516    83987.485   -25089.809    1993.0772   -27082.887    97.386431   0.95349214 
   30400    246.75935   -1259.2127    84041.102    -25087.22    1968.3124   -27055.532    98.141128   0.95288383 
   30500     246.6472   -1248.3799    84052.912   -25085.853    1967.4178   -27053.271    98.719087   0.95274995 
   30600    249.32297   -783.28346    84002.731   -25080.585    1988.7615   -27069.347    99.153275   0.95331909 
   30700    245.29066   -790.15309    83951.491   -25082.692    1956.5972    -27039.29    99.621817   0.95390095 
   30800    247.88191   -589.86762    83935.084   -25097.129    1977.2667   -27074.395    99.817275   0.95408741 
   30900    250.78435   -636.59937    83980.039   -25100.444    2000.4184   -27100.863    100.35248   0.95357668 
   31000     246.0576   -1204.3484    84054.238   -25099.182    1962.7148   -27061.897    100.81015   0.95273492 
   31100    251.57353   -1101.5244    84103.069   -25074.411    2006.7134   -27081.124    101.52929   0.95218175 
   31200    247.62761   -905.73196    84105.112   -25075.579    1975.2382   -27050.817    101.53325   0.95215862 
   31300    250.09136   -1268.5288    84087.078   -25075.453    1994.8907   -27070.343    101.76478   0.95236283 
   31400    247.65097   -1152.2158    84050.628   -25093.198    1975.4246   -27068.622    102.06529   0.95277584 
   31500    249.38519   -806.87638    83997.749   -25084.521    1989.2578   -27073.779    102.54967   0.95337563 
   31600    249.67749   -985.54281    83966.009   -25084.432    1991.5894   -27076.021    102.99886   0.95373602 
   31700    254.81894   -960.70342    83940.337    -25081.01    2032.6009   -27113.611    103.64711   0.95402771 
   31800    253.65342   -890.27674    83928.938   -25056.786    2023.3039    -27080.09    104.15456   0.95415728 
   31900    250.14393   -1213.9423    83944.522   -25088.149      1995.31   -27083.459    104.38293   0.95398015 
   32000    248.37617   -1420.8751    83967.795   -25105.931    1981.2092    -27087.14    104.91176   0.95371573 
   32100    246.55844   -1190.3604    83966.735   -25094.035    1966.7098   -27060.745    105.52286   0.95372777 
   32200    244.16721   -1242.2919     83927.68     -25114.3    1947.6358   -27061.936    105.79672   0.95417159 
   32300    247.88298   -984.93222     83857.55   -25122.036    1977.2752   -27099.311    106.05691   0.95496956 
   32400    249.63622   -953.60036    83785.689   -25121.199    1991.2602   -27112.459    106.61784   0.95578861 
   32500    247.23138   -660.85707    83738.415     -25108.6    1972.0776   -27080.678    107.04361    0.9563282 
   32600    242.77752    -497.0101    83755.363   -25135.576    1936.5508   -27072.126    107.65225   0.95613468 
   32700    247.14757    -941.5104    83796.251   -25110.555    1971.4091   -27081.964    107.97003   0.95566814 
   32800    248.37479   -1127.0987    83831.679   -25094.218    1981.1982   -27075.417    108.74309   0.95526426 
   32900    247.16007   -710.16688    83821.387   -25099.707    1971.5088   -27071.216    109.10281   0.95538156 
   33000    255.64115   -1002.9483    83803.118   -25109.114    2039.1594   -27148.273     109.2298   0.95558983 
   33100    250.46604   -806.84645    83770.838   -25077.441    1997.8793    -27075.32    109.43317   0.95595806 
   33200    247.40953   -989.72792    83750.843   -25098.146    1973.4986   -27071.645    109.64133   0.95618629 
   33300    248.97615   -1164.3459    83721.076   -25107.864    1985.9951   -27093.859    109.63143   0.95652626 
   33400    245.97146   -925.92081     83672.74   -25110.866    1962.0277   -27072.894    110.00622   0.95707883 
   33500    243.12566   -672.82203    83661.127   -25115.419    1939.3278   -27054.747    110.14581   0.95721167 
   33600    240.40873   -1071.4234    83709.791   -25124.916    1917.6557   -27042.572    110.95628    0.9566552 
   33700    243.45589   -639.58802    83770.581   -25106.311    1941.9619   -27048.273    111.68771   0.95596099 
   33800    240.81366   -928.27624    83851.849   -25093.008    1920.8857   -27013.894    111.84417   0.95503449 
   33900    244.33331   -1182.2999    83921.671   -25097.652    1948.9608   -27046.613    111.73132    0.9542399 
   34000    249.81252   -1114.3594     83978.03   -25067.608    1992.6665   -27060.275    112.10174    0.9535995 
   34100     246.6002   -1339.3096    83989.784   -25060.508    1967.0429    -27027.55    112.45606   0.95346604 
   34200    253.77797   -1259.6116    83937.076   -25051.917    2024.2974   -27076.215    112.31703   0.95406477 
   34300    246.88629   -805.02768    83846.416   -25056.445    1969.3249    -27025.77    112.54933   0.95509637 
   34400    250.43074   -1034.0705    83767.677   -25068.543    1997.5978   -27066.141    112.87275   0.95599413 
   34500    252.79451   -794.38325    83710.849   -25040.801    2016.4528   -27057.254    113.60066   0.95664312 
   34600    249.42428   -804.89017     83729.66   -25037.978    1989.5696   -27027.547    113.63294   0.95642819 
   34700    248.26375   -893.63499    83773.161   -25031.557    1980.3125    -27011.87    113.96159   0.95593155 
   34800    252.18771   -1057.6696     83809.14   -25033.683    2011.6125   -27045.296    114.24033   0.95552117 
   34900    250.01329    -1348.017    83848.278   -25023.327    1994.2679   -27017.595    114.47648   0.95507516 
   35000    253.96129   -1101.7297    83869.941   -25013.032    2025.7598   -27038.792    114.33391   0.95482847 
   35100    253.11641   -902.55622     83867.21   -24990.048    2019.0204   -27009.068    114.73238   0.95485956 
   35200    245.99073   -1048.0757    83848.987   -25006.648    1962.1814   -26968.829    115.46011   0.95506708 
   35300    249.13708   -1469.0067    83815.542   -25004.425    1987.2787   -26991.703    115.43417   0.95544819 
   35400    252.10732   -1460.9401    83700.694    -25013.11    2010.9713   -27024.081    115.85979   0.95675918 
   35500    252.50434   -1016.0006    83504.272   -25004.752    2014.1382   -27018.891    116.46083    0.9590097 
   35600    250.26253   -853.65131    83337.521   -24996.728     1996.256   -26992.984     116.8538    0.9609286 
   35700    250.37358   -545.65942    83239.307   -25011.083    1997.1419   -27008.225    117.04486    0.9620624 
   35800    245.68379   -872.08041    83221.428   -25040.636    1959.7331   -27000.369    117.49319   0.96226909 
   35900    245.89338   -673.35713    83239.512    -25053.84    1961.4048   -27015.245    118.35722   0.96206002 
   36000    246.74361   -1065.3747    83274.993    -25048.02    1968.1869   -27016.206    118.27011   0.96165012 
   36100      247.167    -779.4637    83343.332   -25059.354    1971.5641   -27030.919    118.89805    0.9608616 
   36200    248.74686   -1156.0392    83430.439   -25054.315    1984.1661   -27038.481    119.76488    0.9598584 
   36300    245.77352   -985.47332    83470.106   -25042.907    1960.4488   -27003.355    119.62651   0.95940225 
   36400    247.96014   -820.36527    83514.085   -25051.895    1977.8906   -27029.786    119.93932   0.95889702 
   36500    248.66467   -1163.7866    83604.037   -25065.577    1983.5105   -27049.087    120.05766   0.95786532 
   36600    242.95882   -902.22898     83680.71   -25033.698    1937.9969   -26971.695    119.97869   0.95698766 
   36700    243.50741   -1045.5666     83750.61   -25008.141    1942.3728   -26950.514    120.94332   0.95618895 
   36800    248.98332   -1032.2332    83782.984   -25000.927    1986.0522   -26986.979    120.94178   0.95581947 
   36900    248.41036   -1530.1982    83793.334   -24995.584     1981.482   -26977.066    120.96072   0.95570141 
   37000    246.23606   -945.14179    83767.577   -24997.611    1964.1383    -26961.75    121.22086   0.95599527 
   37100    251.44736   -1072.3538    83784.183   -25009.773     2005.707    -27015.48    121.51451   0.95580579 
   37200    248.18598    -1109.585    83790.233   -25008.729    1979.6921   -26988.421    121.92129   0.95573678 
   37300    245.91942   -1421.3151    83797.259   -25022.328    1961.6126   -26983.941    122.37865   0.95565665 
   37400    243.39304   -1642.5023    83778.405   -25025.138    1941.4605   -26966.598    122.86554   0.95587171 
   37500    251.88889   -810.96164    83720.107   -25024.565    2009.2289   -27033.794    122.76517   0.95653733 
   37600    242.36921   -818.71797    83718.088   -25019.003    1933.2938   -26952.297    123.37371    0.9565604 
   37700    248.87892   -779.30067    83776.173   -24994.527    1985.2195   -26979.746    124.09586   0.95589718 
   37800     246.7615    -1092.169    83849.535   -25017.877    1968.3296   -26986.207    124.30429   0.95506084 
   37900    252.68954   -994.13644    83904.631   -24996.462    2015.6155   -27012.077    124.50885    0.9544337 
   38000    256.02598   -680.47739    83970.844   -24975.442    2042.2291   -27017.671    125.23812   0.95368111 
   38100    249.11387   -889.35104    84075.904   -24971.949    1987.0936   -26959.042    125.08368    0.9524894 
   38200    252.28183   -1050.6899    84216.236    -25005.78    2012.3633   -27018.143    125.95937   0.95090224 
   38300    253.05093   -1217.6449     84385.52   -25015.248    2018.4982   -27033.746    126.39737   0.94899465 
   38400    253.42873   -968.44709     84556.15   -24981.853    2021.5117   -27003.364    127.07535   0.94707963 
   38500    257.24887   -1173.3459    84702.568   -24975.154    2051.9836   -27027.138    127.54131    0.9454425 
   38600    254.40969   -1747.8641    84797.456   -24948.532    2029.3365   -26977.869    128.48632   0.94438455 
   38700    254.39307   -1513.4819    84782.743   -24978.809    2029.2039   -27008.012    129.11497   0.94454843 
   38800    256.99828   -1338.4131    84685.219   -24977.466    2049.9848   -27027.451      128.831   0.94563618 
   38900    255.35612   -840.93624    84547.523   -25002.052    2036.8858   -27038.937    129.30943   0.94717626 
   39000     259.4956   -356.43499    84437.928   -24991.906     2069.905   -27061.811    130.34927   0.94840565 
   39100    254.65516   -666.75151    84398.594   -24982.822    2031.2945   -27014.116    130.62865   0.94884765 
   39200    259.85411   -970.28525     84416.97   -24999.734    2072.7647   -27072.499    130.68473    0.9486411 
   39300    250.66315   -1225.8077    84460.136    -25011.18    1999.4517   -27010.632    130.85395   0.94815627 
   39400    259.46805   -615.22993    84490.355    -25011.62    2069.6852   -27081.305     130.4967   0.94781715 
   39500    251.63632   -796.66818    84559.693   -25010.502    2007.2143   -27017.716    130.68714   0.94703995 
   39600    254.06554   -515.69544     84637.92   -25003.381    2026.5913   -27029.972    131.12249   0.94616465 
   39700    249.32081   -1228.4245    84705.918   -24998.759    1988.7443   -26987.504    131.38277    0.9454051 
   39800    253.29542   -1064.8283    84749.503   -25016.243    2020.4484   -27036.691    131.72763    0.9449189 
   39900    249.96981   -1409.5334    84782.544   -25024.216    1993.9211   -27018.137    132.14426   0.94455065 
   40000     251.1599   -1212.5461    84758.104   -24995.703     2003.414   -26999.117    132.42004   0.94482301 
   40100     252.8665   -1050.7546     84700.75   -24976.213     2017.027    -26993.24     133.0203   0.94546279 
   40200    253.21618   -1113.2464    84614.551   -24984.648    2019.8163   -27004.465    133.30707   0.94642595 
   40300    249.20492   -1389.1794    84522.237   -24980.526    1987.8198   -26968.345    133.60463   0.94745962 
   40400    254.60946   -1046.8447     84388.25   -24998.872      2030.93   -27029.802    133.90787   0.94896396 
   40500    255.29876   -796.77668    84261.159   -24990.763    2036.4283   -27027.191    134.40723   0.95039528 
   40600    248.11477   -967.06958    84139.657    -24993.73    1979.1241   -26972.855    134.41185   0.95176769 
   40700    255.36129   -818.67989    84009.257   -24998.845    2036.9271   -27035.772     134.9338   0.95324503 
   40800    254.59978   -1002.3283    83898.703   -24991.317    2030.8528    -27022.17    135.27707   0.95450114 
   40900    259.92153   -1083.6459    83825.769   -24997.436    2073.3025   -27070.739     135.6339   0.95533161 
   41000     256.5431   -1059.2425    83818.783   -25018.196    2046.3539    -27064.55    136.30291   0.95541124 
   41100    261.45664   -883.54889    83835.735   -25025.928    2085.5475   -27111.475    136.55589   0.95521805 
   41200    249.80917   -790.08007    83882.723   -25028.899    1992.6398   -27021.539    136.71336   0.95468297 
   41300    251.10785   -1061.9767    83920.199   -25023.706    2002.9989   -27026.705    137.16729   0.95425664 
   41400    248.80847   -1289.9347    83902.083   -25034.085    1984.6575   -27018.743    138.08189   0.95446268 
   41500    247.89858   -945.76398    83838.314   -25028.612    1977.3996   -27006.012    138.77972   0.95518866 
   41600    249.19019   -972.45352    83781.738   -25035.663    1987.7024   -27023.365    139.60387   0.95583369 
   41700    254.58295   -968.41141    83772.511    -25054.87    2030.7185   -27085.589    140.10466   0.95593897 
   41800    244.96992   -1273.3766    83805.394   -25040.224    1954.0388   -26994.262    141.20695   0.95556387 
   41900    245.37233   -1169.8198    83832.366   -25059.673    1957.2486   -27016.921    141.36812   0.95525644 
   42000    248.84397   -1288.5414    83831.231   -25040.523    1984.9406   -27025.463    141.56855   0.95526937 
   42100    248.37756   -928.17593    83786.541   -25045.988    1981.2203   -27027.208    141.46302   0.95577889 
   42200    252.90247    -912.6155    83767.386   -25073.154    2017.3139   -27090.468    141.06492   0.95599745 
   42300    250.43544   -750.90402    83796.309   -25068.661    1997.6353   -27066.297     141.4947   0.95566748 
   42400    256.12939    -786.6507    83845.175    -25069.67    2043.0539   -27112.724    141.77781    0.9551105 
   42500    243.92449   -772.45053     83946.21   -25097.639    1945.6997   -27043.339    142.16723   0.95396097 
   42600     242.9738   -879.09234    84111.574   -25111.001    1938.1164   -27049.118    142.58686   0.95208547 
   42700    247.95158   -1306.6366    84317.184   -25115.509    1977.8224   -27093.331     143.2252   0.94976378 
   42800    249.90088     -1739.65     84506.26   -25092.458    1993.3713   -27085.829    143.95937   0.94763876 
   42900    248.45551   -1927.4632    84593.536   -25111.702    1981.8421   -27093.544    144.45242   0.94666107 
   43000    244.53958   -1162.1143    84539.313   -25100.871    1950.6061   -27051.477    144.49663   0.94726826 
   43100    244.06369   -1301.6641    84419.455   -25119.605    1946.8101   -27066.415     144.9636   0.94861318 
   43200    248.25932   -1554.0813    84244.134   -25129.637    1980.2771   -27109.914    145.59031   0.95058734 
   43300    251.35991    -512.9546    83985.509   -25143.142    2005.0095   -27148.151     145.1633   0.95351458 
   43400    248.76065   -668.05337    83797.367   -25113.484    1984.2761    -27097.76    144.73756   0.95565541 
   43500    246.90922   -855.43308    83705.513   -25109.213    1969.5078   -27078.721    145.12634    0.9567041 
   43600    246.98199   -577.40866    83659.844    -25126.66    1970.0883   -27096.748    145.74485   0.95722636 
   43700    250.05425    -1009.078    83652.532   -25108.588    1994.5946   -27103.183    146.09786   0.95731002 
   43800    246.00406   -824.13725    83681.905   -25105.003    1962.2877   -27067.291    146.85731     0.956974 
   43900    251.22446   -1150.2591    83771.543   -25084.499     2003.929   -27088.428    146.97838   0.95595001 
   44000    250.11197   -1194.8483    83850.052   -25082.645    1995.0551     -27077.7    147.52863   0.95505495 
   44100    250.54795   -579.04788    83880.275   -25099.847    1998.5328    -27098.38    148.31471   0.95471084 
   44200    247.68171   -842.65542    83903.964   -25135.163    1975.6697   -27110.833     148.8099   0.95444128 
   44300    245.96301   -725.35808    83938.497   -25132.041    1961.9603   -27094.001    149.47013   0.95404862 
   44400    248.77335   -1159.6782    83977.862   -25114.396    1984.3773   -27098.774    150.27394    0.9536014 
   44500    254.39352   -1012.8314    83977.263   -25137.661    2029.2075   -27166.868    151.14971   0.95360821 
   44600    247.46934   -1076.2082    83987.639   -25121.841    1973.9757   -27095.816    151.88945    0.9534904 
   44700    246.25172   -844.25182    83989.508   -25104.871    1964.2632   -27069.135    152.85001   0.95346918 
   44800    246.11798   -1166.1156    84009.254   -25122.781    1963.1964   -27085.978    153.40405   0.95324507 
   44900    243.55574   -1234.4956    83993.775   -25126.441    1942.7583   -27069.199    153.53483   0.95342075 
   45000    249.55249   -992.89667     83953.75   -25134.655    1990.5923   -27125.248     153.4544   0.95387529 
   45100    245.28007   -845.22277    83938.316   -25140.341    1956.5127   -27096.853    153.68082   0.95405067 
   45200    246.59308   -649.03437    83975.539   -25151.728    1966.9861   -27118.714    154.10163   0.95362779 
   45300    250.62335   -888.34602    84082.596   -25124.479    1999.1342   -27123.613    154.95542   0.95241359 
   45400    244.74189   -1420.5222    84248.824   -25110.886    1952.2198   -27063.106    154.83802   0.95053443 
   45500    250.77574   -1795.7772     84342.57   -25107.134    2000.3497   -27107.484    155.65336   0.94947792 
   45600    247.90987   -1239.8561    84310.949    -25084.29    1977.4897    -27061.78     156.0911   0.94983401 
   45700    248.51745   -1231.0129    84213.861   -25086.812    1982.3362   -27069.149    156.15191   0.95092906 
   45800    240.15176   -1058.0201    84094.257   -25107.787     1915.606   -27023.392    156.58555   0.95228153 
   45900    249.24381   -746.12895    83969.607   -25093.835      1988.13   -27081.965    156.27564   0.95369516 
   46000    256.30217   -952.59153    83871.653   -25074.492    2044.4321   -27118.924    156.40374   0.95480898 
   46100    256.26449   -1025.9878    83826.987   -25070.471    2044.1315   -27114.602    156.70449   0.95531773 
   46200    251.87976   -709.43068    83838.472   -25099.529    2009.1561   -27108.685    157.70448   0.95518686 
   46300    253.56154   -938.51078    83888.032   -25109.108     2022.571   -27131.679    158.12113   0.95462255 
   46400    247.35103   -925.53837    83970.067   -25117.726     1973.032   -27090.758    158.72135   0.95368993 
   46500    241.67774   -832.50124    84070.968   -25124.262    1927.7782    -27052.04    159.41272   0.95254533 
   46600     252.7207   -927.34674    84165.652   -25129.356     2015.864    -27145.22    160.13498   0.95147373 
   46700    248.22404   -449.68892    84271.733   -25112.351    1979.9957   -27092.346     160.6451   0.95027603 
   46800    245.91043   -788.44389    84389.282   -25110.469    1961.5409    -27072.01    161.22863   0.94895235 
   46900    246.57346   -1532.4658    84475.673    -25096.19    1966.8296    -27063.02    161.77981   0.94798188 
   47000     254.8186   -1161.3188    84485.126   -25059.782    2032.5982    -27092.38    161.87807   0.94787581 
   47100    253.94422   -1242.8702    84410.451   -25063.341    2025.6235   -27088.965     162.3043   0.94871437 
   47200    253.01654   -1220.7144     84287.11     -25077.3    2018.2238   -27095.524     162.4186   0.95010266 
   47300    247.06736   -683.14874    84119.196   -25097.479    1970.7693   -27068.248    162.07981    0.9519992 
   47400    246.49854   -542.68011    83985.992   -25116.971     1966.232   -27083.203    162.30555    0.9535091 
   47500    242.08554   -809.27966    83930.152   -25124.291    1931.0311   -27055.322    162.71906   0.95414348 
   47600     249.5598   -1216.7837     83896.56   -25139.322    1990.6506   -27129.972    163.00948   0.95452551 
   47700    244.75166   -938.81737    83865.094   -25152.595    1952.2977   -27104.893    163.38357   0.95488365 
   47800    250.46845    -1286.684    83855.276   -25153.069    1997.8986   -27150.967    163.51569   0.95499545 
   47900    249.31633   -675.67485    83858.961   -25147.126    1988.7085   -27135.834    163.88939   0.95495349 
   48000    243.26248   -990.66691    83907.693   -25149.062    1940.4191   -27089.481    164.25746   0.95439887 
   48100    247.19402   -1079.6572    83950.236    -25148.03    1971.7796    -27119.81    164.43283   0.95391521 
   48200    248.33098   -630.79749    83977.478   -25121.324    1980.8488   -27102.172    164.64923   0.95360577 
   48300    251.30517   -796.04225    84005.396   -25105.617    2004.5728    -27110.19    164.71843   0.95328885 
   48400     251.7378   -1191.4668    84043.044   -25127.831    2008.0237   -27135.855    165.46131   0.95286182 
   48500    250.73439   -996.06822    84071.434    -25125.77    2000.0199    -27125.79    166.13776   0.95254005 
   48600    250.76408   -915.12742    84083.451   -25115.206    2000.2567   -27115.463    166.50173   0.95240391 
   48700    247.10562   -1223.7761    84099.491   -25113.555    1971.0745   -27084.629    167.55192   0.95222227 
   48800     251.4447   -753.29396    84081.213    -25092.26    2005.6858   -27097.946    167.94539   0.95242926 
   48900    249.44826   -1137.3209    84051.946   -25097.921    1989.7609   -27087.682    167.66715    0.9527609 
   49000    249.09314   -809.05396     84014.23   -25098.169    1986.9282   -27085.098     167.5118   0.95318862 
   49100    252.60639   -864.72193    84001.924   -25078.843    2014.9522   -27093.795    167.51139   0.95332825 
   49200    251.02749   -484.69147    84019.064   -25068.452    2002.3579    -27070.81    168.51487   0.95313377 
   49300     254.4023   -1054.2701    84058.856   -25051.183    2029.2775   -27080.461    169.83693   0.95268257 
   49400    249.59726    -725.7716    84112.533   -25075.767    1990.9494   -27066.716    170.97712   0.95207462 
   49500    253.39723   -780.39387    84187.878   -25068.129    2021.2605   -27089.389    171.33155   0.95122254 
   49600     246.2664   -1082.8606     84263.35   -25077.755    1964.3803   -27042.135    171.83712   0.95037056 
   49700    252.08789   -1210.7782    84310.269    -25096.81    2010.8163   -27107.626    172.32222   0.94984167 
   49800    250.30759   -760.99532    84312.666     -25118.7    1996.6155   -27115.315    173.19373   0.94981468 
   49900    250.23186   -1208.8372    84317.943   -25117.154    1996.0114   -27113.165    173.52956   0.94975523 
   50000    254.53661   -922.99782    84335.588   -25132.493    2030.3488   -27162.841    173.93909   0.94955652 
   50100    257.38176   -602.21627    84383.562   -25124.915    2053.0436   -27177.959    174.78858   0.94901668 
   50200    249.04854   -1017.6683    84467.576   -25102.697    1986.5725    -27089.27    175.56852   0.94807275 
   50300    249.79535   -1027.5601    84559.313   -25107.604    1992.5295   -27100.134    176.09492   0.94704421 
   50400    246.82876   -1243.8702    84656.972   -25105.869     1968.866   -27074.735    176.48302   0.94595171 
   50500    250.21624   -1534.6266    84709.421   -25110.151    1995.8868   -27106.038    176.96455   0.94536601 
   50600    248.25229   -799.83919    84705.984   -25117.745    1980.2211   -27097.966    177.46471   0.94540437 
   50700    251.16438   -1234.3735    84682.216   -25116.783    2003.4498   -27120.233    177.49097   0.94566972 
   50800    250.58348   -1301.8248    84612.523   -25121.498    1998.8161   -27120.314    177.69039   0.94644865 
   50900     247.6324   -1185.2492    84515.889   -25135.571    1975.2764   -27110.847     178.5002   0.94753079 
   51000    247.16365   -1033.2488    84400.885   -25127.584    1971.5373   -27099.122    179.31268   0.94882189 
   51100    253.93187   -849.96771    84260.902   -25133.551    2025.5251   -27159.076    179.36971   0.95039817 
   51200    250.62401   -486.27494    84144.419    -25132.22    1999.1394   -27131.359    179.82317   0.95171383 
   51300    247.33947   -739.51661    84086.995   -25144.209    1972.9398   -27117.149    180.11904   0.95236377 
   51400    248.91915   -813.76318    84072.514   -25179.633    1985.5403   -27165.173    180.88408    0.9525278 
   51500    241.94469   -1213.2662    84098.643   -25180.909    1929.9076   -27110.817    180.83837   0.95223187 
   51600    250.99941   -858.14597     84125.15   -25165.162    2002.1338   -27167.295    181.08088   0.95193182 
   51700    249.60162   -929.42511    84202.587   -25156.387    1990.9842   -27147.371     181.2075   0.95105637 
   51800    244.73893   -586.49664    84298.949   -25144.192    1952.1962   -27096.389    181.85906   0.94996922 
   51900    246.21147   -713.51622     84414.61   -25155.503    1963.9421   -27119.445    182.36246   0.94866763 
   52000    245.05064   -1042.9138    84562.032   -25147.463    1954.6826   -27102.146    183.00342   0.94701375 
   52100    245.37084   -1067.1555    84700.142   -25170.092    1957.2367   -27127.329    183.64879   0.94546957 
   52200    245.83042   -1591.9178    84802.691   -25158.514    1960.9027   -27119.417    184.64288   0.94432625 
   52300    246.46027   -1543.8356    84784.746   -25132.216    1965.9267   -27098.142     185.0314   0.94452613 
   52400    247.84449   -1534.8389    84673.455   -25128.236    1976.9682   -27105.205    185.25815   0.94576756 
   52500    244.08181   -1182.7525    84554.079   -25138.112    1946.9546   -27085.066    185.93224   0.94710283 
   52600     243.7285   -1184.9718    84445.354   -25136.962    1944.1364   -27081.099    185.81627   0.94832224 
   52700    243.79235   -786.48226    84366.701    -25156.36    1944.6457   -27101.006     185.9963   0.94920633 
   52800    252.11036   -360.88938    84343.312   -25143.224    2010.9955    -27154.22    186.26008   0.94946956 
   52900     250.9559   -797.20149    84357.995   -25141.921    2001.7868   -27143.708    187.02528    0.9493043 
   53000    251.64041    -854.6152    84379.456   -25156.998    2007.2469   -27164.245     188.2911   0.94906286 
   53100    243.31234   -1138.1398    84415.648   -25155.009    1940.8168   -27095.826    188.88994   0.94865596 
   53200    247.49028   -875.13506    84458.611   -25135.092    1974.1427   -27109.234    189.66591   0.94817339 
   53300    252.81714   -1209.5843    84507.281   -25113.974    2016.6333   -27130.607     189.3418   0.94762731 
   53400    246.22984   -1526.3777     84524.72   -25099.053    1964.0887   -27063.141    189.96854    0.9474318 
   53500    247.69318   -1221.3109    84468.395   -25112.295    1975.7612   -27088.056    190.71351   0.94806356 
   53600    248.06349   -817.36289    84389.299   -25111.436    1978.7151   -27090.151    190.88951   0.94895216 
   53700    254.42035   -1011.9941     84284.55   -25108.106    2029.4215   -27137.528    191.18836   0.95013152 
   53800    243.30741   -818.59417    84192.256   -25128.558    1940.7775   -27069.335    191.55039   0.95117308 
   53900    250.49428   -946.09636    84146.704   -25120.252    1998.1046   -27118.356    191.52624   0.95168799 
   54000    248.42019   -1004.5762    84145.876   -25112.742    1981.5603   -27094.302      191.659   0.95169736 
   54100    255.13682   -1196.9162    84183.455   -25115.065    2035.1365   -27150.201    192.26509   0.95127252 
   54200    253.71092    -1435.743    84214.792   -25106.115    2023.7626   -27129.878    193.47249   0.95091854 
   54300     255.2727   -588.86142    84197.369   -25095.533    2036.2204   -27131.754     194.7127   0.95111532 
   54400    257.48166   -555.49929    84209.792   -25090.668    2053.8405   -27144.508    195.72127   0.95097501 
   54500    255.68924   -1121.9508    84267.662   -25060.708     2039.543   -27100.251    195.95365   0.95032193 
   54600    253.54561   -556.51865    84318.626   -25053.296     2022.444    -27075.74    196.19432   0.94974754 
   54700    247.44709   -992.94008     84391.03   -25034.647    1973.7983   -27008.445    196.23331    0.9489327 
   54800    251.85195   -834.45208    84467.406   -25029.626    2008.9342    -27038.56     196.9059   0.94807466 
   54900    249.80395    -1205.197    84538.735   -24999.619    1992.5981   -26992.217     196.7492   0.94727473 
   55000    251.70192    -1123.476    84562.323   -25006.629    2007.7376   -27014.367    197.32053    0.9470105 
   55100    251.86886   -1397.8947    84547.122   -25039.895    2009.0691   -27048.964    198.11581   0.94718076 
   55200    256.68609   -1076.7975    84498.592   -25017.867    2047.4945   -27065.362    197.94673   0.94772475 
   55300     255.3579   -1061.6816    84464.636   -25018.849       2036.9   -27055.749    198.06735   0.94810575 
   55400    255.42016   -992.42249    84436.603   -25025.734    2037.3966   -27063.131    198.47548   0.94842052 
   55500    254.15217   -1372.2034    84435.154    -25040.99    2027.2823   -27068.272    198.82959    0.9484368 
   55600    260.92459   -811.04696    84465.347   -25051.661    2081.3035   -27132.965    199.32504   0.94809777 
   55700    255.10277   -683.07329    84505.508   -25021.408     2034.865   -27056.273    199.50682   0.94764719 
   55800    257.76426   -1145.6353    84575.555   -25033.779    2056.0947   -27089.874    200.41347   0.94686233 
   55900    255.73047   -1012.2575     84632.31    -25017.73    2039.8718   -27057.602      201.103   0.94622736 
   56000    254.41654   -469.87428    84658.151   -25017.208    2029.3911   -27046.599    201.38664   0.94593853 
   56100    251.60734   -670.20275    84661.981   -25017.426    2006.9831   -27024.409    200.69672   0.94589575 
   56200    253.15312   -1318.1603    84674.785   -25013.239    2019.3133   -27032.552    200.98071   0.94575271 
   56300    244.35748   -897.38976    84640.145   -25035.982    1949.1535   -26985.136    201.03979   0.94613977 
   56400    249.71946    -1072.902    84564.381   -25022.277    1991.9242   -27014.202    201.47088   0.94698744 
   56500    249.96895    -1224.535    84476.642   -25025.783    1993.9142   -27019.698    201.62601     0.947971 
   56600     253.7736   -1176.8404    84384.851   -25000.334    2024.2626   -27024.597    201.73272   0.94900218 
   56700     260.7554    -1052.423    84275.887   -24991.709    2079.9539   -27071.662    201.94171   0.95022918 
   56800    250.66097   -762.43538    84172.844   -25000.481    1999.4343   -26999.915    202.66546   0.95139244 
   56900    252.34342   -641.25746     84120.16   -25032.646    2012.8545   -27045.501    203.28109   0.95198829 
   57000    249.47684   -769.41645    84105.019   -25010.626    1989.9889   -27000.615     204.3455   0.95215967 
   57100    247.68952   -1197.4692    84113.275   -25015.895     1975.732   -26991.628    205.21412   0.95206621 
   57200    258.59765   -1360.2119     84079.87   -24978.681    2062.7423   -27041.424    205.96208   0.95244447 
   57300    253.09948   -1310.5535    84017.109   -24980.678    2018.8854   -26999.563    206.25873   0.95315595 
   57400    254.66468   -916.85464    83953.368   -24972.378    2031.3704   -27003.749    206.37727   0.95387962 
   57500    252.11319   -1209.6648    83905.581   -24960.598    2011.0181   -26971.616    206.85551    0.9544229 
   57600    249.91933   -1166.4129    83874.797   -24970.598    1993.5185   -26964.116    207.49955   0.95477319 
   57700    246.70946   -804.46691    83864.305   -24984.087    1967.9145   -26952.001    208.00535   0.95489264 
   57800    247.12089    -1207.889    83853.491   -24981.373    1971.1963    -26952.57    207.63566   0.95501578 
   57900    253.37902   -857.99294     83832.89   -25004.185    2021.1152     -27025.3      208.086   0.95525047 
   58000    256.14824   -928.39703    83836.171   -25018.214    2043.2043   -27061.418    208.65416   0.95521308 
   58100    249.32772   -764.03208    83870.247   -25034.926    1988.7994   -27023.725    208.77328   0.95482499 
   58200    251.22912   -1121.4836    83923.869       -25056    2003.9662   -27059.966    209.14112   0.95421491 
   58300    249.03654   -1098.8071    83989.589   -25044.053    1986.4768    -27030.53    209.88952   0.95346827 
   58400    252.12493   -740.28732    84065.486   -25043.791    2011.1117   -27054.903    209.99006   0.95260745 
   58500    249.10354   -936.01062    84170.245   -25071.281    1987.0112   -27058.293    211.01978   0.95142181 
   58600     246.3625   -1067.9351    84251.213   -25079.086    1965.1468   -27044.233    211.28532   0.95050747 
   58700    248.83013   -1217.3864    84313.829   -25074.514    1984.8302   -27059.344    212.42973   0.94980158 
   58800    252.65212   -1377.3717    84322.114    -25043.75     2015.317   -27059.067    212.74445   0.94970825 
   58900    252.65518   -989.61921    84286.431   -25052.609    2015.3413    -27067.95    213.01233   0.95011031 
   59000    249.99598   -1107.1495    84241.764   -25044.606    1994.1298   -27038.736    213.74244   0.95061408 
   59100     246.6901   -1058.1602    84209.051   -25043.435    1967.7601   -27011.195    213.44986   0.95098337 
   59200    250.56467   -1178.6531    84211.142   -25036.221    1998.6661   -27034.887    213.38744   0.95095977 
   59300    256.47052   -951.67605    84214.022   -25041.931     2045.775   -27087.706    214.29219   0.95092723 
   59400    249.93936   -1150.5531    84228.307   -25037.011    1993.6782   -27030.689    214.59366   0.95076596 
   59500    248.72744   -1386.3281    84246.041   -25015.422    1984.0112   -26999.434      214.427   0.95056583 
   59600     246.8542   -1009.1938    84257.841   -25006.057     1969.069   -26975.126    214.68778    0.9504327 
   59700    245.87307    -1397.258     84248.11    -25016.25    1961.2429   -26977.493    215.24624   0.95054248 
   59800    249.88055   -971.46782    84196.081   -24983.015    1993.2091   -26976.224     214.9058   0.95112987 
   59900    254.62872     -1004.41    84134.516   -24993.128    2031.0836   -27024.211    214.37542   0.95182585 
   60000    247.02999    -1285.896    84080.756   -25011.029    1970.4712   -26981.501    214.61224   0.95243444 
   60100    248.54262    -1001.599    84004.405   -24992.733    1982.5369    -26975.27    214.18344    0.9533001 
   60200    253.82228   -712.67719    83954.766   -24995.921    2024.6509   -27020.572    214.30703   0.95386374 
   60300    249.05965   -1176.2808    83938.911   -25024.434    1986.6611   -27011.095    214.12095   0.95404391 
   60400    253.24565   -902.98875     83933.06   -25026.015    2020.0513   -27046.066    215.00723   0.95411042 
   60500    252.01881    -962.9696    83965.823     -25029.8    2010.2652   -27040.065     215.2171   0.95373813 
   60600    258.56994   -1180.2903    84045.944   -25020.347    2062.5213   -27082.868    215.32899   0.95282894 
   60700    250.28855   -1073.9846    84115.395   -25000.034    1996.4636   -26996.498    216.14601   0.95204222 
   60800    251.01573   -647.99994     84163.47   -25040.979     2002.264   -27043.243    216.47757    0.9514984 
   60900    249.05224   -1144.3849    84220.944   -25057.009     1986.602   -27043.611    216.12628   0.95084908 
   61000    254.33486   -664.26295    84262.782   -25040.789    2028.7396   -27069.529    217.02526   0.95037697 
   61100    253.28217   -979.98979    84309.866   -25047.418    2020.3427   -27067.761    217.10101   0.94984622 
   61200    254.07412   -871.64837    84320.727   -25039.743    2026.6597   -27066.403    216.88427   0.94972387 
   61300    252.87143   -925.66928    84341.608   -25049.494    2017.0663    -27066.56    217.78021   0.94948874 
   61400    245.14774   -1264.6631    84334.735   -25047.736    1955.4571   -27003.193    218.09072   0.94956612 
   61500    249.98675   -1023.6191    84282.072    -25070.19    1994.0562   -27064.246      218.783   0.95015945 
   61600    246.60486   -1239.3931    84210.773   -25097.971    1967.0801   -27065.051    218.61192   0.95096393 
   61700    246.20977    -989.6281    84079.043    -25111.61    1963.9286   -27075.539    219.62462   0.95245384 
   61800    249.64869   -871.20319    83903.193   -25108.401    1991.3597   -27099.761    219.52529   0.95445005 
   61900     247.7966   -283.46279    83741.206   -25107.563    1976.5862   -27084.149    219.02971   0.95629633 
   62000    244.43469   -492.89875    83678.461   -25092.705    1949.7694   -27042.474    219.17108   0.95701339 
   62100    249.31246   -920.55488    83703.893   -25098.661    1988.6777   -27087.339     219.4302   0.95672261 
   62200     246.1375    -1085.154    83771.553    -25112.17    1963.3521   -27075.522    220.27209    0.9559499 
   62300    249.88114   -865.85844    83827.955   -25080.588    1993.2138   -27073.802    220.64442   0.95530671 
   62400    244.15552   -900.05465    83928.708   -25079.762    1947.5426   -27027.304      221.096   0.95415989 
   62500    244.97206   -825.92208    84065.918   -25110.165    1954.0558   -27064.221    221.62091   0.95260254 
   62600    247.89372   -1031.7582    84211.916   -25081.058    1977.3609   -27058.419    222.75915   0.95095102 
   62700     252.0348   -906.13206    84333.859   -25088.474    2010.3928   -27098.867    223.21312   0.94957598 
   62800    250.75693   -1382.0926    84429.034   -25095.193    2000.1997   -27095.393    224.04153   0.94850555 
   62900    245.32013   -1281.6417    84476.711   -25105.116    1956.8323   -27061.949     224.4859   0.94797023 
   63000    242.62495   -1430.3053    84419.781   -25104.012    1935.3338   -27039.346    224.92536   0.94860951 
   63100    246.86732   -1172.4889    84267.517    -25114.68    1969.1736   -27083.853    225.10234   0.95032357 
   63200    251.55109   -1003.9215     84118.81   -25088.644    2006.5344   -27095.178    224.75101   0.95200357 
   63300    247.61114   -959.83228    84018.489   -25093.522    1975.1068   -27068.628    224.91174    0.9531403 
   63400    245.34286   -1205.1917    83961.415   -25096.493    1957.0135   -27053.506    224.67638   0.95378821 
   63500    249.85096    -1110.155    83911.531   -25095.543    1992.9731   -27088.516    224.58102   0.95435522 
   63600    248.20159   -978.27041     83835.99   -25129.293    1979.8166    -27109.11    224.06132   0.95521515 
   63700    249.81389   -984.97101    83757.297   -25135.615    1992.6774   -27128.293    224.65383   0.95611261 
   63800    247.63763   -1095.0576    83687.997   -25144.268    1975.3181   -27119.586    225.01776   0.95690433 
   63900    243.36439    -1019.861    83615.098   -25164.599     1941.232   -27105.831    225.55629    0.9577386 
   64000    245.88733   -681.67287     83572.32   -25160.289    1961.3566   -27121.646    225.83681   0.95822884 
   64100    243.10374   -902.67424    83591.468   -25154.826    1939.1529   -27093.979    226.32431   0.95800935 
   64200     239.4121    -889.2648    83626.535    -25157.48    1909.7059   -27067.186    226.27015   0.95760762 
   64300    245.75639   -405.34739    83686.715   -25165.588    1960.3122     -27125.9    227.03722     0.956919 
   64400    249.48605   -1027.5113    83779.746   -25157.986    1990.0623   -27148.048    228.01764   0.95585641 
   64500    241.24987   -945.33635    83852.265   -25143.537    1924.3652   -27067.902    228.52673   0.95502974 
   64600    242.87198   -1305.5068    83906.163   -25134.469    1937.3042   -27071.773    229.23148   0.95441628 
   64700    248.19627   -1080.8966    83937.498   -25142.521    1979.7742   -27122.295     229.2282   0.95405998 
   64800    243.28666   -1159.1726    83948.523   -25156.963    1940.6119   -27097.575    229.07165   0.95393468 
   64900    245.26334   -1173.7724    83952.189   -25152.649    1956.3792   -27109.028     230.2378   0.95389302 
   65000     252.1135   -712.80854    83947.681   -25118.082    2011.0206   -27129.103    230.46309   0.95394424 
   65100    247.96645   -1159.0946    83942.432    -25134.11     1977.941   -27112.051    231.53216    0.9540039 
   65200    246.67488   -851.02765    83900.796   -25124.307    1967.6386   -27091.946    231.01536   0.95447733 
   65300    249.22377   -877.85442    83869.182   -25123.763    1987.9702   -27111.733    231.15971   0.95483711 
   65400    245.73667   -510.82435    83868.026   -25131.162    1960.1549   -27091.317    231.92958   0.95485027 
   65500    245.15723   -708.00922    83941.078   -25133.046    1955.5328   -27088.579    232.33442   0.95401928 
   65600    244.12597   -1247.9591    84079.756   -25138.488    1947.3068   -27085.795     233.2904   0.95244576 
   65700    250.30531   -1262.4732    84224.294    -25133.87    1996.5972   -27130.467    233.96777   0.95081127 
   65800    246.02273   -1122.3177    84322.253    -25157.63    1962.4366   -27120.067       234.26   0.94970669 
   65900    244.92181    -980.3641    84374.101   -25150.896     1953.655   -27104.551    234.55694   0.94912309 
   66000    248.72715   -1153.5173    84342.641    -25172.44    1984.0088   -27156.449    234.93608   0.94947712 
   66100    244.80242   -1353.4937    84221.894    -25180.83    1952.7026   -27133.533    235.44893   0.95083836 
   66200    247.57519   -959.95274    84009.137   -25182.662    1974.8201   -27157.482    235.08875    0.9532464 
   66300    246.01756   -367.80379    83779.722   -25184.039    1962.3954   -27146.434    234.99025   0.95585668 
   66400    246.16378   -405.00248     83642.39   -25186.317    1963.5617   -27149.878    235.02632    0.9574261 
   66500    239.25281   -635.55333     83588.15   -25185.024    1908.4354   -27093.459    234.60554   0.95804737 
   66600    247.62607   -732.43696    83608.476   -25164.014    1975.2259    -27139.24    234.99363   0.95781446 
   66700    246.40627   -678.08517    83671.013   -25151.252     1965.496   -27116.748    235.55243   0.95709858 
   66800    240.93303   -1140.4905    83746.015   -25164.846    1921.8379   -27086.684    235.61066   0.95624141 
[...]
  184400    250.74521    -1206.205    84242.615   -24995.239    2000.1062   -26995.345    661.60185   0.95060448 
  184500    253.16454   -1073.1084    84242.615   -24995.347    2019.4044   -27014.751    662.33652   0.95060448 
  184600    254.80424   -779.11474    84242.615   -24995.299    2032.4836   -27027.783    662.58871   0.95060448 
  184700    249.97467   -1240.2402    84242.615   -24994.898    1993.9598   -26988.858     663.5883   0.95060448 
  184800    253.22132   -1284.9345    84242.615   -24995.312    2019.8573   -27015.169    663.18899   0.95060448 
  184900    253.97537   -948.98016    84242.615   -24995.358    2025.8721    -27021.23    663.18161   0.95060448 
  185000    254.81889   -1142.3487    84242.615    -24995.39    2032.6005    -27027.99    662.94026   0.95060448 
  185100    251.17576    -1087.329    84242.615   -24995.097    2003.5405   -26998.637    663.14216   0.95060448 
  185200    249.98211   -1377.8193    84242.615   -24995.166    1994.0192   -26989.185    664.36295   0.95060448 
  185300    254.74314   -1294.4943    84242.615   -24995.402    2031.9963   -27027.398    665.11641   0.95060448 
  185400    257.56365   -983.35811    84242.615   -24995.297    2054.4945   -27049.791    665.86301   0.95060448 
  185500    251.29663   -1682.0957    84242.615   -24994.949    2004.5047   -26999.453    666.41541   0.95060448 
  185600    249.91553   -1664.1874    84242.615   -24995.045    1993.4881   -26988.533    667.21791   0.95060448 
  185700    253.51129   -1587.6381    84242.615   -24995.484    2022.1703   -27017.654    667.53399   0.95060448 
  185800      246.583   -1226.1508    84242.615    -24994.92    1966.9057   -26961.825    668.07922   0.95060448 
  185900    253.45199   -852.30933    84242.615   -24995.248    2021.6972   -27016.945    668.24036   0.95060448 
  186000    247.49397   -1039.7703    84242.615   -24994.911    1974.1722   -26969.083    667.55284   0.95060448 
  186100    248.47825   -1280.2137    84242.615    -24994.94    1982.0234   -26976.964     668.2411   0.95060448 
  186200    255.74539   -986.67802    84242.615   -24995.245    2039.9909   -27035.236    668.97268   0.95060448 
  186300    251.62295    -1071.097    84242.615   -24995.261    2007.1076   -27002.369    670.43331   0.95060448 
  186400    255.06258   -1089.3028    84242.615   -24995.298    2034.5443   -27029.842    671.27553   0.95060448 
  186500    246.23159   -1029.3772    84242.615   -24994.938    1964.1027    -26959.04    671.82958   0.95060448 
  186600     255.4444   -987.24383    84242.615   -24995.303      2037.59   -27032.893    670.96931   0.95060448 
  186700    250.78627     -1033.75    84242.615   -24995.011    2000.4337   -26995.445    672.16505   0.95060448 
  186800    251.69045   -899.54601    84242.615   -24995.398     2007.646   -27003.044    673.18603   0.95060448 
  186900    249.52673   -978.56874    84242.615   -24995.215    1990.3868   -26985.602    673.72469   0.95060448 
  187000    253.53216   -1258.4469    84242.615    -24995.41    2022.3367   -27017.747    673.79923   0.95060448 
  187100    247.19631    -1234.063    84242.615   -24995.055    1971.7978   -26966.853    673.56263   0.95060448 
  187200     249.6343   -1304.9199    84242.615   -24995.142    1991.2449   -26986.387      672.489   0.95060448 
  187300     250.2229   -1873.9555    84242.615   -24995.147    1995.9399   -26991.087    673.21866   0.95060448 
  187400    250.51196   -1837.4198    84242.615   -24995.275    1998.2456   -26993.521    673.06537   0.95060448 
  187500    250.41519   -1275.8124    84242.615   -24994.913    1997.4738   -26992.387    673.87208   0.95060448 
  187600     247.2814   -1265.1004    84242.615   -24995.045    1972.4766   -26967.522      675.581   0.95060448 
  187700    252.63542    -1515.418    84242.615   -24995.265    2015.1838   -27010.448    676.47473   0.95060448 
  187800    255.15464   -1019.7722    84242.615   -24995.152    2035.2787   -27030.431    676.69902   0.95060448 
  187900    253.56906   -1398.4239    84242.615   -24995.357     2022.631   -27017.988    676.95193   0.95060448 
  188000    250.12613   -1229.3914    84242.615    -24994.97     1995.168   -26990.138    676.28033   0.95060448 
  188100    245.78659   -1150.0006    84242.615   -24995.124    1960.5531   -26955.677     677.4904   0.95060448 
  188200    250.43757   -1129.6394    84242.615   -24994.936    1997.6522   -26992.588    677.49637   0.95060448 
  188300    243.00615   -1199.8516    84242.615   -24994.793    1938.3745   -26933.168    677.46523   0.95060448 
  188400    248.09534   -1033.3431    84242.615   -24994.967    1978.9691   -26973.936    678.01987   0.95060448 
  188500    254.89484   -1078.5384    84242.615   -24995.147    2033.2063   -27028.353    677.79298   0.95060448 
  188600    250.89729   -1259.0631    84242.615   -24995.156    2001.3193   -26996.475    678.90415   0.95060448 
  188700    250.59414   -1050.7638    84242.615   -24994.922    1998.9012   -26993.824    679.45885   0.95060448 
  188800    248.27833   -1155.9673    84242.615   -24994.802    1980.4288   -26975.231    679.29633   0.95060448 
  188900    255.92691   -990.06582    84242.615    -24995.33    2041.4388   -27036.769    679.65465   0.95060448 
  189000    252.06511    -1104.648    84242.615   -24995.152    2010.6346   -27005.787    679.45073   0.95060448 
  189100    261.05068   -1101.8821    84242.615   -24995.395    2082.3093   -27077.704     679.5429   0.95060448 
  189200    253.36196   -1392.3677    84242.615   -24995.129    2020.9791   -27016.108    679.92123   0.95060448 
  189300     255.9148   -1819.4293    84242.615    -24995.28    2041.3422   -27036.623    680.14214   0.95060448 
  189400     248.4206   -1410.6831    84242.615   -24995.056    1981.5636    -26976.62    680.17181   0.95060448 
  189500    255.15051   -1046.2523    84242.615    -24995.18    2035.2457   -27030.426      680.382   0.95060448 
  189600    251.84154   -977.33512    84242.615   -24995.042    2008.8512   -27003.893    681.03567   0.95060448 
  189700    261.37689   -876.67954    84242.615   -24995.355    2084.9114   -27080.267    681.52183   0.95060448 
  189800    258.17841    -939.9916    84242.615   -24995.467    2059.3982   -27054.865    682.29598   0.95060448 
  189900    253.34707   -813.66475    84242.615   -24995.197    2020.8603   -27016.058     682.1155   0.95060448 
  190000    256.09746   -1344.3719    84242.615   -24995.529    2042.7993   -27038.328    683.17634   0.95060448 
  190100    249.17553   -1087.0845    84242.615   -24994.828    1987.5854   -26982.414    683.27838   0.95060448 
  190200    255.32599   -1242.7083    84242.615   -24995.442    2036.6455   -27032.088    683.78464   0.95060448 
  190300    251.22059   -1088.2359    84242.615   -24995.258    2003.8981   -26999.156    684.66994   0.95060448 
  190400    256.22258   -1038.5852    84242.615   -24995.453    2043.7972    -27039.25    685.52803   0.95060448 
  190500    248.29215   -1488.0705    84242.615   -24995.113     1980.539   -26975.652    685.94954   0.95060448 
  190600    251.96126    -1327.468    84242.615   -24995.099    2009.8062   -27004.905      685.462   0.95060448 
  190700    254.20358   -1604.8613    84242.615   -24995.181    2027.6924   -27022.873    685.85983   0.95060448 
  190800    252.55709   -1553.8278    84242.615   -24995.275    2014.5589   -27009.833    685.45803   0.95060448 
  190900    251.03793   -1421.7906    84242.615   -24995.185    2002.4411   -26997.626    685.75216   0.95060448 
  191000    251.43831   -1083.4387    84242.615   -24995.317    2005.6349   -27000.952     685.3709   0.95060448 
  191100    246.61555   -1155.0454    84242.615   -24995.068    1967.1653   -26962.233    685.77411   0.95060448 
  191200    247.23918   -1482.6163    84242.615   -24994.973    1972.1398   -26967.113    685.68983   0.95060448 
  191300    250.98854   -1084.8276    84242.615   -24995.056    2002.0472   -26997.103    685.61821   0.95060448 
  191400    250.35388   -1088.8106    84242.615   -24995.043    1996.9847   -26992.028    688.28155   0.95060448 
  191500    259.23165   -824.85905    84242.615   -24995.263    2067.7995   -27063.063    689.35385   0.95060448 
  191600    255.68014   -1355.0362    84242.615   -24995.241    2039.4704   -27034.711    689.56951   0.95060448 
  191700    252.07782   -1233.8547    84242.615   -24995.179    2010.7359   -27005.915    689.06984   0.95060448 
  191800     253.6932   -824.40569    84242.615   -24995.268    2023.6212   -27018.889    688.82239   0.95060448 
  191900    255.89302   -1059.0266    84242.615   -24995.364    2041.1684   -27036.533    688.73839   0.95060448 
  192000     253.2776   -1252.7327    84242.615   -24995.436    2020.3062   -27015.743    689.27854   0.95060448 
  192100    256.37911   -1270.0041    84242.615   -24995.405    2045.0458   -27040.451    689.54137   0.95060448 
  192200     253.6419    -996.4869    84242.615   -24995.357    2023.2121   -27018.569    689.37918   0.95060448 
  192300    254.29454   -765.32189    84242.615   -24995.223     2028.418   -27023.641     689.7311   0.95060448 
  192400     245.8777   -1260.7125    84242.615   -24994.903    1961.2798   -26956.183    690.00269   0.95060448 
  192500    253.12399   -1244.3503    84242.615   -24995.266    2019.0809   -27014.347    690.07758   0.95060448 
  192600    254.57928   -1080.1692    84242.615   -24995.311    2030.6892       -27026    690.72011   0.95060448 
  192700    248.80933   -1119.8408    84242.615   -24995.047    1984.6644   -26979.711    690.55187   0.95060448 
  192800    250.83262   -1057.6735    84242.615    -24995.07    2000.8035   -26995.873    691.04232   0.95060448 
  192900    250.07339   -1339.3878    84242.615   -24995.266    1994.7473   -26990.013    691.24902   0.95060448 
  193000     246.2664    -966.9299    84242.615   -24994.981    1964.3804   -26959.361    690.86724   0.95060448 
  193100    252.06675   -1050.7231    84242.615   -24995.229    2010.6477   -27005.877    690.63005   0.95060448 
  193200     254.3009   -1360.6468    84242.615   -24995.179    2028.4687   -27023.648    690.37638   0.95060448 
  193300    252.76601   -1184.0407    84242.615   -24995.134    2016.2254   -27011.359    691.02005   0.95060448 
  193400    247.96997   -858.95112    84242.615   -24995.004    1977.9691   -26972.973    691.24375   0.95060448 
  193500    246.20299   -703.68947    84242.615   -24994.916    1963.8745   -26958.791    691.30582   0.95060448 
  193600    251.16845    -1324.021    84242.615   -24995.042    2003.4822   -26998.524    692.59991   0.95060448 
  193700    248.12648   -999.93485    84242.615   -24994.978    1979.2175   -26974.196    693.97112   0.95060448 
  193800    251.07312   -1087.7078    84242.615    -24995.14    2002.7218   -26997.862      694.293   0.95060448 
  193900    250.56918   -651.08817    84242.615   -24995.145     1998.702   -26993.847    694.69584   0.95060448 
  194000     250.9483    -1046.522    84242.615   -24995.288    2001.7262   -26997.014    695.95131   0.95060448 
  194100     250.4899   -668.80696    84242.615   -24995.006    1998.0697   -26993.076    695.29332   0.95060448 
  194200    253.61195    -1136.552    84242.615   -24995.142    2022.9732   -27018.115    695.37797   0.95060448 
  194300     249.8357   -1012.4657    84242.615   -24994.898    1992.8514    -26987.75     696.2542   0.95060448 
  194400    247.28459   -726.44373    84242.615   -24995.026    1972.5021   -26967.528      696.717   0.95060448 
  194500    249.96121   -715.08701    84242.615   -24994.964    1993.8525   -26988.817    696.90962   0.95060448 
  194600    249.04694   -877.98035    84242.615   -24995.252    1986.5597   -26981.812    697.33136   0.95060448 
  194700    251.90013   -809.78277    84242.615   -24994.958    2009.3186   -27004.277    698.28351   0.95060448 
  194800    256.84271    -940.1094    84242.615    -24995.51    2048.7438   -27044.253    698.79739   0.95060448 
  194900    261.29631   -724.20147    84242.615    -24995.44    2084.2686   -27079.708    699.49425   0.95060448 
  195000    253.50704   -703.07138    84242.615   -24995.152    2022.1363   -27017.288    700.03418   0.95060448 
  195100    259.03924   -622.18338    84242.615   -24995.401    2066.2648   -27061.665    700.51031   0.95060448 
  195200    256.86157   -398.82359    84242.615   -24995.299    2048.8942   -27044.193     700.0966   0.95060448 
  195300    254.29082   -700.80842    84242.615   -24995.345    2028.3883   -27023.734    701.20245   0.95060448 
  195400    252.28857   -724.38761    84242.615   -24995.237     2012.417   -27007.654    701.74509   0.95060448 
  195500    256.35982   -912.63253    84242.615   -24995.379     2044.892   -27040.271    701.60352   0.95060448 
  195600     256.7636   -1435.4821    84242.615   -24995.483    2048.1128   -27043.596    702.30124   0.95060448 
  195700      255.725   -702.40247    84242.615   -24995.193    2039.8282   -27035.022    702.51621   0.95060448 
  195800    254.47875   -988.93828    84242.615   -24995.338    2029.8874   -27025.225     702.4358   0.95060448 
  195900    248.74477   -1228.5354    84242.615   -24994.932    1984.1494   -26979.082    701.92035   0.95060448 
  196000    254.49896   -1219.4625    84242.615   -24995.146    2030.0485   -27025.195    702.09309   0.95060448 
  196100    252.31545   -854.59765    84242.615   -24995.283    2012.6315   -27007.915     702.7098   0.95060448 
  196200    252.63224   -841.39631    84242.615   -24995.137    2015.1584   -27010.296     702.8825   0.95060448 
  196300    250.99291   -932.40017    84242.615   -24995.035     2002.082   -26997.117    703.88362   0.95060448 
  196400    253.46165   -494.95823    84242.615    -24995.37    2021.7743   -27017.144    705.01536   0.95060448 
  196500    250.93735   -1152.5927    84242.615   -24995.033    2001.6388   -26996.671    705.74196   0.95060448 
  196600    253.63027   -1140.7249    84242.615   -24995.478    2023.1193   -27018.597    705.54543   0.95060448 
  196700    256.69952   -1100.1491    84242.615   -24995.181    2047.6017   -27042.782    705.98993   0.95060448 
  196800     252.5766   -1150.0413    84242.615   -24995.183    2014.7146   -27009.898    706.03094   0.95060448 
  196900    248.94413    -908.8028    84242.615   -24995.002    1985.7396   -26980.742    706.34505   0.95060448 
  197000    253.63104   -1454.7723    84242.615   -24995.469    2023.1254   -27018.595    706.53962   0.95060448 
  197100    250.46202   -871.96399    84242.615   -24995.103    1997.8473    -26992.95    706.72449   0.95060448 
  197200    252.13933   -1035.7236    84242.615   -24995.118    2011.2266   -27006.344    706.79989   0.95060448 
  197300    249.85645   -1460.8522    84242.615   -24995.163    1993.0168    -26988.18    707.81977   0.95060448 
  197400    249.32306   -1311.9172    84242.615   -24995.143    1988.7623   -26983.906    707.91463   0.95060448 
  197500     248.5215   -1214.6588    84242.615   -24995.053    1982.3685   -26977.421    708.50814   0.95060448 
  197600    257.17185   -1228.2494    84242.615   -24995.534    2051.3692   -27046.903    708.67847   0.95060448 
  197700    252.52615   -1105.4297    84242.615   -24995.096    2014.3121   -27009.408    710.60431   0.95060448 
  197800    254.44053   -1362.3762    84242.615   -24995.255    2029.5824   -27024.838    710.86091   0.95060448 
  197900    246.26824   -1205.5611    84242.615   -24995.069     1964.395   -26959.464    711.36522   0.95060448 
  198000    252.62013   -1425.1473    84242.615    -24995.35    2015.0617   -27010.411    711.65936   0.95060448 
  198100    248.46098   -996.37044    84242.615   -24995.065    1981.8857   -26976.951    712.72293   0.95060448 
  198200    252.82034    -812.8483    84242.615   -24995.528    2016.6588   -27012.187    712.22714   0.95060448 
  198300    254.91169   -584.95413    84242.615   -24995.256    2033.3408   -27028.597    713.21739   0.95060448 
  198400    255.39704    -675.8681    84242.615   -24995.278    2037.2122    -27032.49    714.06302   0.95060448 
  198500    255.13658   -751.60832    84242.615   -24995.041    2035.1346   -27030.175    714.71562   0.95060448 
  198600    246.78659    -1031.069    84242.615   -24995.095    1968.5297   -26963.625    714.45334   0.95060448 
  198700    244.82917   -937.98804    84242.615   -24994.862     1952.916   -26947.778    714.65793   0.95060448 
  198800    249.40488   -1310.2874    84242.615   -24995.205    1989.4149    -26984.62    714.03003   0.95060448 
  198900     251.0262   -1147.7918    84242.615   -24995.034    2002.3476   -26997.382     714.0917   0.95060448 
  199000    246.80712   -989.83626    84242.615   -24994.888    1968.6935   -26963.582    714.54705   0.95060448 
  199100    250.52637   -1185.3604    84242.615   -24995.328    1998.3606   -26993.689    714.50937   0.95060448 
  199200    250.15768   -1174.1581    84242.615   -24994.896    1995.4197   -26990.316    715.50652   0.95060448 
  199300    252.34841   -1659.7168    84242.615   -24995.146    2012.8943    -27008.04    716.20043   0.95060448 
  199400    252.58104   -1444.8507    84242.615    -24994.91      2014.75    -27009.66    716.35281   0.95060448 
  199500    248.43173   -1199.0508    84242.615   -24995.084    1981.6524   -26976.736    716.92479   0.95060448 
  199600    243.05603   -1049.0762    84242.615   -24994.859    1938.7723   -26933.632    716.72905   0.95060448 
  199700    245.64545   -1533.8729    84242.615   -24994.973    1959.4272     -26954.4    716.77138   0.95060448 
  199800    250.38389   -1799.8939    84242.615   -24995.063    1997.2241   -26992.287    716.81166   0.95060448 
  199900    247.84852   -1264.3522    84242.615   -24994.804    1977.0003   -26971.804    716.96786   0.95060448 
  200000    251.01431   -1286.4637    84242.615   -24995.132    2002.2527   -26997.385     717.0716   0.95060448 
  200100    246.34057   -704.91416    84242.615   -24994.866     1964.972   -26959.838    717.64061   0.95060448 
  200200    254.66196   -690.06555    84242.615   -24995.307    2031.3487   -27026.656    720.43132   0.95060448 
  200300     252.8825   -963.36368    84242.615   -24994.951    2017.1546   -27012.106    719.74314   0.95060448 
  200400    256.88614   -1039.0323    84242.615   -24995.207    2049.0902   -27044.297    720.88074   0.95060448 
  200500    257.51039   -989.95843    84242.615   -24995.283    2054.0697   -27049.353    720.90417   0.95060448 
  200600     250.7575   -895.60722    84242.615   -24995.282    2000.2043   -26995.486    722.37688   0.95060448 
  200628    254.85159    -921.0057    84242.615   -24995.526    2032.8614   -27028.388    722.44426   0.95060448 
Loop time of 98.0069 on 8 procs for 100000 steps with 2677 atoms

Performance: 440.785 ns/day, 0.054 hours/ns, 1020.336 timesteps/s
98.1% CPU use with 8 MPI tasks x no OpenMP threads

MPI task timing breakdown:
Section |  min time  |  avg time  |  max time  |%varavg| %total
---------------------------------------------------------------
Pair    | 69.199     | 71.317     | 73.137     |  13.3 | 72.77
Neigh   | 4.9127     | 5.0029     | 5.1168     |   3.3 |  5.10
Comm    | 16.432     | 18.21      | 20.248     |  26.4 | 18.58
Output  | 0.62172    | 0.64288    | 0.77682    |   6.3 |  0.66
Modify  | 0.51813    | 0.53479    | 0.55334    |   1.2 |  0.55
Other   |            | 2.299      |            |       |  2.35

Nlocal:        334.625 ave         346 max         324 min
Histogram: 2 0 1 0 1 1 0 1 1 1
Nghost:        924.750 ave         942 max         916 min
Histogram: 2 2 1 1 0 0 1 0 0 1
Neighs:        0.00000 ave           0 max           0 min
Histogram: 8 0 0 0 0 0 0 0 0 0
FullNghs:      9266.25 ave        9648 max        8965 min
Histogram: 1 2 1 1 0 0 0 1 0 2

Total # of neighbors = 74130
Ave neighs/atom = 27.691446
Neighbor list builds = 6000
Dangerous builds = 0

write_data		data.${NAME}
write_data		data.ML_m1000atm_250K
System init for write_data ...
Total wall time: 0:03:13
