LAMMPS data file via write_data, version 16 Mar 2018, timestep = 6000000

6337 atoms
2 atom types

0.0000000000000000e+00 4.9219999999999999e+01 xlo xhi
0.0000000000000000e+00 4.9019635930410494e+01 ylo yhi
1.9119244273204963e+00 5.8150075572673771e+01 zlo zhi

Masses

1 18.015
2 12.01

Atoms # atomic

31 1 4.3343526793219080e+00 2.6515079643130410e+00 5.1659236523254659e+00 0 1 1
6049 1 1.9075634950440992e+00 3.5096711612351044e+00 6.1156746648322660e+00 -2 0 1
4466 1 4.1976871940834775e+00 2.1508508829466217e+00 2.2906735999245527e+00 2 1 1
418 1 2.0977258474218999e-01 1.6317001031815555e+00 5.0438388191652628e+00 2 1 0
3720 1 8.7698124605214591e+00 3.4603301433094438e+00 4.8396094679265076e+00 1 1 1
4770 1 9.0335840700249257e+00 6.1020973477267881e-01 5.7331552233253449e+00 1 -1 1
3092 1 1.3847308608429161e+00 5.9728146538125602e+00 4.5730395652985543e+00 1 2 1
6052 1 2.9866884089420953e+00 7.7085894118012028e+00 5.6357029476072853e+00 0 -3 0
1285 1 6.5016036016088288e+00 4.4645845123317036e+00 5.5150001153492916e+00 2 1 1
2120 1 5.4220582938235875e+00 6.8592266955308485e+00 4.6875134201049145e+00 1 0 1
1515 1 7.8096554488808669e+00 7.9673962858885981e+00 5.9376693599482282e+00 5 1 1
95 1 2.6037891565109446e+00 1.0442552160831324e+01 4.8631387545039289e+00 -1 -1 0
3272 1 4.7754461557681109e+00 1.2124581507761759e+01 5.9099736751354950e+00 -1 -4 1
1917 1 2.7246416237502324e+00 1.0379206982729102e+01 2.1346131495220235e+00 0 1 0
1408 1 2.5271742037381484e-01 1.1593371718917055e+01 5.8158399293375513e+00 1 0 1
363 1 6.9960999264361678e+00 1.0700658827399034e+01 4.7452637972357978e+00 0 -1 0
5222 1 6.6508301338188360e+00 1.0843048481554140e+01 2.0664750545594810e+00 2 2 0
3611 1 1.9384788589857376e+00 1.5911490864818465e+01 5.7396379187619813e+00 1 -1 0
4505 1 4.1303149505665209e+00 1.4762064793844415e+01 4.9721461595754057e+00 0 2 1
1588 1 3.9464867767181597e+00 1.4720751653930662e+01 2.1161853203902075e+00 2 0 0
2862 1 6.2003800192398382e+00 1.6272897108189586e+01 5.7784671310409879e+00 1 -2 1
4573 1 8.8360987743592414e+00 1.2831496449354756e+01 5.6475661424963999e+00 -1 0 1
1967 1 8.6978411208208435e+00 1.5445226014177905e+01 4.9294685227753456e+00 1 -1 0
1271 1 8.1907569635733957e+00 1.5222257225639467e+01 1.9929858484197354e+00 -1 1 1
1659 1 2.3606581933489044e+00 5.1398511400693192e-01 9.6424090573654446e+00 2 1 1
1570 1 2.2180432374333301e+00 3.1001529864690305e+00 8.8687901409359799e+00 2 2 1
499 1 8.8731626446036351e+00 6.8987092669749450e-01 8.6967048246187630e+00 -2 -3 1
1819 1 6.3383214981677636e+00 1.6083694713745915e+00 9.4760443312681417e+00 -1 -1 0
3208 1 3.7885158307674600e+00 5.0956595539580034e+00 9.2702935647151001e+00 -2 0 0
3140 1 3.2818234079741408e+00 7.6014817024171260e+00 8.5552022318638272e+00 0 -2 0
2162 1 6.4253563180815068e+00 4.1721849147512549e+00 8.4911336359978051e+00 0 -3 1
5979 1 8.2808265124163647e+00 5.8553851675148403e+00 9.6733211252525493e+00 0 -2 1
5057 1 4.6886798361322146e+00 1.2149059551617325e+01 8.6939919566710948e+00 0 -1 0
369 1 9.3585936011986814e-01 8.9387144086592460e+00 9.6576033863233484e+00 1 -1 0
91 1 2.1473762779535782e-01 1.1216221387989981e+01 8.5377267888348864e+00 -1 1 0
1343 1 9.3956661854970580e+00 1.0209836831134718e+01 9.5731875013486896e+00 -2 0 1
2828 1 7.7042532153888983e+00 8.2695453616364212e+00 8.8026680875758334e+00 -2 -4 1
205 1 5.1849070953519734e+00 9.2541528771886394e+00 9.5488429159585699e+00 -1 0 0
3606 1 2.1638125372557884e+00 1.2988446543757338e+01 9.2857088786607243e+00 2 0 1
3161 1 1.6853556733595876e+00 1.5822991298887050e+01 8.5966777959027709e+00 0 1 1
1729 1 8.8563694956523999e+00 1.2706179557537004e+01 8.4814362129901717e+00 1 -2 0
3303 1 6.6589938267415629e+00 1.3934411495318338e+01 9.3296921656954392e+00 -1 0 0
1366 1 4.3148392640197537e+00 3.1223339922589237e+00 1.3667389473796483e+01 0 1 1
1414 1 3.1271979437636901e+00 6.2749464827578760e-01 1.2388444022511420e+01 0 2 0
5151 1 7.9849886115056579e-01 5.2343507453134042e-01 1.3795972260029163e+01 2 -1 0
3705 1 8.2144500872560275e+00 3.7196487822326900e+00 1.3384864807938891e+01 0 -1 1
67 1 6.5588576875766806e+00 1.7727586785914942e+00 1.2265434711285693e+01 1 -3 0
1575 1 3.5259160481428307e+00 5.3178389070346670e+00 1.2194780980218422e+01 0 1 1
4479 1 1.0693968538017309e+00 6.3051501974558875e+00 1.3235480160785412e+01 -2 0 1
3175 1 6.2241309273164203e-01 6.6942429425810515e+00 1.5913866722038749e+01 0 1 1
3201 1 5.4098826041127168e+00 7.0791738295299673e+00 1.3581466372074459e+01 4 4 0
2955 1 7.7996240817178615e+00 6.2358737631457464e+00 1.2347449158107183e+01 2 -2 1
6276 1 9.5737625282207510e+00 7.6530225520255648e+00 1.3547265796815953e+01 3 3 1
3568 1 2.6327235013683183e+00 1.0519890274150274e+01 1.3128100543346221e+01 3 0 0
496 1 6.8618880739280064e-01 8.7014354328181867e+00 1.2333666286034846e+01 -2 1 1
4889 1 2.6238622270980336e+00 1.0965035449790127e+01 1.5759710522171780e+01 -2 1 1
4771 1 9.3070794644684316e+00 1.0195162040341568e+01 1.2518622696659387e+01 0 2 0
4908 1 5.1622178868739468e+00 9.4492740368912909e+00 1.2295312211223795e+01 0 -1 0
1705 1 6.8871336162110248e+00 1.1267068844999109e+01 1.3247999585715402e+01 0 0 0
3474 1 1.9832852569759098e+00 1.2947746436575784e+01 1.2193483194842358e+01 3 0 1
5995 1 4.0151519843879244e+00 1.4880882845338256e+01 1.2814574341612889e+01 1 1 1
1621 1 4.0876820251852424e+00 1.4958669881244312e+01 1.5879297200379071e+01 0 2 0
3317 1 8.6743552983002257e+00 1.5316154642960541e+01 1.5943270252288945e+01 3 -1 0
335 1 8.3565499745825687e+00 1.5698683962115183e+01 1.3232800284439218e+01 3 0 0
5110 1 6.3656927722976802e+00 1.3821515387003098e+01 1.2228889145919769e+01 0 1 0
5023 1 3.8723608117555419e+00 3.0157469602081961e+00 1.6523333875934313e+01 0 -1 0
4759 1 1.1821060161645727e+00 2.3117164082577353e+00 2.0158159870546989e+01 3 1 1
394 1 1.1461862684906927e+00 2.3438181482630185e+00 1.7370428423214712e+01 -1 2 0
4501 1 1.4353007707025280e+00 3.7735144683992417e-02 1.6385863787341762e+01 3 3 0
506 1 8.5277935192677354e+00 3.3175397548654906e+00 1.6088983403240384e+01 -2 -1 1
1824 1 6.2919559827262548e+00 1.4991422133078363e+00 1.6740747091183870e+01 0 -1 0
1962 1 6.8074977600753277e+00 1.3068093178532216e+00 1.9547242914676023e+01 -1 1 0
6023 1 8.7795421161864571e+00 3.0826346019362654e+00 2.0540729535705164e+01 2 1 0
1911 1 3.2767329194015287e+00 5.7014999486439475e+00 1.9848509139159553e+01 3 0 1
351 1 3.3506806261511390e+00 5.7513090471419028e+00 1.6999972497254138e+01 1 -3 1
6300 1 9.8214355352632285e+00 7.4852180667527843e+00 1.6254514001935149e+01 0 -1 1
3491 1 5.4422359353279068e+00 7.0482904806286220e+00 1.6182256002528632e+01 0 1 1
1799 1 7.7995360338031929e+00 5.8633992442188250e+00 1.7087703321324991e+01 0 0 0
1611 1 7.9890969149612951e+00 5.9341216163412449e+00 2.0202786947195452e+01 -2 1 1
3589 1 8.0767024686912459e-01 9.1524019022139846e+00 1.6899732811512720e+01 1 1 0
109 1 7.1261443279021564e-01 9.5480827907868449e+00 1.9555990179953628e+01 2 1 1
4472 1 4.9730072431901764e+00 9.8506850930336523e+00 1.9760863467056474e+01 2 0 0
3020 1 9.2929237915027976e+00 1.0244571297122457e+01 1.9684687600118099e+01 0 3 1
92 1 4.9780675668168088e+00 9.6544324120059937e+00 1.6864800890243735e+01 -2 -1 1
6239 1 7.0025568912065523e+00 1.1308663213297477e+01 1.5973490028298537e+01 4 1 1
1826 1 9.2698840522005685e+00 1.0073115297651505e+01 1.7003014548047346e+01 -1 0 0
1359 1 7.0480029036355294e+00 1.1585895019974622e+01 2.0606025951097738e+01 -4 -1 1
3592 1 2.2586568017581636e+00 1.3656710222733247e+01 1.9637655683426633e+01 2 1 0
1640 1 2.1483504303503627e+00 1.3355088724065217e+01 1.6955323022157316e+01 2 2 1
5158 1 4.3788234975691367e+00 1.5322981580210941e+01 2.0516375671301255e+01 -1 0 0
3097 1 6.5153356575902519e+00 1.3928287834493284e+01 1.9417873498278688e+01 0 -1 0
3467 1 6.4519271968194509e+00 1.3729463435227185e+01 1.6611469772948219e+01 -2 1 0
332 1 8.5912018960211149e+00 1.5654781404656791e+01 2.0581546141207109e+01 2 0 1
3741 1 2.6805985869500435e+00 3.5689102213393689e+00 2.3970931520406239e+01 -2 1 0
461 1 4.7789879523844299e+00 1.2091167280429922e+00 2.1447742978783310e+01 0 1 0
5161 1 2.2394485070083183e+00 9.7595327121784170e-01 2.4007559740816905e+01 -2 2 0
3119 1 3.3135747108345672e+00 3.4283234010504953e+00 2.1353041505085624e+01 2 4 0
1803 1 6.1848131803772297e+00 2.5737092455480539e+00 2.3639416598154110e+01 2 0 0
3160 1 8.8919202939478161e+00 2.7794379592637077e+00 2.3562874348138411e+01 0 4 1
3579 1 9.4767433647367927e+00 2.5301632205753194e-01 2.4517112193964351e+01 0 0 0
286 1 5.1092157422153839e-01 5.0455207695706665e+00 2.4274638333625845e+01 -1 3 1
6005 1 8.8723642435199335e-01 7.0764711687562079e+00 2.0799067812091199e+01 1 0 1
4943 1 8.5238350442038080e-01 7.5818580054486988e+00 2.3502579747139936e+01 1 2 0
4625 1 9.7234878352059120e+00 7.7999411666597434e+00 2.3488449323040587e+01 -2 0 1
1829 1 5.0159110089340224e+00 4.9093218108327124e+00 2.4458281775946290e+01 1 -1 0
3432 1 5.2342884385016104e+00 7.3913060698025479e+00 2.3516192942023036e+01 2 0 0
1710 1 5.4970346652771500e+00 7.2141006716797209e+00 2.0736266419969674e+01 1 -1 1
296 1 2.0293343837818553e-01 1.2097716536423542e+01 2.4451682934208051e+01 1 1 1
6308 1 3.1218889058150250e+00 8.7044642299645005e+00 2.4360776189967400e+01 -1 0 0
243 1 2.5561907723146877e+00 1.1132998260037308e+01 2.3385845245196503e+01 -1 0 0
4430 1 2.6149655740498639e+00 1.1291133348837986e+01 2.0667285550411208e+01 0 2 0
1949 1 7.3809763758299010e+00 8.8467404941642158e+00 2.4141049282701996e+01 0 2 0
3125 1 7.2791974663362318e+00 1.1461449853764947e+01 2.3265556063926379e+01 -1 -1 1
3014 1 2.0055361605013267e+00 1.6189392070162103e+01 2.4298421608926393e+01 0 1 1
5132 1 4.1467768303283767e+00 1.4872121703592597e+01 2.3203630742873276e+01 4 1 0
4991 1 4.6353487355401004e+00 1.2500523753949672e+01 2.4319234828790169e+01 -1 -1 1
1254 1 8.8915392480868967e+00 1.3089517111883401e+01 2.4424583370425655e+01 1 0 1
1983 1 8.4803978891401002e+00 1.5661414082670232e+01 2.3633229406006350e+01 3 0 0
554 2 0.0000000000000000e+00 2.8417180249513345e+00 2.6792418585744759e+01 0 0 0
556 2 0.0000000000000000e+00 0.0000000000000000e+00 2.6792418585744759e+01 0 0 0
558 2 1.2305000000000001e+00 7.1042950623783474e-01 2.6792418585744759e+01 0 0 0
565 2 1.2305000000000001e+00 2.1312885187134998e+00 2.6792418585744759e+01 0 0 0
567 2 2.4610000000000003e+00 2.8417180249513345e+00 2.6792418585744759e+01 0 0 0
569 2 2.4610000000000003e+00 0.0000000000000000e+00 2.6792418585744759e+01 0 0 0
571 2 3.6915000000000004e+00 7.1042950623783474e-01 2.6792418585744759e+01 0 0 0
586 2 3.6914999999999996e+00 2.1312885187134998e+00 2.6792418585744759e+01 0 0 0
588 2 4.9220000000000006e+00 2.8417180249513332e+00 2.6792418585744759e+01 0 0 0
590 2 4.9220000000000006e+00 0.0000000000000000e+00 2.6792418585744759e+01 0 0 0
592 2 6.1524999999999999e+00 7.1042950623783407e-01 2.6792418585744759e+01 0 0 0
615 2 6.1524999999999999e+00 2.1312885187134989e+00 2.6792418585744759e+01 0 0 0
617 2 7.3829999999999991e+00 2.8417180249513345e+00 2.6792418585744759e+01 0 0 0
619 2 7.3829999999999991e+00 0.0000000000000000e+00 2.6792418585744759e+01 0 0 0
621 2 8.6134999999999984e+00 7.1042950623783407e-01 2.6792418585744759e+01 0 0 0
652 2 8.6134999999999984e+00 2.1312885187135002e+00 2.6792418585744759e+01 0 0 0
561 2 0.0000000000000000e+00 4.2625770374269996e+00 2.6792418585744759e+01 0 0 0
563 2 1.2305000000000001e+00 4.9730065436648339e+00 2.6792418585744759e+01 0 0 0
578 2 1.2305000000000001e+00 6.3938655561404980e+00 2.6792418585744759e+01 0 0 0
582 2 2.4610000000000003e+00 4.2625770374269996e+00 2.6792418585744759e+01 0 0 0
584 2 3.6914999999999996e+00 4.9730065436648339e+00 2.6792418585744759e+01 0 0 0
607 2 3.6914999999999996e+00 6.3938655561404980e+00 2.6792418585744759e+01 0 0 0
559 2 0.0000000000000000e+00 7.1042950623783341e+00 2.6792418585744759e+01 0 0 0
580 2 2.4610000000000003e+00 7.1042950623783341e+00 2.6792418585744759e+01 0 0 0
611 2 4.9220000000000006e+00 4.2625770374269978e+00 2.6792418585744759e+01 0 0 0
613 2 6.1524999999999999e+00 4.9730065436648339e+00 2.6792418585744759e+01 0 0 0
644 2 6.1524999999999999e+00 6.3938655561404980e+00 2.6792418585744759e+01 0 0 0
648 2 7.3829999999999991e+00 4.2625770374269996e+00 2.6792418585744759e+01 0 0 0
650 2 8.6135000000000002e+00 4.9730065436648339e+00 2.6792418585744759e+01 0 0 0
689 2 8.6135000000000002e+00 6.3938655561404980e+00 2.6792418585744759e+01 0 0 0
609 2 4.9220000000000006e+00 7.1042950623783341e+00 2.6792418585744759e+01 0 0 0
646 2 7.3830000000000009e+00 7.1042950623783341e+00 2.6792418585744759e+01 0 0 0
574 2 0.0000000000000000e+00 8.5251540748539991e+00 2.6792418585744759e+01 0 0 0
576 2 1.2305000000000001e+00 9.2355835810918343e+00 2.6792418585744759e+01 0 0 0
603 2 2.4610000000000003e+00 8.5251540748539991e+00 2.6792418585744759e+01 0 0 0
605 2 3.6915000000000004e+00 9.2355835810918343e+00 2.6792418585744759e+01 0 0 0
572 2 0.0000000000000000e+00 1.1366872099805333e+01 2.6792418585744759e+01 0 0 0
599 2 1.2305000000000001e+00 1.0656442593567498e+01 2.6792418585744759e+01 0 0 0
601 2 2.4610000000000003e+00 1.1366872099805333e+01 2.6792418585744759e+01 0 0 0
636 2 3.6914999999999996e+00 1.0656442593567499e+01 2.6792418585744759e+01 0 0 0
640 2 4.9220000000000006e+00 8.5251540748539991e+00 2.6792418585744759e+01 0 0 0
642 2 6.1524999999999999e+00 9.2355835810918343e+00 2.6792418585744759e+01 0 0 0
685 2 7.3830000000000009e+00 8.5251540748539991e+00 2.6792418585744759e+01 0 0 0
687 2 8.6134999999999984e+00 9.2355835810918343e+00 2.6792418585744759e+01 0 0 0
638 2 4.9220000000000006e+00 1.1366872099805333e+01 2.6792418585744759e+01 0 0 0
681 2 6.1524999999999999e+00 1.0656442593567499e+01 2.6792418585744759e+01 0 0 0
683 2 7.3829999999999991e+00 1.1366872099805333e+01 2.6792418585744759e+01 0 0 0
728 2 8.6134999999999984e+00 1.0656442593567498e+01 2.6792418585744759e+01 0 0 0
632 2 2.4610000000000003e+00 1.2787731112280996e+01 2.6792418585744759e+01 0 0 0
597 2 1.2305000000000001e+00 1.3498160618518829e+01 2.6792418585744759e+01 0 0 0
630 2 2.4610000000000003e+00 1.5629449137232328e+01 2.6792418585744759e+01 0 0 0
595 2 0.0000000000000000e+00 1.2787731112280996e+01 2.6792418585744759e+01 0 0 0
634 2 3.6915000000000004e+00 1.3498160618518829e+01 2.6792418585744759e+01 0 0 0
628 2 1.2305000000000001e+00 1.4919019630994494e+01 2.6792418585744759e+01 0 0 0
593 2 0.0000000000000000e+00 1.5629449137232333e+01 2.6792418585744759e+01 0 0 0
673 2 3.6915000000000004e+00 1.4919019630994494e+01 2.6792418585744759e+01 0 0 0
720 2 6.1524999999999990e+00 1.4919019630994494e+01 2.6792418585744759e+01 0 0 0
724 2 7.3829999999999991e+00 1.2787731112280996e+01 2.6792418585744759e+01 0 0 0
675 2 4.9220000000000006e+00 1.5629449137232333e+01 2.6792418585744759e+01 0 0 0
677 2 4.9220000000000006e+00 1.2787731112280996e+01 2.6792418585744759e+01 0 0 0
767 2 8.6135000000000002e+00 1.4919019630994494e+01 2.6792418585744759e+01 0 0 0
679 2 6.1524999999999990e+00 1.3498160618518829e+01 2.6792418585744759e+01 0 0 0
722 2 7.3829999999999991e+00 1.5629449137232333e+01 2.6792418585744759e+01 0 0 0
726 2 8.6135000000000002e+00 1.3498160618518835e+01 2.6792418585744759e+01 0 0 0
555 2 0.0000000000000000e+00 1.4208590124756650e+00 3.0030999999997174e+01 0 0 0
557 2 0.0000000000000000e+00 0.0000000000000000e+00 3.0030999999997174e+01 0 0 0
566 2 1.2305000000000001e+00 2.1312885187134998e+00 3.0030999999997174e+01 0 0 0
568 2 2.4610000000000003e+00 1.4208590124756650e+00 3.0030999999997174e+01 0 0 0
570 2 2.4610000000000003e+00 0.0000000000000000e+00 3.0030999999997174e+01 0 0 0
587 2 3.6914999999999996e+00 2.1312885187134998e+00 3.0030999999997174e+01 0 0 0
564 2 1.2305000000000001e+00 3.5521475311891644e+00 3.0030999999997174e+01 0 0 0
585 2 3.6914999999999996e+00 3.5521475311891644e+00 3.0030999999997174e+01 0 0 0
883 2 0.0000000000000000e+00 2.8417180249513345e+00 3.3269581414237692e+01 0 0 0
884 2 0.0000000000000000e+00 0.0000000000000000e+00 3.3269581414237692e+01 0 0 0
885 2 1.2305000000000001e+00 7.1042950623783474e-01 3.3269581414237692e+01 0 0 0
889 2 1.2305000000000001e+00 2.1312885187134998e+00 3.3269581414237692e+01 0 0 0
890 2 2.4610000000000003e+00 2.8417180249513345e+00 3.3269581414237692e+01 0 0 0
891 2 2.4610000000000003e+00 0.0000000000000000e+00 3.3269581414237692e+01 0 0 0
892 2 3.6915000000000004e+00 7.1042950623783474e-01 3.3269581414237692e+01 0 0 0
900 2 3.6914999999999996e+00 2.1312885187134998e+00 3.3269581414237692e+01 0 0 0
589 2 4.9220000000000006e+00 1.4208590124756650e+00 3.0030999999997174e+01 0 0 0
591 2 4.9220000000000006e+00 0.0000000000000000e+00 3.0030999999997174e+01 0 0 0
616 2 6.1524999999999999e+00 2.1312885187134989e+00 3.0030999999997174e+01 0 0 0
618 2 7.3829999999999991e+00 1.4208590124756659e+00 3.0030999999997174e+01 0 0 0
620 2 7.3829999999999991e+00 0.0000000000000000e+00 3.0030999999997174e+01 0 0 0
653 2 8.6134999999999984e+00 2.1312885187135002e+00 3.0030999999997174e+01 0 0 0
614 2 6.1524999999999999e+00 3.5521475311891644e+00 3.0030999999997174e+01 0 0 0
651 2 8.6134999999999984e+00 3.5521475311891657e+00 3.0030999999997174e+01 0 0 0
901 2 4.9220000000000006e+00 2.8417180249513332e+00 3.3269581414237692e+01 0 0 0
902 2 4.9220000000000006e+00 0.0000000000000000e+00 3.3269581414237692e+01 0 0 0
903 2 6.1524999999999999e+00 7.1042950623783407e-01 3.3269581414237692e+01 0 0 0
915 2 6.1524999999999999e+00 2.1312885187134989e+00 3.3269581414237692e+01 0 0 0
916 2 7.3829999999999991e+00 2.8417180249513345e+00 3.3269581414237692e+01 0 0 0
917 2 7.3829999999999991e+00 0.0000000000000000e+00 3.3269581414237692e+01 0 0 0
918 2 8.6134999999999984e+00 7.1042950623783407e-01 3.3269581414237692e+01 0 0 0
934 2 8.6134999999999984e+00 2.1312885187135002e+00 3.3269581414237692e+01 0 0 0
560 2 0.0000000000000000e+00 5.6834360499026637e+00 3.0030999999997174e+01 0 0 0
562 2 0.0000000000000000e+00 4.2625770374269996e+00 3.0030999999997174e+01 0 0 0
579 2 1.2305000000000001e+00 6.3938655561404980e+00 3.0030999999997174e+01 0 0 0
581 2 2.4610000000000003e+00 5.6834360499026637e+00 3.0030999999997174e+01 0 0 0
583 2 2.4610000000000003e+00 4.2625770374269996e+00 3.0030999999997174e+01 0 0 0
608 2 3.6914999999999996e+00 6.3938655561404980e+00 3.0030999999997174e+01 0 0 0
577 2 1.2305000000000001e+00 7.8147245686161639e+00 3.0030999999997174e+01 0 0 0
606 2 3.6914999999999996e+00 7.8147245686161639e+00 3.0030999999997174e+01 0 0 0
887 2 0.0000000000000000e+00 4.2625770374269996e+00 3.3269581414237692e+01 0 0 0
888 2 1.2305000000000001e+00 4.9730065436648339e+00 3.3269581414237692e+01 0 0 0
896 2 1.2305000000000001e+00 6.3938655561404980e+00 3.3269581414237692e+01 0 0 0
898 2 2.4610000000000003e+00 4.2625770374269996e+00 3.3269581414237692e+01 0 0 0
899 2 3.6914999999999996e+00 4.9730065436648339e+00 3.3269581414237692e+01 0 0 0
911 2 3.6914999999999996e+00 6.3938655561404980e+00 3.3269581414237692e+01 0 0 0
886 2 0.0000000000000000e+00 7.1042950623783341e+00 3.3269581414237692e+01 0 0 0
897 2 2.4610000000000003e+00 7.1042950623783341e+00 3.3269581414237692e+01 0 0 0
610 2 4.9220000000000006e+00 5.6834360499026637e+00 3.0030999999997174e+01 0 0 0
612 2 4.9220000000000006e+00 4.2625770374269978e+00 3.0030999999997174e+01 0 0 0
645 2 6.1524999999999999e+00 6.3938655561404980e+00 3.0030999999997174e+01 0 0 0
647 2 7.3829999999999991e+00 5.6834360499026637e+00 3.0030999999997174e+01 0 0 0
649 2 7.3829999999999991e+00 4.2625770374269996e+00 3.0030999999997174e+01 0 0 0
690 2 8.6135000000000002e+00 6.3938655561404980e+00 3.0030999999997174e+01 0 0 0
643 2 6.1524999999999999e+00 7.8147245686161639e+00 3.0030999999997174e+01 0 0 0
688 2 8.6135000000000002e+00 7.8147245686161639e+00 3.0030999999997174e+01 0 0 0
913 2 4.9220000000000006e+00 4.2625770374269978e+00 3.3269581414237692e+01 0 0 0
914 2 6.1524999999999999e+00 4.9730065436648339e+00 3.3269581414237692e+01 0 0 0
930 2 6.1524999999999999e+00 6.3938655561404980e+00 3.3269581414237692e+01 0 0 0
932 2 7.3829999999999991e+00 4.2625770374269996e+00 3.3269581414237692e+01 0 0 0
933 2 8.6135000000000002e+00 4.9730065436648339e+00 3.3269581414237692e+01 0 0 0
953 2 8.6135000000000002e+00 6.3938655561404980e+00 3.3269581414237692e+01 0 0 0
912 2 4.9220000000000006e+00 7.1042950623783341e+00 3.3269581414237692e+01 0 0 0
931 2 7.3830000000000009e+00 7.1042950623783341e+00 3.3269581414237692e+01 0 0 0
573 2 0.0000000000000000e+00 9.9460130873296642e+00 3.0030999999997174e+01 0 0 0
575 2 0.0000000000000000e+00 8.5251540748539991e+00 3.0030999999997174e+01 0 0 0
602 2 2.4610000000000003e+00 9.9460130873296642e+00 3.0030999999997174e+01 0 0 0
604 2 2.4610000000000003e+00 8.5251540748539991e+00 3.0030999999997174e+01 0 0 0
598 2 1.2305000000000001e+00 1.2077301606043163e+01 3.0030999999997174e+01 0 0 0
600 2 1.2305000000000001e+00 1.0656442593567498e+01 3.0030999999997174e+01 0 0 0
635 2 3.6914999999999996e+00 1.2077301606043163e+01 3.0030999999997174e+01 0 0 0
637 2 3.6914999999999996e+00 1.0656442593567499e+01 3.0030999999997174e+01 0 0 0
894 2 0.0000000000000000e+00 8.5251540748539991e+00 3.3269581414237692e+01 0 0 0
895 2 1.2305000000000001e+00 9.2355835810918343e+00 3.3269581414237692e+01 0 0 0
909 2 2.4610000000000003e+00 8.5251540748539991e+00 3.3269581414237692e+01 0 0 0
910 2 3.6915000000000004e+00 9.2355835810918343e+00 3.3269581414237692e+01 0 0 0
893 2 0.0000000000000000e+00 1.1366872099805333e+01 3.3269581414237692e+01 0 0 0
907 2 1.2305000000000001e+00 1.0656442593567498e+01 3.3269581414237692e+01 0 0 0
908 2 2.4610000000000003e+00 1.1366872099805333e+01 3.3269581414237692e+01 0 0 0
926 2 3.6914999999999996e+00 1.0656442593567499e+01 3.3269581414237692e+01 0 0 0
639 2 4.9220000000000006e+00 9.9460130873296642e+00 3.0030999999997174e+01 0 0 0
641 2 4.9220000000000006e+00 8.5251540748539991e+00 3.0030999999997174e+01 0 0 0
684 2 7.3830000000000009e+00 9.9460130873296642e+00 3.0030999999997174e+01 0 0 0
686 2 7.3830000000000009e+00 8.5251540748539991e+00 3.0030999999997174e+01 0 0 0
680 2 6.1524999999999999e+00 1.2077301606043163e+01 3.0030999999997174e+01 0 0 0
682 2 6.1524999999999999e+00 1.0656442593567499e+01 3.0030999999997174e+01 0 0 0
727 2 8.6135000000000002e+00 1.2077301606043163e+01 3.0030999999997174e+01 0 0 0
729 2 8.6134999999999984e+00 1.0656442593567498e+01 3.0030999999997174e+01 0 0 0
928 2 4.9220000000000006e+00 8.5251540748539991e+00 3.3269581414237692e+01 0 0 0
929 2 6.1524999999999999e+00 9.2355835810918343e+00 3.3269581414237692e+01 0 0 0
951 2 7.3830000000000009e+00 8.5251540748539991e+00 3.3269581414237692e+01 0 0 0
952 2 8.6134999999999984e+00 9.2355835810918343e+00 3.3269581414237692e+01 0 0 0
927 2 4.9220000000000006e+00 1.1366872099805333e+01 3.3269581414237692e+01 0 0 0
949 2 6.1524999999999999e+00 1.0656442593567499e+01 3.3269581414237692e+01 0 0 0
950 2 7.3829999999999991e+00 1.1366872099805333e+01 3.3269581414237692e+01 0 0 0
973 2 8.6134999999999984e+00 1.0656442593567498e+01 3.3269581414237692e+01 0 0 0
596 2 0.0000000000000000e+00 1.2787731112280996e+01 3.0030999999997174e+01 0 0 0
633 2 2.4610000000000003e+00 1.2787731112280996e+01 3.0030999999997174e+01 0 0 0
594 2 0.0000000000000000e+00 1.4208590124756663e+01 3.0030999999997174e+01 0 0 0
629 2 1.2305000000000001e+00 1.4919019630994494e+01 3.0030999999997174e+01 0 0 0
631 2 2.4610000000000003e+00 1.4208590124756663e+01 3.0030999999997174e+01 0 0 0
674 2 3.6915000000000004e+00 1.4919019630994494e+01 3.0030999999997174e+01 0 0 0
905 2 0.0000000000000000e+00 1.2787731112280996e+01 3.3269581414237692e+01 0 0 0
906 2 1.2305000000000001e+00 1.3498160618518829e+01 3.3269581414237692e+01 0 0 0
924 2 2.4610000000000003e+00 1.2787731112280996e+01 3.3269581414237692e+01 0 0 0
925 2 3.6915000000000004e+00 1.3498160618518829e+01 3.3269581414237692e+01 0 0 0
904 2 0.0000000000000000e+00 1.5629449137232333e+01 3.3269581414237692e+01 0 0 0
922 2 1.2305000000000001e+00 1.4919019630994494e+01 3.3269581414237692e+01 0 0 0
923 2 2.4610000000000003e+00 1.5629449137232328e+01 3.3269581414237692e+01 0 0 0
945 2 3.6915000000000004e+00 1.4919019630994494e+01 3.3269581414237692e+01 0 0 0
678 2 4.9220000000000006e+00 1.2787731112280996e+01 3.0030999999997174e+01 0 0 0
725 2 7.3829999999999991e+00 1.2787731112280996e+01 3.0030999999997174e+01 0 0 0
676 2 4.9220000000000006e+00 1.4208590124756663e+01 3.0030999999997174e+01 0 0 0
721 2 6.1524999999999990e+00 1.4919019630994494e+01 3.0030999999997174e+01 0 0 0
723 2 7.3830000000000009e+00 1.4208590124756663e+01 3.0030999999997174e+01 0 0 0
768 2 8.6135000000000002e+00 1.4919019630994494e+01 3.0030999999997174e+01 0 0 0
947 2 4.9220000000000006e+00 1.2787731112280996e+01 3.3269581414237692e+01 0 0 0
948 2 6.1524999999999990e+00 1.3498160618518829e+01 3.3269581414237692e+01 0 0 0
971 2 7.3829999999999991e+00 1.2787731112280996e+01 3.3269581414237692e+01 0 0 0
972 2 8.6135000000000002e+00 1.3498160618518835e+01 3.3269581414237692e+01 0 0 0
946 2 4.9220000000000006e+00 1.5629449137232333e+01 3.3269581414237692e+01 0 0 0
969 2 6.1524999999999990e+00 1.4919019630994494e+01 3.3269581414237692e+01 0 0 0
970 2 7.3829999999999991e+00 1.5629449137232333e+01 3.3269581414237692e+01 0 0 0
993 2 8.6135000000000002e+00 1.4919019630994494e+01 3.3269581414237692e+01 0 0 0
4796 1 1.6520525362604286e+00 3.2016100944811994e+00 3.6569632633287029e+01 0 -1 0
1312 1 1.9467445325203541e+00 3.2679599248876690e+00 3.9241904419188273e+01 1 0 0
5138 1 2.1029096957248088e+00 5.6829974208076872e-01 3.5494546309247212e+01 0 0 -1
1235 1 6.2039177536324290e+00 1.5781643237538934e+00 3.5626737905003694e+01 1 1 -1
1953 1 8.8395188207599542e+00 8.1158580537913849e-01 3.6575631938361681e+01 0 -1 -1
1302 1 8.8306806148563712e+00 6.1322673704950759e-01 3.9286220784346654e+01 0 1 0
3602 1 3.3062217116282047e+00 5.1041480552824607e+00 3.5676503484032835e+01 3 2 -1
6167 1 2.8727494451553386e+00 7.7170998524274932e+00 3.6488453381092299e+01 -2 2 -1
3696 1 3.2445367002613050e+00 7.8508304969290386e+00 3.9072427384075809e+01 1 3 0
4881 1 5.7981109182029442e+00 4.2843052692271479e+00 3.6444568817068941e+01 2 1 0
6248 1 7.6967310400958153e+00 6.0142448295684048e+00 3.5652381631883799e+01 -1 -1 -1
2911 1 5.9492793500758205e+00 4.4010682046367515e+00 3.9364227084849901e+01 0 2 0
3481 1 6.1287557978106966e-01 8.7452752412295371e+00 3.5556899405499209e+01 -1 0 -1
1547 1 4.4413232835595888e+00 1.1740910555174841e+01 3.6184390668083964e+01 1 0 -1
2885 1 2.0763673614877981e-01 1.1064911649596304e+01 3.6684975967346446e+01 0 1 -1
5048 1 4.9346698837788078e-01 1.1012496062434565e+01 3.9207628390742727e+01 1 -1 0
1698 1 4.7385578069932803e+00 1.2020117392024941e+01 3.8909835349985755e+01 0 3 -1
1795 1 9.2862725513872686e+00 1.0087947104525497e+01 3.5821621361092937e+01 1 -1 0
1319 1 7.1975868879169367e+00 8.4443776064137541e+00 3.6682503079747050e+01 0 0 0
473 1 4.9395009964375829e+00 9.1816732251901385e+00 3.5595921260030494e+01 1 0 0
1517 1 7.7739595641974173e+00 8.6723542519470858e+00 3.9252600396664135e+01 1 -1 0
4804 1 1.9388995738389343e+00 1.5476859422123791e+01 3.6306312230484522e+01 0 1 0
2851 1 1.9779997169214971e+00 1.2689494932005221e+01 3.5599717787108361e+01 -1 3 0
4964 1 1.5211582814242841e+00 1.5151193050080517e+01 3.8985606056296163e+01 1 1 -1
3103 1 9.0131785610395738e+00 1.2827798136977300e+01 3.6409795080074375e+01 0 0 -1
1956 1 8.8344228260177964e+00 1.2835414637059435e+01 3.9182731254725766e+01 1 1 -1
6114 1 6.5616996241662715e+00 1.3513241180363591e+01 3.5756194114148116e+01 -3 -1 0
333 1 6.0698450597600466e+00 1.6279665281283123e+01 3.6793207857668591e+01 0 -1 -1
4865 1 2.2582246466969860e+00 6.7264079013303779e-01 4.3174025135489103e+01 0 1 -1
5003 1 2.0935539575945121e+00 7.4743266663566010e-01 4.0251958787083723e+01 1 0 -1
3184 1 4.2529895167449450e+00 2.2012919218606175e+00 4.3842401604534501e+01 3 -1 0
3512 1 6.6757715404271609e+00 1.2765147318193852e+00 4.2915716705865336e+01 2 2 -1
1416 1 6.4529686438091476e+00 1.5196024514865294e+00 4.0295285886700370e+01 1 1 0
3639 1 8.5363857723479732e+00 2.9590632403731405e+00 4.3854057165153350e+01 -2 0 -1
5066 1 3.6745758279673115e+00 4.8921236468197034e+00 4.2760177880235261e+01 0 0 -1
1968 1 3.5027814351693589e+00 5.1687074925778980e+00 4.0039757094804841e+01 -1 -2 -1
6303 1 1.1871519042565069e+00 5.8947324332978246e+00 4.3460929477027904e+01 -2 -2 -1
3054 1 8.4079759773808362e+00 5.8494931866120172e+00 4.2986591032012342e+01 2 -2 0
2872 1 8.0273308907660095e+00 6.1127734938747489e+00 4.0185926770627148e+01 0 3 -1
5065 1 5.6527740705935985e+00 6.7966328929072146e+00 4.3560427983627918e+01 0 1 0
1653 1 9.1376637438788522e-01 8.7087939189522245e+00 4.2902749929488209e+01 0 1 -1
298 1 2.9174690008720079e+00 1.0325212904299203e+01 4.3824661316015693e+01 1 2 0
6040 1 7.9473105169194791e-01 8.4635663012901006e+00 4.0244775000359297e+01 1 1 0
209 1 5.3791344160737058e+00 9.5115860629196618e+00 4.0014822949222378e+01 0 0 0
1404 1 5.3879040727535834e+00 9.5575847850244937e+00 4.2632187736695570e+01 3 1 0
3259 1 7.0867518893879549e+00 1.1257403541283105e+01 4.3737133765486760e+01 0 0 -1
3006 1 9.3958480739414139e+00 1.0213804353373892e+01 4.2856569863032362e+01 1 2 0
1357 1 9.6826611230980202e+00 1.0380465145595645e+01 4.0255371269632462e+01 -3 3 -1
3692 1 2.4181257275411281e+00 1.2642493545076283e+01 3.9977254995320081e+01 0 -1 0
3402 1 2.1055369598380449e+00 1.2842992494413179e+01 4.2744229950258557e+01 -1 2 -1
1306 1 3.9908864795726959e+00 1.4816043730721615e+01 4.3714934751111031e+01 0 0 -1
6164 1 6.4723709789747925e+00 1.3976068081585886e+01 4.0053918121520908e+01 1 1 0
2078 1 6.3223262172437202e+00 1.3800883298627319e+01 4.2832103465409546e+01 1 0 0
4588 1 8.3391877053490813e+00 1.5597145043156901e+01 4.3611500553148616e+01 -2 2 0
3117 1 4.3136982623337010e+00 2.2651506363500644e+00 4.6645319036173888e+01 3 0 -1
3178 1 1.8683478605982464e+00 3.4965896760027015e+00 4.7504660784599025e+01 1 0 -1
1297 1 9.5652630438239186e+00 5.1470441019394464e-01 4.7481101094936747e+01 2 1 0