LAMMPS data file via write_data, version 16 Mar 2018, timestep = 100000

6337 atoms
2 atom types

0.0000000000000000e+00 4.9219999999999999e+01 xlo xhi
0.0000000000000000e+00 4.9019635930410494e+01 ylo yhi
2.5999139521330221e+00 5.7462086047865299e+01 zlo zhi

Masses

1 18.015
2 12.01

Atoms # atomic

1530 1 2.4121212836682946e+00 1.9405320146111915e+00 4.7756101120543892e+00 0 0 1
6092 1 4.2286203799733277e+00 5.7500504900803640e-01 3.4076175145623786e+00 0 1 1
3465 1 2.9967856642013613e-01 2.8289150913348964e+00 2.9137381004820759e+00 0 0 0
3534 1 7.5858610258519308e+00 1.6023379574953032e+00 4.5582948499160478e+00 0 0 0
6133 1 6.4589226467544236e+00 3.7778283070716618e+00 5.6664719553307563e+00 1 0 1
4942 1 3.7855542059221596e+00 5.3324278097681317e+00 2.9473209230094137e+00 1 0 1
3093 1 1.9402391859801531e+00 5.9003634424057241e+00 6.6725145016673322e+00 1 1 1
2884 1 8.1197246277766011e-01 7.8288151703444093e+00 5.0129867152042253e+00 0 1 1
3519 1 3.5716271809704607e+00 4.1054748123141449e+00 5.2414304322088023e+00 1 1 1
3141 1 7.6497684133518513e+00 6.0626735621880234e+00 4.8378260703673206e+00 0 0 0
4798 1 6.3331163959781094e+00 8.0825362946202013e+00 6.0911378436352290e+00 1 0 0
2077 1 2.7486719198355809e+00 8.4754771017736239e+00 2.9378166726043160e+00 0 0 0
3210 1 2.0243952434378460e+00 1.1372853445601727e+01 3.2942324879853393e+00 -1 0 0
1684 1 5.0204946420334551e+00 9.5685788360510049e+00 4.0953871079930781e+00 1 1 0
1254 1 7.5803661319620375e+00 1.0019427958882133e+01 2.7104642389043390e+00 1 0 1
2834 1 2.3479086915547613e+00 1.4396750075917792e+01 6.3012581097392371e+00 1 0 1
1500 1 4.4651749768840370e+00 1.2568726813134980e+01 5.0436961361493671e+00 0 1 0
3503 1 3.1330773922127051e+00 1.4216595431983515e+01 2.6701279922769072e+00 0 0 0
6239 1 6.9823475533763490e+00 1.3803376712778400e+01 4.5592086973142703e+00 1 0 1
2858 1 8.6482921915102438e+00 1.3824379605547001e+01 6.7686608885410458e+00 0 1 1
3673 1 7.8564570997438354e-01 4.7431438439390655e-01 9.3032803485273590e+00 1 0 1
3445 1 2.5853619512576658e+00 9.4599578183324695e-01 1.1586634755252705e+01 0 1 0
5181 1 7.1423763602703687e+00 6.9594350921673553e-01 8.7819931867257992e+00 0 1 0
1573 1 7.8776285822744994e+00 3.2505518764554613e+00 8.2168474379588545e+00 1 1 1
6058 1 5.1476370323144094e+00 1.4953242474115362e+00 1.0601151565019002e+01 1 1 1
6152 1 9.4947000807119792e+00 1.9289714070349626e+00 1.1372835156968829e+01 0 1 1
1775 1 3.6315546714996625e+00 5.0987617157577434e+00 1.0560142645304223e+01 0 1 0
1526 1 2.3766825208977620e+00 7.0118443565907409e+00 9.0385103817824710e+00 0 1 1
2865 1 6.4683255530671122e+00 4.9970688772096938e+00 1.0022242698539619e+01 0 1 1
3396 1 5.5478101375300124e+00 7.2270942279493324e+00 8.6750627792356507e+00 1 -1 0
301 1 8.8387287324385930e+00 6.3537508366676327e+00 1.0633175529077437e+01 0 0 1
1594 1 4.3261050633294289e+00 1.0317475638756067e+01 1.1438075260387869e+01 0 0 1
3216 1 6.8032032666079778e-01 1.1300635838012353e+01 8.8255765397470451e+00 1 0 0
6110 1 3.2308743559246076e+00 9.6730909085120054e+00 8.9038538400098801e+00 0 0 1
410 1 7.9873312987240341e+00 1.1823092712615203e+01 8.5044098360265501e+00 0 1 0
2115 1 6.6954680001349107e+00 8.4515668899562897e+00 1.1286458561213712e+01 0 0 1
1481 1 8.5594680980376268e+00 9.4840424395231313e+00 7.1726121046047995e+00 1 1 0
116 1 5.0018264561194972e+00 1.1643993419977409e+01 7.8071617730356069e+00 1 0 1
5266 1 8.3084305743243192e+00 1.0731899847611741e+01 1.1188391470174686e+01 1 0 1
3243 1 1.5555307606730475e+00 1.3254092282030717e+01 1.0344084749615252e+01 0 0 0
4639 1 3.7564762481032266e+00 1.4049461576217356e+01 8.6743299888389735e+00 1 0 1
1553 1 9.7770274598150380e+00 1.5045625405710229e+01 1.0948129057468272e+01 1 0 0
1782 1 1.2061041946202524e+00 2.2619610526850802e+00 1.4045869026546249e+01 1 1 0
3366 1 3.5364053871309511e+00 3.8087932823327000e+00 1.4940151713139304e+01 0 1 0
3425 1 3.2961043462153792e+00 5.6408004946275792e-01 1.6085289733307626e+01 -1 1 0
3739 1 6.8565455286435748e+00 2.9111181279273453e+00 1.2235188287093244e+01 0 1 1
4996 1 6.1167391017436330e+00 3.8218435927705210e+00 1.4923415258308248e+01 1 -1 0
365 1 5.7800353524568102e+00 5.7903209811168721e-01 1.4454650593788648e+01 0 0 0
17 1 8.6719909073129351e+00 2.4341567434624811e-01 1.5160631861949945e+01 -1 1 0
3373 1 7.1841425780750101e-01 7.3839364107059868e+00 1.3075278123912829e+01 1 1 0
3521 1 3.3365921824081295e+00 6.1509288093831556e+00 1.3104167504237472e+01 1 2 0
135 1 5.8527821956800254e+00 7.1289978431327468e+00 1.3558378992480337e+01 0 1 0
6163 1 8.1475754081854479e+00 6.0432494577638076e+00 1.4620938067076180e+01 1 0 0
5106 1 7.4023064003074746e-01 1.1192559510354876e+01 1.4513781549964010e+01 1 0 0
1723 1 2.7217826675245833e+00 9.4356384220287950e+00 1.3474074241575082e+01 0 0 1
2014 1 4.8461400956048468e+00 9.0606026013123770e+00 1.5877399353039863e+01 0 -1 0
1988 1 6.5570368423144094e+00 1.0322888444448981e+01 1.3956931720357311e+01 0 0 0
3627 1 9.1304653278834671e+00 9.7112723520059774e+00 1.4713289852532565e+01 0 0 1
5133 1 2.6900356354215256e+00 1.5467321744768975e+01 1.5910647805632452e+01 0 1 0
1679 1 3.5083084237024798e+00 1.3078909200268322e+01 1.2273460334793789e+01 0 1 1
1984 1 2.7896953650614589e+00 1.2763224729618120e+01 1.5046508241703014e+01 0 1 0
3239 1 2.7152468387767215e+00 1.5915095369383247e+01 1.2989237125962664e+01 1 0 0
3529 1 7.4572362080036338e+00 1.3381549868602619e+01 1.2359280584130538e+01 0 0 1
512 1 5.6883059852793698e+00 1.2845956955649317e+01 1.4773880095258825e+01 0 1 1
151 1 8.7883732268322756e+00 1.3192298684266261e+01 1.5000739084421530e+01 0 1 0
4953 1 8.0332141640518202e+00 1.5366480226006782e+01 1.6314790829039595e+01 0 0 0
1389 1 5.3729576917593169e+00 1.5749770414051252e+01 1.2356652557957446e+01 -1 0 1
5062 1 2.3275554486216192e+00 2.9797514568027665e+00 2.0075126728737938e+01 1 1 0
277 1 4.1625076866245664e-01 8.6834382130847587e-01 2.0758274951675507e+01 0 0 0
285 1 1.5777661533170761e+00 2.4444726993793950e+00 1.7295408483571855e+01 1 0 0
3047 1 4.6688814530322533e+00 3.5768638867022853e+00 1.8782934073617668e+01 1 0 1
1952 1 9.1026397490165625e+00 3.0809139370110112e+00 1.7698242873549834e+01 1 1 0
335 1 6.8284137329735968e+00 2.3489356746386574e+00 1.7130416388676721e+01 1 0 0
1785 1 2.2830676653677195e+00 7.7798285752754941e+00 1.6647218574817082e+01 1 1 0
4645 1 2.9118157444724546e+00 5.1618616191990618e+00 1.7205262258798605e+01 0 1 1
2844 1 8.6859146764973847e+00 7.6619576359018433e+00 1.6569301283642158e+01 0 0 1
3309 1 5.6767144830574914e+00 6.0876067796687439e+00 1.9394796221385164e+01 -1 0 0
308 1 5.7569086857788943e-01 1.2186598830226815e+01 1.7307017393040034e+01 0 -1 0
1380 1 1.9846605565483000e+00 8.6821086986920104e+00 1.9317135676618069e+01 1 1 1
1264 1 2.3234323325943746e+00 1.1369060585135880e+01 1.9739569757619421e+01 0 0 1
106 1 4.5570918894927930e+00 1.1574484708559403e+01 1.7381454818703098e+01 0 0 0
2951 1 6.8452442641789162e+00 9.7928110664110548e+00 2.0127722012215404e+01 0 0 0
5100 1 6.4012198919608796e+00 8.1712549209372529e+00 1.7856836854797276e+01 1 0 0
224 1 7.3098351498501719e+00 1.1796775563781413e+01 1.8293001305972638e+01 0 1 0
3566 1 9.5033938283198953e+00 1.1397866550765906e+01 1.6728936812103953e+01 1 0 0
6321 1 1.8502872640039634e+00 1.4370686990737266e+01 1.9538851391467229e+01 0 0 0
3267 1 7.6419464874205874e+00 1.4647076824136608e+01 1.9027115974896947e+01 1 0 0
412 1 5.2557282227074911e+00 1.6012054878422028e+01 1.6888758135951754e+01 0 -1 0
1846 1 9.5710299563188315e+00 1.2722560441302987e+01 2.0236498352043597e+01 0 1 0
1968 1 4.5310236318197576e+00 3.4748088959149155e+00 2.4592510142181791e+01 0 1 0
3036 1 1.3880573913768934e+00 1.7357843887781016e-01 2.3360751544687748e+01 0 1 1
6224 1 3.7371100569521385e+00 4.4685702891830353e-01 2.4581408539400741e+01 1 -1 1
6119 1 4.1788700854678646e+00 2.1359348795109199e+00 2.2042077644837377e+01 1 1 0
1873 1 7.4613512054903648e+00 3.8877062549041836e+00 2.4255783558799330e+01 1 0 1
5149 1 6.8316049267316128e+00 2.7131484822310847e+00 2.1757311151366356e+01 0 0 1
1938 1 8.6277294283347050e+00 5.3393008418904508e-01 2.1702357859170938e+01 0 0 0
3385 1 2.7801843565174358e+00 5.5914236315796382e+00 2.4017028883828228e+01 1 0 0
1853 1 3.6619031715894717e+00 7.0285966194701128e+00 2.0941298368159448e+01 1 0 0
1919 1 1.3749072807787373e+00 5.2283217357965963e+00 2.1369273469627014e+01 0 1 0
3455 1 8.1161406656134680e+00 6.3439100413533414e+00 2.3498605107565371e+01 0 1 1
5157 1 7.7075793423205923e+00 5.2813379378159606e+00 2.0938329614484019e+01 0 0 0
4434 1 3.8288380452541761e+00 8.2270858795447079e+00 2.3972240648441208e+01 1 1 1
173 1 4.5032892758947467e+00 1.0245484652661252e+01 2.1656605560576949e+01 1 0 0
6317 1 1.8520044231710142e+00 1.0081161211750313e+01 2.4489651081366510e+01 1 0 1
1692 1 4.6421190666025742e+00 1.1769986779715081e+01 2.4126340111534727e+01 0 0 0
1461 1 3.4082023824973917e-01 1.1028449649321237e+01 2.1846918328476939e+01 0 0 1
3430 1 9.5182298723980399e+00 1.0321229975951299e+01 2.1247757948481027e+01 0 0 0
3527 1 6.6170185829217960e+00 8.7327488828426141e+00 2.3840666785332065e+01 0 0 0
1986 1 7.6289586018276339e+00 1.1209336350379926e+01 2.4298379335011180e+01 1 1 0
4499 1 1.6878382745261624e+00 1.3111942286067247e+01 2.4106631021797728e+01 0 1 1
5000 1 9.7474149374431954e-02 1.3509751827855029e+01 2.1525332072794292e+01 1 -1 0
1942 1 3.8954728744769205e+00 1.4837206311328842e+01 2.3681602951172913e+01 0 1 0
4800 1 9.6143647281182893e+00 1.4894872348119597e+01 2.3912588419156855e+01 1 0 1
3046 1 6.0965446889315364e+00 1.5596771320281073e+01 2.1557542378440509e+01 0 0 0
241 1 7.6084432060852309e+00 1.3306256713498263e+01 2.2141396787767238e+01 -1 0 0
1520 1 7.0836584381582295e+00 1.5998994481320713e+01 2.4219994096144664e+01 -1 1 0
554 2 0.0000000000000000e+00 2.8417180249513345e+00 2.6871656969047333e+01 0 0 0
556 2 0.0000000000000000e+00 0.0000000000000000e+00 2.6871656969047333e+01 0 0 0
558 2 1.2305000000000001e+00 7.1042950623783474e-01 2.6871656969047333e+01 0 0 0
565 2 1.2305000000000001e+00 2.1312885187134998e+00 2.6871656969047333e+01 0 0 0
567 2 2.4610000000000003e+00 2.8417180249513345e+00 2.6871656969047333e+01 0 0 0
569 2 2.4610000000000003e+00 0.0000000000000000e+00 2.6871656969047333e+01 0 0 0
571 2 3.6915000000000004e+00 7.1042950623783474e-01 2.6871656969047333e+01 0 0 0
586 2 3.6914999999999996e+00 2.1312885187134998e+00 2.6871656969047333e+01 0 0 0
588 2 4.9220000000000006e+00 2.8417180249513332e+00 2.6871656969047333e+01 0 0 0
590 2 4.9220000000000006e+00 0.0000000000000000e+00 2.6871656969047333e+01 0 0 0
592 2 6.1524999999999999e+00 7.1042950623783407e-01 2.6871656969047333e+01 0 0 0
615 2 6.1524999999999999e+00 2.1312885187134989e+00 2.6871656969047333e+01 0 0 0
617 2 7.3829999999999991e+00 2.8417180249513345e+00 2.6871656969047333e+01 0 0 0
619 2 7.3829999999999991e+00 0.0000000000000000e+00 2.6871656969047333e+01 0 0 0
621 2 8.6134999999999984e+00 7.1042950623783407e-01 2.6871656969047333e+01 0 0 0
652 2 8.6134999999999984e+00 2.1312885187135002e+00 2.6871656969047333e+01 0 0 0
561 2 0.0000000000000000e+00 4.2625770374269996e+00 2.6871656969047333e+01 0 0 0
563 2 1.2305000000000001e+00 4.9730065436648339e+00 2.6871656969047333e+01 0 0 0
578 2 1.2305000000000001e+00 6.3938655561404980e+00 2.6871656969047333e+01 0 0 0
582 2 2.4610000000000003e+00 4.2625770374269996e+00 2.6871656969047333e+01 0 0 0
584 2 3.6914999999999996e+00 4.9730065436648339e+00 2.6871656969047333e+01 0 0 0
607 2 3.6914999999999996e+00 6.3938655561404980e+00 2.6871656969047333e+01 0 0 0
559 2 0.0000000000000000e+00 7.1042950623783341e+00 2.6871656969047333e+01 0 0 0
580 2 2.4610000000000003e+00 7.1042950623783341e+00 2.6871656969047333e+01 0 0 0
611 2 4.9220000000000006e+00 4.2625770374269978e+00 2.6871656969047333e+01 0 0 0
613 2 6.1524999999999999e+00 4.9730065436648339e+00 2.6871656969047333e+01 0 0 0
644 2 6.1524999999999999e+00 6.3938655561404980e+00 2.6871656969047333e+01 0 0 0
648 2 7.3829999999999991e+00 4.2625770374269996e+00 2.6871656969047333e+01 0 0 0
650 2 8.6135000000000002e+00 4.9730065436648339e+00 2.6871656969047333e+01 0 0 0
689 2 8.6135000000000002e+00 6.3938655561404980e+00 2.6871656969047333e+01 0 0 0
609 2 4.9220000000000006e+00 7.1042950623783341e+00 2.6871656969047333e+01 0 0 0
646 2 7.3830000000000009e+00 7.1042950623783341e+00 2.6871656969047333e+01 0 0 0
574 2 0.0000000000000000e+00 8.5251540748539991e+00 2.6871656969047333e+01 0 0 0
576 2 1.2305000000000001e+00 9.2355835810918343e+00 2.6871656969047333e+01 0 0 0
603 2 2.4610000000000003e+00 8.5251540748539991e+00 2.6871656969047333e+01 0 0 0
605 2 3.6915000000000004e+00 9.2355835810918343e+00 2.6871656969047333e+01 0 0 0
572 2 0.0000000000000000e+00 1.1366872099805333e+01 2.6871656969047333e+01 0 0 0
599 2 1.2305000000000001e+00 1.0656442593567498e+01 2.6871656969047333e+01 0 0 0
601 2 2.4610000000000003e+00 1.1366872099805333e+01 2.6871656969047333e+01 0 0 0
636 2 3.6914999999999996e+00 1.0656442593567499e+01 2.6871656969047333e+01 0 0 0
640 2 4.9220000000000006e+00 8.5251540748539991e+00 2.6871656969047333e+01 0 0 0
642 2 6.1524999999999999e+00 9.2355835810918343e+00 2.6871656969047333e+01 0 0 0
685 2 7.3830000000000009e+00 8.5251540748539991e+00 2.6871656969047333e+01 0 0 0
687 2 8.6134999999999984e+00 9.2355835810918343e+00 2.6871656969047333e+01 0 0 0
638 2 4.9220000000000006e+00 1.1366872099805333e+01 2.6871656969047333e+01 0 0 0
681 2 6.1524999999999999e+00 1.0656442593567499e+01 2.6871656969047333e+01 0 0 0
683 2 7.3829999999999991e+00 1.1366872099805333e+01 2.6871656969047333e+01 0 0 0
728 2 8.6134999999999984e+00 1.0656442593567498e+01 2.6871656969047333e+01 0 0 0
597 2 1.2305000000000001e+00 1.3498160618518829e+01 2.6871656969047333e+01 0 0 0
595 2 0.0000000000000000e+00 1.2787731112280996e+01 2.6871656969047333e+01 0 0 0
593 2 0.0000000000000000e+00 1.5629449137232333e+01 2.6871656969047333e+01 0 0 0
632 2 2.4610000000000003e+00 1.2787731112280996e+01 2.6871656969047333e+01 0 0 0
634 2 3.6915000000000004e+00 1.3498160618518829e+01 2.6871656969047333e+01 0 0 0
628 2 1.2305000000000001e+00 1.4919019630994494e+01 2.6871656969047333e+01 0 0 0
630 2 2.4610000000000003e+00 1.5629449137232328e+01 2.6871656969047333e+01 0 0 0
673 2 3.6915000000000004e+00 1.4919019630994494e+01 2.6871656969047333e+01 0 0 0
677 2 4.9220000000000006e+00 1.2787731112280996e+01 2.6871656969047333e+01 0 0 0
767 2 8.6135000000000002e+00 1.4919019630994494e+01 2.6871656969047333e+01 0 0 0
722 2 7.3829999999999991e+00 1.5629449137232333e+01 2.6871656969047333e+01 0 0 0
724 2 7.3829999999999991e+00 1.2787731112280996e+01 2.6871656969047333e+01 0 0 0
720 2 6.1524999999999990e+00 1.4919019630994494e+01 2.6871656969047333e+01 0 0 0
726 2 8.6135000000000002e+00 1.3498160618518835e+01 2.6871656969047333e+01 0 0 0
675 2 4.9220000000000006e+00 1.5629449137232333e+01 2.6871656969047333e+01 0 0 0
679 2 6.1524999999999990e+00 1.3498160618518829e+01 2.6871656969047333e+01 0 0 0
555 2 0.0000000000000000e+00 1.4208590124756650e+00 3.0030999999999196e+01 0 0 0
557 2 0.0000000000000000e+00 0.0000000000000000e+00 3.0030999999999196e+01 0 0 0
566 2 1.2305000000000001e+00 2.1312885187134998e+00 3.0030999999999196e+01 0 0 0
568 2 2.4610000000000003e+00 1.4208590124756650e+00 3.0030999999999196e+01 0 0 0
570 2 2.4610000000000003e+00 0.0000000000000000e+00 3.0030999999999196e+01 0 0 0
587 2 3.6914999999999996e+00 2.1312885187134998e+00 3.0030999999999196e+01 0 0 0
564 2 1.2305000000000001e+00 3.5521475311891644e+00 3.0030999999999196e+01 0 0 0
585 2 3.6914999999999996e+00 3.5521475311891644e+00 3.0030999999999196e+01 0 0 0
883 2 0.0000000000000000e+00 2.8417180249513345e+00 3.3190343030950757e+01 0 0 0
884 2 0.0000000000000000e+00 0.0000000000000000e+00 3.3190343030950757e+01 0 0 0
885 2 1.2305000000000001e+00 7.1042950623783474e-01 3.3190343030950757e+01 0 0 0
889 2 1.2305000000000001e+00 2.1312885187134998e+00 3.3190343030950757e+01 0 0 0
890 2 2.4610000000000003e+00 2.8417180249513345e+00 3.3190343030950757e+01 0 0 0
891 2 2.4610000000000003e+00 0.0000000000000000e+00 3.3190343030950757e+01 0 0 0
892 2 3.6915000000000004e+00 7.1042950623783474e-01 3.3190343030950757e+01 0 0 0
900 2 3.6914999999999996e+00 2.1312885187134998e+00 3.3190343030950757e+01 0 0 0
589 2 4.9220000000000006e+00 1.4208590124756650e+00 3.0030999999999196e+01 0 0 0
591 2 4.9220000000000006e+00 0.0000000000000000e+00 3.0030999999999196e+01 0 0 0
616 2 6.1524999999999999e+00 2.1312885187134989e+00 3.0030999999999196e+01 0 0 0
618 2 7.3829999999999991e+00 1.4208590124756659e+00 3.0030999999999196e+01 0 0 0
620 2 7.3829999999999991e+00 0.0000000000000000e+00 3.0030999999999196e+01 0 0 0
653 2 8.6134999999999984e+00 2.1312885187135002e+00 3.0030999999999196e+01 0 0 0
614 2 6.1524999999999999e+00 3.5521475311891644e+00 3.0030999999999196e+01 0 0 0
651 2 8.6134999999999984e+00 3.5521475311891657e+00 3.0030999999999196e+01 0 0 0
901 2 4.9220000000000006e+00 2.8417180249513332e+00 3.3190343030950757e+01 0 0 0
902 2 4.9220000000000006e+00 0.0000000000000000e+00 3.3190343030950757e+01 0 0 0
903 2 6.1524999999999999e+00 7.1042950623783407e-01 3.3190343030950757e+01 0 0 0
915 2 6.1524999999999999e+00 2.1312885187134989e+00 3.3190343030950757e+01 0 0 0
916 2 7.3829999999999991e+00 2.8417180249513345e+00 3.3190343030950757e+01 0 0 0
917 2 7.3829999999999991e+00 0.0000000000000000e+00 3.3190343030950757e+01 0 0 0
918 2 8.6134999999999984e+00 7.1042950623783407e-01 3.3190343030950757e+01 0 0 0
934 2 8.6134999999999984e+00 2.1312885187135002e+00 3.3190343030950757e+01 0 0 0
560 2 0.0000000000000000e+00 5.6834360499026637e+00 3.0030999999999196e+01 0 0 0
562 2 0.0000000000000000e+00 4.2625770374269996e+00 3.0030999999999196e+01 0 0 0
579 2 1.2305000000000001e+00 6.3938655561404980e+00 3.0030999999999196e+01 0 0 0
581 2 2.4610000000000003e+00 5.6834360499026637e+00 3.0030999999999196e+01 0 0 0
583 2 2.4610000000000003e+00 4.2625770374269996e+00 3.0030999999999196e+01 0 0 0
608 2 3.6914999999999996e+00 6.3938655561404980e+00 3.0030999999999196e+01 0 0 0
577 2 1.2305000000000001e+00 7.8147245686161639e+00 3.0030999999999196e+01 0 0 0
606 2 3.6914999999999996e+00 7.8147245686161639e+00 3.0030999999999196e+01 0 0 0
887 2 0.0000000000000000e+00 4.2625770374269996e+00 3.3190343030950757e+01 0 0 0
888 2 1.2305000000000001e+00 4.9730065436648339e+00 3.3190343030950757e+01 0 0 0
896 2 1.2305000000000001e+00 6.3938655561404980e+00 3.3190343030950757e+01 0 0 0
898 2 2.4610000000000003e+00 4.2625770374269996e+00 3.3190343030950757e+01 0 0 0
899 2 3.6914999999999996e+00 4.9730065436648339e+00 3.3190343030950757e+01 0 0 0
911 2 3.6914999999999996e+00 6.3938655561404980e+00 3.3190343030950757e+01 0 0 0
886 2 0.0000000000000000e+00 7.1042950623783341e+00 3.3190343030950757e+01 0 0 0
897 2 2.4610000000000003e+00 7.1042950623783341e+00 3.3190343030950757e+01 0 0 0
610 2 4.9220000000000006e+00 5.6834360499026637e+00 3.0030999999999196e+01 0 0 0
612 2 4.9220000000000006e+00 4.2625770374269978e+00 3.0030999999999196e+01 0 0 0
645 2 6.1524999999999999e+00 6.3938655561404980e+00 3.0030999999999196e+01 0 0 0
647 2 7.3829999999999991e+00 5.6834360499026637e+00 3.0030999999999196e+01 0 0 0
649 2 7.3829999999999991e+00 4.2625770374269996e+00 3.0030999999999196e+01 0 0 0
690 2 8.6135000000000002e+00 6.3938655561404980e+00 3.0030999999999196e+01 0 0 0
643 2 6.1524999999999999e+00 7.8147245686161639e+00 3.0030999999999196e+01 0 0 0
688 2 8.6135000000000002e+00 7.8147245686161639e+00 3.0030999999999196e+01 0 0 0
913 2 4.9220000000000006e+00 4.2625770374269978e+00 3.3190343030950757e+01 0 0 0
914 2 6.1524999999999999e+00 4.9730065436648339e+00 3.3190343030950757e+01 0 0 0
930 2 6.1524999999999999e+00 6.3938655561404980e+00 3.3190343030950757e+01 0 0 0
932 2 7.3829999999999991e+00 4.2625770374269996e+00 3.3190343030950757e+01 0 0 0
933 2 8.6135000000000002e+00 4.9730065436648339e+00 3.3190343030950757e+01 0 0 0
953 2 8.6135000000000002e+00 6.3938655561404980e+00 3.3190343030950757e+01 0 0 0
912 2 4.9220000000000006e+00 7.1042950623783341e+00 3.3190343030950757e+01 0 0 0
931 2 7.3830000000000009e+00 7.1042950623783341e+00 3.3190343030950757e+01 0 0 0
573 2 0.0000000000000000e+00 9.9460130873296642e+00 3.0030999999999196e+01 0 0 0
575 2 0.0000000000000000e+00 8.5251540748539991e+00 3.0030999999999196e+01 0 0 0
602 2 2.4610000000000003e+00 9.9460130873296642e+00 3.0030999999999196e+01 0 0 0
604 2 2.4610000000000003e+00 8.5251540748539991e+00 3.0030999999999196e+01 0 0 0
598 2 1.2305000000000001e+00 1.2077301606043163e+01 3.0030999999999196e+01 0 0 0
600 2 1.2305000000000001e+00 1.0656442593567498e+01 3.0030999999999196e+01 0 0 0
635 2 3.6914999999999996e+00 1.2077301606043163e+01 3.0030999999999196e+01 0 0 0
637 2 3.6914999999999996e+00 1.0656442593567499e+01 3.0030999999999196e+01 0 0 0
894 2 0.0000000000000000e+00 8.5251540748539991e+00 3.3190343030950757e+01 0 0 0
895 2 1.2305000000000001e+00 9.2355835810918343e+00 3.3190343030950757e+01 0 0 0
909 2 2.4610000000000003e+00 8.5251540748539991e+00 3.3190343030950757e+01 0 0 0
910 2 3.6915000000000004e+00 9.2355835810918343e+00 3.3190343030950757e+01 0 0 0
893 2 0.0000000000000000e+00 1.1366872099805333e+01 3.3190343030950757e+01 0 0 0
907 2 1.2305000000000001e+00 1.0656442593567498e+01 3.3190343030950757e+01 0 0 0
908 2 2.4610000000000003e+00 1.1366872099805333e+01 3.3190343030950757e+01 0 0 0
926 2 3.6914999999999996e+00 1.0656442593567499e+01 3.3190343030950757e+01 0 0 0
639 2 4.9220000000000006e+00 9.9460130873296642e+00 3.0030999999999196e+01 0 0 0
641 2 4.9220000000000006e+00 8.5251540748539991e+00 3.0030999999999196e+01 0 0 0
684 2 7.3830000000000009e+00 9.9460130873296642e+00 3.0030999999999196e+01 0 0 0
686 2 7.3830000000000009e+00 8.5251540748539991e+00 3.0030999999999196e+01 0 0 0
680 2 6.1524999999999999e+00 1.2077301606043163e+01 3.0030999999999196e+01 0 0 0
682 2 6.1524999999999999e+00 1.0656442593567499e+01 3.0030999999999196e+01 0 0 0
727 2 8.6135000000000002e+00 1.2077301606043163e+01 3.0030999999999196e+01 0 0 0
729 2 8.6134999999999984e+00 1.0656442593567498e+01 3.0030999999999196e+01 0 0 0
928 2 4.9220000000000006e+00 8.5251540748539991e+00 3.3190343030950757e+01 0 0 0
929 2 6.1524999999999999e+00 9.2355835810918343e+00 3.3190343030950757e+01 0 0 0
951 2 7.3830000000000009e+00 8.5251540748539991e+00 3.3190343030950757e+01 0 0 0
952 2 8.6134999999999984e+00 9.2355835810918343e+00 3.3190343030950757e+01 0 0 0
927 2 4.9220000000000006e+00 1.1366872099805333e+01 3.3190343030950757e+01 0 0 0
949 2 6.1524999999999999e+00 1.0656442593567499e+01 3.3190343030950757e+01 0 0 0
950 2 7.3829999999999991e+00 1.1366872099805333e+01 3.3190343030950757e+01 0 0 0
973 2 8.6134999999999984e+00 1.0656442593567498e+01 3.3190343030950757e+01 0 0 0
596 2 0.0000000000000000e+00 1.2787731112280996e+01 3.0030999999999196e+01 0 0 0
633 2 2.4610000000000003e+00 1.2787731112280996e+01 3.0030999999999196e+01 0 0 0
594 2 0.0000000000000000e+00 1.4208590124756663e+01 3.0030999999999196e+01 0 0 0
629 2 1.2305000000000001e+00 1.4919019630994494e+01 3.0030999999999196e+01 0 0 0
631 2 2.4610000000000003e+00 1.4208590124756663e+01 3.0030999999999196e+01 0 0 0
674 2 3.6915000000000004e+00 1.4919019630994494e+01 3.0030999999999196e+01 0 0 0
905 2 0.0000000000000000e+00 1.2787731112280996e+01 3.3190343030950757e+01 0 0 0
906 2 1.2305000000000001e+00 1.3498160618518829e+01 3.3190343030950757e+01 0 0 0
924 2 2.4610000000000003e+00 1.2787731112280996e+01 3.3190343030950757e+01 0 0 0
925 2 3.6915000000000004e+00 1.3498160618518829e+01 3.3190343030950757e+01 0 0 0
904 2 0.0000000000000000e+00 1.5629449137232333e+01 3.3190343030950757e+01 0 0 0
922 2 1.2305000000000001e+00 1.4919019630994494e+01 3.3190343030950757e+01 0 0 0
923 2 2.4610000000000003e+00 1.5629449137232328e+01 3.3190343030950757e+01 0 0 0
945 2 3.6915000000000004e+00 1.4919019630994494e+01 3.3190343030950757e+01 0 0 0
678 2 4.9220000000000006e+00 1.2787731112280996e+01 3.0030999999999196e+01 0 0 0
725 2 7.3829999999999991e+00 1.2787731112280996e+01 3.0030999999999196e+01 0 0 0
676 2 4.9220000000000006e+00 1.4208590124756663e+01 3.0030999999999196e+01 0 0 0
721 2 6.1524999999999990e+00 1.4919019630994494e+01 3.0030999999999196e+01 0 0 0
723 2 7.3830000000000009e+00 1.4208590124756663e+01 3.0030999999999196e+01 0 0 0
768 2 8.6135000000000002e+00 1.4919019630994494e+01 3.0030999999999196e+01 0 0 0
947 2 4.9220000000000006e+00 1.2787731112280996e+01 3.3190343030950757e+01 0 0 0
948 2 6.1524999999999990e+00 1.3498160618518829e+01 3.3190343030950757e+01 0 0 0
971 2 7.3829999999999991e+00 1.2787731112280996e+01 3.3190343030950757e+01 0 0 0
972 2 8.6135000000000002e+00 1.3498160618518835e+01 3.3190343030950757e+01 0 0 0
946 2 4.9220000000000006e+00 1.5629449137232333e+01 3.3190343030950757e+01 0 0 0
969 2 6.1524999999999990e+00 1.4919019630994494e+01 3.3190343030950757e+01 0 0 0
970 2 7.3829999999999991e+00 1.5629449137232333e+01 3.3190343030950757e+01 0 0 0
993 2 8.6135000000000002e+00 1.4919019630994494e+01 3.3190343030950757e+01 0 0 0
3251 1 2.6623228710799780e+00 2.6851651563936447e+00 3.5794572285868398e+01 1 0 -1
4651 1 5.3443607501237989e-01 5.1113213964042803e-01 3.8243680166067911e+01 1 1 -1
6014 1 4.2157193686215937e+00 2.5777713410870660e+00 3.8238061232769233e+01 1 0 0
6098 1 4.7157075414559522e+00 1.4969608619146274e-01 3.6076721886236740e+01 0 0 0
3684 1 7.9715838518677566e+00 1.8638564644570721e-01 3.8839264699064920e+01 1 1 0
3702 1 7.6690443015693601e+00 1.7790055689331177e-01 3.5972462506429800e+01 0 0 0
6188 1 9.6491885998751670e+00 2.2322904494786013e+00 3.5717949819424895e+01 1 0 0
379 1 5.9933144713457009e-01 4.9343239860825063e+00 3.8606789306895728e+01 1 0 -1
5172 1 3.5009376295736985e+00 5.5348795267362831e+00 3.5463333341842400e+01 0 1 0
3000 1 2.6473586236243203e+00 6.7180555848167307e+00 3.7779200607022823e+01 1 1 0
6111 1 8.7008044158876530e+00 4.7407240286168149e+00 3.6206144713096251e+01 1 1 0
4810 1 6.3184505168553065e+00 6.0422160195863306e+00 3.5574308106359723e+01 1 0 -1
2119 1 6.5111647336720679e+00 4.2955095181956864e+00 3.8196367729048610e+01 0 1 0
4876 1 5.1968663261982444e+00 6.5328455344477243e+00 3.9120667483046581e+01 0 0 -1
6011 1 2.3193657841467101e+00 8.8072320819470491e+00 3.5463678478889904e+01 0 0 0
381 1 4.4011499990462148e+00 1.0642996743352636e+01 3.6483975615646315e+01 1 1 0
4826 1 6.6146739678249791e+00 8.6249484393942204e+00 3.8273430107024019e+01 1 -1 -1
2965 1 5.0976046895686453e+00 1.0921309077259901e+01 3.9089766804856424e+01 0 0 0
6077 1 6.5128634093392579e+00 8.8421907932689674e+00 3.5574806313717595e+01 1 0 0
1244 1 9.1437224857438082e+00 9.4045913071963003e+00 3.5686710357710488e+01 1 0 -1
1432 1 9.6524849199123819e-01 1.4734520818203800e+01 3.6132180731095787e+01 1 0 0
3622 1 4.2556194001564549e+00 1.3713998986868678e+01 3.8308670693505981e+01 1 0 0
4710 1 1.4442817356109572e+00 1.3688441843062581e+01 3.8793003063380716e+01 1 0 -1
1482 1 3.7324890795481469e+00 1.5109592337038825e+01 3.5519615068063253e+01 1 0 0
60 1 8.4649334783875538e+00 1.3804661744486424e+01 3.5732323550826422e+01 1 0 -1
3074 1 8.2973617423567489e+00 1.4870041685468438e+01 3.8433380346767862e+01 1 1 0
4622 1 5.6760249912289709e+00 1.3056326247124314e+01 3.5861957910567902e+01 1 0 -1
4424 1 1.2430176145333489e+00 2.5462711826494711e+00 4.2817110947558319e+01 0 0 0
6017 1 1.8013146809876823e+00 2.5070987937584399e+00 3.9816033838374338e+01 2 1 0
4463 1 5.3224584381547011e+00 2.6615630303156657e+00 4.1445004414802270e+01 0 1 -1
1284 1 7.9452863668287907e+00 3.6498424477017903e+00 4.2151196720196197e+01 1 -1 -1
497 1 6.3785843568704221e+00 9.1116895338243353e-01 4.3604772455839502e+01 1 0 0
3743 1 5.2161287772798266e+00 3.5482290850648812e-01 3.9506865946375683e+01 0 1 0
1693 1 8.7964907651114839e+00 6.7142186233779044e-01 4.1577159839138822e+01 0 -1 -1
2143 1 3.9361877293386649e+00 4.3722421723644604e+00 4.3107185409809567e+01 0 0 0
6051 1 7.4375055924375844e-01 6.7635015318535459e+00 4.2795132974788075e+01 0 -1 0
4679 1 4.9888372782326504e+00 6.6850061327811092e+00 4.2024232188513267e+01 1 1 0
1325 1 7.8459450735737128e+00 6.2516239174843555e+00 4.2776036544321450e+01 0 1 -1
1401 1 8.7966772245888585e+00 4.3843379570181966e+00 3.9609362711328721e+01 0 0 0
1976 1 2.7878031402822612e+00 1.0013732075420094e+01 4.0487786671518130e+01 1 0 -1
3652 1 3.0176539158237312e+00 8.5815991020012738e+00 4.2882494136094579e+01 0 0 0
1275 1 4.6206568340061849e-01 8.5002022522807970e+00 3.9175003862738713e+01 1 1 0
4578 1 6.1436529764385321e+00 1.1652302110388487e+01 4.1879338542359484e+01 1 0 0
6054 1 9.4509944139719586e+00 8.3476499698534088e+00 4.2323999496089655e+01 1 0 0
3004 1 7.9488167123146765e+00 1.0503260204589958e+01 4.3614525930555004e+01 1 1 0
1687 1 9.2862504476391567e+00 8.7345214462408975e+00 3.9469418980629264e+01 0 0 0
3681 1 3.1812810468712160e+00 1.2482125962407201e+01 4.1636178479268928e+01 1 0 0
3500 1 2.1277140982547009e+00 1.5936482941596770e+01 4.0300217213507501e+01 0 0 -1
3184 1 2.7866765309875734e+00 1.5660186601769967e+01 4.3652141358069770e+01 1 1 0
6167 1 5.7803340101311562e+00 1.5493464725662779e+01 3.9776568848835190e+01 0 0 -1
3639 1 7.5233628477527077e+00 1.3948850325209328e+01 4.3607819888777222e+01 1 0 -1
4681 1 5.4799678425510878e+00 1.5654725579440026e+01 4.2684522493321730e+01 1 0 0
4823 1 9.0501146330308802e-01 1.2779321277372784e+00 4.7166146709161715e+01 1 1 0
2824 1 2.0333513582082459e+00 2.9908407130076436e-01 4.4604959770159887e+01 1 1 -1
2142 1 3.1909842420099275e+00 2.9568072924030737e+00 4.5895985508117931e+01 1 0 0
2026 1 9.6972253450391239e+00 2.7847471769661039e+00 4.4411924589756410e+01 0 1 0
6229 1 9.1068718627213894e+00 2.6505101096984163e-01 4.5222295625789080e+01 0 1 0
1633 1 1.2762758185803174e+00 4.9041018754223886e+00 4.4896307763269434e+01 1 0 -1
4432 1 2.1768416062579941e+00 7.0249599813952637e+00 4.6310031678010823e+01 1 1 0
1921 1 5.5572996149784908e+00 4.5202879654346901e+00 4.7192162627690216e+01 0 1 -1