
# Create simulation box and atoms

read_data data.ML_graphite_m1000atm_245K
  orthogonal box = (0 0 2.62195) to (49.22 49.0196 57.4401)
  5 by 3 by 6 MPI processor grid
  reading atoms ...
  6337 atoms
  reading velocities ...
  6337 velocities
group water type 1
3577 atoms in group water
group graphite type 2
2760 atoms in group graphite

# Define potential

pair_style sw
pair_coeff * * MLC_e.sw mW C


# Fix graphite atoms in place

fix 5 graphite setforce 0.0 0.0 0.0
velocity graphite set 0.0 0.0 0.0


# Equilibration of molecular water

# Add velocity/set timestep

velocity	    water create ${TEMP} ${SEED} rot yes dist gaussian
velocity	    water create 248 ${SEED} rot yes dist gaussian
velocity	    water create 248 32120 rot yes dist gaussian
timestep	    5.0

# Define output

compute			1 water msd
compute			3 water temp
thermo	    	50
thermo_style	custom step temp press vol etotal ke pe c_1[4] c_3

# Neighbor lists

neigh_modify    delay 0 every 1 check yes

# Set fixes

fix             1 water momentum 10 linear 1 1 1 rescale
fix             2 water nve
fix             3 water temp/csvr ${TEMP} ${TEMP} 500.0 ${SEED}
fix             3 water temp/csvr 248 ${TEMP} 500.0 ${SEED}
fix             3 water temp/csvr 248 248 500.0 ${SEED}
fix             3 water temp/csvr 248 248 500.0 32120
fix             4 water press/berendsen z ${PRES} ${PRES} 1000.0 modulus 20000
fix             4 water press/berendsen z -1000 ${PRES} 1000.0 modulus 20000
fix             4 water press/berendsen z -1000 -1000 1000.0 modulus 20000

# Run 0.5 ns equilibration

dump		    1 all atom 2000 ${DIR}/eq.${NAME}-${TEMP}.dump
dump		    1 all atom 2000 run_4/eq.${NAME}-${TEMP}.dump
dump		    1 all atom 2000 run_4/eq.het_freeze_4-${TEMP}.dump
dump		    1 all atom 2000 run_4/eq.het_freeze_4-248.dump

reset_timestep  0

run	            100000
Neighbor list info ...
  update every 1 steps, delay 0 steps, check yes
  max neighbors/atom: 2000, page size: 100000
  master list distance cutoff = 6.67472
  ghost atom cutoff = 6.67472
  binsize = 3.33736, bins = 15 15 17
  1 neighbor lists, perpetual/occasional/extra = 1 0 0
  (1) pair sw, perpetual
      attributes: full, newton on
      pair build: full/bin/atomonly
      stencil: full/bin/3d
      bin: standard
Per MPI rank memory allocation (min/avg/max) = 4.07 | 4.222 | 4.502 Mbytes
Step Temp Press Volume TotEng KinEng PotEng c_1[4] c_3 
       0     139.9697   -1056.0851     132262.2   -34085.323    2643.5254   -36728.848            0          248 
      50    138.13007   -999.73913    132262.83   -34111.965    2608.7815   -36720.746   0.51953112    244.74053 
     100    138.02328   -1097.0499    132259.31   -34062.893    2606.7645   -36669.657   0.82130267    244.55131 
     150    139.96519   -1006.7324     132244.4   -34065.671    2643.4403   -36709.111    1.0119965    247.99201 
     200    139.98169   -1059.1839       132293   -34097.112    2643.7519   -36740.863    1.1671923    248.02125 
     250    140.84129   -1144.3294    132323.19    -34099.89    2659.9867   -36759.877    1.3360605     249.5443 
     300    140.61269   -1282.6466    132295.17   -34141.895    2655.6693   -36797.565     1.531455    249.13926 
     350    139.37893   -909.97216    132318.95   -34107.936    2632.3679   -36740.304    1.7414565    246.95327 
     400    139.65587    -1163.921    132368.64   -34115.328    2637.5984   -36752.926    1.9795974    247.44396 
     450    141.54697     -1079.32    132493.47   -34118.927    2673.3146   -36792.242    2.1675923    250.79464 
     500    140.75136   -1257.1726    132633.68   -34065.871    2658.2882   -36724.159    2.3710792    249.38496 
     550    139.33968   -1595.4239    132666.93   -34011.214    2631.6267   -36642.841     2.558293    246.88373 
     600    140.55481   -1122.1824    132563.96   -34014.762    2654.5761   -36669.338     2.757367    249.03671 
     650    140.03652   -1250.7769     132547.3   -34036.786    2644.7874   -36681.574    2.9121176    248.11839 
     700    140.08586   -881.35975    132620.82   -34038.865    2645.7194   -36684.584    3.0811606    248.20583 
     750    140.38631   -1168.9543    132633.67   -34078.548    2651.3937   -36729.942    3.2217747    248.73815 
     800    137.74219   -1449.5989    132583.72   -34079.334    2601.4559    -36680.79    3.3936622    244.05328 
     850    141.34781   -1191.4457    132385.96   -34134.051    2669.5531   -36803.604    3.5206236    250.44176 
     900    138.27234   -1051.6397    132340.78   -34123.282    2611.4685   -36734.751    3.6796115     244.9926 
     950    138.74855   -1293.1579    132283.62    -34126.02    2620.4623   -36746.483    3.8054403    245.83635 
    1000      141.582   -1046.5173    132245.49   -34130.562     2673.976   -36804.538    3.9436416    250.85669 
    1050    140.50406    -1002.029    132318.94   -34138.548    2653.6176   -36792.166    4.0651129    248.94679 
    1100    139.81048   -1187.0835    132439.85   -34102.941    2640.5183    -36743.46    4.1745425    247.71789 
    1150    141.23147   -1193.1128    132472.39   -34045.293    2667.3558   -36712.649    4.3008214    250.23562 
    1200    140.62135   -1209.4152    132434.61   -34021.281    2655.8328   -36677.114    4.4402658     249.1546 
    1250    140.10278   -1257.7194    132334.03   -34031.371    2646.0388    -36677.41    4.5632639    248.23579 
    1300    141.73193   -1049.5931    132340.63   -34037.138    2676.8077   -36713.946    4.7010475    251.12235 
    1350    141.55355   -1283.4922    132315.23    -34025.97    2673.4388   -36699.408    4.8893356     250.8063 
    1400    141.38546    -1113.784    132271.47   -33981.815    2670.2641    -36652.08     5.078304    250.50847 
    1450    140.03881   -1247.4978    132299.72   -34020.523    2644.8308   -36665.354    5.2264429    248.12246 
    1500    143.11179   -1179.9971     132275.3   -34115.439    2702.8682   -36818.307    5.3053122    253.56719 
    1550    139.04243   -1241.0309    132375.25   -34063.526    2626.0127   -36689.539    5.5345417    246.35706 
    1600    140.88674   -1243.3396    132302.94   -34114.439     2660.845   -36775.284    5.6332434    249.62482 
    1650    138.62252   -997.81811    132221.31   -34094.267    2618.0821   -36712.349    5.7672857    245.61305 
    1700    138.12859   -869.87537    132246.01   -34076.682    2608.7536   -36685.436    5.9529336    244.73791 
    1750    139.33176   -847.83994    132343.44   -34085.549     2631.477   -36717.026     6.141794    246.86969 
    1800    140.17076   -1279.2646    132373.75   -34056.578    2647.3228     -36703.9    6.2818445    248.35624 
    1850    141.14331   -1159.7866    132427.58    -34012.77    2665.6907   -36678.461    6.4360103    250.07942 
    1900    142.54772   -1173.9646    132486.99   -33976.172    2692.2151   -36668.387    6.4942546    252.56777 
    1950    143.64989   -1100.7904    132505.23   -33993.269     2713.031     -36706.3    6.6183729     254.5206 
    2000    142.40606    -1066.292     132506.5    -34038.35    2689.5396    -36727.89    6.8336536    252.31678 
    2050    141.06832   -1195.4322    132494.62   -34066.273    2664.2745   -36730.547    6.9915615    249.94656 
    2100    138.18026   -1263.1009    132499.59    -34070.44    2609.7294    -36680.17    7.1311911    244.82946 
    2150    141.91885   -1045.5612    132496.67   -34089.541    2680.3379   -36769.878    7.3133063    251.45353 
    2200    135.52857   -1139.3184       132568   -34101.067    2559.6485   -36660.716    7.5459506    240.13116 
    2250    136.80026   -1218.3409    132572.65   -34095.233    2583.6662   -36678.899     7.702511    242.38436 
    2300     139.1047   -1004.2697    132617.18   -34088.958    2627.1888   -36716.147     7.870089    246.46739 
    2350    138.91797    -1154.432    132670.02   -34072.334    2623.6621   -36695.996    8.0574127    246.13654 
    2400    138.11997   -1185.2486    132706.05   -34074.428    2608.5907   -36683.019    8.2764046    244.72263 
    2450     140.9865   -1168.8428     132698.3   -34047.561    2662.7292   -36710.291    8.4218236    249.80159 
    2500    138.98902   -1236.3517    132688.01   -34060.259    2625.0039   -36685.263    8.5527515    246.26242 
    2550    141.20253   -1241.7206    132634.15   -34052.661    2666.8092   -36719.471    8.6425193    250.18435 
    2600    139.53873   -1118.4985    132580.16   -34022.899     2635.386   -36658.285    8.7550174    247.23641 
    2650    142.46409   -1151.2794     132593.1   -34011.659    2690.6355   -36702.294    8.9796376    252.41959 
    2700    136.51818   -1078.4092    132643.42   -34050.528    2578.3387   -36628.866    9.2621846    241.88457 
    2750    142.33414   -1110.9555    132681.68   -33944.239    2688.1813   -36632.421    9.3702941    252.18935 
    2800    141.79978   -1197.7823    132680.28   -33929.441    2678.0891    -36607.53    9.5135936    251.24256 
    2850    142.69111   -1094.2705    132631.81   -33909.547    2694.9231    -36604.47    9.7070436    252.82183 
    2900    142.55923   -1259.9307    132537.32   -33885.794    2692.4324   -36578.227    9.9523682    252.58816 
    2950    142.52457    -1392.795    132532.47   -33908.688    2691.7777   -36600.466    10.095863    252.52675 
    3000    142.64096   -1280.8144    132491.45   -33904.265     2693.976   -36598.241    10.258733    252.73297 
    3050      141.985   -1334.2583    132400.41    -33943.72    2681.5873   -36625.307    10.421081    251.57074 
    3100     139.7138   -1339.6319       132374   -33967.878    2638.6925   -36606.571    10.582598    247.54661 
    3150    138.39566   -1334.9784    132336.31   -34019.908    2613.7975   -36633.705    10.651265     245.2111 
    3200    138.70505   -1085.1425    132298.12   -34039.723    2619.6408   -36659.364    10.823469    245.75929 
    3250    137.86493   -1397.4937    132303.86    -34011.45     2603.774   -36615.224    11.062274    244.27075 
    3300    140.56278   -1315.3308     132215.7   -34057.462    2654.7267   -36712.189    11.266056    249.05084 
    3350     136.4526   -1494.8898    132215.14   -34103.467       2577.1   -36680.567    11.427549    241.76836 
    3400    138.48681   -1165.0457    132177.88   -34107.835     2615.519   -36723.354    11.632487     245.3726 
    3450    137.67562   -908.27273    132177.85   -34103.381    2600.1985   -36703.579    11.967141    243.93533 
    3500    138.47143   -1027.1862    132297.25   -34112.224    2615.2285   -36727.452    12.131292    245.34535 
    3550    135.38851    -987.4396    132301.08   -34090.209    2557.0033   -36647.212    12.291349    239.88301 
    3600    137.23926   -1250.1067    132298.68   -34093.916    2591.9573   -36685.874    12.527577    243.16218 
    3650    137.03895   -1034.7005    132308.05   -34094.598    2588.1741   -36682.772    12.703267    242.80726 
    3700    135.87146   -1129.5243    132334.21   -34125.559    2566.1244   -36691.683     12.82202    240.73869 
    3750    137.76113   -1426.6863    132325.58   -34156.062    2601.8135   -36757.876    13.000021    244.08684 
    3800    139.93701   -991.94793    132328.21   -34107.571    2642.9081   -36750.479    13.279137    247.94209 
    3850    138.31285   -870.70613    132322.36   -34084.448    2612.2335   -36696.681    13.460044    245.06437 
    3900    138.65296   -1157.4838     132383.3   -34072.677    2618.6569   -36691.334     13.73857    245.66698 
    3950    136.59823   -1487.9914     132372.5   -34104.195    2579.8505   -36684.046     13.98489    242.02639 
    4000    139.62549   -1119.6048    132345.77   -34103.924    2637.0246   -36740.948     14.07987    247.39013 
    4050     135.3795   -1252.8694    132360.81   -34146.233     2556.833   -36703.066    14.245228    239.86703 
    4100    133.47597   -1461.5566    132366.06   -34092.221    2520.8822   -36613.103    14.311287    236.49433 
    4150    139.47362   -1170.3285    132370.59   -34020.486    2634.1562   -36654.643    14.436448    247.12104 
    4200    138.43814   -1351.9668    132306.14   -33959.971    2614.5999   -36574.571    14.474761    245.28638 
    4250    138.07243   -1094.5657    132256.69   -33965.908    2607.6928   -36573.601    14.542772     244.6384 
    4300    141.68575   -1279.2475    132297.14   -33928.952    2675.9355   -36604.887    14.754121    251.04053 
    4350    138.97856   -1247.8977     132315.6   -33964.964    2624.8065   -36589.771    14.995755     246.2439 
    4400    140.25272    -1391.148    132276.63   -33969.307    2648.8708   -36618.178    15.154152    248.50147 
    4450    140.87842   -1240.7465    132314.95   -33969.547     2660.688   -36630.235    15.231915    249.61009 
    4500    140.59765   -1214.8321    132351.08   -33948.302    2655.3852   -36603.687    15.475992    249.11262 
    4550    140.63561   -1340.0428    132360.51   -33922.421    2656.1022   -36578.523    15.639043    249.17988 
    4600    142.23125   -1449.2056    132330.36    -33900.13    2686.2381   -36586.368    15.887963    252.00705 
    4650    139.06739   -1499.3048    132227.23   -33977.706    2626.4841    -36604.19    16.004811    246.40129 
    4700     141.9046   -1251.1256    132277.12   -33951.969    2680.0689   -36632.037    16.130583    251.42829 
    4750     141.0009   -1180.7516    132328.19    -33912.38    2663.0011   -36575.381    16.350467    249.82709 
    4800    145.17247   -1129.1776    132316.39    -33943.33    2741.7871   -36685.117    16.612041    257.21833 
    4850    142.97679    -1215.089    132353.52   -33923.506    2700.3185   -36623.825    16.882471      253.328 
    4900    140.56544   -1346.8307    132343.58    -33917.08    2654.7769   -36571.857    16.971841    249.05555 
    4950    139.28929   -1411.0551    132289.69   -33938.107     2630.675   -36568.782    17.103318    246.79444 
    5000    140.28429   -1221.8184    132296.02   -33950.476    2649.4669   -36599.943    17.290437    248.55739 
    5050    142.42353    -820.3449     132357.4    -33944.25    2689.8695   -36634.119    17.402146    252.34772 
    5100    140.69634   -1223.8612     132428.4   -33957.073    2657.2492   -36614.322     17.57019    249.28748 
    5150    139.74906   -1163.1954     132495.2   -33965.824    2639.3585   -36605.183    17.849141    247.60908 
    5200    141.04729   -1254.8716    132451.16   -33922.707    2663.8774   -36586.584    18.030449     249.9093 
    5250    141.54987     -1149.12    132383.31   -33921.494    2673.3693   -36594.863    18.278824    250.79978 
    5300    141.28753    -1300.699    132352.41   -33899.487    2668.4146   -36567.902    18.477581    250.33496 
    5350    137.53337   -1390.7288    132266.24   -33922.283    2597.5119   -36519.795       18.733    243.68328 
    5400    141.79899   -1221.2358    132239.04   -33924.443    2678.0742   -36602.517    18.790368    251.24116 
    5450        140.6   -1415.9304     132243.4   -33909.419    2655.4296   -36564.848    18.884054    249.11678 
    5500    139.28635   -1359.9133    132247.21   -33904.634    2630.6195   -36535.253     19.03766    246.78925 
    5550    139.55401   -1270.8085    132222.42   -33899.552    2635.6745   -36535.227    19.194347    247.26347 
    5600    140.55542     -1184.68    132242.41   -33924.404    2654.5877   -36578.992    19.255322     249.0378 
    5650    142.57246   -1194.9299    132303.76   -33902.262    2692.6822   -36594.944    19.549569     252.6116 
    5700    141.72708   -1378.6142    132353.18   -33858.559    2676.7161   -36535.275    19.822649    251.11375 
    5750    142.34433   -1034.6356    132416.42   -33859.494    2688.3737   -36547.868    19.910033     252.2074 
    5800    141.09849   -1162.2796    132464.99   -33841.846    2664.8444    -36506.69    20.065468    250.00002 
    5850    141.48663   -1136.2251    132450.82   -33775.812    2672.1748   -36447.987     20.08897    250.68772 
    5900    138.84296    -1371.417    132461.59   -33795.328    2622.2454   -36417.573    20.168338    246.00363 
    5950    142.73974   -1331.0701    132444.24   -33817.751    2695.8417   -36513.592    20.274988      252.908 
    6000    142.28427   -1320.6051    132498.85   -33838.024    2687.2394   -36525.264    20.452403    252.10099 
    6050    139.61973   -1423.9062    132473.25   -33875.765    2636.9157   -36512.681    20.664885    247.37992 
    6100    140.20598   -1093.0425    132510.58   -33891.662     2647.988    -36539.65    20.990738    248.41865 
    6150    137.77129   -1253.8923    132462.65   -33928.013    2602.0054   -36530.019    21.207797    244.10484 
    6200    139.36332   -1310.3638    132463.19   -33972.043    2632.0731   -36604.116     21.30825    246.92561 
    6250     136.5848   -1290.0491    132460.15   -33950.009    2579.5969   -36529.606    21.471736     242.0026 
    6300    140.52925   -1348.5719    132378.51   -33941.958    2654.0934   -36596.051    21.426049    248.99142 
    6350    141.89957    -1365.225    132349.87   -33901.968    2679.9738   -36581.942    21.590609    251.41937 
    6400    143.50329   -1145.0742    132301.42   -33905.943    2710.2622   -36616.205    21.717865    254.26086 
    6450    141.42599   -980.33536    132345.51    -33895.39    2671.0296   -36566.419    21.925628    250.58028 
    6500    143.11432   -1271.0358    132361.87   -33905.457    2702.9161   -36608.373    22.009393    253.57168 
    6550    145.04378   -1614.5177    132258.25   -33839.076    2739.3566   -36578.432     22.08635    256.99032 
    6600    140.71192   -1356.5954    132217.31   -33895.728    2657.5433   -36553.271     22.17188    249.31508 
    6650    139.60593    -1272.348    132159.23    -33896.86    2636.6552   -36533.515    22.391798    247.35547 
    6700    138.51974   -1519.7842    132206.74   -33904.524     2616.141   -36520.665       22.479    245.43096 
    6750     140.0862   -1622.0508    132140.52   -33921.979    2645.7257   -36567.704    22.750477    248.20642 
    6800    140.65364   -1319.3346    132101.12   -33905.986    2656.4428   -36562.429    22.974297    249.21183 
    6850    138.64823    -1047.478    132089.04   -33926.321    2618.5677   -36544.888     23.24687    245.65861 
    6900    140.20132   -1186.3053    132053.65   -33905.475       2647.9   -36553.375    23.306188     248.4104 
    6950    138.91437   -1027.9071    132160.48   -33935.461    2623.5942   -36559.055    23.439062    246.13017 
    7000    140.54356   -1455.0113     132184.2   -33925.004    2654.3637   -36579.368     23.51229    249.01678 
    7050    138.26715   -1275.3948     132264.5    -33961.18    2611.3705    -36572.55    23.617328    244.98341 
    7100    139.67804   -1360.7838    132172.12   -33937.123    2638.0171    -36575.14    23.792679    247.48324 
    7150    141.57979   -1211.1314    132156.79   -33867.678    2673.9343   -36541.612    23.940424    250.85278 
    7200    140.45234   -1353.2461    132178.34   -33868.091    2652.6407   -36520.732    23.994669    248.85515 
    7250    141.12123   -1078.6327     132314.1   -33884.741    2665.2738   -36550.015    24.130607     250.0403 
    7300    140.61245   -1231.1767    132332.95   -33883.705    2655.6647    -36539.37    24.540464    249.13884 
    7350    139.01285   -1001.4623    132328.73   -33947.603     2625.454   -36573.057    24.689129    246.30465 
    7400    143.29151   -1226.7388    132384.72   -33988.949    2706.2626   -36695.212    24.872358    253.88564 
    7450    143.51955   -1062.6702    132416.28   -33962.754    2710.5694   -36673.324    25.000257    254.28967 
    7500     138.7347   -1044.5915    132382.99   -33991.554    2620.2008   -36611.755    25.144586    245.81182 
    7550    137.55197   -1041.4856    132353.26   -34018.968    2597.8632   -36616.831    25.477978    243.71623 
    7600    140.23425   -879.48239    132388.79   -33953.759    2648.5219   -36602.281    25.661795    248.46874 
    7650    138.16684    -1455.909    132405.76   -33998.268    2609.4759   -36607.744    25.782383    244.80568 
    7700    140.68135    -1179.775    132413.84   -33973.628    2656.9659   -36630.594    25.997137    249.26091 
    7750     139.6438   -1450.8447    132373.73   -33952.145    2637.3704   -36589.516      26.3075    247.42257 
    7800    138.41216   -1490.9157    132318.69   -33942.368    2614.1091   -36556.477    26.507092    245.24033 
    7850    140.85026   -1430.3265     132271.6   -33914.033    2660.1562    -36574.19    26.674795     249.5602 
    7900    138.77637   -1147.8059    132292.49    -33925.33    2620.9878   -36546.318    26.759164    245.88565 
    7950    141.22721   -1119.6468    132301.54   -33913.653    2667.2754   -36580.928    26.964556    250.22808 
    8000    142.27108    -1355.453    132299.24   -33877.377    2686.9904   -36564.367    26.928139    252.07763 
    8050    140.48659   -1419.4535    132251.93   -33901.017    2653.2877   -36554.305    27.226504    248.91584 
    8100    142.49077   -1190.0937    132216.88   -33877.508    2691.1394   -36568.647     27.39016    252.46686 
    8150    139.75044   -1514.4552    132226.45   -33923.091    2639.3844   -36562.475    27.566041    247.61152 
    8200    140.39929   -1096.0377    132235.78    -33935.06    2651.6389   -36586.699    27.682714    248.76115 
    8250    141.26669   -1403.3593    132273.11   -33949.803    2668.0211   -36617.824    27.874349    250.29804 
    8300     142.1087   -1311.7672    132330.61   -33922.131    2683.9236   -36606.054    28.051572    251.78991 
    8350    140.03498   -1167.3057    132318.41   -33933.399    2644.7585   -36578.157    28.283622    248.11568 
    8400     141.4407   -1506.2589    132228.67   -33960.537    2671.3073   -36631.844    28.525392    250.60633 
    8450    141.41344   -1178.0159    132196.26   -34005.775    2670.7926   -36676.568    28.704485    250.55805 
    8500    138.74495   -1339.8992    132186.19   -33992.118    2620.3943   -36612.512    28.942795    245.82997 
    8550    138.14704   -1209.9928    132228.13   -34057.784    2609.1019   -36666.886    29.093593    244.77059 
    8600    137.27032   -1186.7108    132301.85   -34079.719    2592.5438   -36672.263    29.225865     243.2172 
    8650    140.54197   -1046.8182    132420.14   -34045.674    2654.3336   -36700.008    29.275799    249.01396 
    8700    142.40625   -1126.9429    132578.93   -34011.008    2689.5433   -36700.551    29.586974    252.31712 
    8750    140.09711   -1029.9158    132645.26   -33952.133    2645.9317   -36598.065    29.894552    248.22574 
    8800    143.59813   -1158.5018    132701.72   -33934.131    2712.0534   -36646.185    30.123545    254.42889 
    8850    139.50923   -1229.6663    132662.58   -33904.632    2634.8289   -36539.461    30.262401    247.18414 
    8900    142.62937   -1452.5792    132614.33   -33940.772    2693.7571   -36634.529     30.35219    252.71244 
    8950    140.64786   -1157.7726    132547.36   -33969.921    2656.3335   -36626.254    30.508845    249.20158 
    9000    139.93548   -985.35966    132522.96   -34004.437    2642.8791   -36647.317    30.639095    247.93937 
    9050    138.78625    -1077.517    132559.16   -34030.421    2621.1744   -36651.595    30.665049    245.90316 
    9100    137.86712   -1173.9231    132532.04   -34058.533    2603.8154   -36662.348    30.827994    244.27464 
    9150    137.82936   -959.14749    132495.22   -34015.203    2603.1022   -36618.306    31.021502    244.20773 
    9200    138.70193   -1393.5026     132471.8   -34037.945    2619.5819   -36657.527    31.102721    245.75376 
    9250    140.62164    -1127.681    132521.86   -34033.176    2655.8383   -36689.014     31.25074    249.15512 
    9300    140.85673   -1216.4233    132596.28   -34016.283    2660.2783   -36676.561    31.499557    249.57165 
    9350    140.76997   -1286.3984    132582.38   -34010.341    2658.6397   -36668.981    31.576302    249.41793 
    9400    139.96233   -1229.6067    132498.03   -34026.215    2643.3863   -36669.601    31.736178    247.98694 
    9450    140.38793   -1300.5228    132466.54   -34053.583    2651.4243   -36705.008    32.051247    248.74103 
    9500    137.00951   -1015.0991    132537.97   -34063.674    2587.6181   -36651.292    32.290335     242.7551 
    9550    140.94494   -1149.6409    132566.07    -34022.56    2661.9443   -36684.504    32.537062    249.72795 
    9600    139.28851   -1046.3616    132621.41   -34014.688    2630.6603   -36645.348    32.755476    246.79307 
    9650    141.71604   -1070.0062    132698.41   -34049.814    2676.5075   -36726.321    32.995496    251.09419 
    9700    139.44273   -1355.9756    132701.16   -34030.935    2633.5729   -36664.508    33.064834    247.06631 
    9750    139.38499   -1302.2476    132713.86   -34058.191    2632.4824   -36690.674    33.098484    246.96401 
    9800    140.48275    -1293.329    132679.92   -34043.645    2653.2152   -36696.861    33.338395    248.90904 
    9850    137.16846   -1214.0696     132651.1   -34068.173    2590.6201   -36658.793    33.425098    243.03673 
    9900    138.22753   -1086.7746    132702.01   -34026.353    2610.6221   -36636.975    33.462123    244.91321 
    9950    140.77568   -1192.2119    132750.61   -34034.262    2658.7475    -36693.01    33.524549    249.42805 
   10000    140.45397   -1203.0186    132758.57   -34083.632    2652.6717   -36736.304    33.742238    248.85805 
   10050    141.41022   -1262.1001    132757.78    -34076.39    2670.7317   -36747.121    33.940002    250.55233 
   10100    142.01738   -1220.3755     132730.6   -34053.893    2682.1988   -36736.091    34.125591    251.62811 
   10150    138.42637   -1486.7135    132657.21   -34070.661    2614.3776   -36685.039    34.215445    245.26552 
   10200    140.07112   -1445.5884    132621.15   -34065.931     2645.441   -36711.372    34.161193     248.1797 
   10250     139.3705   -1405.4158    132560.43   -34089.118    2632.2088   -36721.327    34.141715    246.93834 
   10300     140.1247   -1452.0217    132492.05   -34026.092    2646.4528   -36672.545    34.299842    248.27463 
   10350    136.90257   -1296.7815    132531.55   -34036.682    2585.5983    -36622.28    34.687896    242.56562 
   10400    137.31685   -1299.5796    132610.84    -34059.64    2593.4227   -36653.063    34.729751    243.29966 
   10450    140.63083   -1447.9389    132547.79   -34062.779    2656.0118   -36718.791    34.801045     249.1714 
   10500    137.97307   -1355.4712    132509.12   -34042.533    2605.8162    -36648.35    34.895289    244.46234 
   10550    135.80688   -1291.7692    132484.11   -34032.584    2564.9047   -36597.488    34.959641    240.62427 
   10600    140.09162   -1131.8914    132371.37   -33992.041    2645.8282   -36637.869    34.933111    248.21603 
   10650    140.53772   -1121.3911    132308.81   -33978.383    2654.2534   -36632.637    35.000897    249.00643 
   10700    140.77517   -1282.5581    132316.48   -34009.542     2658.738    -36668.28     35.30796    249.42715 
   10750    139.31926   -1172.8463    132390.96   -34056.851     2631.241   -36688.092    35.398796    246.84755 
   10800    137.71932   -1366.3584    132498.06   -34037.609    2601.0238   -36638.633    35.492174    244.01275 
   10850    140.61388   -884.20759    132502.44   -33997.479    2655.6917    -36653.17    35.515707    249.14137 
   10900    139.27917    -1087.411    132586.05   -33994.471    2630.4839   -36624.955    35.793607    246.77652 
   10950    140.90347   -1018.7265    132644.79   -33963.992     2661.161   -36625.153    35.831355    249.65447 
   11000    141.63787   -1009.3338    132728.05   -33914.364    2675.0312   -36589.396    35.987086    250.95569 
   11050    142.55616   -1041.5022    132803.97   -33953.877    2692.3745   -36646.251    36.075022    252.58273 
   11100    142.22753   -1230.5449    132838.44   -33949.902    2686.1678    -36636.07    36.033489    252.00046 
   11150    142.87661   -946.82411    132801.39   -33996.535    2698.4266   -36694.961    36.288466     253.1505 
   11200    142.89756   -1150.6801    132811.87   -33938.834    2698.8222   -36637.656    36.354942    253.18761 
   11250    138.59713   -1191.6785    132750.63   -33971.377    2617.6025   -36588.979    36.712691    245.56806 
   11300     142.2874   -887.63867    132764.82   -33952.973    2687.2985   -36640.271    36.707109    252.10653 
   11350    138.64123   -1232.3796    132759.08   -34026.295    2618.4355   -36644.731    36.768726    245.64621 
   11400    139.37272    -1205.644    132691.07   -34006.882    2632.2506   -36639.133    36.824562    246.94226 
   11450    139.53727   -986.35912    132686.95   -34068.679    2635.3584   -36704.037     36.90413    247.23381 
   11500    141.14184   -1004.8356     132813.9   -34036.428     2665.663   -36702.091    36.997408    250.07682 
   11550    141.46673   -1125.4541    132817.16   -33965.087     2671.799   -36636.886     37.20633    250.65246 
   11600    143.80087    -1054.773    132869.34   -33976.665    2715.8826   -36692.548    37.080974    254.78812 
   11650    141.68546   -1179.3099    132834.71   -34035.505    2675.9301   -36711.435    37.322029    251.04001 
   11700    139.85054   -1156.3689    132800.61    -34044.42     2641.275   -36685.695    37.526787    247.78888 
   11750    138.77884    -1110.025    132779.09   -34045.022    2621.0344   -36666.056    37.651978    245.89002 
   11800    139.05756   -1362.3987    132733.95   -34047.517    2626.2985   -36673.815    37.747465    246.38387 
   11850    140.76396    -1046.291    132675.25   -33993.742    2658.5262   -36652.268    37.863912    249.40728 
   11900    139.71397   -1247.7494    132648.28   -34035.171    2638.6957   -36673.867    37.940199    247.54691 
   11950    141.41381   -1171.5153    132561.24   -34013.515    2670.7995   -36684.315    37.916744    250.55869 
   12000     136.9518    -1154.095    132509.52   -34079.109    2586.5282   -36665.637     38.22774    242.65285 
   12050    139.17377   -901.43828    132519.26   -34049.146    2628.4931   -36677.639    38.559621    246.58976 
   12100    139.54493   -1108.2889    132560.94   -34041.883    2635.5031   -36677.386    38.659823     247.2474 
   12150    135.69563   -943.56525     132626.4   -34042.154    2562.8036   -36604.957    38.667634    240.42715 
   12200    139.00668   -886.56302    132634.48   -34015.182    2625.3375    -36640.52    38.734819    246.29372 
   12250    137.75955   -841.82993    132623.12   -34028.194    2601.7838   -36629.977    38.820919    244.08404 
   12300    138.17682   -1162.5999    132638.53   -34041.167    2609.6645   -36650.832    38.968041    244.82336 
   12350    138.71129   -929.81524    132623.94   -34019.098    2619.7587   -36638.857     39.24179    245.77035 
   12400    140.27699   -1252.6981    132573.93   -33985.609     2649.329   -36634.938    39.430939    248.54446 
   12450    139.54097   -1351.2424    132517.96   -33993.816    2635.4284   -36629.245    39.580192    247.24039 
   12500    140.51907   -1201.6781    132471.67   -33954.823    2653.9011   -36608.724    39.967073    248.97338 
   12550    139.98811   -1531.7829    132420.33   -33918.989    2643.8733   -36562.862    40.184074    248.03263 
   12600    140.54598   -1157.5286    132379.22   -33928.731    2654.4093    -36583.14    40.188205    249.02106 
   12650    140.41592   -1132.8111    132409.63   -33968.777    2651.9531   -36620.731    40.309025    248.79063 
   12700    138.76275    -1294.407    132431.64   -33932.782    2620.7306   -36553.513    40.467281    245.86152 
   12750    142.65351   -1082.7612    132397.93   -33853.245     2694.213   -36547.458     40.58596    252.75521 
   12800    141.34236   -1349.8297    132329.74   -33901.451      2669.45   -36570.901    40.760667    250.43209 
   12850    141.00152   -1246.9248    132359.68   -33887.053    2663.0129   -36550.066    40.990426     249.8282 
   12900    140.47873   -1410.1396    132271.56   -33904.135    2653.1392   -36557.275    41.154723     248.9019 
   12950    140.75856   -1215.4084    132317.14   -33928.799    2658.4242   -36587.223    41.428609    249.39772 
   13000    140.34629   -1437.2249    132331.57   -33984.254    2650.6378   -36634.892    41.632824    248.66724 
   13050    138.12893   -1472.1905    132312.56   -33987.115    2608.7599   -36595.874    41.698671    244.73851 
   13100     142.5759   -1030.8687    132165.63   -34004.457    2692.7473   -36697.204    41.685442    252.61771 
   13150    135.60572   -1349.9193     132194.4   -34024.584    2561.1056   -36585.689    41.933593    240.26786 
   13200    141.10541   -1340.1122    132191.75    -33926.97     2664.975   -36591.945    42.003868    250.01227 
   13250    138.00224   -1265.0405    132206.22   -33992.811    2606.3673   -36599.178    42.058119    244.51404 
   13300    141.61311   -1348.8982    132182.52    -33933.93    2674.5635   -36608.493    42.102663    250.91181 
   13350    140.90317   -1318.6196     132259.7   -33937.831    2661.1553   -36598.987    42.305921    249.65393 
   13400    140.57853   -1215.4333    132200.79   -33947.292    2655.0241   -36602.316     42.54492    249.07874 
   13450    140.65001   -1310.3935    132174.66   -33987.479    2656.3742   -36643.853    42.817936     249.2054 
   13500    140.86343   -1123.9629    132117.92   -34000.858    2660.4049   -36661.263    43.057298    249.58353 
   13550    139.15029    -980.3858    132169.33   -34039.203    2628.0498   -36667.253    43.100112    246.54816 
   13600    140.16215   -1155.4438    132229.26   -34023.272    2647.1602   -36670.432    43.275386      248.341 
   13650    139.76902     -1187.45    132268.99   -34021.284    2639.7354    -36661.02    43.371039    247.64444 
   13700    137.89319    -1412.226    132248.33   -34056.644    2604.3076   -36660.951    43.452583    244.32082 
   13750    138.13023   -1386.0934    132220.83   -34061.988    2608.7846   -36670.773     43.69921    244.74082 
   13800    139.01495   -1270.3155    132135.06   -34040.462    2625.4937   -36665.956    43.671882    246.30837 
   13850    138.17703   -1334.7078     132072.8   -34024.499    2609.6683   -36634.168    43.957186    244.82372 
   13900    140.14588   -1180.2627    132046.29   -34034.068    2646.8529    -36680.92    44.111592    248.31216 
   13950    138.16066   -1325.2569    132032.87   -34074.404    2609.3591   -36683.763      44.1936    244.79472 
   14000    141.63206   -1092.2959    132017.28   -34082.138    2674.9216   -36757.059    44.475953     250.9454 
   14050    139.49867   -1158.2178    132101.85   -34042.877    2634.6295   -36677.507    44.594655    247.16543 
   14100    138.77869   -1193.1463    132208.76   -34006.724    2621.0316   -36627.755    44.910347    245.88976 
   14150    142.65565   -1129.9713    132253.67   -33976.199    2694.2535   -36670.453    45.025409    252.75901 
   14200     140.7572   -1055.0924    132343.83   -33996.602    2658.3986   -36655.001     45.13739    249.39531 
   14250     140.2991   -1216.3631    132356.37   -34007.117    2649.7467   -36656.863    45.383727    248.58364 
   14300    141.39823   -993.44426    132386.09   -33936.991    2670.5053   -36607.496    45.734796    250.53109 
   14350     141.1549   -1096.1342    132432.02   -33889.716    2665.9097   -36555.625    45.738075    250.09996 
   14400    141.59543   -1053.4548     132364.8   -33967.169    2674.2298   -36641.399    45.846065     250.8805 
   14450    140.08396   -954.02799    132402.63   -34011.757    2645.6835    -36657.44     46.02414    248.20246 
   14500    136.74767   -1091.2069    132477.97   -34098.801     2582.673   -36681.474    46.142068    242.29118 
   14550    138.34043   -1370.1928     132385.2   -34031.154    2612.7545   -36643.908    46.249617    245.11325 
   14600    140.24725   -1162.9947    132427.52   -34017.857    2648.7675   -36666.625    46.232136    248.49178 
   14650    143.22688   -1239.0542    132444.87   -33958.631    2705.0419   -36663.673    46.495937    253.77111 
   14700    142.42538   -1055.5399    132443.88   -33964.649    2689.9044   -36654.553    46.719059    252.35101 
   14750    139.32626   -1077.7427    132495.15   -34003.104    2631.3732   -36634.477    46.694232    246.85995 
   14800    140.09165   -1369.1356    132509.37   -33981.515    2645.8287   -36627.344    46.926809    248.21608 
   14850    136.94934   -1192.1463    132423.71   -34029.037    2586.4817   -36615.518    47.038628    242.64849 
   14900    140.99899   -1011.8092    132413.45   -33984.899    2662.9651   -36647.864    47.423991    249.82372 
   14950    138.21011   -1082.8508    132527.72   -33960.735    2610.2932   -36571.028    47.777931    244.88235 
   15000    141.22362    -1151.792    132536.19   -33960.989    2667.2075   -36628.196    47.914983    250.22172 
   15050    141.97718   -1338.3583     132576.9   -33957.146    2681.4397   -36638.586    48.162736    251.55689 
   15100    140.68822   -981.77638    132579.09   -33947.212    2657.0958   -36604.308    48.299253    249.27309 
   15150    138.64721   -1139.9223       132699   -33953.191    2618.5483    -36571.74    48.678381     245.6568 
   15200    135.96909   -1188.2162    132694.97   -34007.847    2567.9683   -36575.815    48.896184    240.91167 
   15250    138.83043   -1372.4359    132677.72   -33957.934    2622.0088   -36579.943    49.050499    245.98144 
   15300    140.04604   -1324.4784    132631.66   -33971.178    2644.9673   -36616.146    49.029094    248.13527 
   15350     139.1927   -915.59498    132586.53   -33987.819    2628.8508    -36616.67    49.002165    246.62331 
   15400     136.6121    -1259.226    132634.61   -33961.452    2580.1124   -36541.564    49.240142    242.05096 
   15450    136.74755   -1106.5246     132626.1   -34028.471    2582.6706   -36611.142    49.309457    242.29096 
   15500    139.65156   -1172.0641    132653.61   -34010.747     2637.517   -36648.264    49.538815    247.43632 
   15550    142.51958   -1016.3937    132704.78   -33952.892    2691.6836   -36644.576     49.67237    252.51791 
   15600    140.36141   -1019.7501    132750.64   -33949.661    2650.9235   -36600.584    49.958817    248.69404 
   15650    141.43974   -1127.7418    132784.55   -33954.145    2671.2893   -36625.434      50.1284    250.60464 
   15700    140.84628   -1062.9927    132800.71   -33962.266     2660.081   -36622.347    50.430382    249.55314 
   15750    142.30348   -1056.6673    132867.38   -33992.294    2687.6022   -36679.896    50.532684    252.13502 
   15800    140.93188   -1106.4611    132895.31   -34001.301    2661.6977   -36662.998    50.684592    249.70481 
   15850    139.71918   -1363.1788    132771.25   -34020.277    2638.7941   -36659.071    51.110702    247.55613 
   15900    140.50783   -1203.9935    132677.95   -34008.092    2653.6888    -36661.78    51.223838    248.95346 
   15950    140.82297   -1304.3216     132601.1   -33929.518    2659.6406   -36589.158    51.342796    249.51183 
   16000    141.03926   -1220.7727    132466.44   -33960.577    2663.7256   -36624.302    51.520548    249.89506 
   16050    140.35956   -919.51094    132455.38   -34016.758    2650.8886   -36667.646    51.837622    248.69077 
   16100    136.69279   -1015.0722    132533.14   -34083.216    2581.6364   -36664.852    51.952605    242.19393 
   16150    140.14194   -1179.0487    132496.76   -34020.007    2646.7785   -36666.785    52.112344    248.30518 
   16200    140.43818   -1103.7601    132426.87   -34019.895    2652.3735   -36672.268     52.18138    248.83007 
   16250    141.59604   -1261.3257    132453.92   -33983.763    2674.2413   -36658.004    52.418604    250.88158 
   16300    140.84825   -912.15834    132432.52   -34003.329    2660.1181   -36663.447     52.40826    249.55663 
   16350    139.64631   -1079.3883    132444.88   -34001.569    2637.4178   -36638.987    52.667702    247.42702 
   16400    141.09922   -1140.1295    132396.52    -34026.61    2664.8581   -36691.469    52.626852     250.0013 
   16450    140.24056   -828.01678    132480.55    -34014.16     2648.641   -36662.801    52.683025    248.47992 
   16500    139.85445   -1113.4514    132557.96   -34041.009    2641.3489   -36682.357    52.978422    247.79581 
   16550    142.90395   -1255.7611     132611.4    -34007.55     2698.943   -36706.493    53.161535    253.19895 
   16600    141.98164   -1285.1822    132572.17   -34052.661    2681.5237   -36734.185    53.259888    251.56478 
   16650    139.46154   -1127.3569    132490.83   -34080.323    2633.9281   -36714.251     53.34054    247.09964 
   16700    140.52649    -1162.291    132409.15   -34057.718    2654.0413   -36711.759    53.536124    248.98654 
   16750    143.14095   -1100.2201    132422.59   -34026.025     2703.419   -36729.444    53.749037    253.61887 
   16800    140.09195   -846.00936    132408.91   -34057.684    2645.8344   -36703.519    53.869077    248.21661 
   16850    138.82477   -1399.3661    132432.81   -34096.081    2621.9018   -36717.983    54.043491     245.9714 
   16900    139.74988   -1224.8414    132403.39   -34033.468    2639.3739   -36672.842    54.294318    247.61053 
   16950    140.35589   -1107.6915    132512.57   -33997.381    2650.8193   -36648.201    54.562809    248.68427 
   17000    138.14557   -978.50144    132429.87   -33961.728    2609.0743   -36570.802    54.742643      244.768 
   17050    140.57281   -1136.0805    132528.07   -33965.405    2654.9162   -36620.321     54.94869    249.06861 
   17100    141.91269   -942.57525    132667.13   -33964.923    2680.2217   -36645.144    55.102805    251.44262 
   17150    139.15753   -1010.9402    132685.62   -33992.096    2628.1865   -36620.282    55.142751    246.56099 
   17200    142.72959   -1265.0812    132746.59   -33935.564      2695.65   -36631.214    55.505081    252.89002 
   17250    138.73518    -1125.866     132646.2    -33980.51    2620.2098    -36600.72    55.557656    245.81267 
   17300    136.37925   -1096.3308    132643.43   -34040.511    2575.7149   -36616.226    55.562412    241.63841 
   17350    137.89043   -1327.6914    132663.94   -34013.347    2604.2556   -36617.603    55.694963    244.31594 
   17400    141.14862   -1447.3894    132539.91   -33993.006    2665.7911   -36658.798    55.669003    250.08883 
   17450    141.96094   -1406.4837    132465.68   -34050.343    2681.1329   -36731.476     55.95272    251.52811 
   17500    140.45517   -1267.2556    132428.41   -34027.002    2652.6943   -36679.696    56.187479    248.86017 
   17550    142.83279   -1120.2199    132463.21   -34001.997     2697.599   -36699.596    56.407017    253.07287 
   17600    141.80003   -1060.9579    132544.38   -33988.133    2678.0938   -36666.227    56.724981      251.243 
   17650    139.62987   -1171.3488    132609.73   -33953.112    2637.1072    -36590.22    57.014478    247.39788 
   17700     139.8202   -1513.9601    132630.82   -33970.557    2640.7019   -36611.259    57.091246    247.73512 
   17750    141.31464    -1323.261    132589.83   -33989.527    2668.9265   -36658.453    57.324655    250.38298 
   17800     140.9173   -1152.3438    132570.79   -34002.553    2661.4223   -36663.975    57.571079    249.67898 
   17850    141.58422    -1254.132    132688.65   -34015.336     2674.018   -36689.354    57.591681    250.86064 
   17900    140.33754   -1028.4469    132710.13   -33973.818    2650.4726    -36624.29    57.575351    248.65174 
   17950    141.47462   -1270.2603    132732.92   -33995.805    2671.9481   -36667.753    57.694819    250.66644 
   18000    136.38701    -1176.664    132653.81   -33976.299    2575.8613    -36552.16    57.659958    241.65215 
   18050    140.56761   -1002.7289    132749.86    -33990.71    2654.8178   -36645.528    57.830933    249.05939 
   18100    139.88066   -1279.2449    132786.17   -34017.039    2641.8438   -36658.883    57.766204    247.84224 
   18150    138.95668   -1206.0825    132758.89   -33999.386    2624.3931   -36623.779    57.684584    246.20512 
   18200    141.48921   -1172.7526    132783.61   -33987.362    2672.2235   -36659.585    57.769368    250.69228 
   18250    142.10399   -931.97365    132895.28   -33960.327    2683.8347   -36644.162    57.969682    251.78157 
   18300    137.65956   -1227.9272    133015.08    -34008.16    2599.8952   -36608.055     58.32165    243.90687 
   18350    142.36288   -1125.2392    133082.62   -33979.976     2688.724     -36668.7    58.725169    252.24026 
   18400    140.85606   -1416.5952    133112.99   -33902.412    2660.2657   -36562.678    58.921641    249.57047 
   18450    141.48864   -1414.7633    132987.72   -33903.416    2672.2129   -36575.629    59.001375    250.69129 
   18500    139.42493   -1334.8453       132940   -33952.055    2633.2367   -36585.292    59.186503    247.03477 
   18550    138.70066   -1216.3228    132882.52   -33963.312    2619.5578    -36582.87    59.198208     245.7515 
   18600    140.89191   -1174.5781    132856.65    -33914.99    2660.9427   -36575.933    59.188221    249.63399 
   18650    137.91437   -1436.0938    132780.38   -33964.734    2604.7077   -36569.442    59.247559    244.35835 
   18700    136.41861   -1296.0173    132712.07   -33976.176     2576.458   -36552.634    59.696066    241.70813 
   18750     137.8691   -1278.7315    132646.61    -34023.82    2603.8527   -36627.673    60.122731    244.27814 
   18800    136.07967   -1420.3158    132559.38   -34023.725    2570.0568   -36593.782    60.150173    241.10761 
   18850    139.62144   -1195.2663     132556.6   -34052.824     2636.948   -36689.772    60.144322    247.38295 
   18900    137.61284   -1232.7951    132590.75   -34074.562    2599.0128   -36673.575    60.275177    243.82409 
   18950    136.39329   -1132.8419    132545.01   -34019.098      2575.98   -36595.078    60.480534    241.66328 
   19000    139.30243   -1276.5386    132606.25   -34023.462    2630.9231   -36654.385    60.568028    246.81772 
   19050    137.91397   -1366.9112    132673.27   -34005.046    2604.7001   -36609.746    60.556742    244.35763 
   19100    141.23459   -1236.9606    132649.57     -33940.2    2667.4147   -36607.615     60.77907    250.24115 
   19150    138.65863   -1207.7911    132588.68   -33928.314    2618.7641   -36547.078    61.007728    245.67704 
   19200    138.77462   -1223.6952    132677.03   -33942.689    2620.9547   -36563.643    61.059658    245.88255 
   19250    141.45472   -1216.8656    132637.96   -33965.129    2671.5721   -36636.701    60.959378    250.63117 
   19300    134.74927    -1285.054     132540.3   -33986.697    2544.9302   -36531.627    61.096493    238.75038 
   19350    141.25068    -1150.391    132513.79   -33989.478    2667.7186   -36657.196    61.125738    250.26966 
   19400    137.46703    -915.4215    132612.77   -33962.224     2596.259   -36558.483    61.505224    243.56574 
   19450    139.88011   -1109.4646    132636.22   -33908.063    2641.8335   -36549.897    61.663974    247.84128 
   19500    139.82121   -1015.7749    132600.25   -33882.535    2640.7211   -36523.257    61.790457    247.73691 
   19550      140.898   -964.21895    132666.15   -33918.998    2661.0578   -36580.056     62.02748    249.64478 
   19600    142.97158   -1186.5461    132638.94    -33952.72    2700.2202    -36652.94    62.218994    253.31877 
   19650    142.26662   -1031.6765    132692.63   -33973.754     2686.906    -36660.66    62.419977    252.06971 
   19700    141.22561   -1219.0001    132707.27   -33978.061     2667.245   -36645.306    62.547894    250.22523 
   19750    136.06457   -1283.8168    132679.84   -33986.819    2569.7715    -36556.59    62.921178    241.08084 
   19800     140.0691   -1146.5052    132714.94   -34018.135    2645.4028   -36663.538    63.076609    248.17612 
   19850    139.88195   -1288.3957     132697.5   -33996.523    2641.8683   -36638.391     63.19034    247.84453 
   19900    139.33198   -1156.6811    132654.51   -34017.178    2631.4812   -36648.659     63.55212    246.87009 
   19950    139.20953   -1020.6414    132651.84   -34053.341    2629.1685   -36682.509    63.657434    246.65312 
   20000     139.7684   -1296.4797    132623.16   -34033.981    2639.7237   -36673.705    63.568141    247.64334 
   20050    139.90922   -1246.8697    132565.23   -34032.244    2642.3832   -36674.627    63.543017    247.89285 
   20100    136.82815    -1281.113    132563.68   -34072.628    2584.1929   -36656.821    63.775278    242.43377 
   20150    140.74276      -1342.5    132456.66   -34059.006    2658.1258   -36717.132    64.120578    249.36972 
   20200    137.33045   -1628.5496    132363.95   -34073.661    2593.6796    -36667.34    64.225294    243.32376 
   20250    139.87111   -1349.4702    132243.12   -34036.956    2641.6636    -36678.62     64.48963    247.82533 
   20300    138.77198   -1214.3906    132184.34   -34034.312    2620.9049   -36655.217    64.413912    245.87788 
   20350    141.75378   -1195.8142    132181.24   -33960.096    2677.2204   -36637.316    64.842329    251.16106 
   20400    143.81067   -1065.8347     132173.6   -33906.518    2716.0677   -36622.586    65.068134    254.80549 
   20450    139.52537   -1438.4052    132108.36   -33960.455    2635.1336   -36595.589     65.25441    247.21273 
   20500    139.70115   -1325.9101    132051.75   -33967.571    2638.4536   -36606.024    65.236262    247.52419 
   20550    140.03482   -1185.1686    132075.28    -33943.32    2644.7553   -36588.075    65.359957    248.11538 
   20600    140.72015    -1377.399    132122.84     -33951.2    2657.6988   -36608.899    65.373281    249.32966 
   20650    139.57549   -1014.8758     132116.3   -33940.819    2636.0802     -36576.9    65.629702    247.30154 
   20700    139.03834   -1065.1542    132266.08   -33950.051    2625.9354   -36575.986    65.819942    246.34981 
   20750    137.97049   -1127.9784    132315.43   -33951.938    2605.7676   -36557.705    65.824867    244.45779 
   20800    144.33101   -1226.4008    132323.77   -33946.918    2725.8949   -36672.813    65.864578    255.72742 
   20850    141.13541   -1245.8923    132275.76   -33895.681    2665.5415   -36561.223    65.898384    250.06542 
   20900    139.96087   -1457.8464    132318.18   -33908.701    2643.3587    -36552.06    66.070862    247.98435 
   20950    141.09601   -1479.3087    132276.83   -33895.775    2664.7975   -36560.572    66.342068    249.99562 
   21000    140.03713   -1248.4611    132308.41   -33905.998     2644.799   -36550.797     66.56826    248.11948 
   21050    143.69094   -1231.1507    132340.06   -33848.024    2713.8064   -36561.831    66.745853    254.59334 
   21100    143.40828   -1217.3573    132341.55   -33905.246    2708.4679   -36613.714    66.824125    254.09252 
   21150    142.15512   -1254.9627    132306.49   -33919.842    2684.8003   -36604.643    67.051191    251.87217 
   21200    142.98809   -1171.0302    132349.99   -33887.834    2700.5321   -36588.367    67.290185    253.34803 
   21250    141.92435   -1193.0899    132401.41   -33910.511    2680.4418   -36590.953    67.459955    251.46327 
   21300    141.73302   -1210.6011     132395.8   -33968.309    2676.8283   -36645.137    67.713359    251.12428 
   21350    140.13317   -1405.8078    132386.02    -33987.79    2646.6129   -36634.403    67.854836    248.28965 
   21400    141.52084   -1286.8148    132422.21   -33948.911    2672.8209   -36621.732    67.927211    250.74833 
   21450    139.68766   -1181.8232    132439.94   -34011.869    2638.1988   -36650.068     68.22433    247.50029 
   21500    140.83498   -1432.7548    132436.31   -34030.745    2659.8675   -36690.613    68.540218    249.53312 
   21550    139.14282   -1269.7173    132432.84   -34034.902    2627.9087   -36662.811    68.856611    246.53493 
   21600    139.52475   -1200.6703    132417.53   -33997.407     2635.122   -36632.529    69.123735    247.21164 
   21650    136.69832    -951.6881    132426.43   -34018.597    2581.7409   -36600.338    69.340679    242.20373 
   21700    141.64297   -1274.2569    132413.76    -33935.29    2675.1275   -36610.417    69.360791    250.96472 
   21750    139.36853   -918.21652    132460.11   -33943.424    2632.1716   -36575.595    69.552221    246.93485 
   21800    143.49961   -988.67614    132501.52   -33902.527    2710.1928    -36612.72    69.531048    254.25434 
   21850    141.47438    -988.0807     132544.8   -33893.433    2671.9436   -36565.377    69.704814    250.66602 
   21900    139.21229   -1122.7575    132645.99   -33906.056    2629.2207   -36535.276    69.827819    246.65801 
   21950    142.92601   -1091.4883    132707.39   -33927.104    2699.3596   -36626.464    70.064169    253.23803 
   22000    138.37241   -1235.0876    132741.84   -33982.519    2613.3585   -36595.877     70.14731    245.16991 
   22050    138.96193   -1203.2028    132824.91   -33906.023    2624.4924   -36530.515    70.335418    246.21443 
   22100    141.27292   -1199.3675    132848.18     -33915.2    2668.1387   -36583.339    70.631887    250.30907 
   22150     140.4982    -1194.403    132911.72   -33960.366    2653.5069   -36613.873    70.800686     248.9364 
   22200    139.99522   -1101.5375    132922.46   -33927.529    2644.0075   -36571.537    70.861884    248.04523 
   22250    139.56009   -1253.9535    132986.05   -33865.003    2635.7895   -36500.792    71.188852    247.27426 
   22300    143.26977    -1101.822    132891.33   -33839.062     2705.852   -36544.914    70.933409    253.84711 
   22350    143.44808   -1371.2377    132843.01   -33864.088    2709.2196   -36573.308    71.164457    254.16304 
   22400    140.25631    -1610.623    132632.99   -33920.686    2648.9386   -36569.625    71.411908    248.50783 
   22450    139.53651   -1063.1995    132536.93   -33926.702     2635.344   -36562.046    71.579606    247.23247 
   22500    139.40482   -1325.4627    132511.71   -33934.188    2632.8569   -36567.045    71.663969    246.99914 
   22550    141.24248   -1283.4267    132475.29   -33912.769    2667.5638   -36580.332    72.059992    250.25514 
   22600     143.2493    -1133.399    132547.93   -33963.919    2705.4653   -36669.384    72.240178    253.81084 
   22650    140.93868   -1115.0853    132617.07   -33957.648    2661.8261   -36619.474    72.477041    249.71686 
   22700    140.66885   -1290.1614    132566.32   -33966.455    2656.7299   -36623.185    72.838953    249.23877 
   22750    139.41121   -1478.1934     132516.1   -33952.055    2632.9775   -36585.033    72.817361    247.01046 
   22800     137.9173   -931.54461    132566.62   -33986.524     2604.763   -36591.287    72.947751    244.36353 
   22850    140.23211   -830.09425    132624.86   -33973.211    2648.4815   -36621.693     73.00267    248.46495 
   22900    140.40729   -915.28293    132685.57   -33976.509      2651.79   -36628.299    73.082561    248.77533 
   22950    140.28239   -1005.3846    132746.87    -33995.65    2649.4311   -36645.081    73.313521    248.55404 
   23000    141.22762   -1296.0013    132731.76   -34015.707     2667.283    -36682.99    73.461506     250.2288 
   23050     139.2956   -1233.7302     132699.6    -33992.19    2630.7942   -36622.985    73.499924    246.80563 
   23100    142.91234   -1361.0309    132653.54   -33979.024    2699.1015   -36678.125    73.659959    253.21382 
   23150    141.80605   -1102.8942    132781.82   -34005.528    2678.2075   -36683.736    73.523361    251.25366 
   23200    140.57922   -1246.4253    132761.49   -34092.629    2655.0371   -36747.666    73.510094    249.07996 
   23250    138.95248   -1199.5892    132805.78   -34061.538    2624.3138   -36685.852    73.607539    246.19768 
   23300    137.89232   -1320.3654    132809.21   -34069.316    2604.2912   -36673.607    73.806709    244.31927 
   23350     139.7896   -1221.2878    132824.02   -34005.175    2640.1241   -36645.299    74.049093    247.68091 
   23400     140.0688   -1538.2963    132786.48   -33941.961    2645.3971   -36587.358    74.342958    248.17559 
   23450     139.4169   -1549.5768    132738.71   -33985.699    2633.0851   -36618.784    74.414224    247.02055 
   23500    141.71856   -1215.8813     132678.8   -34009.763    2676.5552   -36686.318    74.381678    251.09866 
   23550    139.55324   -1042.9583    132687.32   -34052.989    2635.6601   -36688.649    74.407842    247.26212 
   23600    140.12857   -1044.9462    132634.12   -34057.569    2646.5259   -36704.094    74.437165    248.28149 
   23650     141.6102   -1186.2034    132633.76   -34030.789    2674.5086   -36705.297    74.798477    250.90666 
   23700    140.89492   -1263.7269     132600.1   -33996.663    2660.9995   -36657.662    75.214132    249.63932 
   23750    144.55892   -1218.4481    132646.43   -33989.858    2730.1995   -36720.058    75.467797    256.13125 
   23800    142.27454   -1305.1013    132673.37   -34010.197    2687.0556   -36697.253     75.65952    252.08374 
   23850    138.91213   -1082.6712    132714.52   -34050.654    2623.5517   -36674.205    75.816416    246.12619 
   23900    139.51215   -1391.6026    132712.87   -34053.146    2634.8841    -36688.03    75.854478    247.18932 
   23950    138.72505   -1225.6657    132662.94   -34113.581    2620.0186   -36733.599    76.152184    245.79473 
   24000    140.13495    -1404.394    132648.36   -34065.683    2646.6465   -36712.329    76.413941     248.2928 
   24050    141.43342   -1118.9102    132677.15   -34082.164      2671.17   -36753.334     76.50881    250.59345 
   24100     141.3284   -1135.9055     132712.4    -34077.79    2669.1865   -36746.976    76.428012    250.40737 
   24150    142.08946   -1387.9773    132811.29   -34090.487    2683.5602   -36774.047    76.486606    251.75582 
   24200    138.03478   -1255.4195    132755.81   -34134.944    2606.9818   -36741.926     76.69096    244.57169 
   24250    138.44417   -978.74478    132806.47   -34098.316    2614.7138   -36713.029    76.986674    245.29706 
   24300     139.3805   -1116.8735    132912.56    -34078.98    2632.3976   -36711.378    77.119388    246.95605 
   24350    137.39528   -1327.8594    132902.73   -34062.529    2594.9039   -36657.432    77.259838    243.43861 
   24400    137.40204   -1244.2699    132989.29   -34062.323    2595.0317   -36657.355    77.162714     243.4506 
   24450    139.57154   -1462.9334     132884.7   -34044.977    2636.0057   -36680.983    77.203157    247.29454 
   24500    140.15004   -938.24697    132852.78   -34038.034    2646.9314   -36684.965    77.254164    248.31953 
   24550     140.1613   -1560.7433    132899.38   -34102.876    2647.1442    -36750.02    77.558486    248.33949 
   24600    141.24551   -1179.8646    132823.36    -34072.16     2667.621   -36739.781    77.928911    250.26051 
   24650    139.93087    -1172.649    132783.35   -34059.155    2642.7921   -36701.947    77.984791     247.9312 
   24700    139.44968   -1216.2657    132731.95   -34094.475    2633.7042   -36728.179    78.168685    247.07863 
   24750    140.85768   -964.21321    132822.02   -34044.529    2660.2963   -36704.825    78.296318    249.57335 
   24800    141.89081   -1235.8233    132828.33   -34063.268    2679.8083   -36743.076    78.561761    251.40385 
   24850     136.9499   -1059.8519     132864.9   -34101.338    2586.4924    -36687.83    78.572457    242.64949 
   24900    138.14827   -1135.8167    132948.79   -34049.576    2609.1252   -36658.701    78.729202    244.77277 
   24950    140.18387   -1152.6093    132978.68   -34025.665    2647.5705   -36673.236    78.940035    248.37948 
   25000    139.38525   -1328.6047    132915.93   -34044.616    2632.4873   -36677.104     79.03967    246.96447 
   25050     140.2182   -1062.5889    132834.15   -34028.724    2648.2188   -36676.942    79.225089     248.4403 
   25100    141.63044   -1206.1644    132818.47   -34012.379     2674.891    -36687.27    79.566802    250.94253 
   25150    142.44628   -1091.9317    132872.35   -34063.034    2690.2991   -36753.333    79.628784    252.38803 
   25200    140.37586   -1312.1734    132926.15   -34071.708    2651.1963   -36722.905    79.949865    248.71964 
   25250    134.69336   -1348.1733    132947.31   -34130.778    2543.8744   -36674.653    80.207427    238.65133 
   25300    140.05048   -1187.8037    132903.27   -34125.354    2645.0511   -36770.406    80.491897    248.14313 
   25350    136.79121   -1263.2023    132816.75   -34157.748    2583.4951   -36741.243    80.284435    242.36831 
   25400    137.30349   -1113.4575    132780.66   -34191.503    2593.1703   -36784.673    80.620535    243.27598 
   25450    137.52658   -1205.4411    132720.52   -34191.952    2597.3838   -36789.336    80.759198    243.67126 
   25500    138.93513   -914.92445    132797.06   -34165.716    2623.9862   -36789.702    80.963419    246.16694 
   25550    135.76487   -1256.6224    132811.46   -34215.328    2564.1113    -36779.44      81.1891    240.54983 
   25600    137.41991   -954.83363    132826.86   -34201.532     2595.369   -36796.901    81.328569    243.48225 
   25650    136.29023   -1198.1215    132860.18   -34146.932    2574.0336   -36720.965     81.68888    241.48068 
   25700    138.88221   -1044.8176    132867.62   -34138.092    2622.9867   -36761.079    81.842719    246.07317 
   25750    136.97296   -1409.6246       132912   -34118.011    2586.9278   -36704.939     81.81652    242.69034 
   25800    136.00502   -1272.4014    132935.43   -34098.997    2568.6469   -36667.644    81.871034    240.97534 
   25850    134.37227   -1331.5296    132967.19   -34108.455    2537.8102   -36646.265    82.273229    238.08242 
   25900    139.32844   -1218.1541    132980.19   -34086.165    2631.4144   -36717.579    82.476067    246.86381 
   25950    140.00553   -1345.1839    132916.01   -34061.306    2644.2022   -36705.509    82.454211    248.06349 
   26000     138.9983   -1264.5272    132883.59   -34007.098    2625.1793   -36632.278    82.605444    246.27888 
   26050    139.65368   -1171.8599    132920.24   -33994.287     2637.557   -36631.844    82.790951    247.44007 
   26100    139.83597    -1193.474    132914.59   -33951.646    2640.9998   -36592.645    82.861216    247.76306 
   26150     140.9496    -1221.914    132891.87    -33950.85    2662.0324   -36612.882    83.019683    249.73621 
   26200      135.645   -1304.9898    132899.96   -33996.678    2561.8474   -36558.526    83.221918    240.33745 
   26250    140.58314   -1194.7492    132913.34   -33931.782    2655.1111   -36586.893    83.368566     249.0869 
   26300    139.80029   -1175.4715     132892.7   -33939.255    2640.3259   -36579.581    83.644467    247.69984 
   26350    141.45398   -1123.6592     132935.9    -33936.03    2671.5581   -36607.588    83.615797    250.62986 
   26400    136.37819   -1022.3796    133011.03   -33952.955    2575.6947    -36528.65    83.865118    241.63652 
   26450    141.95401   -1311.7533    133005.34   -33948.444    2681.0019   -36629.446    83.861205    251.51582 
   26500    137.73409   -1366.7218    132935.76   -33976.235    2601.3028   -36577.538    84.085248    244.03892 
   26550    141.35867   -1144.5569    133016.95   -33971.011    2669.7581   -36640.769    84.324653    250.46099 
   26600    141.89069   -1334.2984    133069.88   -34013.282    2679.8062   -36693.088    84.562071    251.40364 
   26650    139.84728   -1323.6355     133074.1   -33976.169    2641.2134   -36617.382    84.703746     247.7831 
   26700    139.98503   -1279.6071     133093.1   -33949.093     2643.815   -36592.908     85.09071    248.02717 
   26750    141.40216    -1389.068    133053.25   -34006.143    2670.5794   -36676.722    85.405868    250.53805 
   26800    140.11209   -1050.4786    133155.11    -34007.25    2646.2148   -36653.465     85.64117     248.2523 
   26850    141.80045   -1254.1659    133218.58    -33960.75    2678.1018   -36638.852    85.606928    251.24375 
   26900    140.49424   -1365.7223    133121.16   -33951.865    2653.4322   -36605.298    85.900367     248.9294 
   26950    140.06364   -1350.8685    133059.57   -33998.393    2645.2997   -36643.693    85.928858    248.16646 
   27000    140.01858   -1328.6677     133015.7   -34002.011    2644.4486   -36646.459    85.616606    248.08661 
   27050    141.56681   -1341.6611    132866.12   -34012.788    2673.6891   -36686.478    85.791756    250.82978 
   27100    138.20344   -1295.5462    132844.77   -34039.535    2610.1671   -36649.702     85.73795    244.87052 
   27150    140.95433   -1111.2139    132864.55    -34023.06    2662.1216   -36685.181    85.998074    249.74458 
   27200     137.1688   -1237.1751     132858.3   -34021.925    2590.6265   -36612.551    86.336295    243.03733 
   27250    139.72086   -1211.5379       132828   -34048.802    2638.8258   -36687.628    86.587361    247.55911 
   27300    137.92158   -1413.7083    132699.58     -34021.1    2604.8438   -36625.944    86.797947    244.37112 
   27350    144.14947   -1204.1993    132729.77   -33970.277    2722.4664   -36692.744    86.928084    255.40578 
   27400      138.133   -1218.0277    132702.54   -34021.088    2608.8368   -36629.925    87.188011    244.74572 
   27450    134.53794   -1492.5679    132586.83    -34077.43     2540.939   -36618.369    87.221329    238.37594 
   27500    138.77693   -1300.1774    132569.94   -34046.371    2620.9984   -36667.369    87.091588    245.88665 
   27550    140.23741   -1134.3332     132518.3   -34034.616    2648.5815   -36683.198    87.357611    248.47433 
   27600    138.12167   -1166.8173    132592.63   -33991.985    2608.6228   -36600.608     87.61514    244.72564 
   27650    139.39052   -1103.3586    132613.81   -34015.479    2632.5868   -36648.065    87.631497     246.9738 
   27700    141.89687   -854.25968    132620.47   -33975.491    2679.9228   -36655.413    87.906647    251.41459 
   27750    142.15775   -845.88807    132764.46   -33957.954      2684.85   -36642.804    88.069042    251.87683 
   27800    142.75924   -1181.4771    132843.09   -33966.412      2696.21   -36662.622    88.146254    252.94255 
   27850    140.95025   -1391.0309    132845.37    -33950.94    2662.0446   -36612.984    88.243485    249.73736 
   27900    139.68104   -1300.0155    132804.54   -34045.932    2638.0737   -36684.006    88.514911    247.48855 
   27950    136.95888   -1297.2793    132829.95   -34049.337    2586.6619   -36635.998    88.688325     242.6654 
   28000    139.29091   -1318.9116    132783.28   -34040.821    2630.7056   -36671.527      88.5423    246.79732 
   28050    141.07719   -1168.8658    132786.05   -34029.847     2664.442   -36694.289    88.716536    249.96227 
   28100    138.26949   -1424.2227    132787.72   -34002.929    2611.4146   -36614.343    89.163469    244.98755 
   28150    138.11055   -1430.5867    132804.14   -34038.527    2608.4128   -36646.939    89.346591    244.70594 
   28200    136.98934   -1442.3418     132708.4   -34025.885    2587.2372   -36613.122    89.573069    242.71937 
   28250    142.25135   -1194.2869    132640.75   -33995.355    2686.6177   -36681.973    89.918003    252.04266 
   28300    138.24131    -1385.017    132677.54   -34058.428    2610.8824    -36669.31    89.983157    244.93762 
   28350     141.1827    -1045.176    132725.16   -34046.813    2666.4348   -36713.248    90.184751    250.14922 
   28400    140.13791   -1166.3028    132828.36   -34022.072    2646.7023   -36668.774    90.298961    248.29804 
   28450     139.3683   -1313.0275    132723.37    -34032.11    2632.1672   -36664.277    90.603296    246.93444 
   28500     140.9748   -1060.7454    132700.67   -34039.445    2662.5082   -36701.953    90.647066    249.78085 
   28550    141.70942   -1207.2955     132674.1   -34029.979    2676.3825   -36706.361    90.635314    251.08246 
   28600    139.08447   -1163.4543    132720.38   -34041.987    2626.8067   -36668.794    90.755963    246.43155 
   28650     138.5242   -948.52624     132794.6   -34026.871    2616.2251   -36643.096    91.038176    245.43884 
   28700    137.77565   -998.36344    132805.45   -34024.989    2602.0877   -36627.077    91.333348    244.11256 
   28750    139.45908   -1205.2937    132834.52   -34012.132    2633.8817   -36646.014    91.499282    247.09528 
   28800    136.67829   -1316.1163    132816.04   -34093.157    2581.3626    -36674.52     91.72748    242.16825 
   28850    140.06402   -1423.7496    132750.79   -34086.169    2645.3069   -36731.476    91.837584    248.16713 
   28900    134.03628   -1466.6731    132659.45   -34168.786    2531.4645   -36700.251    92.286434     237.4871 
   28950    139.40237   -1328.5436    132651.91   -34085.552    2632.8107   -36718.362    92.184727    246.99481 
   29000    138.50571   -1082.4843    132599.92   -34059.115    2615.8759   -36674.991     92.67253    245.40608 
   29050    139.41377   -1267.6857    132545.21   -34145.706     2633.026   -36778.732    93.061733      247.015 
   29100    137.57559    -1155.016    132602.49   -34108.527    2598.3094   -36706.837    93.488099     243.7581 
   29150     139.1402   -1304.5393    132627.14   -34060.754    2627.8592   -36688.613    93.782427    246.53029 
   29200    138.73008   -1236.4914    132719.35   -34076.307    2620.1135   -36696.421    93.976258    245.80363 
   29250    140.25662   -920.41047    132768.16   -34069.899    2648.9444   -36718.843    94.181695    248.50838 
   29300    139.88348   -1134.8073    132814.01   -34047.871    2641.8971   -36689.768    94.383028    247.84724 
   29350    139.96219   -1326.8756    132836.99    -34017.59    2643.3837   -36660.974     94.46526     247.9867 
   29400    139.89203   -1121.8825    132849.25   -34064.016    2642.0585   -36706.074     94.80274    247.86238 
   29450    138.31168   -1136.8738    132787.95   -34127.961    2612.2115   -36740.172    94.662631    245.06231 
   29500     140.9683   -981.56477     132736.5   -34075.164    2662.3855   -36737.549    94.603822    249.76934 
   29550    139.29888   -1063.8558    132839.82   -34098.363    2630.8562   -36729.219    94.785879    246.81145 
   29600    136.99176   -1171.5219    132926.88   -34124.497    2587.2829    -36711.78    94.616933    242.72365 
   29650    140.08158   -1256.4684    132993.31    -34097.78    2645.6385   -36743.419    94.885772    248.19823 
   29700    138.09309   -1087.2858    133015.11   -34102.832     2608.083   -36710.915    95.179494      244.675 
   29750    139.44098   -1137.3909    133156.47   -34064.553    2633.5398   -36698.093    95.539267    247.06321 
   29800    137.13756   -1131.4586    133249.94   -34093.773    2590.0365    -36683.81    95.829263    242.98199 
   29850    136.60155   -1295.1744    133247.78   -34107.482    2579.9133   -36687.395    95.744048    242.03228 
   29900    138.54228   -1104.4815     133224.9   -34084.499    2616.5666   -36701.065    95.792175    245.47088 
   29950    139.18943   -1319.5122    133202.86   -34107.646    2628.7889   -36736.435    96.200682    246.61751 
   30000    140.02906   -1079.0037    133162.04   -34045.505    2644.6465   -36690.152    96.232927    248.10517 
   30050    139.65892   -1487.9304    133072.52   -34043.198     2637.656   -36680.854    96.351897    247.44937 
   30100    138.45922   -1186.4965     132981.4   -34036.283     2614.998   -36651.281    96.563922    245.32373 
   30150    141.23997   -1539.1267    132946.52   -33997.026    2667.5164   -36664.543    96.632875    250.25069 
   30200    139.58537   -1475.4984    132845.66   -33938.225    2636.2669   -36574.492    96.609392    247.31905 
   30250    142.00123   -1182.7721     132793.4   -33961.087    2681.8937   -36642.981    96.879124    251.59949 
   30300    141.00259   -1143.0597    132879.47   -33948.433    2663.0331   -36611.466    96.915143     249.8301 
   30350    142.50653   -1048.7105    132946.76   -33882.653    2691.4371    -36574.09    96.957785    252.49479 
   30400    142.67959   -997.74142    133035.35   -33875.166    2694.7056   -36569.871    96.854298    252.80142 
   30450    141.91207   -1299.7621    133075.94   -33927.278    2680.2099   -36607.488     96.92911    251.44152 
   30500    137.78138   -910.06315     133083.2   -33908.266     2602.196   -36510.462    96.919272    244.12272 
   30550     139.4416   -1376.8669    133085.82   -33926.994    2633.5517   -36560.546    96.923357    247.06432 
   30600     140.2795   -1378.3112    133011.18   -33975.083    2649.3766    -36624.46    97.223613    248.54892 
   30650    138.71536    -1225.722    133011.45   -33996.823    2619.8355   -36616.658    97.263457    245.77755 
   30700    137.34104    -1201.483    133000.86   -34045.303    2593.8795   -36639.182    97.260816    243.34251 
   30750    136.86422   -1211.1562    133031.81   -34021.978    2584.8741   -36606.853    97.635692    242.49768 
   30800    145.00124   -1237.5857    133010.15   -33961.124    2738.5533   -36699.678    97.798591    256.91495 
   30850    139.79351   -1394.1945    132977.69   -33949.234    2640.1979   -36589.432    97.678585    247.68783 
   30900    140.14268    -1393.882    133001.15   -33957.702    2646.7925   -36604.494    97.660777    248.30649 
   30950    140.70347   -1268.1375    133077.29    -33978.27    2657.3837   -36635.654     97.68712     249.3001 
   31000    139.26915   -1078.8752    133092.73   -34020.181    2630.2947   -36650.476    97.930372    246.75877 
   31050    139.65321   -1276.8955    133100.78   -34023.713    2637.5481   -36661.262    97.841728    247.43925 
   31100    140.05488   -1183.9856    133118.72   -33972.932    2645.1343   -36618.067    98.135494    248.15094 
   31150    140.69246   -1432.1961     133092.5   -33991.657    2657.1758   -36648.833    98.578184    249.28059 
   31200    142.24842   -1093.2697    133161.22   -33941.432    2686.5624   -36627.995     98.88498    252.03748 
   31250    141.38125   -1243.2735    133203.08   -33961.216    2670.1847   -36631.401    99.021133    250.50101 
   31300    138.65683   -1222.1418    133183.53    -33959.94    2618.7301    -36578.67    99.243149    245.67385 
   31350    144.08689   -1358.9407    133160.87   -33857.437    2721.2845   -36578.721    99.335594     255.2949 
   31400    142.76941   -1217.5505     133140.7   -33871.628     2696.402    -36568.03    99.377751    252.96057 
   31450    139.31297   -1306.0988    133031.41   -33916.778    2631.1222     -36547.9    99.413287     246.8364 
   31500    139.53351   -1416.9475    132943.61   -33928.712    2635.2874       -36564    99.723433    247.22716 
   31550    139.74949   -1325.9606    132859.62   -33931.655    2639.3665   -36571.022    99.884148    247.60984 
   31600    142.12224   -1446.1056    132836.37   -33937.681    2684.1793    -36621.86    100.09169    251.81391 
   31650    140.66545   -1081.2128    132877.61    -33947.16    2656.6658   -36603.826    100.33428    249.23275 
   31700    141.08444   -1221.4578    132948.03   -33861.818     2664.579   -36526.397    100.49459    249.97512 
   31750    141.85384   -1307.9946    132891.54   -33819.568      2679.11   -36498.678     100.8945    251.33834 
   31800    143.28177    -1160.511    132852.43   -33825.805    2706.0787   -36531.884    101.02564    253.86838 
   31850    141.35297   -1225.8817    132912.63   -33849.987    2669.6505   -36519.638    100.97761     250.4509 
   31900    140.72367   -1253.2424    132796.71   -33897.474    2657.7653   -36555.239     101.1203     249.3359 
   31950    140.19042   -1217.9119    132789.58   -33916.074    2647.6941   -36563.768    100.92004    248.39108 
   32000    141.43112   -1157.7873    132792.09   -33926.368    2671.1266   -36597.495    101.06896    250.58937 
   32050    142.20726   -1195.6069    132789.08   -33852.891     2685.785   -36538.676     101.2634    251.96454 
   32100    140.99238   -1189.8174    132869.43    -33850.06    2662.8402     -36512.9    101.50109      249.812 
   32150    140.76317   -1279.2409    132841.61   -33890.295    2658.5112   -36548.806    101.70991    249.40588 
   32200    140.88962   -1061.6734    132827.64   -33871.697    2660.8995   -36532.597    101.81925    249.62994 
   32250    142.20373   -1315.7374    132840.87   -33860.487    2685.7184   -36546.206    101.91952    251.95829 
   32300    138.49072   -1390.8375    132821.41   -33920.171    2615.5929   -36535.764    102.15249    245.37953 
   32350    142.12423   -1423.2731    132816.39   -33901.673    2684.2168    -36585.89    102.49777    251.81742 
   32400    139.53813    -1387.764    132806.26   -33869.112    2635.3746   -36504.487    102.77858    247.23534 
   32450    141.59383   -1440.6907    132791.84   -33857.048    2674.1995   -36531.247    102.83074    250.87766 
   32500    139.13472   -1222.3057    132787.58   -33900.413    2627.7556   -36528.168    102.95091    246.52057 
   32550     139.7954   -1309.5518    132758.37   -33917.345    2640.2337   -36557.578    102.92166    247.69119 
   32600    138.22837   -1387.0905     132762.6   -33916.928     2610.638   -36527.567    102.82853     244.9147 
   32650    139.85262   -1275.3292     132728.7   -33964.189    2641.3143   -36605.503    102.67484    247.79256 
   32700    138.50906   -1107.4892    132674.42   -33995.623    2615.9391   -36611.562     102.5833    245.41202 
   32750    138.08732   -1030.6668    132629.63    -33960.09     2607.974   -36568.064    102.90086    244.66477 
   32800    143.02519   -1041.9351    132575.07   -33950.271    2701.2327   -36651.504    103.26266    253.41375 
   32850    140.35862    -1279.315    132488.82   -33901.301    2650.8707   -36552.172    103.54246    248.68909 
   32900    140.77949   -1363.3606    132411.17   -33921.226    2658.8195   -36580.045    103.41205     249.4348 
   32950    142.28068   -1307.9488    132291.25   -33977.149    2687.1716   -36664.321    103.49609    252.09463 
   33000    142.73956    -1362.517    132338.66   -33943.244    2695.8381   -36639.082    103.70449    252.90767 
   33050    140.04153   -1130.9408    132287.46   -33946.694    2644.8822   -36591.576    103.93385    248.12728 
   33100    142.60323   -1001.4802    132323.16   -33940.024    2693.2633   -36633.287    104.42857    252.66612 
   33150    139.73739   -972.84081    132332.56   -33968.704     2639.138   -36607.842    104.48623     247.5884 
   33200    138.76856   -1130.4575    132319.04   -34006.735    2620.8402   -36627.576    104.61052    245.87181 
   33250    140.19549   -1069.7281    132372.15    -33994.89    2647.7899    -36642.68    104.89365    248.40007 
   33300    140.91366   -1286.7732    132422.93    -33955.11    2661.3535   -36616.464    104.91166    249.67252 
   33350    139.91305   -1369.6583    132430.78   -33948.066    2642.4556   -36590.522    105.32864    247.89964 
   33400    143.04819   -1275.8054    132417.89   -33934.199    2701.6671   -36635.866    105.37424    253.45451 
   33450    141.61145    -898.4132       132456   -33906.378    2674.5322    -36580.91    105.51193    250.90887 
   33500    141.08701   -1187.6919     132557.4   -33934.911    2664.6275   -36599.539    105.75968    249.97967 
   33550     140.4675   -1429.4643    132569.95   -33878.691    2652.9272   -36531.618    105.78757    248.88201 
   33600    142.88639   -1210.2444    132531.41   -33884.834    2698.6113   -36583.445    105.86287    253.16783 
   33650    139.95551   -1187.9653    132487.27   -33913.249    2643.2575   -36556.506    106.01091    247.97486 
   33700    142.17948   -1245.9645    132561.91   -33945.075    2685.2604   -36630.336     106.2097    251.91533 
   33750     141.5999   -1259.2783    132560.91   -33916.271     2674.314   -36590.585    106.27912    250.88841 
   33800    138.02757   -1144.0855    132619.34   -33955.535    2606.8456   -36562.381    106.45421    244.55891 
   33850    139.88962   -1142.0856    132593.47   -33949.932     2642.013   -36591.945    106.53233    247.85812 
   33900    139.39555   -1212.0855    132687.04   -33946.667    2632.6819   -36579.349    106.90209    246.98272 
   33950    139.56661   -1212.6095    132759.57   -33910.122    2635.9126   -36546.035    106.99814    247.28581 
[...]
   92000    137.85844   -1507.5677    133235.96   -34074.488    2603.6514    -36678.14    302.54763    244.25925 
   92050    137.79524   -1474.9645    133158.02   -34097.316    2602.4576   -36699.774    302.78718    244.14726 
   92100    137.61507   -1338.9135    133139.41   -34101.795    2599.0549    -36700.85    302.67741    243.82804 
   92150     139.9239   -1013.1865    133142.75   -34100.748    2642.6605   -36743.409     302.8288    247.91886 
   92200    137.46387   -1049.2116    133206.06    -34073.25    2596.1993   -36669.449     303.0393    243.56014 
   92250     136.5462   -836.33966    133238.04   -34046.121    2578.8679   -36624.989     303.4361    241.93421 
   92300    138.75535   -1066.2823     133322.7   -34033.318    2620.5908   -36653.909    303.62946    245.84841 
   92350    142.40362   -1267.2883    133278.09    -33993.08    2689.4935   -36682.574    303.63921    252.31245 
   92400    139.17211   -1216.4293    133216.32   -34022.693    2628.4618   -36651.155    304.03416    246.58682 
   92450    139.12514   -1193.9546    133099.15   -34007.435    2627.5747    -36635.01    304.06833     246.5036 
   92500    138.51176   -1132.7799    133091.64   -34026.997    2615.9903   -36642.987    304.53276    245.41682 
   92550    137.09831   -1076.6866    133079.58   -34022.385    2589.2952    -36611.68    305.18203    242.91243 
   92600     139.9242   -1371.7197    133081.34   -34024.734    2642.6661     -36667.4    305.51562    247.91938 
   92650    140.68962    -1122.106    133045.65   -34013.276    2657.1223   -36670.399    305.81964    249.27557 
   92700    140.83044   -1052.4299    133044.48   -33993.788    2659.7817    -36653.57    306.12741    249.52507 
   92750    138.39987   -931.64408    132980.19   -34016.314    2613.8771   -36630.191       306.43    245.21856 
   92800    141.77199   -1054.4389    133054.62   -33983.156    2677.5643    -36660.72    306.66702    251.19332 
   92850    139.97382   -918.85801    133092.89   -34028.369    2643.6033   -36671.972    306.96711    248.00731 
   92900    137.27458   -1137.9668    133186.41   -34055.743    2592.6244   -36648.368    307.61811    243.22476 
   92950    141.79006   -1340.4814    133202.73   -34056.489    2677.9056   -36734.394    307.86919    251.22534 
   93000    138.89074    -1070.594    133165.32   -34064.026    2623.1478   -36687.173    308.51257    246.08829 
   93050    141.41157   -1131.7061    133186.99   -34040.151    2670.7572   -36710.908    309.27266    250.55473 
   93100    139.83295   -1531.1615    133238.07   -34071.848    2640.9427   -36712.791     309.7366     247.7577 
   93150     137.7414   -1001.1432    133206.73   -34091.911    2601.4409   -36693.352      310.312    244.05188 
   93200    139.53876   -1413.1316    133222.73   -34070.357    2635.3866   -36705.744    310.67929    247.23646 
   93250     139.0795   -1497.9056    133150.56   -34074.315    2626.7127   -36701.027    311.19819    246.42273 
   93300    138.64373   -1280.6485    133092.96   -34082.099    2618.4827   -36700.582    311.43244    245.65064 
   93350    135.48362   -1217.8035    133065.83    -34067.74    2558.7995    -36626.54    312.16051    240.05151 
   93400    141.35863   -1165.7867    133041.07   -34040.694    2669.7575   -36710.452    312.57424    250.46094 
   93450    139.54754   -1083.6466    132976.16   -34023.372    2635.5524   -36658.925    313.08304    247.25202 
   93500    139.99908   -1277.4175    132954.88   -34083.373    2644.0804   -36727.453    313.71594    248.05206 
   93550    141.96482   -1266.7173    132972.86   -34003.414    2681.2062    -36684.62    314.02305    251.53499 
   93600    138.95366   -1282.0725    132922.24   -34078.717    2624.3362   -36703.054    313.60771    246.19978 
   93650    135.60045    -1047.378    132947.75   -34143.817    2561.0059   -36704.823    313.89361    240.25851 
   93700    137.77194   -1014.2422    132996.03   -34125.762    2602.0178    -36727.78    313.96781    244.10599 
   93750    136.59179   -1212.0472    132920.65    -34152.49    2579.7288   -36732.219    313.97965    242.01498 
   93800    134.74625   -1013.8509    132919.74   -34159.346    2544.8732   -36704.219    314.05126    238.74503 
   93850    136.15949   -1285.1902     132903.6   -34149.333    2571.5643   -36720.897    313.83781    241.24903 
   93900    133.16423   -1217.3661    132802.54   -34142.511    2514.9946   -36657.505    313.34901    235.94199 
   93950    136.19805   -1313.2333    132681.12   -34131.175    2572.2925   -36703.467    313.24742    241.31735 
   94000    137.61885   -1293.5161    132538.72    -34159.24    2599.1265   -36758.367    312.84375    243.83475 
   94050    137.81876   -1200.3328     132566.1   -34066.343     2602.902   -36669.245    312.68982    244.18895 
   94100    136.41102   -1390.3803    132510.66   -34101.559    2576.3147   -36677.874    313.17717    241.69469 
   94150    139.50161   -1095.3947    132557.16   -34069.084     2634.685   -36703.769    313.28817    247.17064 
   94200    140.15931   -1098.6423    132576.32    -34025.89    2647.1065   -36672.996     313.1161    248.33595 
   94250    139.56135   -1204.8129       132644   -33994.138    2635.8132   -36629.952    312.95541    247.27648 
   94300    139.30131   -1348.0123    132686.29   -34068.414     2630.902   -36699.316    314.10787    246.81575 
   94350    137.65083   -1570.3045    132590.95   -34083.285    2599.7304   -36683.016    314.31318    243.89141 
   94400      134.332   -1109.3044    132600.37   -34090.331    2537.0496   -36627.381    314.33159    238.01106 
   94450      138.102   -1242.1141    132574.66   -34027.206    2608.2513   -36635.457    314.42743    244.69079 
   94500    138.95767   -962.99214    132634.24   -34046.375    2624.4118   -36670.787    314.81614    246.20687 
   94550    138.73057   -1105.3231    132725.03   -33996.129    2620.1227   -36616.252    315.45502     245.8045 
   94600    139.12735   -1152.7222    132814.47   -33957.391    2627.6165   -36585.008    315.31249    246.50752 
   94650    141.12912   -1275.8241    132809.75   -33964.267    2665.4228    -36629.69    315.15583    250.05429 
   94700    139.15928   -1149.4554    132797.78   -33982.672    2628.2196   -36610.892     315.3878     246.5641 
   94750    139.33773   -1049.0996    132863.32   -34045.164    2631.5898   -36676.754    315.83746    246.88027 
   94800    141.42521   -1489.1479    132925.58   -34039.144    2671.0148   -36710.159    315.99286    250.57889 
   94850    137.90351   -1352.5374    132865.42   -34102.093    2604.5025   -36706.596    315.56288     244.3391 
   94900    140.45131   -1261.3997    132734.09   -34127.433    2652.6214   -36780.054      315.523    248.85333 
   94950    137.65345   -1098.5336    132696.73   -34102.057    2599.7798   -36701.837    315.65066    243.89605 
   95000    139.45515   -1192.1876    132654.87     -34028.1    2633.8074   -36661.907    315.55563    247.08832 
   95050    138.89231   -1270.6623    132641.22   -34016.204    2623.1774   -36639.381    315.85127    246.09107 
   95100    140.92629   -1196.8849    132655.84   -33968.803     2661.592   -36630.395    315.71533    249.69489 
   95150    140.18935   -1005.1535    132678.11   -33990.149    2647.6738   -36637.823     315.7656    248.38918 
   95200    139.61966   -1237.3532    132780.03   -34003.575    2636.9144   -36640.489    316.23682     247.3798 
   95250    138.17063   -1419.8728    132701.32   -33983.557    2609.5476   -36593.105    316.83977     244.8124 
   95300    139.58702     -1209.41    132654.58   -33979.688    2636.2979   -36615.986    317.35707    247.32196 
   95350    139.25499   -1307.5098    132625.34   -33990.529    2630.0272   -36620.557    317.14883    246.73368 
   95400     138.5349   -1214.6356     132578.1    -33989.97    2616.4272   -36606.397    317.00123    245.45781 
   95450    140.38481   -981.99043    132594.35   -34024.292    2651.3654   -36675.658    317.10996     248.7355 
   95500     139.1917   -1067.1518    132589.46   -34034.785    2628.8318   -36663.617    317.28711    246.62153 
   95550    140.69103   -1397.3418    132611.49   -34048.873    2657.1489   -36706.021    317.76243    249.27807 
   95600    141.95917   -1255.9748    132584.15   -34012.059    2681.0995   -36693.158    318.32492    251.52498 
   95650    141.08085   -1223.3305       132523   -34002.357    2664.5111   -36666.868    318.80571    249.96876 
   95700    141.52173   -1004.3398     132639.4   -33939.837    2672.8378   -36612.675    319.22252    250.74991 
   95750    140.68715   -1337.8473    132720.28   -33905.603    2657.0756   -36562.679    319.91793     249.2712 
   95800    142.06035   -1212.6967    132773.49   -33932.649    2683.0103   -36615.659    320.57938    251.70424 
   95850    140.53974   -980.22244    132835.21   -33918.705    2654.2916   -36572.997    321.22025    249.01002 
   95900    140.72694   -973.73071    132862.71     -33935.2    2657.8271   -36593.027    320.91505     249.3417 
   95950    143.72007    -1236.039    133014.09   -33898.006    2714.3566   -36612.362    321.66061    254.64496 
   96000    141.74214   -1474.4417    133025.62     -33905.7    2677.0006     -36582.7    321.86584    251.14044 
   96050    142.52902   -1432.2374    132861.78   -33940.281    2691.8619   -36632.143    321.98943    252.53464 
   96100    138.25237   -1501.2747     132726.5   -34029.898    2611.0913    -36640.99    321.91201    244.95722 
   96150    139.26897    -1244.752    132690.89   -34082.574    2630.2912   -36712.865    321.34172    246.75845 
   96200     134.5745   -1325.7298     132616.1   -34055.841    2541.6294    -36597.47    321.63801    238.44072 
   96250    140.18451   -1439.4866    132610.83    -34004.95    2647.5824   -36652.532    321.94921     248.3806 
   96300    139.97034   -1249.7944    132619.08   -33962.805    2643.5375   -36606.342    321.90401    248.00113 
   96350    139.14327   -1577.6479    132611.79   -34012.458    2627.9172   -36640.376    321.61006    246.53573 
   96400    137.35422   -1455.5959    132504.82   -34077.929    2594.1284   -36672.057    321.79031    243.36586 
   96450    139.31655   -1316.7562    132447.31   -34065.631    2631.1898   -36696.821    321.93528    246.84274 
   96500    135.78511   -1334.9686    132434.73   -34073.634    2564.4937   -36638.128    322.10797    240.58571 
   96550    140.05581   -1347.2732    132427.74   -34047.012    2645.1517   -36692.164    321.92546    248.15257 
   96600    142.05949   -1460.0597    132391.16   -34033.379    2682.9942   -36716.373    321.69237    251.70273 
   96650     138.4265   -1269.7392    132325.81   -34041.426    2614.3799   -36655.806    321.52962    245.26574 
   96700    138.92691   -1288.6509    132426.99   -34030.568     2623.831   -36654.399    321.26621    246.15238 
   96750    141.18752   -1225.2866    132442.91   -33968.432    2666.5257   -36634.958    321.54988    250.15775 
   96800    141.70247   -864.10232    132552.07   -33925.958    2676.2514   -36602.209    321.56233    251.07016 
   96850    141.08356   -1263.3316    132617.37   -33902.734    2664.5622   -36567.296    321.37961    249.97355 
   96900    139.51714   -1345.6356    132585.98   -33925.739    2634.9783   -36560.717    321.08735    247.19816 
   96950    139.08284   -1002.1755    132622.17   -33896.249    2626.7759   -36523.025    321.21171    246.42866 
   97000     141.3653   -1100.1005    132641.49    -33903.14    2669.8834   -36573.023    321.04274    250.47275 
   97050    136.53954   -1182.3615    132643.72   -33989.393     2578.742   -36568.135    320.92832     241.9224 
   97100    138.59015   -1172.8704    132598.37   -34016.866    2617.4707   -36634.336    321.08795     245.5557 
   97150    135.69273   -1314.7043    132584.11   -34004.745     2562.749   -36567.494    321.49751    240.42203 
   97200    139.35329   -1161.4208    132617.46   -34001.669    2631.8837   -36633.553    321.55115    246.90784 
   97250    142.35735    -1264.651    132622.39   -33912.111    2688.6197    -36600.73    322.38557    252.23048 
   97300    140.84365   -1234.8784    132733.24   -33945.808    2660.0313    -36605.84    323.12993    249.54848 
   97350    140.82566   -1136.7471    132758.73   -33949.973    2659.6915   -36609.664    322.91759    249.51661 
   97400    140.59204   -1229.8426    132683.12   -33932.609    2655.2792   -36587.888    323.42747    249.10267 
   97450    139.21801   -1150.5672    132691.19   -33967.166    2629.3288   -36596.495     323.8816    246.66816 
   97500    137.86968   -1143.9568    132711.33   -34015.501    2603.8637   -36619.365    323.70264    244.27917 
   97550    141.55072   -1395.4628    132671.93   -34020.163    2673.3852   -36693.548    323.65213    250.80127 
   97600    139.78789   -1226.7366    132634.15   -33991.184    2640.0917   -36631.276    324.38456    247.67787 
   97650    137.80911   -1482.6589    132566.19   -34008.842    2602.7196   -36611.562    324.55833    244.17184 
   97700     139.2977    -1164.615    132616.21    -33976.16    2630.8338   -36606.994    324.27444    246.80935 
   97750    139.72204    -1180.046    132681.06   -34010.153     2638.848   -36649.001    324.30885    247.56119 
   97800     138.0319   -1361.4833     132718.2   -33945.325    2606.9274   -36552.252    324.71083    244.56659 
   97850    139.83527   -1331.0859    132673.65   -33978.645    2640.9865   -36619.631    324.81045    247.76182 
   97900    138.05488   -1128.1683    132742.73   -33930.192    2607.3615   -36537.554    324.95914    244.60731 
   97950    140.55524   -1019.5816    132827.26   -33934.835    2654.5843    -36589.42    325.22669    249.03748 
   98000    138.93605   -1407.2968    132853.77   -33906.508    2624.0036   -36530.511    325.46177    246.16858 
   98050    141.61381   -1099.0102    132800.43   -33939.796    2674.5769   -36614.373    325.80057    250.91307 
   98100    139.79458   -838.26073    132756.29   -33907.846    2640.2181   -36548.064    326.28581    247.68972 
   98150    142.14427   -1200.5656    132858.58   -33849.215    2684.5953    -36533.81    326.28702    251.85294 
   98200    140.46696   -1337.7614    132865.95   -33890.677    2652.9169   -36543.594    326.12814    248.88105 
   98250    139.15066   -1231.5217    132762.25   -33903.865    2628.0568   -36531.922    326.16852    246.54882 
   98300    143.24058    -1027.086    132800.13   -33891.902    2705.3007   -36597.203    326.49348    253.79539 
   98350     140.3417    -1129.834    132857.67   -33915.708    2650.5511   -36566.259    326.96707    248.65911 
   98400    142.07156   -1190.3514    132823.07   -33894.421    2683.2221   -36577.643    326.90505    251.72411 
   98450    138.59451   -1215.9534    132842.12   -33911.953     2617.553   -36529.507     327.3533    245.56342 
   98500    140.43418   -1081.7061    132901.63   -33929.022    2652.2978    -36581.32    327.47954    248.82297 
   98550    138.79817   -1252.2373    132871.57   -33897.632    2621.3994   -36519.031    327.60208    245.92427 
   98600    142.10339   -1351.8477    132821.76   -33880.447    2683.8231    -36564.27    327.40473    251.78049 
   98650    140.87535   -1507.6013    132809.52   -33866.235    2660.6301   -36526.865    327.12901    249.60465 
   98700    145.76801   -1130.6624    132791.71   -33843.857    2753.0347   -36596.891    326.97891    258.27352 
   98750    144.37876   -1257.3491    132831.17   -33776.369    2726.7968   -36503.166    327.34399    255.81203 
   98800    142.73617    -1300.372    132811.78   -33791.097    2695.7741   -36486.872    327.35008    252.90166 
   98850    141.16187   -1217.2075    132842.58   -33838.838    2666.0413   -36504.879    327.14837    250.11231 
   98900    141.16271   -1254.9573    132819.21   -33855.458    2666.0571   -36521.515     327.3982    250.11379 
   98950    141.18138   -1311.0325    132813.08    -33887.94    2666.4098    -36554.35    327.50971    250.14687 
   99000    142.58996   -1215.2833    132745.27   -33884.735    2693.0127   -36577.748    327.47985    252.64261 
   99050    141.82252   -1373.2582    132806.26   -33881.205    2678.5186   -36559.724    327.95678    251.28286 
   99100    141.23223   -1511.2836    132835.97    -33899.18    2667.3701    -36566.55    328.19858    250.23696 
   99150    140.54416   -1338.5795     132822.1   -33923.415    2654.3749   -36577.789    328.71705    249.01783 
   99200    141.74466   -1301.3492    132795.23   -33892.646    2677.0481   -36569.694    329.25142     251.1449 
   99250    141.08292   -1284.2775       132749   -33904.215    2664.5501   -36568.765    329.14256    249.97241 
   99300    141.46443   -1479.9955    132751.11   -33918.473    2671.7556   -36590.229    329.35123    250.64839 
   99350    138.43013   -1327.0653    132782.57   -33935.503    2614.4485   -36549.951     329.4228    245.27217 
   99400    142.86976   -1201.1949    132747.89   -33889.101    2698.2973   -36587.398    329.46638    253.13838 
   99450    141.14213   -1364.5404     132795.1   -33852.456    2665.6685   -36518.125    329.79042    250.07733 
   99500    139.71555    -1494.124    132810.51   -33870.256    2638.7255   -36508.981    329.88912     247.5497 
   99550    141.38875   -1447.5935    132725.78   -33908.096    2670.3263   -36578.423    330.06756     250.5143 
   99600    139.95814   -1652.0473    132618.49   -33894.063    2643.3072   -36537.371    330.41077    247.97953 
   99650     139.2419   -1178.7001    132631.78   -33907.837      2629.78   -36537.617    330.55583    246.71049 
   99700    137.06572   -1365.1966    132591.54   -33982.951    2588.6798   -36571.631    330.99413    242.85471 
   99750    142.75284   -1379.4062    132528.43    -33906.97    2696.0891   -36603.059    330.82635    252.93121 
   99800    138.15978   -1448.7997    132490.91   -33922.506    2609.3427   -36531.848    331.14731    244.79317 
   99850    141.82751    -1137.245     132400.8   -33939.362    2678.6129   -36617.975    331.25744     251.2917 
   99900    142.41707   -1181.4311       132368   -33964.247    2689.7475   -36653.994    331.13169    252.33629 
   99950    140.73169   -1250.8527    132399.23   -33969.198    2657.9168   -36627.115    331.07057    249.35011 
  100000    137.45694   -1225.2737    132368.51   -33985.657    2596.0684   -36581.725    330.83898    243.54786 
Loop time of 54.5552 on 90 procs for 100000 steps with 6337 atoms

Performance: 791.859 ns/day, 0.030 hours/ns, 1833.007 timesteps/s
97.2% CPU use with 90 MPI tasks x no OpenMP threads

MPI task timing breakdown:
Section |  min time  |  avg time  |  max time  |%varavg| %total
---------------------------------------------------------------
Pair    | 6.9536     | 17.079     | 37.964     | 304.6 | 31.31
Neigh   | 0.5642     | 1.3086     | 3.3606     |  84.1 |  2.40
Comm    | 5.7464     | 18.732     | 41.204     | 315.2 | 34.34
Output  | 0.14733    | 0.15045    | 0.16013    |   0.4 |  0.28
Modify  | 3.3042     | 16.491     | 38.549     | 378.4 | 30.23
Other   |            | 0.794      |            |       |  1.46

Nlocal:    70.4111 ave 158 max 42 min
Histogram: 60 0 0 7 8 0 0 0 0 15
Nghost:    709.178 ave 1048 max 433 min
Histogram: 30 0 0 19 11 0 0 0 14 16
Neighs:    0 ave 0 max 0 min
Histogram: 90 0 0 0 0 0 0 0 0 0
FullNghs:  5680.47 ave 18857 max 1550 min
Histogram: 60 0 0 0 15 0 0 0 0 15

Total # of neighbors = 511242
Ave neighs/atom = 80.6757
Neighbor list builds = 6117
Dangerous builds = 0

write_data		${DIR}/data.eq-${NAME}-${TEMP}
write_data		run_4/data.eq-${NAME}-${TEMP}
write_data		run_4/data.eq-het_freeze_4-${TEMP}
write_data		run_4/data.eq-het_freeze_4-248
undump          1

reset_timestep  0

unfix           2
unfix           3
unfix           4


################################################
#######         Run Simulation         #########
################################################

log				${DIR}/log.run_${NAME}
log				run_4/log.run_${NAME}
log				run_4/log.run_het_freeze_4
