LAMMPS data file via write_data, version 16 Mar 2018, timestep = 100000

4055 atoms
2 atom types

0.0000000000000000e+00 4.9219999999999999e+01 xlo xhi
0.0000000000000000e+00 4.9019635930410494e+01 ylo yhi
1.6221822756449757e+00 2.6317817724355404e+01 zlo zhi

Masses

1 18.015
2 12.01

Atoms # atomic

53 2 0.0000000000000000e+00 2.8417180249513345e+00 3.1786151130337426e+00 0 0 0
55 2 0.0000000000000000e+00 0.0000000000000000e+00 3.1786151130337426e+00 0 0 0
57 2 1.2305000000000001e+00 7.1042950623783474e-01 3.1786151130337426e+00 0 0 0
64 2 1.2305000000000001e+00 2.1312885187134998e+00 3.1786151130337426e+00 0 0 0
66 2 2.4610000000000003e+00 2.8417180249513345e+00 3.1786151130337426e+00 0 0 0
68 2 2.4610000000000003e+00 0.0000000000000000e+00 3.1786151130337426e+00 0 0 0
70 2 3.6915000000000004e+00 7.1042950623783474e-01 3.1786151130337426e+00 0 0 0
85 2 3.6914999999999996e+00 2.1312885187134998e+00 3.1786151130337426e+00 0 0 0
87 2 4.9220000000000006e+00 2.8417180249513332e+00 3.1786151130337426e+00 0 0 0
89 2 4.9220000000000006e+00 0.0000000000000000e+00 3.1786151130337426e+00 0 0 0
60 2 0.0000000000000000e+00 4.2625770374269996e+00 3.1786151130337426e+00 0 0 0
81 2 2.4610000000000003e+00 4.2625770374269996e+00 3.1786151130337426e+00 0 0 0
110 2 4.9220000000000006e+00 4.2625770374269978e+00 3.1786151130337426e+00 0 0 0
62 2 1.2305000000000001e+00 4.9730065436648339e+00 3.1786151130337426e+00 0 0 0
77 2 1.2305000000000001e+00 6.3938655561404980e+00 3.1786151130337426e+00 0 0 0
83 2 3.6914999999999996e+00 4.9730065436648339e+00 3.1786151130337426e+00 0 0 0
106 2 3.6914999999999996e+00 6.3938655561404980e+00 3.1786151130337426e+00 0 0 0
58 2 0.0000000000000000e+00 7.1042950623783341e+00 3.1786151130337426e+00 0 0 0
73 2 0.0000000000000000e+00 8.5251540748539991e+00 3.1786151130337426e+00 0 0 0
75 2 1.2305000000000001e+00 9.2355835810918343e+00 3.1786151130337426e+00 0 0 0
79 2 2.4610000000000003e+00 7.1042950623783341e+00 3.1786151130337426e+00 0 0 0
102 2 2.4610000000000003e+00 8.5251540748539991e+00 3.1786151130337426e+00 0 0 0
104 2 3.6915000000000004e+00 9.2355835810918343e+00 3.1786151130337426e+00 0 0 0
108 2 4.9220000000000006e+00 7.1042950623783341e+00 3.1786151130337426e+00 0 0 0
139 2 4.9220000000000006e+00 8.5251540748539991e+00 3.1786151130337426e+00 0 0 0
54 2 0.0000000000000000e+00 1.4208590124756650e+00 6.1229171475969135e+00 0 0 0
56 2 0.0000000000000000e+00 0.0000000000000000e+00 6.1229171475969135e+00 0 0 0
65 2 1.2305000000000001e+00 2.1312885187134998e+00 6.1229171475969135e+00 0 0 0
67 2 2.4610000000000003e+00 1.4208590124756650e+00 6.1229171475969135e+00 0 0 0
69 2 2.4610000000000003e+00 0.0000000000000000e+00 6.1229171475969135e+00 0 0 0
86 2 3.6914999999999996e+00 2.1312885187134998e+00 6.1229171475969135e+00 0 0 0
382 2 0.0000000000000000e+00 2.8417180249513345e+00 9.0672191821598496e+00 0 0 0
383 2 0.0000000000000000e+00 0.0000000000000000e+00 9.0672191821598496e+00 0 0 0
384 2 1.2305000000000001e+00 7.1042950623783474e-01 9.0672191821598496e+00 0 0 0
388 2 1.2305000000000001e+00 2.1312885187134998e+00 9.0672191821598496e+00 0 0 0
389 2 2.4610000000000003e+00 2.8417180249513345e+00 9.0672191821598496e+00 0 0 0
390 2 2.4610000000000003e+00 0.0000000000000000e+00 9.0672191821598496e+00 0 0 0
391 2 3.6915000000000004e+00 7.1042950623783474e-01 9.0672191821598496e+00 0 0 0
399 2 3.6914999999999996e+00 2.1312885187134998e+00 9.0672191821598496e+00 0 0 0
88 2 4.9220000000000006e+00 1.4208590124756650e+00 6.1229171475969135e+00 0 0 0
90 2 4.9220000000000006e+00 0.0000000000000000e+00 6.1229171475969135e+00 0 0 0
400 2 4.9220000000000006e+00 2.8417180249513332e+00 9.0672191821598496e+00 0 0 0
401 2 4.9220000000000006e+00 0.0000000000000000e+00 9.0672191821598496e+00 0 0 0
61 2 0.0000000000000000e+00 4.2625770374269996e+00 6.1229171475969135e+00 0 0 0
63 2 1.2305000000000001e+00 3.5521475311891644e+00 6.1229171475969135e+00 0 0 0
82 2 2.4610000000000003e+00 4.2625770374269996e+00 6.1229171475969135e+00 0 0 0
84 2 3.6914999999999996e+00 3.5521475311891644e+00 6.1229171475969135e+00 0 0 0
386 2 0.0000000000000000e+00 4.2625770374269996e+00 9.0672191821598496e+00 0 0 0
397 2 2.4610000000000003e+00 4.2625770374269996e+00 9.0672191821598496e+00 0 0 0
111 2 4.9220000000000006e+00 4.2625770374269978e+00 6.1229171475969135e+00 0 0 0
412 2 4.9220000000000006e+00 4.2625770374269978e+00 9.0672191821598496e+00 0 0 0
59 2 0.0000000000000000e+00 5.6834360499026637e+00 6.1229171475969135e+00 0 0 0
78 2 1.2305000000000001e+00 6.3938655561404980e+00 6.1229171475969135e+00 0 0 0
80 2 2.4610000000000003e+00 5.6834360499026637e+00 6.1229171475969135e+00 0 0 0
107 2 3.6914999999999996e+00 6.3938655561404980e+00 6.1229171475969135e+00 0 0 0
387 2 1.2305000000000001e+00 4.9730065436648339e+00 9.0672191821598496e+00 0 0 0
395 2 1.2305000000000001e+00 6.3938655561404980e+00 9.0672191821598496e+00 0 0 0
398 2 3.6914999999999996e+00 4.9730065436648339e+00 9.0672191821598496e+00 0 0 0
410 2 3.6914999999999996e+00 6.3938655561404980e+00 9.0672191821598496e+00 0 0 0
109 2 4.9220000000000006e+00 5.6834360499026637e+00 6.1229171475969135e+00 0 0 0
74 2 0.0000000000000000e+00 8.5251540748539991e+00 6.1229171475969135e+00 0 0 0
76 2 1.2305000000000001e+00 7.8147245686161639e+00 6.1229171475969135e+00 0 0 0
103 2 2.4610000000000003e+00 8.5251540748539991e+00 6.1229171475969135e+00 0 0 0
105 2 3.6914999999999996e+00 7.8147245686161639e+00 6.1229171475969135e+00 0 0 0
385 2 0.0000000000000000e+00 7.1042950623783341e+00 9.0672191821598496e+00 0 0 0
393 2 0.0000000000000000e+00 8.5251540748539991e+00 9.0672191821598496e+00 0 0 0
394 2 1.2305000000000001e+00 9.2355835810918343e+00 9.0672191821598496e+00 0 0 0
396 2 2.4610000000000003e+00 7.1042950623783341e+00 9.0672191821598496e+00 0 0 0
408 2 2.4610000000000003e+00 8.5251540748539991e+00 9.0672191821598496e+00 0 0 0
409 2 3.6915000000000004e+00 9.2355835810918343e+00 9.0672191821598496e+00 0 0 0
140 2 4.9220000000000006e+00 8.5251540748539991e+00 6.1229171475969135e+00 0 0 0
411 2 4.9220000000000006e+00 7.1042950623783341e+00 9.0672191821598496e+00 0 0 0
427 2 4.9220000000000006e+00 8.5251540748539991e+00 9.0672191821598496e+00 0 0 0
1238 1 4.1695663324841155e+00 3.8327285570779508e+00 1.1971944190759674e+01 0 0 0
3258 1 3.0642399038495691e+00 1.1798215961941625e+00 1.2080984545422501e+01 1 1 0
2550 1 2.3713675877530851e+00 5.6841722139152253e+00 1.1386699176198293e+01 1 1 -1
2581 1 2.9284498381045778e+00 8.1552858953313123e+00 1.2148292038330778e+01 0 1 0
585 1 3.8309709312853041e-01 9.3207754437518719e-01 1.1731787780923268e+01 1 0 -1
1267 1 5.3362840612021163e+00 9.6750720148094693e+00 1.1836508187704245e+01 -1 1 0
1982 1 3.0133913340932863e+00 1.2422004145330674e+00 1.4938854528319391e+01 0 1 0
3930 1 1.8800507176280432e-01 1.2411965787927985e+00 1.4620566201489696e+01 1 0 -1
615 1 3.1178535778024203e+00 1.1237378890251770e+00 1.7659888628123824e+01 0 1 0
1372 1 4.1885622383634615e+00 3.7421244433632297e+00 1.4618332740060429e+01 0 1 -1
4044 1 5.4353954648108278e+00 9.0437634952265640e+00 2.5066249617329625e+01 1 1 0
2689 1 2.4352142756370303e+00 5.6742169926823980e+00 1.5494943998770975e+01 1 1 -1
2739 1 2.8605503595593142e+00 8.2480875130636502e+00 1.4693650312251323e+01 1 1 0
1937 1 1.9866937448658020e+00 5.4921455652872169e+00 1.8041559182546173e+01 1 0 0
691 1 2.8924765844204553e-01 7.4787310240883560e+00 1.8942562841549226e+01 0 0 0
19 1 4.9718553152323750e+00 8.4673667605808518e+00 1.7181651526238547e+01 0 0 0
2566 1 4.4657053473160815e+00 6.6252812609678049e+00 2.5556261314960210e+01 0 0 -1
703 1 1.4344710747643779e+00 2.9120275086235026e+00 1.8614004385581886e+01 2 0 0
3344 1 1.2196340145086120e+00 3.1503791280747135e+00 2.1383748023207367e+01 0 0 -1
3399 1 5.4173960160107599e+00 1.1993610197664002e+00 1.9069075539728004e+01 1 1 -2
3897 1 5.2884977015276107e+00 1.4686370278554071e+00 2.1992897055550443e+01 1 1 -1
1942 1 2.7641648375836159e+00 1.0602541536147077e+00 2.2169385747937369e+01 0 1 -1
4052 1 4.7686629662766125e+00 5.5368629847113153e+00 2.1306053530098936e+01 0 1 -2
3425 1 4.9173363095491913e+00 5.9689857400388853e+00 1.8460691496012217e+01 1 0 -1
3985 1 1.7818073480336405e+00 6.0209644276473648e+00 2.4641867093944427e+01 0 0 -1
571 1 5.2599783540538452e+00 8.5541642498435042e+00 2.2054694304356552e+01 0 0 0
3390 1 2.2710361137551209e+00 5.8555477638885103e+00 2.1930828728467048e+01 1 0 0
1955 1 5.6857960285614988e+00 1.4402103897803002e+00 2.4920007326292023e+01 1 0 0
2583 1 1.3494705842857824e+00 3.3225306978230722e+00 2.5241714407258350e+01 0 1 -1
3949 1 2.9460788345082252e+00 1.1716708822793664e+00 2.5007887773937938e+01 0 1 0
71 2 0.0000000000000000e+00 1.1366872099805333e+01 3.1786151130337426e+00 0 0 0
94 2 0.0000000000000000e+00 1.2787731112280996e+01 3.1786151130337426e+00 0 0 0
96 2 1.2305000000000001e+00 1.3498160618518829e+01 3.1786151130337426e+00 0 0 0
98 2 1.2305000000000001e+00 1.0656442593567498e+01 3.1786151130337426e+00 0 0 0
100 2 2.4610000000000003e+00 1.1366872099805333e+01 3.1786151130337426e+00 0 0 0
131 2 2.4610000000000003e+00 1.2787731112280996e+01 3.1786151130337426e+00 0 0 0
133 2 3.6915000000000004e+00 1.3498160618518829e+01 3.1786151130337426e+00 0 0 0
135 2 3.6914999999999996e+00 1.0656442593567499e+01 3.1786151130337426e+00 0 0 0
137 2 4.9220000000000006e+00 1.1366872099805333e+01 3.1786151130337426e+00 0 0 0
176 2 4.9220000000000006e+00 1.2787731112280996e+01 3.1786151130337426e+00 0 0 0
178 2 6.1524999999999990e+00 1.3498160618518829e+01 3.1786151130337426e+00 0 0 0
92 2 0.0000000000000000e+00 1.5629449137232333e+01 3.1786151130337426e+00 0 0 0
123 2 0.0000000000000000e+00 1.7050308149707998e+01 3.1786151130337426e+00 0 0 0
127 2 1.2305000000000001e+00 1.4919019630994494e+01 3.1786151130337426e+00 0 0 0
129 2 2.4610000000000003e+00 1.5629449137232328e+01 3.1786151130337426e+00 0 0 0
168 2 2.4610000000000003e+00 1.7050308149707998e+01 3.1786151130337426e+00 0 0 0
172 2 3.6915000000000004e+00 1.4919019630994494e+01 3.1786151130337426e+00 0 0 0
174 2 4.9220000000000006e+00 1.5629449137232333e+01 3.1786151130337426e+00 0 0 0
215 2 4.9220000000000006e+00 1.7050308149707998e+01 3.1786151130337426e+00 0 0 0
219 2 6.1524999999999990e+00 1.4919019630994494e+01 3.1786151130337426e+00 0 0 0
125 2 1.2305000000000001e+00 1.7760737655945832e+01 3.1786151130337426e+00 0 0 0
164 2 1.2305000000000001e+00 1.9181596668421495e+01 3.1786151130337426e+00 0 0 0
170 2 3.6914999999999996e+00 1.7760737655945832e+01 3.1786151130337426e+00 0 0 0
211 2 3.6914999999999996e+00 1.9181596668421495e+01 3.1786151130337426e+00 0 0 0
72 2 0.0000000000000000e+00 9.9460130873296642e+00 6.1229171475969135e+00 0 0 0
101 2 2.4610000000000003e+00 9.9460130873296642e+00 6.1229171475969135e+00 0 0 0
138 2 4.9220000000000006e+00 9.9460130873296642e+00 6.1229171475969135e+00 0 0 0
95 2 0.0000000000000000e+00 1.2787731112280996e+01 6.1229171475969135e+00 0 0 0
97 2 1.2305000000000001e+00 1.2077301606043163e+01 6.1229171475969135e+00 0 0 0
99 2 1.2305000000000001e+00 1.0656442593567498e+01 6.1229171475969135e+00 0 0 0
132 2 2.4610000000000003e+00 1.2787731112280996e+01 6.1229171475969135e+00 0 0 0
134 2 3.6914999999999996e+00 1.2077301606043163e+01 6.1229171475969135e+00 0 0 0
136 2 3.6914999999999996e+00 1.0656442593567499e+01 6.1229171475969135e+00 0 0 0
392 2 0.0000000000000000e+00 1.1366872099805333e+01 9.0672191821598496e+00 0 0 0
404 2 0.0000000000000000e+00 1.2787731112280996e+01 9.0672191821598496e+00 0 0 0
405 2 1.2305000000000001e+00 1.3498160618518829e+01 9.0672191821598496e+00 0 0 0
406 2 1.2305000000000001e+00 1.0656442593567498e+01 9.0672191821598496e+00 0 0 0
407 2 2.4610000000000003e+00 1.1366872099805333e+01 9.0672191821598496e+00 0 0 0
423 2 2.4610000000000003e+00 1.2787731112280996e+01 9.0672191821598496e+00 0 0 0
424 2 3.6915000000000004e+00 1.3498160618518829e+01 9.0672191821598496e+00 0 0 0
425 2 3.6914999999999996e+00 1.0656442593567499e+01 9.0672191821598496e+00 0 0 0
177 2 4.9220000000000006e+00 1.2787731112280996e+01 6.1229171475969135e+00 0 0 0
426 2 4.9220000000000006e+00 1.1366872099805333e+01 9.0672191821598496e+00 0 0 0
446 2 4.9220000000000006e+00 1.2787731112280996e+01 9.0672191821598496e+00 0 0 0
447 2 6.1524999999999990e+00 1.3498160618518829e+01 9.0672191821598496e+00 0 0 0
93 2 0.0000000000000000e+00 1.4208590124756663e+01 6.1229171475969135e+00 0 0 0
130 2 2.4610000000000003e+00 1.4208590124756663e+01 6.1229171475969135e+00 0 0 0
175 2 4.9220000000000006e+00 1.4208590124756663e+01 6.1229171475969135e+00 0 0 0
124 2 0.0000000000000000e+00 1.7050308149707998e+01 6.1229171475969135e+00 0 0 0
126 2 1.2305000000000001e+00 1.6339878643470165e+01 6.1229171475969135e+00 0 0 0
128 2 1.2305000000000001e+00 1.4919019630994494e+01 6.1229171475969135e+00 0 0 0
169 2 2.4610000000000003e+00 1.7050308149707998e+01 6.1229171475969135e+00 0 0 0
171 2 3.6915000000000004e+00 1.6339878643470165e+01 6.1229171475969135e+00 0 0 0
173 2 3.6915000000000004e+00 1.4919019630994494e+01 6.1229171475969135e+00 0 0 0
403 2 0.0000000000000000e+00 1.5629449137232333e+01 9.0672191821598496e+00 0 0 0
419 2 0.0000000000000000e+00 1.7050308149707998e+01 9.0672191821598496e+00 0 0 0
421 2 1.2305000000000001e+00 1.4919019630994494e+01 9.0672191821598496e+00 0 0 0
422 2 2.4610000000000003e+00 1.5629449137232328e+01 9.0672191821598496e+00 0 0 0
442 2 2.4610000000000003e+00 1.7050308149707998e+01 9.0672191821598496e+00 0 0 0
444 2 3.6915000000000004e+00 1.4919019630994494e+01 9.0672191821598496e+00 0 0 0
216 2 4.9220000000000006e+00 1.7050308149707998e+01 6.1229171475969135e+00 0 0 0
220 2 6.1524999999999990e+00 1.4919019630994494e+01 6.1229171475969135e+00 0 0 0
445 2 4.9220000000000006e+00 1.5629449137232333e+01 9.0672191821598496e+00 0 0 0
466 2 4.9220000000000006e+00 1.7050308149707998e+01 9.0672191821598496e+00 0 0 0
468 2 6.1524999999999990e+00 1.4919019630994494e+01 9.0672191821598496e+00 0 0 0
122 2 0.0000000000000000e+00 1.8471167162183658e+01 6.1229171475969135e+00 0 0 0
165 2 1.2305000000000001e+00 1.9181596668421495e+01 6.1229171475969135e+00 0 0 0
167 2 2.4610000000000003e+00 1.8471167162183658e+01 6.1229171475969135e+00 0 0 0
212 2 3.6914999999999996e+00 1.9181596668421495e+01 6.1229171475969135e+00 0 0 0
420 2 1.2305000000000001e+00 1.7760737655945832e+01 9.0672191821598496e+00 0 0 0
440 2 1.2305000000000001e+00 1.9181596668421495e+01 9.0672191821598496e+00 0 0 0
443 2 3.6914999999999996e+00 1.7760737655945832e+01 9.0672191821598496e+00 0 0 0
464 2 3.6914999999999996e+00 1.9181596668421495e+01 9.0672191821598496e+00 0 0 0
214 2 4.9220000000000006e+00 1.8471167162183658e+01 6.1229171475969135e+00 0 0 0
2748 1 2.4749805414778274e+00 1.2991965819133032e+01 1.1961251750869916e+01 1 0 0
3902 1 5.2723806225842766e+00 1.2540727925084402e+01 1.1424826920374501e+01 0 1 1
3353 1 1.3469405196344757e+00 1.0405977297251022e+01 1.1850395874816302e+01 1 0 -1
3408 1 2.6104382808388169e+00 1.7638483154010963e+01 1.1461962324071985e+01 0 0 0
663 1 9.4010043529034670e-01 1.5398753068325560e+01 1.1634552682814734e+01 0 0 0
3280 1 5.9101268975119075e+00 1.5779067136114753e+01 1.2117964281632927e+01 0 -1 0
3281 1 5.2761222417699143e+00 1.9105828939682457e+01 1.1393787872998363e+01 -1 0 -1
1287 1 2.8736982999281628e+00 1.3008340337582451e+01 1.4721583090580078e+01 0 0 1
665 1 3.4422447034104611e+00 1.3423197070563425e+01 1.7874355891539047e+01 0 0 0
1970 1 1.3987485334693157e+00 1.0581929754064484e+01 1.5113364636391918e+01 0 0 0
1441 1 5.7445399924774350e+00 1.2982455269122307e+01 1.4177442444801446e+01 0 1 1
3262 1 1.6377446928358770e+00 1.5324982429534623e+01 1.4348031889161042e+01 0 0 -1
2111 1 7.1317797134051009e-02 1.0592385646411360e+01 2.1382258558078682e+01 0 0 -1
1355 1 4.7336053163028371e+00 1.5593455845324330e+01 1.6370490515057735e+01 0 0 0
1916 1 8.8280549684482212e-01 1.4927242885376524e+01 2.4630084439103690e+01 0 1 0
3449 1 4.1756895722529705e+00 1.9064805769849993e+01 2.5587812764016455e+01 1 0 0
620 1 5.4064059997863483e+00 1.7546670260702662e+01 2.0171649306250728e+01 0 0 0
2585 1 3.6182267539217632e+00 1.0594773383728164e+01 1.8615148740827266e+01 0 1 0
41 1 2.0588218921973174e+00 1.1876483966294137e+01 2.2491234410739594e+01 0 0 0
3935 1 3.4552071645886642e+00 1.6081256030125651e+01 2.5460843209753627e+01 1 1 0
3963 1 5.1236571221624105e+00 1.3101177442366692e+01 2.2174732881336304e+01 0 1 -1
2728 1 4.1446130294336490e+00 1.0733517109222184e+01 2.1180036405310183e+01 1 0 0
2014 1 8.4307467777742329e-01 1.3859681795025820e+01 1.9003516496689628e+01 0 0 0
3979 1 5.0452877785615851e+00 1.4692521400393240e+01 1.9950590022448793e+01 0 0 0
3405 1 1.4333201237961286e+00 1.9437995165474064e+01 1.8859113006846961e+01 0 1 0
1 1 1.2569555238034511e+00 1.5108463503733983e+01 2.1651615607397538e+01 1 -1 0
1992 1 2.2608909386791556e+00 1.7572538306547322e+01 2.0793350898077222e+01 0 0 0
4020 1 3.3799097069482129e+00 1.0951887809985488e+01 2.5223084524462969e+01 0 -1 -1
3447 1 3.0443298738195401e-01 1.2132706422273371e+01 2.5277806228572381e+01 1 0 -1
3992 1 4.4832481987116353e+00 1.3525364721016254e+01 2.4886318825750656e+01 -1 0 0
2061 1 1.0113392911031067e+00 9.9099819594711143e+00 1.8009377667891023e+01 0 0 -1
1295 1 5.7677204858564499e+00 1.8311036362148531e+01 1.7434328514233048e+01 0 0 -1
564 1 5.9375675601520292e+00 1.9399661658394098e+01 2.2024843383398178e+01 1 0 0
650 1 5.7590534297737799e+00 1.0043736022960051e+01 1.4689208522746428e+01 1 0 0
3393 1 3.6098492043858728e+00 1.7325489170869133e+01 1.4022234374302728e+01 0 0 1
3948 1 5.0391106886806369e-02 1.5471982171313705e+01 1.6630671800504366e+01 1 0 0
121 2 0.0000000000000000e+00 1.9892026174659328e+01 3.1786151130337426e+00 0 0 0
166 2 2.4610000000000003e+00 1.9892026174659328e+01 3.1786151130337426e+00 0 0 0
213 2 4.9220000000000006e+00 1.9892026174659328e+01 3.1786151130337426e+00 0 0 0
158 2 0.0000000000000000e+00 2.4154603212086325e+01 3.1786151130337426e+00 0 0 0
160 2 0.0000000000000000e+00 2.1312885187134999e+01 3.1786151130337426e+00 0 0 0
162 2 1.2304999999999993e+00 2.2023314693372832e+01 3.1786151130337426e+00 0 0 0
203 2 1.2304999999999993e+00 2.3444173705848499e+01 3.1786151130337426e+00 0 0 0
205 2 2.4610000000000003e+00 2.4154603212086325e+01 3.1786151130337426e+00 0 0 0
207 2 2.4610000000000003e+00 2.1312885187134995e+01 3.1786151130337426e+00 0 0 0
209 2 3.6914999999999996e+00 2.2023314693372832e+01 3.1786151130337426e+00 0 0 0
250 2 3.6915000000000004e+00 2.3444173705848499e+01 3.1786151130337426e+00 0 0 0
252 2 4.9220000000000006e+00 2.4154603212086325e+01 3.1786151130337426e+00 0 0 0
254 2 4.9220000000000006e+00 2.1312885187134995e+01 3.1786151130337426e+00 0 0 0
256 2 6.1524999999999990e+00 2.2023314693372832e+01 3.1786151130337426e+00 0 0 0
774 2 0.0000000000000000e+00 2.5575462224561992e+01 3.1786151130337426e+00 0 0 0
776 2 1.2305000000000001e+00 2.6285891730799833e+01 3.1786151130337426e+00 0 0 0
784 2 1.2305000000000010e+00 2.7706750743275496e+01 3.1786151130337426e+00 0 0 0
788 2 2.4610000000000003e+00 2.5575462224561992e+01 3.1786151130337426e+00 0 0 0
790 2 3.6914999999999991e+00 2.6285891730799833e+01 3.1786151130337426e+00 0 0 0
806 2 3.6914999999999996e+00 2.7706750743275496e+01 3.1786151130337426e+00 0 0 0
810 2 4.9220000000000006e+00 2.5575462224561992e+01 3.1786151130337426e+00 0 0 0
836 2 6.1524999999999990e+00 2.7706750743275496e+01 3.1786151130337426e+00 0 0 0
772 2 0.0000000000000000e+00 2.8417180249513333e+01 3.1786151130337426e+00 0 0 0
786 2 2.4610000000000003e+00 2.8417180249513326e+01 3.1786151130337426e+00 0 0 0
808 2 4.9220000000000006e+00 2.8417180249513336e+01 3.1786151130337426e+00 0 0 0
163 2 1.2305000000000001e+00 2.0602455680897162e+01 6.1229171475969135e+00 0 0 0
210 2 3.6915000000000004e+00 2.0602455680897162e+01 6.1229171475969135e+00 0 0 0
418 2 0.0000000000000000e+00 1.9892026174659328e+01 9.0672191821598496e+00 0 0 0
441 2 2.4610000000000003e+00 1.9892026174659328e+01 9.0672191821598496e+00 0 0 0
465 2 4.9220000000000006e+00 1.9892026174659328e+01 9.0672191821598496e+00 0 0 0
159 2 0.0000000000000000e+00 2.2733744199610655e+01 6.1229171475969135e+00 0 0 0
161 2 0.0000000000000000e+00 2.1312885187134999e+01 6.1229171475969135e+00 0 0 0
204 2 1.2304999999999993e+00 2.3444173705848499e+01 6.1229171475969135e+00 0 0 0
206 2 2.4610000000000003e+00 2.2733744199610655e+01 6.1229171475969135e+00 0 0 0
208 2 2.4610000000000003e+00 2.1312885187134995e+01 6.1229171475969135e+00 0 0 0
251 2 3.6915000000000004e+00 2.3444173705848499e+01 6.1229171475969135e+00 0 0 0
437 2 0.0000000000000000e+00 2.4154603212086325e+01 9.0672191821598496e+00 0 0 0
438 2 0.0000000000000000e+00 2.1312885187134999e+01 9.0672191821598496e+00 0 0 0
439 2 1.2304999999999993e+00 2.2023314693372832e+01 9.0672191821598496e+00 0 0 0
460 2 1.2304999999999993e+00 2.3444173705848499e+01 9.0672191821598496e+00 0 0 0
461 2 2.4610000000000003e+00 2.4154603212086325e+01 9.0672191821598496e+00 0 0 0
462 2 2.4610000000000003e+00 2.1312885187134995e+01 9.0672191821598496e+00 0 0 0
463 2 3.6914999999999996e+00 2.2023314693372832e+01 9.0672191821598496e+00 0 0 0
484 2 3.6915000000000004e+00 2.3444173705848499e+01 9.0672191821598496e+00 0 0 0
253 2 4.9220000000000006e+00 2.2733744199610655e+01 6.1229171475969135e+00 0 0 0
255 2 4.9220000000000006e+00 2.1312885187134995e+01 6.1229171475969135e+00 0 0 0
485 2 4.9220000000000006e+00 2.4154603212086325e+01 9.0672191821598496e+00 0 0 0
486 2 4.9220000000000006e+00 2.1312885187134995e+01 9.0672191821598496e+00 0 0 0
487 2 6.1524999999999990e+00 2.2023314693372832e+01 9.0672191821598496e+00 0 0 0
773 2 0.0000000000000000e+00 2.6996321237037659e+01 6.1229171475969135e+00 0 0 0
775 2 0.0000000000000000e+00 2.5575462224561992e+01 6.1229171475969135e+00 0 0 0
777 2 1.2305000000000001e+00 2.4865032718324155e+01 6.1229171475969135e+00 0 0 0
785 2 1.2305000000000010e+00 2.7706750743275496e+01 6.1229171475969135e+00 0 0 0
787 2 2.4610000000000003e+00 2.6996321237037659e+01 6.1229171475969135e+00 0 0 0
789 2 2.4610000000000003e+00 2.5575462224561992e+01 6.1229171475969135e+00 0 0 0
791 2 3.6914999999999996e+00 2.4865032718324166e+01 6.1229171475969135e+00 0 0 0
807 2 3.6914999999999996e+00 2.7706750743275496e+01 6.1229171475969135e+00 0 0 0
1088 2 0.0000000000000000e+00 2.5575462224561992e+01 9.0672191821598496e+00 0 0 0
1089 2 1.2305000000000001e+00 2.6285891730799833e+01 9.0672191821598496e+00 0 0 0
1093 2 1.2305000000000010e+00 2.7706750743275496e+01 9.0672191821598496e+00 0 0 0
1095 2 2.4610000000000003e+00 2.5575462224561992e+01 9.0672191821598496e+00 0 0 0
1096 2 3.6914999999999991e+00 2.6285891730799833e+01 9.0672191821598496e+00 0 0 0
1104 2 3.6914999999999996e+00 2.7706750743275496e+01 9.0672191821598496e+00 0 0 0
809 2 4.9220000000000006e+00 2.6996321237037659e+01 6.1229171475969135e+00 0 0 0
811 2 4.9220000000000006e+00 2.5575462224561992e+01 6.1229171475969135e+00 0 0 0
813 2 6.1524999999999990e+00 2.4865032718324155e+01 6.1229171475969135e+00 0 0 0
837 2 6.1524999999999990e+00 2.7706750743275496e+01 6.1229171475969135e+00 0 0 0
1106 2 4.9220000000000006e+00 2.5575462224561992e+01 9.0672191821598496e+00 0 0 0
1119 2 6.1524999999999990e+00 2.7706750743275496e+01 9.0672191821598496e+00 0 0 0
783 2 1.2304999999999993e+00 2.9127609755751163e+01 6.1229171475969135e+00 0 0 0
805 2 3.6914999999999991e+00 2.9127609755751152e+01 6.1229171475969135e+00 0 0 0
1087 2 0.0000000000000000e+00 2.8417180249513333e+01 9.0672191821598496e+00 0 0 0
1094 2 2.4610000000000003e+00 2.8417180249513326e+01 9.0672191821598496e+00 0 0 0
835 2 6.1524999999999981e+00 2.9127609755751152e+01 6.1229171475969135e+00 0 0 0
1105 2 4.9220000000000006e+00 2.8417180249513336e+01 9.0672191821598496e+00 0 0 0
1362 1 1.4667344053179914e+00 2.2651503321611695e+01 1.1625502150617406e+01 1 0 0
3421 1 4.1179828678818868e+00 2.2678519755448907e+01 1.1602572374197733e+01 1 1 -1
2625 1 5.1554738984020574e+00 2.5302495826946160e+01 1.1507353995886685e+01 1 0 0
3970 1 8.5863560278175344e-01 2.7828345676879263e+01 1.1536368408572852e+01 1 0 0
1252 1 7.2375727080629870e-01 1.9839140757238205e+01 1.1859016243110348e+01 1 0 0
2030 1 3.5661295325455669e+00 2.7682555806637659e+01 1.1647026722123263e+01 1 0 0
2642 1 1.8938846728004999e-01 2.4991944478366740e+01 1.1639041659027102e+01 0 0 0
3293 1 5.5533989698560644e+00 2.1275209917785883e+01 1.3263373818348114e+01 1 0 0
1255 1 2.3906825383709140e+00 2.0777620716969370e+01 1.6816639028579779e+01 0 0 1
3349 1 3.4966987341493123e+00 2.3102033534694058e+01 1.7526950300805506e+01 1 2 -1
3911 1 3.5103124436752871e+00 2.7269249095100896e+01 1.4935624397978444e+01 0 1 -1
3251 1 2.6283351460422892e+00 2.6605384300211259e+01 2.5011741347098862e+01 0 0 1
3330 1 8.9594805534624133e-01 2.1278535959549391e+01 1.4538035818259928e+01 0 0 -1
3968 1 5.6437794033762279e+00 2.4111747247296691e+01 2.5440960768153836e+01 1 0 0
1290 1 1.6288799585801370e+00 2.5019334746877377e+01 1.7172166392557891e+01 0 -1 0
1341 1 5.7955634896133672e+00 2.3568478264699138e+01 1.5805564355236600e+01 0 0 0
3374 1 2.4749421995173844e+00 2.0136149306183896e+01 2.2178834520388470e+01 1 0 0
2105 1 3.2347214636579631e+00 2.2555389547927025e+01 2.0348287086631927e+01 1 0 0
2553 1 5.6071169320279459e+00 2.5900158868719220e+01 1.4209930989288512e+01 1 0 -1
3962 1 2.0666936154491000e+00 2.0778230489025855e+01 2.5094502636532880e+01 0 0 0
630 1 4.1052614219824877e+00 2.8444851468268297e+01 1.7539406476167187e+01 0 0 0
737 1 4.2905454599039636e+00 1.9613178884564004e+01 1.5242563918382819e+01 0 0 1
2008 1 4.1769081096929543e+00 2.6481330878746064e+01 2.0932419579432121e+01 0 -1 0
594 1 2.1854986726122241e+00 2.6850254443895075e+01 1.9106615574297763e+01 1 -1 0
600 1 4.9946823012731816e+00 2.8415418417309667e+01 2.5022732687931118e+01 0 -1 -1
3894 1 2.7920561585393928e+00 2.3603427019527693e+01 2.5161401959734498e+01 1 0 0
3244 1 3.9751956813765248e+00 2.8611295108717115e+01 2.2300010154243722e+01 0 -1 0
1275 1 3.5256478169187955e-01 2.4518933667241726e+01 1.4492779405769236e+01 1 0 -1
1939 1 2.8086886152875246e+00 2.4346848805199055e+01 2.2415530153496604e+01 1 0 -2
670 1 1.2801232822349851e+00 2.9137659147325849e+01 2.2484117215044527e+01 0 -1 0
1293 1 8.1446240804101944e-01 2.7421159308307388e+01 1.4376243989377942e+01 1 0 0
2582 1 1.7073004484294449e-01 2.1397136477544365e+01 2.0009294169552938e+01 -1 0 -1
780 2 0.0000000000000000e+00 2.9838039261988989e+01 3.1786151130337426e+00 0 0 0
782 2 1.2304999999999993e+00 3.0548468768226829e+01 3.1786151130337426e+00 0 0 0
802 2 2.4610000000000003e+00 2.9838039261988989e+01 3.1786151130337426e+00 0 0 0
804 2 3.6915000000000004e+00 3.0548468768226829e+01 3.1786151130337426e+00 0 0 0
832 2 4.9220000000000006e+00 2.9838039261988989e+01 3.1786151130337426e+00 0 0 0
778 2 0.0000000000000000e+00 3.2679757286940330e+01 3.1786151130337426e+00 0 0 0
794 2 0.0000000000000000e+00 3.4100616299415996e+01 3.1786151130337426e+00 0 0 0
798 2 1.2304999999999993e+00 3.1969327780702493e+01 3.1786151130337426e+00 0 0 0
800 2 2.4610000000000003e+00 3.2679757286940337e+01 3.1786151130337426e+00 0 0 0
824 2 2.4609999999999985e+00 3.4100616299415996e+01 3.1786151130337426e+00 0 0 0
828 2 3.6914999999999996e+00 3.1969327780702493e+01 3.1786151130337426e+00 0 0 0
830 2 4.9220000000000015e+00 3.2679757286940337e+01 3.1786151130337426e+00 0 0 0
862 2 4.9220000000000006e+00 3.4100616299415996e+01 3.1786151130337426e+00 0 0 0
796 2 1.2305000000000010e+00 3.4811045805653833e+01 3.1786151130337426e+00 0 0 0
826 2 3.6915000000000018e+00 3.4811045805653833e+01 3.1786151130337426e+00 0 0 0
792 2 0.0000000000000000e+00 3.6942334324367337e+01 3.1786151130337426e+00 0 0 0
816 2 0.0000000000000000e+00 3.8363193336842990e+01 3.1786151130337426e+00 0 0 0
820 2 1.2304999999999993e+00 3.6231904818129486e+01 3.1786151130337426e+00 0 0 0
822 2 2.4610000000000021e+00 3.6942334324367337e+01 3.1786151130337426e+00 0 0 0
854 2 2.4610000000000003e+00 3.8363193336842990e+01 3.1786151130337426e+00 0 0 0
858 2 3.6914999999999996e+00 3.6231904818129486e+01 3.1786151130337426e+00 0 0 0
860 2 4.9220000000000006e+00 3.6942334324367316e+01 3.1786151130337426e+00 0 0 0
899 2 4.9220000000000006e+00 3.8363193336842990e+01 3.1786151130337426e+00 0 0 0
818 2 1.2305000000000010e+00 3.9073622843080841e+01 3.1786151130337426e+00 0 0 0
856 2 3.6915000000000018e+00 3.9073622843080820e+01 3.1786151130337426e+00 0 0 0
779 2 0.0000000000000000e+00 3.1258898274464656e+01 6.1229171475969135e+00 0 0 0
781 2 0.0000000000000000e+00 2.9838039261988989e+01 6.1229171475969135e+00 0 0 0
801 2 2.4609999999999985e+00 3.1258898274464656e+01 6.1229171475969135e+00 0 0 0
803 2 2.4610000000000003e+00 2.9838039261988989e+01 6.1229171475969135e+00 0 0 0
1091 2 0.0000000000000000e+00 2.9838039261988989e+01 9.0672191821598496e+00 0 0 0
1092 2 1.2304999999999993e+00 3.0548468768226829e+01 9.0672191821598496e+00 0 0 0
1102 2 2.4610000000000003e+00 2.9838039261988989e+01 9.0672191821598496e+00 0 0 0
1103 2 3.6915000000000004e+00 3.0548468768226829e+01 9.0672191821598496e+00 0 0 0
831 2 4.9219999999999979e+00 3.1258898274464656e+01 6.1229171475969135e+00 0 0 0
833 2 4.9220000000000006e+00 2.9838039261988989e+01 6.1229171475969135e+00 0 0 0
1117 2 4.9220000000000006e+00 2.9838039261988989e+01 9.0672191821598496e+00 0 0 0
795 2 0.0000000000000000e+00 3.4100616299415996e+01 6.1229171475969135e+00 0 0 0
797 2 1.2304999999999993e+00 3.3390186793178160e+01 6.1229171475969135e+00 0 0 0
799 2 1.2304999999999993e+00 3.1969327780702493e+01 6.1229171475969135e+00 0 0 0
825 2 2.4609999999999985e+00 3.4100616299415996e+01 6.1229171475969135e+00 0 0 0
827 2 3.6914999999999978e+00 3.3390186793178160e+01 6.1229171475969135e+00 0 0 0
829 2 3.6914999999999996e+00 3.1969327780702493e+01 6.1229171475969135e+00 0 0 0
1090 2 0.0000000000000000e+00 3.2679757286940330e+01 9.0672191821598496e+00 0 0 0
1098 2 0.0000000000000000e+00 3.4100616299415996e+01 9.0672191821598496e+00 0 0 0
1100 2 1.2304999999999993e+00 3.1969327780702493e+01 9.0672191821598496e+00 0 0 0