LAMMPS data file via write_data, version 16 Mar 2018, timestep = 8000000

4055 atoms
2 atom types

0.0000000000000000e+00 4.9219999999999999e+01 xlo xhi
0.0000000000000000e+00 4.9019635930410494e+01 ylo yhi
1.1888872164413549e+00 2.6751112783558792e+01 zlo zhi

Masses

1 18.015
2 12.01

Atoms # atomic

53 2 0.0000000000000000e+00 2.8417180249513345e+00 2.7999365596347277e+00 0 0 0
55 2 0.0000000000000000e+00 0.0000000000000000e+00 2.7999365596347277e+00 0 0 0
57 2 1.2305000000000001e+00 7.1042950623783474e-01 2.7999365596347277e+00 0 0 0
64 2 1.2305000000000001e+00 2.1312885187134998e+00 2.7999365596347277e+00 0 0 0
66 2 2.4610000000000003e+00 2.8417180249513345e+00 2.7999365596347277e+00 0 0 0
68 2 2.4610000000000003e+00 0.0000000000000000e+00 2.7999365596347277e+00 0 0 0
70 2 3.6915000000000004e+00 7.1042950623783474e-01 2.7999365596347277e+00 0 0 0
85 2 3.6914999999999996e+00 2.1312885187134998e+00 2.7999365596347277e+00 0 0 0
87 2 4.9220000000000006e+00 2.8417180249513332e+00 2.7999365596347277e+00 0 0 0
89 2 4.9220000000000006e+00 0.0000000000000000e+00 2.7999365596347277e+00 0 0 0
60 2 0.0000000000000000e+00 4.2625770374269996e+00 2.7999365596347277e+00 0 0 0
81 2 2.4610000000000003e+00 4.2625770374269996e+00 2.7999365596347277e+00 0 0 0
110 2 4.9220000000000006e+00 4.2625770374269978e+00 2.7999365596347277e+00 0 0 0
62 2 1.2305000000000001e+00 4.9730065436648339e+00 2.7999365596347277e+00 0 0 0
77 2 1.2305000000000001e+00 6.3938655561404980e+00 2.7999365596347277e+00 0 0 0
83 2 3.6914999999999996e+00 4.9730065436648339e+00 2.7999365596347277e+00 0 0 0
106 2 3.6914999999999996e+00 6.3938655561404980e+00 2.7999365596347277e+00 0 0 0
58 2 0.0000000000000000e+00 7.1042950623783341e+00 2.7999365596347277e+00 0 0 0
73 2 0.0000000000000000e+00 8.5251540748539991e+00 2.7999365596347277e+00 0 0 0
75 2 1.2305000000000001e+00 9.2355835810918343e+00 2.7999365596347277e+00 0 0 0
79 2 2.4610000000000003e+00 7.1042950623783341e+00 2.7999365596347277e+00 0 0 0
102 2 2.4610000000000003e+00 8.5251540748539991e+00 2.7999365596347277e+00 0 0 0
104 2 3.6915000000000004e+00 9.2355835810918343e+00 2.7999365596347277e+00 0 0 0
108 2 4.9220000000000006e+00 7.1042950623783341e+00 2.7999365596347277e+00 0 0 0
139 2 4.9220000000000006e+00 8.5251540748539991e+00 2.7999365596347277e+00 0 0 0
54 2 0.0000000000000000e+00 1.4208590124756650e+00 5.8475565693154410e+00 0 0 0
56 2 0.0000000000000000e+00 0.0000000000000000e+00 5.8475565693154410e+00 0 0 0
65 2 1.2305000000000001e+00 2.1312885187134998e+00 5.8475565693154410e+00 0 0 0
67 2 2.4610000000000003e+00 1.4208590124756650e+00 5.8475565693154410e+00 0 0 0
69 2 2.4610000000000003e+00 0.0000000000000000e+00 5.8475565693154410e+00 0 0 0
86 2 3.6914999999999996e+00 2.1312885187134998e+00 5.8475565693154410e+00 0 0 0
382 2 0.0000000000000000e+00 2.8417180249513345e+00 8.8951765790031239e+00 0 0 0
383 2 0.0000000000000000e+00 0.0000000000000000e+00 8.8951765790031239e+00 0 0 0
384 2 1.2305000000000001e+00 7.1042950623783474e-01 8.8951765790031239e+00 0 0 0
388 2 1.2305000000000001e+00 2.1312885187134998e+00 8.8951765790031239e+00 0 0 0
389 2 2.4610000000000003e+00 2.8417180249513345e+00 8.8951765790031239e+00 0 0 0
390 2 2.4610000000000003e+00 0.0000000000000000e+00 8.8951765790031239e+00 0 0 0
391 2 3.6915000000000004e+00 7.1042950623783474e-01 8.8951765790031239e+00 0 0 0
399 2 3.6914999999999996e+00 2.1312885187134998e+00 8.8951765790031239e+00 0 0 0
88 2 4.9220000000000006e+00 1.4208590124756650e+00 5.8475565693154410e+00 0 0 0
90 2 4.9220000000000006e+00 0.0000000000000000e+00 5.8475565693154410e+00 0 0 0
400 2 4.9220000000000006e+00 2.8417180249513332e+00 8.8951765790031239e+00 0 0 0
401 2 4.9220000000000006e+00 0.0000000000000000e+00 8.8951765790031239e+00 0 0 0
61 2 0.0000000000000000e+00 4.2625770374269996e+00 5.8475565693154410e+00 0 0 0
63 2 1.2305000000000001e+00 3.5521475311891644e+00 5.8475565693154410e+00 0 0 0
82 2 2.4610000000000003e+00 4.2625770374269996e+00 5.8475565693154410e+00 0 0 0
84 2 3.6914999999999996e+00 3.5521475311891644e+00 5.8475565693154410e+00 0 0 0
386 2 0.0000000000000000e+00 4.2625770374269996e+00 8.8951765790031239e+00 0 0 0
397 2 2.4610000000000003e+00 4.2625770374269996e+00 8.8951765790031239e+00 0 0 0
111 2 4.9220000000000006e+00 4.2625770374269978e+00 5.8475565693154410e+00 0 0 0
412 2 4.9220000000000006e+00 4.2625770374269978e+00 8.8951765790031239e+00 0 0 0
59 2 0.0000000000000000e+00 5.6834360499026637e+00 5.8475565693154410e+00 0 0 0
78 2 1.2305000000000001e+00 6.3938655561404980e+00 5.8475565693154410e+00 0 0 0
80 2 2.4610000000000003e+00 5.6834360499026637e+00 5.8475565693154410e+00 0 0 0
107 2 3.6914999999999996e+00 6.3938655561404980e+00 5.8475565693154410e+00 0 0 0
387 2 1.2305000000000001e+00 4.9730065436648339e+00 8.8951765790031239e+00 0 0 0
395 2 1.2305000000000001e+00 6.3938655561404980e+00 8.8951765790031239e+00 0 0 0
398 2 3.6914999999999996e+00 4.9730065436648339e+00 8.8951765790031239e+00 0 0 0
410 2 3.6914999999999996e+00 6.3938655561404980e+00 8.8951765790031239e+00 0 0 0
109 2 4.9220000000000006e+00 5.6834360499026637e+00 5.8475565693154410e+00 0 0 0
74 2 0.0000000000000000e+00 8.5251540748539991e+00 5.8475565693154410e+00 0 0 0
76 2 1.2305000000000001e+00 7.8147245686161639e+00 5.8475565693154410e+00 0 0 0
103 2 2.4610000000000003e+00 8.5251540748539991e+00 5.8475565693154410e+00 0 0 0
105 2 3.6914999999999996e+00 7.8147245686161639e+00 5.8475565693154410e+00 0 0 0
385 2 0.0000000000000000e+00 7.1042950623783341e+00 8.8951765790031239e+00 0 0 0
393 2 0.0000000000000000e+00 8.5251540748539991e+00 8.8951765790031239e+00 0 0 0
394 2 1.2305000000000001e+00 9.2355835810918343e+00 8.8951765790031239e+00 0 0 0
396 2 2.4610000000000003e+00 7.1042950623783341e+00 8.8951765790031239e+00 0 0 0
408 2 2.4610000000000003e+00 8.5251540748539991e+00 8.8951765790031239e+00 0 0 0
409 2 3.6915000000000004e+00 9.2355835810918343e+00 8.8951765790031239e+00 0 0 0
140 2 4.9220000000000006e+00 8.5251540748539991e+00 5.8475565693154410e+00 0 0 0
411 2 4.9220000000000006e+00 7.1042950623783341e+00 8.8951765790031239e+00 0 0 0
427 2 4.9220000000000006e+00 8.5251540748539991e+00 8.8951765790031239e+00 0 0 0
3258 1 2.9115415782802128e+00 2.2447740957020077e+00 1.1874432805272665e+01 1 1 0
1238 1 3.8324631965434479e+00 5.0335463785542895e+00 1.1414695063389342e+01 0 0 0
2581 1 2.3532095846829542e+00 7.2988031563259677e+00 1.1642214161442370e+01 0 1 0
20 1 4.2973801767485513e+00 2.3248678413877108e-01 1.1598126163737398e+01 0 0 -1
585 1 1.0587256910639399e-01 2.0734833253035929e+00 1.1409211082804950e+01 1 0 -1
1982 1 2.5741729808661749e+00 1.6798663871395538e+00 1.5560912175859341e+01 0 1 0
615 1 2.3738058790937524e+00 1.5579079642037517e+00 1.8053640488365406e+01 0 1 0
3246 1 6.0211031646821702e+00 4.3462626358914385e+00 1.5272056612376144e+01 0 0 -1
2566 1 5.8571313210514466e+00 3.0272809904296056e+00 2.5754059086140749e+01 0 0 -1
2689 1 1.5157197705667729e+00 5.5181386860730335e+00 1.5564158715938166e+01 1 1 -1
650 1 4.8587988622303371e+00 8.6206526595591804e+00 1.5383905459671851e+01 1 0 0
1937 1 1.4433646057465237e+00 5.4501460698347781e+00 1.8432453672557546e+01 1 0 0
19 1 4.8914329294849423e+00 8.5059354080382281e+00 1.8269305385714734e+01 0 0 0
2739 1 2.4642668664537801e+00 7.7550712907715162e+00 1.4277032664610733e+01 1 1 0
703 1 6.5298530437329294e-01 3.1445707327622112e+00 1.9509088203682474e+01 2 0 0
3399 1 4.9655768518028873e+00 1.8389102041710226e+00 1.8997590721911056e+01 1 1 -2
3344 1 6.8767378285161307e-01 3.2229991302411647e+00 2.2371791538492765e+01 0 0 -1
3897 1 5.2848148696201962e+00 1.7744583984738826e+00 2.1853221567673824e+01 1 1 -1
4052 1 4.0602549651804907e+00 5.9281687384741284e+00 2.1936656979315533e+01 0 1 -2
3425 1 4.0560302177041043e+00 6.0049039143822700e+00 1.9193770947237887e+01 1 0 -1
1393 1 5.8778626921692005e+00 4.0114749034517132e+00 2.3061309988069873e+01 0 1 0
1962 1 1.4187398916617380e+00 4.9407295521817582e+00 2.5552753727596954e+01 0 0 -1
1942 1 2.7691094488314567e+00 1.4050826465562833e+00 2.3141875838608030e+01 0 1 -1
638 1 3.0027864126832311e+00 2.6709791912718930e+00 2.5735574553421390e+01 0 0 -1
3390 1 1.5990196852840606e+00 5.6643438724916262e+00 2.2839868676810362e+01 1 0 0
2036 1 2.6140817853748897e+00 7.4832633342891226e+00 2.6004181001676059e+01 0 1 0
4044 1 5.1190982978734452e+00 8.6122013569281375e+00 2.2491159356738073e+01 1 1 0
2704 1 4.9983908888331054e+00 8.1523699638683151e+00 2.5153106544223721e+01 1 0 0
1372 1 3.4345327848343588e+00 3.9590529657724942e+00 1.4297707871079290e+01 0 1 -1
3930 1 7.2681272867946331e-02 1.3212757821223833e+00 1.4186629871820102e+01 1 0 -1
3239 1 5.7896100429253359e+00 4.0484555502000630e+00 1.8042194379836296e+01 2 0 -1
2574 1 8.0307644124957278e-03 7.6550753443828228e+00 2.1925911612148475e+01 0 1 1
71 2 0.0000000000000000e+00 1.1366872099805333e+01 2.7999365596347277e+00 0 0 0
94 2 0.0000000000000000e+00 1.2787731112280996e+01 2.7999365596347277e+00 0 0 0
96 2 1.2305000000000001e+00 1.3498160618518829e+01 2.7999365596347277e+00 0 0 0
98 2 1.2305000000000001e+00 1.0656442593567498e+01 2.7999365596347277e+00 0 0 0
100 2 2.4610000000000003e+00 1.1366872099805333e+01 2.7999365596347277e+00 0 0 0
131 2 2.4610000000000003e+00 1.2787731112280996e+01 2.7999365596347277e+00 0 0 0
133 2 3.6915000000000004e+00 1.3498160618518829e+01 2.7999365596347277e+00 0 0 0
135 2 3.6914999999999996e+00 1.0656442593567499e+01 2.7999365596347277e+00 0 0 0
137 2 4.9220000000000006e+00 1.1366872099805333e+01 2.7999365596347277e+00 0 0 0
176 2 4.9220000000000006e+00 1.2787731112280996e+01 2.7999365596347277e+00 0 0 0
178 2 6.1524999999999990e+00 1.3498160618518829e+01 2.7999365596347277e+00 0 0 0
92 2 0.0000000000000000e+00 1.5629449137232333e+01 2.7999365596347277e+00 0 0 0
123 2 0.0000000000000000e+00 1.7050308149707998e+01 2.7999365596347277e+00 0 0 0
127 2 1.2305000000000001e+00 1.4919019630994494e+01 2.7999365596347277e+00 0 0 0
129 2 2.4610000000000003e+00 1.5629449137232328e+01 2.7999365596347277e+00 0 0 0
168 2 2.4610000000000003e+00 1.7050308149707998e+01 2.7999365596347277e+00 0 0 0
172 2 3.6915000000000004e+00 1.4919019630994494e+01 2.7999365596347277e+00 0 0 0
174 2 4.9220000000000006e+00 1.5629449137232333e+01 2.7999365596347277e+00 0 0 0
215 2 4.9220000000000006e+00 1.7050308149707998e+01 2.7999365596347277e+00 0 0 0
219 2 6.1524999999999990e+00 1.4919019630994494e+01 2.7999365596347277e+00 0 0 0
125 2 1.2305000000000001e+00 1.7760737655945832e+01 2.7999365596347277e+00 0 0 0
164 2 1.2305000000000001e+00 1.9181596668421495e+01 2.7999365596347277e+00 0 0 0
170 2 3.6914999999999996e+00 1.7760737655945832e+01 2.7999365596347277e+00 0 0 0
211 2 3.6914999999999996e+00 1.9181596668421495e+01 2.7999365596347277e+00 0 0 0
72 2 0.0000000000000000e+00 9.9460130873296642e+00 5.8475565693154410e+00 0 0 0
101 2 2.4610000000000003e+00 9.9460130873296642e+00 5.8475565693154410e+00 0 0 0
138 2 4.9220000000000006e+00 9.9460130873296642e+00 5.8475565693154410e+00 0 0 0
95 2 0.0000000000000000e+00 1.2787731112280996e+01 5.8475565693154410e+00 0 0 0
97 2 1.2305000000000001e+00 1.2077301606043163e+01 5.8475565693154410e+00 0 0 0
99 2 1.2305000000000001e+00 1.0656442593567498e+01 5.8475565693154410e+00 0 0 0
132 2 2.4610000000000003e+00 1.2787731112280996e+01 5.8475565693154410e+00 0 0 0
134 2 3.6914999999999996e+00 1.2077301606043163e+01 5.8475565693154410e+00 0 0 0
136 2 3.6914999999999996e+00 1.0656442593567499e+01 5.8475565693154410e+00 0 0 0
392 2 0.0000000000000000e+00 1.1366872099805333e+01 8.8951765790031239e+00 0 0 0
404 2 0.0000000000000000e+00 1.2787731112280996e+01 8.8951765790031239e+00 0 0 0
405 2 1.2305000000000001e+00 1.3498160618518829e+01 8.8951765790031239e+00 0 0 0
406 2 1.2305000000000001e+00 1.0656442593567498e+01 8.8951765790031239e+00 0 0 0
407 2 2.4610000000000003e+00 1.1366872099805333e+01 8.8951765790031239e+00 0 0 0
423 2 2.4610000000000003e+00 1.2787731112280996e+01 8.8951765790031239e+00 0 0 0
424 2 3.6915000000000004e+00 1.3498160618518829e+01 8.8951765790031239e+00 0 0 0
425 2 3.6914999999999996e+00 1.0656442593567499e+01 8.8951765790031239e+00 0 0 0
177 2 4.9220000000000006e+00 1.2787731112280996e+01 5.8475565693154410e+00 0 0 0
426 2 4.9220000000000006e+00 1.1366872099805333e+01 8.8951765790031239e+00 0 0 0
446 2 4.9220000000000006e+00 1.2787731112280996e+01 8.8951765790031239e+00 0 0 0
447 2 6.1524999999999990e+00 1.3498160618518829e+01 8.8951765790031239e+00 0 0 0
93 2 0.0000000000000000e+00 1.4208590124756663e+01 5.8475565693154410e+00 0 0 0
130 2 2.4610000000000003e+00 1.4208590124756663e+01 5.8475565693154410e+00 0 0 0
175 2 4.9220000000000006e+00 1.4208590124756663e+01 5.8475565693154410e+00 0 0 0
124 2 0.0000000000000000e+00 1.7050308149707998e+01 5.8475565693154410e+00 0 0 0
126 2 1.2305000000000001e+00 1.6339878643470165e+01 5.8475565693154410e+00 0 0 0
128 2 1.2305000000000001e+00 1.4919019630994494e+01 5.8475565693154410e+00 0 0 0
169 2 2.4610000000000003e+00 1.7050308149707998e+01 5.8475565693154410e+00 0 0 0
171 2 3.6915000000000004e+00 1.6339878643470165e+01 5.8475565693154410e+00 0 0 0
173 2 3.6915000000000004e+00 1.4919019630994494e+01 5.8475565693154410e+00 0 0 0
403 2 0.0000000000000000e+00 1.5629449137232333e+01 8.8951765790031239e+00 0 0 0
419 2 0.0000000000000000e+00 1.7050308149707998e+01 8.8951765790031239e+00 0 0 0
421 2 1.2305000000000001e+00 1.4919019630994494e+01 8.8951765790031239e+00 0 0 0
422 2 2.4610000000000003e+00 1.5629449137232328e+01 8.8951765790031239e+00 0 0 0
442 2 2.4610000000000003e+00 1.7050308149707998e+01 8.8951765790031239e+00 0 0 0
444 2 3.6915000000000004e+00 1.4919019630994494e+01 8.8951765790031239e+00 0 0 0
216 2 4.9220000000000006e+00 1.7050308149707998e+01 5.8475565693154410e+00 0 0 0
220 2 6.1524999999999990e+00 1.4919019630994494e+01 5.8475565693154410e+00 0 0 0
445 2 4.9220000000000006e+00 1.5629449137232333e+01 8.8951765790031239e+00 0 0 0
466 2 4.9220000000000006e+00 1.7050308149707998e+01 8.8951765790031239e+00 0 0 0
468 2 6.1524999999999990e+00 1.4919019630994494e+01 8.8951765790031239e+00 0 0 0
122 2 0.0000000000000000e+00 1.8471167162183658e+01 5.8475565693154410e+00 0 0 0
165 2 1.2305000000000001e+00 1.9181596668421495e+01 5.8475565693154410e+00 0 0 0
167 2 2.4610000000000003e+00 1.8471167162183658e+01 5.8475565693154410e+00 0 0 0
212 2 3.6914999999999996e+00 1.9181596668421495e+01 5.8475565693154410e+00 0 0 0
420 2 1.2305000000000001e+00 1.7760737655945832e+01 8.8951765790031239e+00 0 0 0
440 2 1.2305000000000001e+00 1.9181596668421495e+01 8.8951765790031239e+00 0 0 0
443 2 3.6914999999999996e+00 1.7760737655945832e+01 8.8951765790031239e+00 0 0 0
464 2 3.6914999999999996e+00 1.9181596668421495e+01 8.8951765790031239e+00 0 0 0
214 2 4.9220000000000006e+00 1.8471167162183658e+01 5.8475565693154410e+00 0 0 0
3353 1 1.8664910245020236e+00 1.2203906710799782e+01 1.1611377944632864e+01 1 0 -1
3989 1 1.4235310392407994e+00 1.7074560601846972e+01 1.2113018590798378e+01 1 -1 0
1267 1 5.6426422146673518e+00 1.5273095663776093e+01 1.1985025565224587e+01 -1 1 0
2748 1 2.9753972282577821e+00 1.4975081395705899e+01 1.1436886677344431e+01 1 0 0
2743 1 3.6078059741692861e+00 9.8557385649504088e+00 1.1136135687073450e+01 1 0 1
663 1 1.9615086890919835e+00 1.9416245084832809e+01 1.1098492952883337e+01 0 0 0
1287 1 4.2534394016136590e+00 1.2606957338485435e+01 1.5359218230379538e+01 0 0 1
3262 1 1.6191698373569199e+00 1.2189487148474887e+01 1.4389599447805656e+01 0 0 -1
2728 1 8.9624684677949218e-01 1.0040040958195817e+01 2.2862159961830788e+01 1 0 0
2061 1 1.0162238083797654e+00 9.9114115271695908e+00 1.8098229469136083e+01 0 0 -1
542 1 2.0207857955600721e+00 1.9273429791748313e+01 1.8975752627859354e+01 0 0 0
2716 1 3.7082519274118333e+00 1.6968155966868281e+01 1.5581664204271872e+01 1 1 0
665 1 1.0237784245129928e+00 1.6724139062908627e+01 1.4637176230225096e+01 0 0 0
561 1 5.4678141103771010e+00 1.5037613509982707e+01 1.4602915090369789e+01 0 0 -1
2007 1 3.8427494207500983e+00 1.7083684721258109e+01 1.8170984290975422e+01 -1 0 0
1441 1 4.2917572647901610e+00 1.3007128297961501e+01 1.8048680883649563e+01 0 1 1
2585 1 3.5365441435940208e+00 1.0634986041141786e+01 1.9034678282501769e+01 0 1 0
571 1 3.4364562567697665e+00 1.0455754528385407e+01 2.1721999320868399e+01 0 0 0
3979 1 2.6399072149042375e+00 1.4670771078413463e+01 1.9040025064591852e+01 0 0 0
574 1 2.4299776234816406e+00 1.4793352579434140e+01 2.1914623078565064e+01 0 0 0
1255 1 3.3880222733961216e+00 1.7338754570865309e+01 2.2607998013486995e+01 0 0 1
1916 1 1.0452114369517347e+00 1.7231948268910127e+01 2.5794822403722630e+01 0 1 0
2750 1 4.4447376334631361e+00 1.2972557920568171e+01 2.2937469858854165e+01 1 1 0
3964 1 2.1494778583139715e+00 1.2723337054673211e+01 2.5945399148915445e+01 0 1 0
4020 1 4.8419645708051551e+00 1.2876752243760539e+01 2.5690822436472164e+01 0 -1 -1
641 1 5.6565565723214464e+00 1.5666648678143254e+01 2.5809609280818108e+01 0 1 -1
3445 1 2.1555614619166977e-01 1.4526290905158191e+01 2.5594500135135547e+01 0 0 0
2593 1 3.9230664706550571e+00 1.7805171117435076e+01 2.5213371289952576e+01 1 1 0
2609 1 2.0062453008591068e+00 1.9452230365700842e+01 2.1777350094265561e+01 0 0 0
1970 1 6.4783765707066177e-01 9.8244136146622303e+00 1.5137976014399474e+01 0 0 0
3349 1 6.1127025121532750e+00 1.7902219821405556e+01 2.1541238009289774e+01 1 2 -1
3985 1 1.1231348321024222e+00 9.8976768896316791e+00 2.5636042682235662e+01 0 0 -1
684 1 5.9377561955539324e+00 1.0838568703549440e+01 1.4350805210453911e+01 0 0 -1
121 2 0.0000000000000000e+00 1.9892026174659328e+01 2.7999365596347277e+00 0 0 0
166 2 2.4610000000000003e+00 1.9892026174659328e+01 2.7999365596347277e+00 0 0 0
213 2 4.9220000000000006e+00 1.9892026174659328e+01 2.7999365596347277e+00 0 0 0
158 2 0.0000000000000000e+00 2.4154603212086325e+01 2.7999365596347277e+00 0 0 0
160 2 0.0000000000000000e+00 2.1312885187134999e+01 2.7999365596347277e+00 0 0 0
162 2 1.2304999999999993e+00 2.2023314693372832e+01 2.7999365596347277e+00 0 0 0
203 2 1.2304999999999993e+00 2.3444173705848499e+01 2.7999365596347277e+00 0 0 0
205 2 2.4610000000000003e+00 2.4154603212086325e+01 2.7999365596347277e+00 0 0 0
207 2 2.4610000000000003e+00 2.1312885187134995e+01 2.7999365596347277e+00 0 0 0
209 2 3.6914999999999996e+00 2.2023314693372832e+01 2.7999365596347277e+00 0 0 0
250 2 3.6915000000000004e+00 2.3444173705848499e+01 2.7999365596347277e+00 0 0 0
252 2 4.9220000000000006e+00 2.4154603212086325e+01 2.7999365596347277e+00 0 0 0
254 2 4.9220000000000006e+00 2.1312885187134995e+01 2.7999365596347277e+00 0 0 0
256 2 6.1524999999999990e+00 2.2023314693372832e+01 2.7999365596347277e+00 0 0 0
774 2 0.0000000000000000e+00 2.5575462224561992e+01 2.7999365596347277e+00 0 0 0
776 2 1.2305000000000001e+00 2.6285891730799833e+01 2.7999365596347277e+00 0 0 0
784 2 1.2305000000000010e+00 2.7706750743275496e+01 2.7999365596347277e+00 0 0 0
788 2 2.4610000000000003e+00 2.5575462224561992e+01 2.7999365596347277e+00 0 0 0
790 2 3.6914999999999991e+00 2.6285891730799833e+01 2.7999365596347277e+00 0 0 0
806 2 3.6914999999999996e+00 2.7706750743275496e+01 2.7999365596347277e+00 0 0 0
810 2 4.9220000000000006e+00 2.5575462224561992e+01 2.7999365596347277e+00 0 0 0
836 2 6.1524999999999990e+00 2.7706750743275496e+01 2.7999365596347277e+00 0 0 0
772 2 0.0000000000000000e+00 2.8417180249513333e+01 2.7999365596347277e+00 0 0 0
786 2 2.4610000000000003e+00 2.8417180249513326e+01 2.7999365596347277e+00 0 0 0
808 2 4.9220000000000006e+00 2.8417180249513336e+01 2.7999365596347277e+00 0 0 0
163 2 1.2305000000000001e+00 2.0602455680897162e+01 5.8475565693154410e+00 0 0 0
210 2 3.6915000000000004e+00 2.0602455680897162e+01 5.8475565693154410e+00 0 0 0
418 2 0.0000000000000000e+00 1.9892026174659328e+01 8.8951765790031239e+00 0 0 0
441 2 2.4610000000000003e+00 1.9892026174659328e+01 8.8951765790031239e+00 0 0 0
465 2 4.9220000000000006e+00 1.9892026174659328e+01 8.8951765790031239e+00 0 0 0
159 2 0.0000000000000000e+00 2.2733744199610655e+01 5.8475565693154410e+00 0 0 0
161 2 0.0000000000000000e+00 2.1312885187134999e+01 5.8475565693154410e+00 0 0 0
204 2 1.2304999999999993e+00 2.3444173705848499e+01 5.8475565693154410e+00 0 0 0
206 2 2.4610000000000003e+00 2.2733744199610655e+01 5.8475565693154410e+00 0 0 0
208 2 2.4610000000000003e+00 2.1312885187134995e+01 5.8475565693154410e+00 0 0 0
251 2 3.6915000000000004e+00 2.3444173705848499e+01 5.8475565693154410e+00 0 0 0
437 2 0.0000000000000000e+00 2.4154603212086325e+01 8.8951765790031239e+00 0 0 0
438 2 0.0000000000000000e+00 2.1312885187134999e+01 8.8951765790031239e+00 0 0 0
439 2 1.2304999999999993e+00 2.2023314693372832e+01 8.8951765790031239e+00 0 0 0
460 2 1.2304999999999993e+00 2.3444173705848499e+01 8.8951765790031239e+00 0 0 0
461 2 2.4610000000000003e+00 2.4154603212086325e+01 8.8951765790031239e+00 0 0 0
462 2 2.4610000000000003e+00 2.1312885187134995e+01 8.8951765790031239e+00 0 0 0
463 2 3.6914999999999996e+00 2.2023314693372832e+01 8.8951765790031239e+00 0 0 0
484 2 3.6915000000000004e+00 2.3444173705848499e+01 8.8951765790031239e+00 0 0 0
253 2 4.9220000000000006e+00 2.2733744199610655e+01 5.8475565693154410e+00 0 0 0
255 2 4.9220000000000006e+00 2.1312885187134995e+01 5.8475565693154410e+00 0 0 0
485 2 4.9220000000000006e+00 2.4154603212086325e+01 8.8951765790031239e+00 0 0 0
486 2 4.9220000000000006e+00 2.1312885187134995e+01 8.8951765790031239e+00 0 0 0
487 2 6.1524999999999990e+00 2.2023314693372832e+01 8.8951765790031239e+00 0 0 0
773 2 0.0000000000000000e+00 2.6996321237037659e+01 5.8475565693154410e+00 0 0 0
775 2 0.0000000000000000e+00 2.5575462224561992e+01 5.8475565693154410e+00 0 0 0
777 2 1.2305000000000001e+00 2.4865032718324155e+01 5.8475565693154410e+00 0 0 0
785 2 1.2305000000000010e+00 2.7706750743275496e+01 5.8475565693154410e+00 0 0 0
787 2 2.4610000000000003e+00 2.6996321237037659e+01 5.8475565693154410e+00 0 0 0
789 2 2.4610000000000003e+00 2.5575462224561992e+01 5.8475565693154410e+00 0 0 0
791 2 3.6914999999999996e+00 2.4865032718324166e+01 5.8475565693154410e+00 0 0 0
807 2 3.6914999999999996e+00 2.7706750743275496e+01 5.8475565693154410e+00 0 0 0
1088 2 0.0000000000000000e+00 2.5575462224561992e+01 8.8951765790031239e+00 0 0 0
1089 2 1.2305000000000001e+00 2.6285891730799833e+01 8.8951765790031239e+00 0 0 0
1093 2 1.2305000000000010e+00 2.7706750743275496e+01 8.8951765790031239e+00 0 0 0
1095 2 2.4610000000000003e+00 2.5575462224561992e+01 8.8951765790031239e+00 0 0 0
1096 2 3.6914999999999991e+00 2.6285891730799833e+01 8.8951765790031239e+00 0 0 0
1104 2 3.6914999999999996e+00 2.7706750743275496e+01 8.8951765790031239e+00 0 0 0
809 2 4.9220000000000006e+00 2.6996321237037659e+01 5.8475565693154410e+00 0 0 0
811 2 4.9220000000000006e+00 2.5575462224561992e+01 5.8475565693154410e+00 0 0 0
813 2 6.1524999999999990e+00 2.4865032718324155e+01 5.8475565693154410e+00 0 0 0
837 2 6.1524999999999990e+00 2.7706750743275496e+01 5.8475565693154410e+00 0 0 0
1106 2 4.9220000000000006e+00 2.5575462224561992e+01 8.8951765790031239e+00 0 0 0
1119 2 6.1524999999999990e+00 2.7706750743275496e+01 8.8951765790031239e+00 0 0 0
783 2 1.2304999999999993e+00 2.9127609755751163e+01 5.8475565693154410e+00 0 0 0
805 2 3.6914999999999991e+00 2.9127609755751152e+01 5.8475565693154410e+00 0 0 0
1087 2 0.0000000000000000e+00 2.8417180249513333e+01 8.8951765790031239e+00 0 0 0
1094 2 2.4610000000000003e+00 2.8417180249513326e+01 8.8951765790031239e+00 0 0 0
835 2 6.1524999999999981e+00 2.9127609755751152e+01 5.8475565693154410e+00 0 0 0
1105 2 4.9220000000000006e+00 2.8417180249513336e+01 8.8951765790031239e+00 0 0 0
749 1 5.3906120356564040e+00 2.2368268606408343e+01 1.1411878187835081e+01 0 0 0
3967 1 4.4265760820638826e+00 2.7426500905083277e+01 1.1887995040502675e+01 0 -1 -2
8 1 1.1142202990957408e+00 2.4479425354381615e+01 1.1177418458144667e+01 0 0 1
2627 1 3.9398683930647311e+00 2.4832407215901849e+01 1.1561556909172632e+01 0 0 1
3421 1 1.0840455236168513e-01 2.1571237425664609e+01 1.1884143538336657e+01 1 1 -1
3387 1 4.4617230497363556e+00 1.9916727911051435e+01 1.1799195736453617e+01 1 0 -1
1258 1 3.0292339218905799e+00 2.1826106721213836e+01 1.5689959780785543e+01 0 0 1
3894 1 2.7854394980423844e+00 2.1825489531624857e+01 1.8393878884519669e+01 1 0 0
1403 1 1.5097668829472872e+00 2.6690836671655081e+01 2.5476357255608335e+01 1 0 0
3962 1 4.7644641794002141e+00 2.0249389171228124e+01 2.5534951588307642e+01 0 0 0
3281 1 3.9472469475820375e+00 2.4380422749653349e+01 1.4235809860156243e+01 -1 0 -1
2651 1 3.7456429827527171e+00 2.7447392830769680e+01 1.4711627097799092e+01 0 0 0
2016 1 1.9039730982238283e+00 2.7418364963551507e+01 2.2748048038137291e+01 0 -1 0
645 1 2.6913190497183721e+00 2.2245885938489515e+01 2.2150563938426554e+01 1 1 0
24 1 3.9941800789906268e-01 2.1473173256123619e+01 1.4745066832643435e+01 1 1 0
2603 1 4.5722699757205687e+00 1.9683916164203907e+01 1.4569258744256146e+01 0 0 0
3983 1 4.8407868234275044e+00 2.6371218231948660e+01 1.8934464511696589e+01 0 -1 0
2553 1 4.6415809821228109e+00 2.6991018018722247e+01 2.1770757862955982e+01 1 0 -1
3919 1 3.4113700381323215e+00 2.4514691323610048e+01 2.5897641619364443e+01 1 0 0
737 1 5.4238004989667470e+00 2.2276568227724468e+01 1.8989445391084427e+01 0 0 1
3251 1 2.9628619358173296e+00 2.2127287501128180e+01 2.4996054875678965e+01 0 0 1
1290 1 5.3507207658555771e+00 2.2446791220833305e+01 2.1748350063212879e+01 0 -1 0
1277 1 5.8189277810082016e+00 2.8656722055353576e+01 1.5437297391490034e+01 0 1 0
2024 1 2.6292011432863660e-01 2.1645684772662683e+01 2.5421508971720659e+01 1 0 0
1373 1 2.3453276044378462e+00 2.9227306084009413e+01 2.5863456993389622e+01 0 0 -2
780 2 0.0000000000000000e+00 2.9838039261988989e+01 2.7999365596347277e+00 0 0 0
782 2 1.2304999999999993e+00 3.0548468768226829e+01 2.7999365596347277e+00 0 0 0
802 2 2.4610000000000003e+00 2.9838039261988989e+01 2.7999365596347277e+00 0 0 0
804 2 3.6915000000000004e+00 3.0548468768226829e+01 2.7999365596347277e+00 0 0 0
832 2 4.9220000000000006e+00 2.9838039261988989e+01 2.7999365596347277e+00 0 0 0
778 2 0.0000000000000000e+00 3.2679757286940330e+01 2.7999365596347277e+00 0 0 0
794 2 0.0000000000000000e+00 3.4100616299415996e+01 2.7999365596347277e+00 0 0 0
798 2 1.2304999999999993e+00 3.1969327780702493e+01 2.7999365596347277e+00 0 0 0
800 2 2.4610000000000003e+00 3.2679757286940337e+01 2.7999365596347277e+00 0 0 0
824 2 2.4609999999999985e+00 3.4100616299415996e+01 2.7999365596347277e+00 0 0 0
828 2 3.6914999999999996e+00 3.1969327780702493e+01 2.7999365596347277e+00 0 0 0
830 2 4.9220000000000015e+00 3.2679757286940337e+01 2.7999365596347277e+00 0 0 0
862 2 4.9220000000000006e+00 3.4100616299415996e+01 2.7999365596347277e+00 0 0 0
796 2 1.2305000000000010e+00 3.4811045805653833e+01 2.7999365596347277e+00 0 0 0
826 2 3.6915000000000018e+00 3.4811045805653833e+01 2.7999365596347277e+00 0 0 0
792 2 0.0000000000000000e+00 3.6942334324367337e+01 2.7999365596347277e+00 0 0 0
816 2 0.0000000000000000e+00 3.8363193336842990e+01 2.7999365596347277e+00 0 0 0
820 2 1.2304999999999993e+00 3.6231904818129486e+01 2.7999365596347277e+00 0 0 0
822 2 2.4610000000000021e+00 3.6942334324367337e+01 2.7999365596347277e+00 0 0 0
854 2 2.4610000000000003e+00 3.8363193336842990e+01 2.7999365596347277e+00 0 0 0
858 2 3.6914999999999996e+00 3.6231904818129486e+01 2.7999365596347277e+00 0 0 0
860 2 4.9220000000000006e+00 3.6942334324367316e+01 2.7999365596347277e+00 0 0 0
899 2 4.9220000000000006e+00 3.8363193336842990e+01 2.7999365596347277e+00 0 0 0
818 2 1.2305000000000010e+00 3.9073622843080841e+01 2.7999365596347277e+00 0 0 0
856 2 3.6915000000000018e+00 3.9073622843080820e+01 2.7999365596347277e+00 0 0 0
779 2 0.0000000000000000e+00 3.1258898274464656e+01 5.8475565693154410e+00 0 0 0
781 2 0.0000000000000000e+00 2.9838039261988989e+01 5.8475565693154410e+00 0 0 0
801 2 2.4609999999999985e+00 3.1258898274464656e+01 5.8475565693154410e+00 0 0 0
803 2 2.4610000000000003e+00 2.9838039261988989e+01 5.8475565693154410e+00 0 0 0
1091 2 0.0000000000000000e+00 2.9838039261988989e+01 8.8951765790031239e+00 0 0 0
1092 2 1.2304999999999993e+00 3.0548468768226829e+01 8.8951765790031239e+00 0 0 0
1102 2 2.4610000000000003e+00 2.9838039261988989e+01 8.8951765790031239e+00 0 0 0
1103 2 3.6915000000000004e+00 3.0548468768226829e+01 8.8951765790031239e+00 0 0 0
831 2 4.9219999999999979e+00 3.1258898274464656e+01 5.8475565693154410e+00 0 0 0
833 2 4.9220000000000006e+00 2.9838039261988989e+01 5.8475565693154410e+00 0 0 0
1117 2 4.9220000000000006e+00 2.9838039261988989e+01 8.8951765790031239e+00 0 0 0
795 2 0.0000000000000000e+00 3.4100616299415996e+01 5.8475565693154410e+00 0 0 0
797 2 1.2304999999999993e+00 3.3390186793178160e+01 5.8475565693154410e+00 0 0 0
799 2 1.2304999999999993e+00 3.1969327780702493e+01 5.8475565693154410e+00 0 0 0
825 2 2.4609999999999985e+00 3.4100616299415996e+01 5.8475565693154410e+00 0 0 0
827 2 3.6914999999999978e+00 3.3390186793178160e+01 5.8475565693154410e+00 0 0 0
829 2 3.6914999999999996e+00 3.1969327780702493e+01 5.8475565693154410e+00 0 0 0
1090 2 0.0000000000000000e+00 3.2679757286940330e+01 8.8951765790031239e+00 0 0 0
1098 2 0.0000000000000000e+00 3.4100616299415996e+01 8.8951765790031239e+00 0 0 0
1100 2 1.2304999999999993e+00 3.1969327780702493e+01 8.8951765790031239e+00 0 0 0
1101 2 2.4610000000000003e+00 3.2679757286940337e+01 8.8951765790031239e+00 0 0 0
1113 2 2.4609999999999985e+00 3.4100616299415996e+01 8.8951765790031239e+00 0 0 0
1115 2 3.6914999999999996e+00 3.1969327780702493e+01 8.8951765790031239e+00 0 0 0
863 2 4.9220000000000006e+00 3.4100616299415996e+01 5.8475565693154410e+00 0 0 0
865 2 6.1524999999999990e+00 3.3390186793178160e+01 5.8475565693154410e+00 0 0 0
1116 2 4.9220000000000015e+00 3.2679757286940337e+01 8.8951765790031239e+00 0 0 0
1132 2 4.9220000000000006e+00 3.4100616299415996e+01 8.8951765790031239e+00 0 0 0
1099 2 1.2305000000000010e+00 3.4811045805653833e+01 8.8951765790031239e+00 0 0 0