
# Create simulation box and atoms

read_data data.ML_graphite_m500atm_240K
  orthogonal box = (0 0 1.84677) to (49.22 49.0196 26.0932)
  8 by 5 by 2 MPI processor grid
  reading atoms ...
  4055 atoms
  reading velocities ...
  4055 velocities
group water type 1
1295 atoms in group water
group graphite type 2
2760 atoms in group graphite

# Define potential

pair_style sw
pair_coeff * * MLC_e.sw mW C


# Fix graphite atoms in place

fix 5 graphite setforce 0.0 0.0 0.0
velocity graphite set 0.0 0.0 0.0


# Equilibration of molecular water

# Add velocity/set timestep

velocity	    water create ${TEMP} ${SEED} rot yes dist gaussian
velocity	    water create 240 ${SEED} rot yes dist gaussian
velocity	    water create 240 25164 rot yes dist gaussian
timestep	    5.0

# Define output

compute			1 water msd
compute			3 water temp
thermo	    	50
thermo_style	custom step temp press vol etotal ke pe c_1[4] c_3

# Neighbor lists

neigh_modify    delay 0 every 1 check yes

# Set fixes

fix             1 water momentum 10 linear 1 1 1 rescale
fix             2 water nve
fix             3 water temp/csvr ${TEMP} ${TEMP} 500.0 ${SEED}
fix             3 water temp/csvr 240 ${TEMP} 500.0 ${SEED}
fix             3 water temp/csvr 240 240 500.0 ${SEED}
fix             3 water temp/csvr 240 240 500.0 25164
fix             4 water press/berendsen z ${PRES} ${PRES} 1000.0 modulus 20000
fix             4 water press/berendsen z -500 ${PRES} 1000.0 modulus 20000
fix             4 water press/berendsen z -500 -500 1000.0 modulus 20000

# Run 0.5 ns equilibration

dump		    1 all atom 2000 ${DIR}/eq.${NAME}-${TEMP}.dump
dump		    1 all atom 2000 run_2/eq.${NAME}-${TEMP}.dump
dump		    1 all atom 2000 run_2/eq.het_freeze_2-${TEMP}.dump
dump		    1 all atom 2000 run_2/eq.het_freeze_2-240.dump

reset_timestep  0

run	            100000
Neighbor list info ...
  update every 1 steps, delay 0 steps, check yes
  max neighbors/atom: 2000, page size: 100000
  master list distance cutoff = 6.67472
  ghost atom cutoff = 6.67472
  binsize = 3.33736, bins = 15 15 8
  1 neighbor lists, perpetual/occasional/extra = 1 0 0
  (1) pair sw, perpetual
      attributes: full, newton on
      pair build: full/bin/atomonly
      stencil: full/bin/3d
      bin: standard
Per MPI rank memory allocation (min/avg/max) = 4.096 | 4.284 | 4.472 Mbytes
Step Temp Press Volume TotEng KinEng PotEng c_1[4] c_3 
       0    76.605821   -1210.2423    58500.543   -12658.119    925.72037   -13583.839            0          240 
      50    76.619753   -1533.3201    58490.706   -12666.508    925.88872   -13592.397   0.52661867    240.04365 
     100    77.978387   -1012.8789    58516.439   -12635.133    942.30673   -13577.439   0.83327624    244.30014 
     150    78.177565   -1007.8157    58522.913   -12623.191    944.71364   -13567.904    1.0455009    244.92415 
     200    74.958115   -896.93919    58516.001   -12666.333    905.80915   -13572.142    1.2797875    234.83787 
     250    76.886483    -1132.009    58487.135   -12671.356    929.11194   -13600.468    1.5029773    240.87929 
     300    76.004719   -1012.3716    58488.309   -12667.082    918.45652   -13585.538    1.6759683    238.11679 
     350    73.427817   -1139.0491    58443.299   -12665.676    887.31672   -13552.993    1.8033448    230.04356 
     400    76.624556   -850.33307    58459.429   -12651.365    925.94676   -13577.312    1.8812121    240.05869 
     450    75.511654    -1199.885    58429.301   -12679.013    912.49822   -13591.511    2.0175664    236.57206 
     500    74.692182   -1307.7662    58438.476    -12675.02    902.59557   -13577.616    2.1753138    234.00472 
     550    78.668571   -1128.1153    58443.155   -12684.444    950.64706   -13635.091    2.2748518    246.46243 
     600    73.314823   -1083.6192    58422.828   -12694.045    885.95127   -13579.996     2.508263    229.68956 
     650    74.093839   -1295.7301    58448.298    -12708.59    895.36506   -13603.955    2.6346581    232.13016 
     700    76.493929   -996.70374    58386.671   -12697.932    924.36823     -13622.3    2.7413712    239.64945 
     750    75.537028   -1065.4488    58405.004   -12664.519    912.80485   -13577.323    3.0275163    236.65155 
     800     75.89678   -1185.3107    58416.269   -12660.237    917.15217   -13577.389    3.2380144    237.77863 
     850    76.538717    -1349.291    58379.974   -12663.623    924.90946   -13588.532    3.5281681    239.78977 
     900    76.562662   -1071.5579    58329.423   -12662.396    925.19882   -13587.595    3.7583654    239.86478 
     950    78.567199    -995.3333    58330.519   -12670.686    949.42206   -13620.108    4.0158926    246.14484 
    1000    77.058209   -1011.5166     58372.29   -12643.227    931.18711   -13574.415     4.164631    241.41729 
    1050    76.936929   -1127.9208     58369.46   -12631.101    929.72154   -13560.822     4.271902    241.03733 
    1100     78.52883   -1328.2623    58308.046   -12632.478     948.9584   -13581.437    4.3804424    246.02463 
    1150    76.341762   -1293.9747    58265.294   -12622.295    922.52943   -13544.825    4.5239347    239.17272 
    1200    78.212204   -1333.5697    58177.333   -12639.362    945.13222   -13584.494    4.5507704    245.03267 
    1250    76.725657   -1295.7614    58159.943   -12654.842    927.16849   -13582.011     4.674482    240.37544 
    1300     77.47044   -989.05544    58189.185    -12641.97     936.1686   -13578.139      4.79368    242.70878 
    1350    78.451524   -840.89675    58205.024   -12659.126    948.02422    -13607.15    4.9219589    245.78244 
    1400    78.393067    -796.8941    58180.345   -12618.308    947.31781   -13565.626    5.1897571     245.5993 
    1450    81.113745   -946.83569    58185.255   -12637.886    980.19504   -13618.081    5.4236748    254.12297 
    1500    76.542859   -1204.5437    58163.554   -12636.893    924.95952   -13561.852    5.7438402    239.80274 
    1550    74.392456   -1116.9706    58153.961   -12616.297    898.97361   -13515.271    6.0443673     233.0657 
    1600    77.371444   -1035.2352    58182.078   -12619.292    934.97231   -13554.265      6.26109    242.39863 
    1650    77.167157   -1021.1181    58184.101   -12648.162    932.50366   -13580.666    6.4000555    241.75862 
    1700    75.868711   -1262.6178    58158.481   -12670.834    916.81298   -13587.647    6.4405158    237.69069 
    1750    75.779437   -1082.1763    58141.156   -12683.285    915.73418    -13599.02    6.5684872      237.411 
    1800    75.784947   -1092.7994    58105.931   -12682.121    915.80076   -13597.922    6.6996887    237.42827 
    1850    77.254454   -1335.7234    58095.173   -12643.618    933.55858   -13577.177    6.8763329    242.03212 
    1900    76.162866   -903.19749    58094.253   -12656.619     920.3676   -13576.987    7.0452934    238.61225 
    1950    79.195066   -887.44822    58117.643   -12646.852    957.00933   -13603.862    7.1765377     248.1119 
    2000    77.618013   -938.50561    58164.309   -12627.524     937.9519   -13565.475    7.3615572    243.17112 
    2050    80.442482   -1035.6989    58204.685   -12622.753    972.08336   -13594.837    7.4521401    252.01996 
    2100    75.277136   -1164.0516     58222.21     -12644.2    909.66427   -13553.864    7.5295606    235.83733 
    2150    76.722486   -937.07926    58249.531   -12633.777    927.13017   -13560.907    7.7072405     240.3655 
    2200    78.563749   -1056.2281    58305.399   -12632.321    949.38037   -13581.701    7.8110762    246.13403 
    2250    76.085197   -1425.0677    58328.728   -12657.692    919.42904   -13577.121    7.8648094    238.36893 
    2300    75.580671   -1045.1165     58287.03   -12655.389    913.33224   -13568.722    7.9899426    236.78828 
    2350    77.905914   -1134.8934    58291.954   -12641.684    941.43095   -13583.115    8.1358639    244.07309 
    2400    75.780261   -1500.6892    58286.977    -12681.91    915.74412   -13597.654    8.2351825    237.41358 
    2450    75.948804    -1155.632    58309.978   -12676.194    917.78083   -13593.974     8.439258    237.94162 
    2500     75.29132   -1077.5366    58287.078   -12699.998    909.83566   -13609.833    8.5068861    235.88177 
    2550    76.432945   -1384.4133    58313.879   -12699.672     923.6313   -13623.303    8.5955898    239.45839 
    2600    77.344257   -817.09712    58305.638   -12693.281    934.64377   -13627.924    8.7283322    242.31346 
    2650    76.164901   -1320.1033    58331.399   -12698.836     920.3922   -13619.228    8.8852659    238.61863 
    2700    76.640834   -946.67987    58353.177   -12704.446    926.14347    -13630.59      9.03573    240.10969 
    2750    79.163287   -1103.5841    58403.433   -12653.776     956.6253   -13610.402     9.138879    248.01234 
    2800    75.885373   -868.25164    58472.816   -12671.318    917.01433   -13588.332     9.240503    237.74289 
    2850    74.984752   -1215.8609    58483.952   -12660.353    906.13104   -13566.484    9.3294865    234.92132 
    2900     78.30267   -1188.0175    58516.318    -12623.69    946.22544   -13569.915     9.463108    245.31609 
    2950    76.891185   -1653.5629    58521.301   -12607.696    929.16876   -13536.865    9.6038353    240.89402 
    3000    77.395719   -1338.2329    58488.163   -12596.621    935.26565   -13531.887    9.6849198    242.47469 
    3050    75.993463   -1702.2781    58488.375   -12608.711     918.3205   -13527.032    9.6202244    238.08153 
    3100    76.116611    -1159.371    58470.644   -12650.804    919.80865   -13570.613    9.8615375    238.46734 
    3150    75.211874   -1289.6168    58476.074   -12676.979    908.87562   -13585.855     10.06879    235.63287 
    3200     74.77841   -1124.7289    58518.179   -12647.292    903.63756    -13550.93    10.261565    234.27486 
    3250    75.178255   -708.27694    58500.575   -12688.239    908.46936   -13596.708    10.390756    235.52755 
    3300    74.905053   -1261.3754    58503.264   -12709.374    905.16794   -13614.542    10.487674    234.67163 
    3350    75.074257    -1149.322    58546.523   -12694.942    907.21263   -13602.155    10.638072    235.20173 
    3400    76.165344   -1153.6461    58553.543    -12655.32    920.39755   -13575.717     10.75565    238.62002 
    3450    76.747432   -794.37266    58495.493   -12629.105    927.43162   -13556.536    10.892376    240.44365 
    3500    74.501131   -1192.3866    58508.702   -12668.804    900.28686   -13569.091     11.16072    233.40617 
    3550    74.484815   -1190.8346    58453.958   -12688.038    900.08969   -13588.128    11.267641    233.35505 
    3600    76.044073   -1439.1306    58466.349   -12673.629    918.93209   -13592.561    11.559476    238.24009 
    3650    75.975955   -1020.9951    58415.505   -12708.773    918.10894   -13626.882    11.736462    238.02668 
    3700    75.196904   -1323.8879    58397.813   -12661.967    908.69472   -13570.662    11.837402    235.58597 
    3750    77.506654   -1119.2253    58389.117   -12647.294    936.60622     -13583.9    12.006056    242.82224 
    3800    74.513341   -1104.7826    58380.384    -12642.66    900.43441   -13543.095    12.288741    233.44442 
    3850    75.551023   -985.46857    58406.844   -12645.076    912.97397    -13558.05    12.452714     236.6954 
    3900    78.575214   -1123.9041    58407.476   -12628.196    949.51892   -13577.715    12.736015    246.16995 
    3950    75.847873   -958.79793    58402.748   -12631.706    916.56116   -13548.267      12.9192    237.62541 
    4000     76.31628    -1025.486    58430.181    -12591.26     922.2215   -13513.482    13.264491    239.09289 
    4050     76.85641   -1090.7284    58513.803   -12637.109    928.74853   -13565.858    13.520026    240.78507 
    4100    76.406779   -935.84878    58528.252   -12625.632     923.3151   -13548.948    13.587859    239.37642 
    4150    77.312698   -1002.7171    58486.947   -12601.799    934.26241   -13536.061    13.730557    242.21459 
    4200    77.232552   -776.21335    58413.221   -12601.335    933.29391   -13534.629     13.93617     241.9635 
    4250    76.783425    -936.3905    58406.737   -12613.117    927.86656   -13540.984    14.129607    240.55642 
    4300    79.039826   -975.79932    58343.013    -12628.98    955.13338   -13584.113    14.426037    247.62555 
    4350    73.812043   -1172.3159    58352.849    -12634.45    891.95978    -13526.41    14.581169    231.24731 
    4400    79.778438   -1293.7672    58347.272   -12588.282    964.05892   -13552.341    14.747025    249.93956 
    4450    79.340373   -1215.1593    58321.768   -12599.466    958.76524   -13558.232    14.773788    248.56713 
    4500    80.028785   -1254.6833    58246.519   -12638.874    967.08416   -13605.958    14.844396    250.72388 
    4550    75.763939   -1277.9706     58151.12   -12645.828    915.54689   -13561.375    15.120407    237.36245 
    4600    77.346621   -651.84191    58147.501   -12625.395    934.67234   -13560.067     15.40977    242.32087 
    4650    74.473855   -954.05068    58184.029   -12639.532    899.95725   -13539.489    15.314614    233.32072 
    4700    75.927145   -929.11782     58193.01   -12638.802    917.51911   -13556.321    15.432269    237.87376 
    4750    76.297984   -781.96918    58221.528   -12634.189     922.0004    -13556.19    15.838433    239.03557 
    4800     76.18528   -1003.4984    58230.869   -12661.145    920.63846   -13581.783    16.028322    238.68248 
    4850    76.581075   -644.64388    58285.113   -12654.086    925.42133   -13579.507    16.054817    239.92247 
    4900     77.27474   -630.01635     58319.22   -12654.981    933.80371   -13588.785    16.338041    242.09567 
    4950    75.638134   -820.98562    58372.731   -12680.328    914.02664   -13594.355    16.565066    236.96831 
    5000    75.938953   -856.57568    58410.456   -12650.273    917.66179   -13567.934     16.94466    237.91075 
    5050    73.873908   -943.50426    58411.225    -12648.67    892.70737   -13541.377     17.03484    231.44113 
    5100    80.089908   -606.79502    58401.468   -12665.536    967.82278   -13633.359    17.051847    250.91537 
    5150    77.761631   -559.12371      58423.7   -12679.418    939.68741   -13619.105    17.128767    243.62106 
    5200    77.089679   -936.75474    58461.916   -12681.138     931.5674   -13612.705    17.283027    241.51589 
    5250    75.562864   -978.42075    58500.106    -12681.88    913.11706   -13594.997    17.478771     236.7325 
    5300    77.526682   -928.94924    58509.389   -12663.243    936.84823   -13600.092    17.628707    242.88498 
    5350    74.246367   -760.15999    58572.516   -12704.842    897.20824    -13602.05    17.951604    232.60802 
    5400    72.944635   -1213.5022    58603.226    -12703.64    881.47785   -13585.118    18.089574    228.52979 
    5450    73.175454   -1232.4597    58584.717   -12735.679    884.26711   -13619.946    18.172283    229.25293 
    5500    75.857094   -1208.1519    58577.544   -12675.053     916.6726   -13591.725    18.398322     237.6543 
    5550    77.106112   -976.42571    58607.538   -12696.068    931.76598   -13627.834    18.591308    241.56737 
    5600    76.075544   -990.37832    58567.538   -12671.926    919.31239   -13591.238    18.645269    238.33868 
    5650    74.425057   -1313.8681    58512.727   -12673.625    899.36757   -13572.992    18.860154    233.16784 
    5700    77.417174   -926.11591    58500.835   -12658.161    935.52491   -13593.686    18.822962     242.5419 
    5750    78.740846   -1093.7038    58556.183   -12641.516    951.52044   -13593.036    19.075401    246.68886 
    5800    74.953707   -1014.7717    58579.196    -12655.08    905.75589   -13560.836    19.184467    234.82406 
    5850    75.911037   -1021.7857    58558.175   -12668.342    917.32445   -13585.667    19.348908     237.8233 
    5900    75.813625   -1074.9993    58575.247   -12682.506     916.1473   -13598.653    19.580716    237.51811 
    5950    74.421739   -945.58492     58586.33   -12658.637    899.32748   -13557.965    19.670677    233.15744 
    6000    76.562141     -1026.61    58618.073   -12642.975    925.19252   -13568.168    19.783001    239.86315 
    6050    77.339421   -1144.3432    58612.783   -12665.343    934.58534   -13599.928    19.859759    242.29831 
    6100    76.176304   -1481.8174     58532.91   -12647.261    920.52999   -13567.791    20.118189    238.65435 
    6150    75.167928   -1151.7734    58452.106   -12671.348    908.34457   -13579.693     20.38416    235.49519 
    6200    76.975776   -1332.5839    58378.437   -12681.956    930.19098   -13612.147    20.429753    241.15904 
    6250    75.559074   -956.61024    58385.353    -12678.97    913.07126   -13592.041    20.795383    236.72062 
    6300    76.397819   -1155.6796    58378.776   -12675.831    923.20682   -13599.038    20.867821    239.34834 
    6350    78.588313   -967.35036    58365.348   -12669.687     949.6772   -13619.364    21.185732    246.21099 
    6400      79.4906   -1589.5991    58350.644   -12680.241    960.58063   -13640.822     21.51293    249.03779 
    6450    77.228488   -1265.7429    58328.247   -12651.509    933.24479   -13584.754    21.438026    241.95076 
    6500    75.156819   -1075.9852     58336.01    -12658.66    908.21032    -13566.87    21.647821    235.46039 
    6550     74.60761   -1252.1824    58306.897   -12708.493    901.57358   -13610.066    21.681723    233.73976 
    6600    76.283688   -1465.0387    58263.517   -12694.868    921.82764   -13616.696    21.788793    238.99078 
    6650    77.020543   -1172.2432    58221.851   -12656.717    930.73195   -13587.449     21.98548    241.29929 
    6700    73.833324    -1074.101    58174.061   -12663.459    892.21694   -13555.676    21.976736    231.31398 
    6750    77.185182   -1189.5347    58131.493   -12671.953    932.72148   -13604.675    21.975934    241.81509 
    6800    76.734968    -905.9748    58137.404   -12671.553    927.28101   -13598.834    21.882021    240.40461 
    6850    77.808613   -1172.0716    58136.531   -12662.118    940.25515   -13602.373    21.990351    243.76825 
    6900    78.946084   -968.48447    58163.849   -12654.016    954.00058   -13608.016    22.221201    247.33186 
    6950    77.973187   -732.24553    58216.652   -12660.044     942.2439   -13602.288    22.601139    244.28385 
    7000    76.046551   -1278.4973    58304.517    -12680.63    918.96203   -13599.592     22.79025    238.24785 
    7050    78.642008   -930.71648    58317.648   -12673.908    950.32607   -13624.234    23.108839    246.37921 
    7100    77.396525   -1025.6691    58323.402   -12656.217     935.2754   -13591.493    23.127899    242.47721 
    7150    78.578459   -1045.7601    58286.441   -12659.917    949.55812   -13609.475    23.237135    246.18012 
    7200    77.567657   -1198.1882    58258.214   -12662.324    937.34339   -13599.667    23.155492    243.01336 
    7250    76.339011   -1092.0028    58254.878    -12627.65    922.49618   -13550.146     23.28076     239.1641 
    7300    76.809902   -1100.9514    58231.563   -12619.416    928.18652   -13547.602    23.677085    240.63937 
    7350    79.220666   -1105.7011    58217.687   -12635.328    957.31869   -13592.647    23.959559     248.1921 
    7400    76.248477   -507.99881    58248.335   -12650.841    921.40215   -13572.243    23.888203    238.88047 
    7450    77.722357   -1124.4881     58226.38   -12669.267    939.21281    -13608.48    24.244884    243.49802 
    7500    75.604644   -672.06429    58211.344   -12710.229    913.62194   -13623.851    24.581184    236.86339 
    7550    73.605993   -925.36681    58222.922   -12712.457    889.46983   -13601.927    24.526766    230.60177 
    7600    75.057423   -604.76541    58308.527   -12700.993     907.0092   -13608.002    24.580812    235.14899 
    7650    73.403657   -1339.1399    58315.701   -12719.222    887.02476   -13606.247     24.51113    229.96787 
    7700    71.712007   -967.87487    58300.604   -12766.507    866.58252   -13633.089     24.48866    224.66807 
    7750    73.048256   -1093.5639    58323.565   -12754.244    882.73003   -13636.974     24.79854    228.85443 
    7800    71.945095   -860.22555    58290.114    -12748.96     869.3992   -13618.359    24.810585    225.39831 
    7850     72.21148   -944.56024    58294.416   -12754.839    872.61826   -13627.457    24.836029    226.23288 
    7900    72.930928   -1151.3124    58275.344   -12736.145    881.31221   -13617.458    24.943478    228.48685 
    7950    74.712081   -968.34017    58298.285   -12724.809    902.83603   -13627.645    24.997825    234.06706 
    8000    75.213865   -688.28922    58336.517   -12728.888    908.89969   -13637.788    25.144388    235.63911 
    8050    74.461613   -1090.8283    58368.229   -12738.635    899.80931   -13638.445    25.474896    233.28236 
    8100    73.652263   -1182.9254    58371.397   -12705.882    890.02897   -13595.911    25.733271    230.74674 
    8150    74.121565   -1215.1213    58368.244    -12721.17     895.7001    -13616.87    26.238311    232.21702 
    8200    78.815674   -1005.4355    58344.561   -12690.105    952.42467    -13642.53    26.406803    246.92329 
    8250    76.720292   -983.46431    58330.146   -12677.355    927.10366   -13604.459     26.57039    240.35863 
    8300    75.500608   -1407.2621    58296.275   -12706.141    912.36474   -13618.506    26.830081    236.53745 
    8350    76.539914   -1272.4843    58256.786   -12700.746    924.92393    -13625.67    26.626002    239.79352 
    8400    75.563267   -1292.7636    58238.173   -12671.784    913.12193   -13584.906    26.669013    236.73376 
    8450    76.708813   -1155.3111    58244.811   -12656.722    926.96494   -13583.687    26.781572    240.32267 
    8500     76.11055   -1221.3883    58268.846   -12656.447     919.7354   -13576.183    26.938657    238.44835 
    8550    75.343097   -999.57738    58239.143   -12665.938    910.46135     -13576.4    27.280675    236.04398 
    8600    77.033431   -782.63172     58342.43   -12663.309    930.88769   -13594.197    27.238848    241.33967 
    8650    77.630812   -1343.2503    58364.748   -12661.472    938.10657   -13599.578    27.356577    243.21122 
    8700    72.919775   -1068.4236    58305.798   -12673.697    881.17744   -13554.874    27.557782    228.45191 
    8750    76.750559   -1443.1372    58309.755   -12661.578    927.46941   -13589.048    27.735057    240.45345 
    8800    74.960291   -989.10669    58282.918   -12685.593    905.83544   -13591.428     27.95002    234.84468 
    8850    73.558565   -1116.7522     58303.25   -12687.133    888.89671   -13576.029    28.216332    230.45319 
    8900    75.974008   -1004.4679    58306.521   -12699.463     918.0854   -13617.549    28.328689    238.02058 
    8950    76.782693   -817.89948    58280.282   -12688.411    927.85772   -13616.268    28.613384    240.55412 
    9000    75.421375   -865.98489    58320.617   -12681.547    911.40728   -13592.954    29.170125    236.28922 
    9050    78.180804   -651.44016    58324.798   -12668.047    944.75278   -13612.799    29.254051     244.9343 
    9100    72.876877   -864.10189    58389.942   -12674.533    880.65904   -13555.192    29.641739    228.31751 
    9150    74.917167   -1297.1527    58393.332   -12693.118    905.31432   -13598.433    29.785879    234.70958 
    9200    76.992624   -1016.6522    58433.682   -12694.473    930.39457   -13624.868    29.982751    241.21182 
    9250    76.013208   -586.03191     58496.77    -12668.48    918.55911   -13587.039    30.186263    238.14339 
    9300    78.957027   -600.03151    58590.151   -12673.193    954.13282   -13627.326    30.448981    247.36614 
    9350    78.621162   -753.73213    58641.337   -12665.823    950.07416   -13615.897    30.612972     246.3139 
    9400    77.845364   -973.25451    58688.573   -12655.359    940.69925   -13596.058     31.03041    243.88339 
    9450    78.294614   -1056.0972    58707.937   -12609.003    946.12808   -13555.131    31.353437    245.29085 
    9500    77.022155   -816.33064    58643.149   -12623.468    930.75142    -13554.22      31.4733    241.30434 
    9550    82.095446   -557.64843    58632.553   -12620.696    992.05812   -13612.754    31.507239    257.19856 
    9600    79.597609   -598.16053    58614.315   -12603.228    961.87375   -13565.101    32.092094    249.37304 
    9650    79.207292   -705.17043    58662.582   -12614.018    957.15707   -13571.175    32.580713     248.1502 
    9700    78.294077   -1043.1093    58619.024   -12613.445     946.1216   -13559.567    32.819581    245.28917 
    9750    80.330875   -935.25872    58602.325   -12631.997    970.73467   -13602.732     33.07042     251.6703 
    9800    79.045075   -1128.9944    58551.211     -12634.8    955.19681   -13589.997    33.187867    247.64199 
    9850    77.749384   -918.98812    58573.586   -12628.755    939.53941   -13568.294    33.172479    243.58269 
    9900    76.723513   -1035.0942    58570.424     -12636.2    927.14258   -13563.343    33.074661    240.36872 
    9950    79.224388   -1027.5437    58560.032   -12640.638    957.36366   -13598.001    33.064313    248.20376 
   10000    76.958765   -1027.2498    58460.345   -12680.113    929.98541   -13610.099    33.120574    241.10574 
   10050    75.336869   -1050.9729    58436.025   -12702.762    910.38609   -13613.148    33.264428    236.02447 
   10100     77.79256    -981.2099    58458.524    -12711.78    940.06116   -13651.841    33.522976    243.71796 
   10150    76.633822   -895.25633    58504.784   -12718.878    926.05873   -13644.937    33.947089    240.08772 
   10200    76.109487   -1097.0217    58536.814   -12700.127    919.72256    -13619.85    34.214717    238.44502 
   10250    75.217555   -1031.0933    58502.668   -12696.052    908.94427   -13604.997    34.110808    235.65067 
   10300    74.981393    -1191.645    58460.736   -12706.695    906.09045   -13612.786    34.085613    234.91079 
   10350    75.912372   -1214.3639    58400.428   -12709.567    917.34059   -13626.908    34.065685    237.82748 
   10400    74.890481   -991.20953    58334.326    -12693.87    904.99185   -13598.862     34.20911    234.62597 
   10450     73.91311    -1098.388    58317.872   -12685.938     893.1811   -13579.119    34.709551    231.56395 
   10500    78.646767   -1074.4242    58338.622   -12677.216    950.38357     -13627.6    34.831403    246.39412 
   10550    76.504966   -916.04913    58280.905   -12661.242    924.50161   -13585.744     35.09434    239.68403 
   10600    77.586955   -615.77507    58240.376   -12670.471    937.57658   -13608.048    35.277998    243.07381 
   10650     79.47119   -890.42604    58261.609   -12627.034    960.34607    -13587.38    35.406881    248.97698 
   10700    77.162223    -762.0365    58302.422   -12614.074    932.44404   -13546.518     35.58886    241.74316 
   10750    77.179656   -1372.0357    58292.034   -12631.546    932.65471   -13564.201    35.626404    241.79778 
   10800    75.876692   -800.28199    58248.191   -12644.102    916.90942   -13561.012    35.992894     237.7157 
   10850    78.143528   -992.88381    58266.895   -12640.663    944.30233   -13584.965    36.122824    244.81751 
   10900    79.510143   -901.39822    58281.392   -12626.505    960.81678   -13587.322    36.138496    249.09901 
   10950    76.060159    -1347.921    58276.836    -12677.82    919.12648   -13596.946    36.151257    238.29048 
   11000    74.267308   -1148.3137    58273.745   -12702.086    897.46129   -13599.547    36.342752    232.67362 
   11050    75.423395   -937.45117    58263.745    -12702.01    911.43169   -13613.442    36.528824    236.29555 
   11100    73.741487   -1101.4425    58253.553   -12713.064    891.10716   -13604.171    36.482019    231.02626 
   11150    75.154548   -1342.4752    58248.825   -12688.809    908.18288   -13596.992    36.541847    235.45327 
   11200    75.931936   -1165.9479    58208.152     -12693.7      917.577   -13611.277    36.567351    237.88877 
   11250    79.592162   -1024.2307    58231.128   -12689.174    961.80791   -13650.982    36.722481    249.35597 
   11300    79.638155   -898.32642    58233.417   -12644.212    962.36371   -13606.576      36.8888    249.50006 
   11350    74.880861   -988.45959    58236.117   -12652.336     904.8756   -13557.212    36.893677    234.59584 
   11400    76.397072    -855.8888    58312.161   -12666.591     923.1978   -13589.789    37.183604      239.346 
   11450    75.935992   -1468.1141    58365.263   -12686.589    917.62602   -13604.215    37.474609    237.90148 
   11500     76.58406   -729.64198    58320.219   -12686.112     925.4574   -13611.569    37.607082    239.93182 
   11550    77.319384   -616.63038    58324.738   -12667.181    934.34321   -13601.524    37.813431    242.23554 
   11600    76.222447   -652.29824    58378.984   -12659.058     921.0876   -13580.145    37.918089    238.79892 
   11650    74.891182   -1074.3552    58381.938   -12662.526    905.00031   -13567.527    38.259627    234.62817 
   11700    78.586676   -961.46442    58368.361   -12653.742    949.65742     -13603.4    38.519619    246.20586 
   11750    76.730867   -1207.5909    58377.606   -12657.432    927.23145   -13584.664    38.731376    240.39176 
   11800    77.020807   -1339.6845    58396.052   -12677.737    930.73514   -13608.472    38.840101    241.30012 
   11850     77.17726   -753.61359    58379.783   -12651.902    932.62574   -13584.528    38.851553    241.79027 
   11900    78.304375   -1337.0757    58318.929   -12631.162    946.24604   -13577.408    38.790478    245.32144 
   11950    82.290693   -1067.6436    58293.165    -12642.51    994.41751   -13636.928    38.683282    257.81025 
   12000    78.579349   -948.85108    58316.787   -12669.099    949.56888   -13618.668    38.915783    246.18291 
   12050    78.038342   -950.67749    58346.802   -12703.867    943.03124   -13646.898    39.083587    244.48797 
   12100    72.992621   -599.81977     58405.33   -12702.117    882.05771   -13584.175    39.051139    228.68013 
   12150    72.610389   -1096.9842    58435.549   -12677.825    877.43874   -13555.264    39.067961    227.48262 
   12200    75.055969   -897.37464    58445.289   -12672.749    906.99163   -13579.741    38.986749    235.14443 
   12250    76.519368   -1165.2081    58413.309   -12701.811    924.67564   -13626.486    39.294727    239.72915 
   12300    74.895749   -972.45778    58454.539   -12679.354    905.05551    -13584.41    39.493653    234.64248 
   12350    75.070827   -1059.6002    58496.136   -12663.194    907.17119   -13570.365     39.97418    235.19098 
   12400    78.551923   -1268.5347    58473.665   -12672.201    949.23745   -13621.438    40.303144    246.09698 
   12450     76.59723   -1378.2463    58408.527   -12649.329    925.61655   -13574.946    40.478974    239.97308 
   12500    75.487535   -1028.8519    58408.459   -12642.075    912.20677   -13554.282    40.526548     236.4965 
   12550    74.783076   -1195.5815    58375.886   -12659.811    903.69394   -13563.505    40.834835    234.28948 
   12600    78.571795   -1043.4853    58352.108   -12644.081    949.47759   -13593.559     40.90211    246.15924 
   12650    75.466439   -1201.0722    58317.114   -12662.736    911.95184   -13574.688    41.268975    236.43041 
   12700    77.653087   -645.71762    58318.767   -12638.923    938.37574   -13577.298    41.813253      243.281 
   12750    76.107618   -1021.7634    58311.276   -12677.916    919.69998   -13597.616    41.983445    238.43917 
   12800     74.26306   -859.50335    58312.423   -12698.851    897.40996   -13596.261    42.282189    232.66031 
   12850    77.032062   -995.39613    58349.695   -12694.307    930.87114   -13625.178    42.404648    241.33538 
   12900    78.019633   -900.23507    58386.575   -12683.299    942.80515   -13626.105    42.651491    244.42936 
   12950    76.375514   -942.68716    58379.089   -12649.786    922.93729   -13572.723    42.596345    239.27847 
   13000    77.806583   -1283.5942    58430.382   -12627.066    940.23061   -13567.297    42.645432    243.76189 
   13050    78.428049   -1086.4308    58449.873   -12607.879    947.74053   -13555.619    42.951367    245.70889 
   13100    79.394162    -906.5713    58436.469   -12604.934    959.41524   -13564.349    43.068192    248.73565 
   13150    81.236013   -1260.6693    58463.783   -12603.408    981.67255   -13585.081    42.827196    254.50603 
   13200    74.931601   -901.43245    58490.271   -12623.218    905.48875   -13528.707    43.130355     234.7548 
   13250    78.472274   -1149.7533    58508.369   -12609.564    948.27496   -13557.839    43.101998    245.84745 
   13300    78.931625   -662.08482    58517.637   -12584.896    953.82585   -13538.722    43.243818    247.28656 
   13350     78.35421   -1187.2841    58589.811   -12597.817    946.84825   -13544.666    43.387099    245.47756 
   13400     76.58294    -897.5402    58654.967   -12652.335    925.44387   -13577.779    43.460947    239.92832 
   13450    79.053299   -1375.3417    58660.395   -12630.484    955.29618    -13585.78    43.442802    247.66775 
   13500    76.692898   -894.17337    58612.525    -12616.34    926.77262   -13543.112    43.794639     240.2728 
   13550     78.69375   -1542.2361     58590.21   -12670.098    950.95132   -13621.049    43.899977    246.54132 
   13600    76.355634   -1073.3653     58615.92   -12649.434    922.69705   -13572.131    44.178584    239.21618 
   13650    78.129424   -1177.3633    58620.465   -12629.585     944.1319   -13573.717    44.435848    244.77333 
   13700    78.661105   -1189.7378    58617.664   -12640.322    950.55683   -13590.879      44.7092    246.43904 
   13750    74.963858   -1245.6259    58590.814   -12646.195    905.87854   -13552.073    44.865545    234.85586 
   13800    79.031273   -1107.5732    58615.868   -12614.921    955.03002   -13569.951    44.824957    247.59875 
   13850    75.515406   -1278.5192    58596.941   -12631.492    912.54357   -13544.036    44.988958    236.58381 
   13900    78.477873   -1028.5899    58574.614   -12629.787    948.34263    -13578.13    45.109921    245.86499 
   13950    73.648066   -1137.7725    58549.591   -12650.701    889.97825   -13540.679    45.506826    230.73359 
   14000    75.144494   -800.17464    58565.963   -12665.034    908.06139   -13573.096    45.493539    235.42178 
   14050    73.852272   -1427.1291    58573.793   -12690.695    892.44591   -13583.141     45.77239    231.37335 
   14100    75.455187     -1286.67    58513.254   -12696.501    911.81587   -13608.317    46.385658    236.39515 
   14150    76.970397   -1416.3438    58488.232   -12685.567    930.12598   -13615.693    46.531314    241.14219 
   14200    77.293715   -948.38998    58441.328   -12684.785    934.03302   -13618.818    46.449987    242.15512 
   14250     75.64083   -915.04388    58482.222   -12687.682    914.05922   -13601.741    46.683783    236.97676 
   14300    75.042339   -780.29636     58494.22   -12716.643    906.82693    -13623.47    46.317816    235.10173 
   14350    77.313863   -1136.6591    58527.546   -12717.271    934.27648   -13651.547    46.889057    242.21824 
   14400    76.194367   -1069.1615    58538.654   -12728.287    920.74827   -13649.035    47.421524    238.71095 
   14450    75.712962    -1015.906    58521.568   -12721.288    914.93088   -13636.219    47.672578    237.20274 
   14500    77.100896   -1170.7761    58516.379    -12737.13    931.70295   -13668.833    47.607176    241.55103 
   14550    73.991519   -1011.7296    58501.713   -12745.453    894.12861   -13639.582     47.77709     231.8096 
   14600    75.869825   -990.81413    58574.937    -12733.26    916.82644   -13650.087    47.658552    237.69418 
   14650    74.226732   -551.88844    58624.297   -12739.524    896.97096   -13636.495    47.931845     232.5465 
   14700    77.006824   -682.60032    58701.523   -12715.744    930.56616   -13646.311    48.243774    241.25631 
   14750    78.435376   -424.70475    58797.618   -12709.484    947.82908   -13657.313    48.460202    245.73185 
   14800    74.456432   -1419.6248    58822.687   -12737.265    899.74672   -13637.012    48.598844    233.26613 
   14850    76.515337   -967.67029    58812.254   -12726.539    924.62694   -13651.166    48.577433    239.71652 
   14900    75.146769   -1219.9752     58783.02   -12745.999    908.08889   -13654.088    48.907796     235.4289 
   14950    73.369771    -633.4747    58754.017   -12742.815    886.61528   -13629.431    49.023057    229.86171 
   15000    77.114596   -1150.5268    58742.168   -12758.013     931.8685   -13689.882    49.132047    241.59395 
   15050    76.979535   -1261.6579    58727.469   -12704.178     930.2364   -13634.414    49.435787    241.17081 
   15100    76.935428   -1272.9762    58661.702   -12717.171    929.70341   -13646.874    49.614899    241.03263 
   15150    74.036689   -1283.6565    58616.529   -12690.513    894.67444   -13585.187     49.42856    231.95111 
   15200    78.128552   -1103.3722     58565.02   -12672.922    944.12135   -13617.043    49.476726    244.77059 
   15250    79.010426   -996.50415    58573.697   -12665.356     954.7781   -13620.134    49.716582    247.53344 
   15300     76.68035   -629.95092    58605.127   -12673.963    926.62099   -13600.584    49.476702    240.23349 
   15350     76.61159   -1321.1579    58686.944   -12719.676    925.79008   -13645.466    49.573415    240.01807 
   15400    72.484108    -1268.774    58682.215   -12746.013    875.91274   -13621.925     49.58514      227.087 
   15450    74.447408   -1207.5255    58707.006   -12718.465    899.63767   -13618.103    49.995784    233.23786 
   15500    76.687958   -1021.7729    58705.058   -12710.474    926.71293   -13637.187     50.27697    240.25733 
   15550    76.122519   -1386.3005     58685.33   -12715.668    919.88004   -13635.548    50.314674    238.48585 
   15600    77.886327   -1431.2146    58674.065   -12674.935    941.19425   -13616.129    50.456392    244.01172 
   15650    77.434922   -1543.8763    58642.908   -12678.095    935.73939   -13613.835    50.277314    242.59751 
   15700    77.265008   -1182.2623    58605.421   -12702.312    933.68611   -13635.998    50.412916    242.06518 
   15750    75.919164   -1143.7933    58596.915   -12707.131    917.42266   -13624.554    50.420778    237.84876 
   15800    76.089142   -1192.4849    58551.382   -12731.236    919.47672   -13650.713    50.881462    238.38129 
   15850    74.190023   -799.55454    58512.371   -12736.827    896.52737   -13633.355     51.04965    232.43149 
   15900    75.989195   -940.72654    58544.029    -12724.18    918.26892   -13642.449    51.200111    238.06816 
   15950    76.146981   -980.39936    58583.375   -12756.419    920.17565   -13676.594    51.253008    238.56249 
   16000    74.917715   -639.09172    58554.248   -12747.394    905.32094   -13652.715    51.073435    234.71129 
   16050    76.628668   -991.93767    58557.076   -12728.556    925.99645   -13654.553    50.774426    240.07158 
   16100    76.754247   -972.36554    58577.243   -12706.385    927.51398   -13633.899    50.736333    240.46501 
   16150    77.799017   -890.87177    58541.875   -12702.319    940.13919   -13642.459    50.805885    243.73819 
   16200    79.566227   -685.13907    58552.226    -12690.33    961.49451   -13651.824    51.211719    249.27472 
   16250    78.250416   -939.32819    58624.986   -12676.624    945.59398   -13622.218    51.370816    245.15238 
   16300    77.157258    -846.6961    58662.256   -12679.861    932.38404   -13612.245    51.617998    241.72761 
   16350    77.989965   -722.93521    58666.308   -12694.521    942.44665   -13636.967    51.690339    244.33641 
   16400    77.434095   -965.73876    58657.849   -12681.269    935.72939   -13616.999    52.182867    242.59491 
   16450     77.23146    -1102.139    58724.584   -12684.854    933.28072   -13618.135    52.641094    241.96008 
   16500    74.718152   -1135.4225    58750.373   -12701.958    902.90938   -13604.867    52.746363    234.08608 
   16550    78.339356   -829.02066    58793.474   -12680.917    946.66875   -13627.586     52.84521    245.43103 
   16600    81.281344   -1030.4637     58812.86   -12681.319    982.22034   -13663.539    53.116883    254.64804 
   16650    74.065966   -1159.6295     58804.13   -12727.326    895.02824   -13622.354    53.345096    232.04283 
   16700    74.674841   -987.91829    58816.911   -12735.518      902.386   -13637.904    53.491566    233.95039 
   16750    77.797471   -1274.3664    58822.585   -12710.652    940.12051   -13650.772    54.007511    243.73334 
   16800    73.478717   -1254.8513    58807.947   -12758.258     887.9318    -13646.19     53.82234    230.20303 
   16850     72.58992   -1384.1245    58773.637   -12750.956     877.1914   -13628.148    53.914038     227.4185 
   16900    75.517832   -1279.4811    58764.934   -12718.553    912.57288   -13631.126    54.056739    236.59142 
   16950    79.659029   -876.23935    58771.335   -12706.149    962.61595   -13668.765    54.291592    249.56546 
   17000    77.328902   -1175.6196    58810.656   -12685.717    934.45823   -13620.175     54.71838    242.26536 
   17050    78.157922   -847.61608    58770.012   -12684.284    944.47628    -13628.76    54.664501    244.86261 
   17100    75.963884   -1233.9302    58751.626   -12691.987    917.96307    -13609.95    54.799641    237.98886 
   17150     76.11283   -712.69654    58690.235   -12718.823    919.76296   -13638.586    55.180341     238.4555 
   17200     80.05886   -1199.6069    58749.318   -12695.532     967.4476    -13662.98    55.542722     250.8181 
   17250    75.833897   -1123.8539    58792.397    -12685.45    916.39227   -13601.842    55.473926    237.58162 
   17300    77.082946   -1278.8147    58755.572   -12705.556    931.48603   -13637.042    55.446853    241.49479 
   17350    76.039138    -908.7151    58720.672   -12730.421    918.87245   -13649.294    55.140318    238.22462 
   17400    78.002206   -1029.4884    58747.141   -12727.304    942.59457   -13669.899    55.184466    244.37476 
   17450    76.092495   -806.44037     58718.67   -12739.697    919.51723   -13659.214    55.258925    238.39179 
   17500    75.679697   -1126.0935    58685.953   -12749.503    914.52889   -13664.032    55.250982    237.09853 
   17550    77.085866   -1097.6276    58662.634   -12739.737    931.52132   -13671.258    55.481569    241.50394 
   17600    76.109441   -1282.4048    58642.883    -12753.52    919.72201   -13673.242    55.417794    238.44488 
   17650    76.864814   -1202.7327    58589.536   -12759.589    928.85009   -13688.439    55.569607     240.8114 
   17700    75.844446   -1555.7588    58599.428    -12741.61    916.51975    -13658.13    55.753226    237.61467 
   17750     76.27755   -1148.0889    58576.227   -12749.881    921.75347   -13671.635    55.669317    238.97155 
   17800    79.091243   -1304.5866    58556.012   -12725.294    955.75472   -13681.048    55.766831    247.78663 
   17850    75.999627   -661.52265    58562.925   -12759.294    918.39499   -13677.689    55.998521    238.10084 
   17900    77.067962   -1003.6988     58604.09   -12734.761    931.30497   -13666.066    56.405903    241.44785 
   17950    77.133525   -1176.7403     58620.64   -12724.264    932.09725   -13656.361    56.532436    241.65326 
   18000    77.045304   -1510.5766    58634.477   -12728.691    931.03117   -13659.722    56.786296    241.37686 
   18050    77.545078   -1188.7032    58583.801   -12733.178    937.07053   -13670.248    57.057444    242.94262 
   18100    76.610692   -1170.0243    58591.726   -12735.506    925.77923   -13661.285    57.360473    240.01526 
   18150     77.15102   -1105.4156    58575.802   -12752.406    932.30866   -13684.715     57.89052    241.70806 
   18200    76.766804   -1214.0173    58602.175   -12747.204    927.66572   -13674.869    58.289286    240.50435 
   18250    79.651168   -889.77801    58625.763   -12729.885    962.52096   -13692.406    58.498495    249.54083 
   18300    74.398281   -1062.8271    58652.639   -12757.054      899.044   -13656.098    58.705738    233.08395 
   18350    76.518784   -1146.6894    58637.392    -12767.04    924.66859   -13691.709      58.6707    239.72732 
   18400    76.452493   -1236.3478    58632.611   -12789.123    923.86752   -13712.991    58.586338    239.51963 
   18450    75.100123   -874.10038    58596.793   -12780.291     907.5252   -13687.816    58.632149    235.28276 
   18500    79.430307   -1304.4108    58623.616   -12766.317    959.85202   -13726.169    58.595349    248.84889 
   18550    74.831087   -991.41076    58644.866   -12752.465    904.27412   -13656.739    58.746656     234.4399 
   18600    76.132234   -1220.2366     58671.62   -12767.041    919.99744   -13687.038    58.666365    238.51629 
   18650    76.748915   -1090.4613    58667.933   -12762.152    927.44954   -13689.601    58.620025     240.4483 
   18700    73.428817   -1078.5375    58660.314    -12740.81     887.3288   -13628.138    58.539753     230.0467 
   18750    77.360585   -1214.4647    58679.663   -12761.319    934.84109   -13696.161    58.703595    242.36462 
   18800    73.452653   -1048.7648    58712.671   -12797.655    887.61683   -13685.272    58.570285    230.12137 
   18850     74.65395   -1068.9389     58717.95   -12793.795    902.13356   -13695.928    58.567914    233.88494 
   18900    75.067212   -1294.1937    58648.821   -12790.811    907.12749   -13697.939     58.73287    235.17966 
   18950    75.505513   -875.49313    58629.351   -12790.609    912.42401   -13703.033    58.931685    236.55282 
   19000    76.864872   -1194.5941     58615.52   -12776.122    928.85079   -13704.972    59.283366    240.81158 
   19050    76.239472   -937.69789     58614.32   -12784.816    921.29333    -13706.11    59.889409    238.85226 
   19100    76.928929    -1137.427    58621.254   -12784.239    929.62486   -13713.864    60.189092    241.01227 
   19150    76.958241   -1147.8263    58606.999   -12796.583    929.97908   -13726.562    60.206845     241.1041 
   19200    74.750985   -1161.8992    58613.698   -12831.371    903.30615   -13734.678    60.398025    234.18894 
   19250    75.745876   -1057.1205    58602.929   -12813.106    915.32862   -13728.435    60.521697    237.30586 
   19300    77.339287   -1149.4049    58597.502   -12790.057    934.58372   -13724.641    60.566613    242.29789 
   19350    75.687823   -1626.1424    58530.711    -12770.25    914.62709   -13684.877    60.276992    237.12398 
   19400    76.132627   -948.28942    58504.654   -12766.337     920.0022    -13686.34    60.127547    238.51752 
   19450    76.608139    -1376.958    58475.986   -12781.817    925.74837   -13707.566    60.065998    240.00726 
   19500    75.933717   -822.80838    58409.353   -12783.087    917.59852   -13700.686    59.908845    237.89435 
   19550    77.737542   -1079.2314    58440.472   -12789.629    939.39631   -13729.025     60.00043    243.54559 
   19600    78.207731   -1085.5855    58421.608   -12764.526    945.07818   -13709.604    60.107375    245.01866 
   19650    76.215809   -1151.7193     58437.33   -12753.128    921.00737   -13674.135    60.252406    238.77812 
   19700    78.890395    -983.1513     58402.72   -12735.302    953.32762   -13688.629    60.420246    247.15739 
   19750    75.526382   -1335.7693    58407.671   -12764.371     912.6762   -13677.048    60.477171     236.6182 
   19800    74.235885   -1218.6247    58405.968   -12754.868    897.08157    -13651.95    60.556958    232.57518 
   19850    74.472079   -1418.6893     58383.81   -12741.628     899.9358   -13641.564     60.63638    233.31515 
   19900    75.311729   -1030.8208    58345.346   -12739.513     910.0823   -13649.596    60.370811    235.94571 
   19950    77.238404   -1175.8677    58405.332    -12723.71    933.36463   -13657.075    60.112835    241.98183 
   20000    79.127562   -1212.4468     58433.04   -12714.404     956.1936   -13670.598    59.986574    247.90041 
   20050    75.864592   -1153.4028    58430.069   -12745.263     916.7632   -13662.027    59.761061    237.67779 
   20100     76.48141   -923.79474    58418.657   -12760.283    924.21696     -13684.5    60.009745    239.61023 
   20150    76.717026   -1142.0037    58361.766   -12756.522    927.06419   -13683.586    60.068315     240.3484 
   20200       76.201   -724.38133    58409.744   -12737.163    920.82842   -13657.992    60.290947    238.73173 
   20250    73.787917   -919.47492    58485.467   -12735.792    891.66823    -13627.46    60.631274    231.17173 
   20300    77.403764   -948.13827     58557.93   -12721.877    935.36287    -13657.24    60.649761    242.49989 
   20350    76.915852   -1015.0235    58636.156   -12726.618    929.46685   -13656.085    60.648298     240.9713 
   20400    75.914446    -1101.953    58669.596   -12756.152    917.36564   -13673.517    60.869832    237.83397 
   20450    73.546037    -1313.842    58668.546   -12769.762    888.74531   -13658.507    61.257375    230.41394 
   20500    75.570708   -1129.1665    58698.875   -12736.717    913.21185   -13649.929    61.608617    236.75707 
   20550    76.772767   -1064.5893    58691.287   -12712.756    927.73777   -13640.494    61.698278    240.52303 
   20600    76.386805   -635.53945    58719.559   -12700.164    923.07373   -13623.238    61.636864    239.31384 
   20650    78.478395   -1061.4938     58735.47   -12680.884    948.34893   -13629.233    61.784063    245.86663 
   20700    77.271371   -811.74662    58721.637   -12694.624    933.76301   -13628.387    61.784968    242.08512 
   20750    79.312164   -1151.7625    58721.205   -12656.923    958.42436   -13615.348    61.721713    248.47876 
   20800    76.397711   -873.29114    58721.801   -12687.946    923.20553   -13611.151    61.970716    239.34801 
   20850    76.905963   -1270.1392    58704.643   -12712.001    929.34734   -13641.349    62.577925    240.94032 
   20900     76.73397   -1112.0138    58700.233   -12709.224    927.26894   -13636.493    62.851769    240.40148 
   20950    75.835875    -1303.781    58640.604   -12711.207    916.41617   -13627.623     62.99332    237.58782 
   21000    76.627051   -1136.6318    58595.077   -12709.152    925.97691   -13635.129    62.931182    240.06651 
   21050    79.361507   -1023.7154    58621.302   -12675.815    959.02064   -13634.835    62.926633    248.63335 
   21100    78.062606   -654.42249    58598.638   -12671.912    943.32445   -13615.237    63.007018    244.56399 
   21150    73.802154   -854.90963    58601.698    -12698.99    891.84028   -13590.831    62.871272    231.21633 
   21200    75.939663   -859.35213     58644.52   -12699.154    917.67037   -13616.824    62.868799    237.91298 
   21250    77.098959   -880.85516    58715.595   -12679.258    931.67955   -13610.937    63.075298    241.54496 
   21300    78.109509   -1109.7568     58780.97   -12697.313    943.89124   -13641.205    63.332784    244.71093 
   21350    76.388682   -1126.6467    58809.522   -12709.695    923.09641   -13632.791    63.570873    239.31972 
   21400     76.52422   -1131.0941     58786.16   -12736.304    924.73428   -13661.038     63.44745    239.74435 
   21450    76.010415   -1029.6132    58820.046   -12730.255    918.52535    -13648.78    63.637412    238.13464 
   21500    78.388316   -1333.9886    58779.195   -12721.771     947.2604   -13669.032    63.467758    245.58442 
   21550    74.811248   -1191.8717    58734.936   -12751.515    904.03438    -13655.55    64.072806    234.37774 
   21600    74.994881   -1032.7038    58729.448   -12742.361    906.25343   -13648.615    64.619158    234.95305 
   21650    75.448985   -1312.9319    58724.308   -12754.386    911.74093   -13666.127    65.251332    236.37572 
   21700    76.213275   -545.20394    58742.495   -12745.072    920.97676   -13666.049    65.561023    238.77018 
   21750    75.826093    -1234.815    58814.764   -12715.372    916.29797    -13631.67    65.862297    237.55717 
   21800    75.958417   -1073.2197     58837.27   -12717.337    917.89701   -13635.234    65.760026    237.97173 
   21850    78.328211   -1091.7251    58813.215    -12747.04    946.53408   -13693.574    65.424028    245.39611 
   21900    76.478088   -794.93041    58806.908   -12732.186    924.17682   -13656.363    65.185225    239.59982 
   21950    78.855766    -992.2803     58790.53   -12699.218    952.90916   -13652.127    64.974758     247.0489 
   22000    76.610601   -1107.1781    58821.273   -12684.394    925.77812   -13610.172     64.96561    240.01497 
   22050    80.300959   -1071.1952    58817.707   -12704.695    970.37316   -13675.068    64.797795    251.57657 
   22100    77.890818   -778.53717    58858.977   -12721.877    941.24853   -13663.126    64.586917    244.02579 
   22150    79.534454   -834.08318    58852.063   -12702.213    961.11057   -13663.324    64.368514    249.17518 
   22200    75.658356   -682.03274    58841.039   -12713.343      914.271   -13627.614    64.266272    237.03166 
   22250    79.321765   -954.77694    58865.795   -12678.426    958.54039   -13636.966    64.239381    248.50884 
   22300    80.082301   -1195.3884    58857.397   -12620.729    967.73086   -13588.459    64.938233    250.89154 
   22350    79.143737   -646.92338    58887.092   -12650.601    956.38906    -13606.99    64.847018    247.95109 
   22400    78.364662   -1131.9754    58908.187   -12656.802    946.97456   -13603.777    64.695881    245.51031 
   22450    80.366738   -808.51142    58884.215   -12649.046    971.16805   -13620.214    65.056851    251.78266 
   22500    78.335196   -824.03824    58850.042   -12654.449    946.61849   -13601.068    65.146691      245.418 
   22550    77.005923    -988.7148    58881.019   -12691.843    930.55528   -13622.399     65.45127    241.25349 
   22600    75.684029   -976.99835    58849.648   -12720.945    914.58124   -13635.526    65.571467     237.1121 
   22650    75.391205   -833.33958    58855.122   -12722.771    911.04269   -13633.814    65.412642     236.1947 
   22700    75.915831   -774.63843    58874.814   -12751.246    917.38238   -13668.629    65.348552    237.83831 
   22750    75.919321   -958.34182    58900.145   -12746.156    917.42455    -13663.58    65.344202    237.84925 
   22800    75.705279   -1168.4026    58887.623   -12771.199    914.83803   -13686.037    65.724949    237.17867 
   22850    74.099268   -993.84617    58868.485   -12759.817    895.43067   -13655.247     66.13207    232.14717 
   22900    76.359375   -687.03997    58894.422   -12767.558    922.74227     -13690.3    66.251362     239.2279 
   22950    78.025559   -753.96829     58924.62   -12733.098    942.87677   -13675.974    66.387675    244.44793 
   23000    78.325209   -768.50541    58937.402   -12712.809     946.4978   -13659.307    66.274234    245.38671 
   23050    76.376607   -617.26914    58948.225   -12701.806     922.9505   -13624.756    66.441607    239.28189 
   23100    77.579399   -1045.0988    58981.188   -12706.256    937.48528   -13643.741    66.671826    243.05014 
   23150    75.921577   -980.33818    58975.868   -12720.228    917.45182    -13637.68    66.817808    237.85632 
   23200    76.717154   -1339.5838    58961.795   -12712.471    927.06573   -13639.536    66.378296    240.34879 
   23250    74.504779   -1023.0572    58901.557   -12712.092    900.33094   -13612.423    66.557632     233.4176 
   23300    76.054743   -1108.5001    58890.811   -12724.557    919.06102   -13643.618    66.425532    238.27351 
   23350    78.593681   -1356.4215    58818.216   -12739.171    949.74207   -13688.913    66.488483    246.22781 
   23400    74.999094   -1043.4467     58825.17    -12738.97    906.30435   -13645.274    66.724864    234.96625 
   23450    75.380943   -1575.9393    58807.247   -12737.691    910.91869    -13648.61    66.737956    236.16255 
   23500    74.483399   -1182.0567    58790.589   -12733.362    900.07258   -13633.434    66.576388    233.35062 
   23550    76.864548   -1096.7359    58795.784   -12742.175    928.84688   -13671.021    66.920297    240.81057 
   23600    77.211069   -1315.9856     58744.85   -12758.592     933.0343   -13691.626      67.2272    241.89619 
   23650    75.841606   -1232.2466    58753.174   -12749.338    916.48543   -13665.824    67.348468    237.60577 
   23700    79.149297   -1017.7819    58760.085   -12757.576    956.45624   -13714.033    67.679141    247.96851 
   23750    75.953883   -836.85706    58757.193   -12800.512    917.84221   -13718.355    67.499844    237.95753 
   23800    73.914436   -1045.8829    58739.414   -12793.125    893.19712   -13686.322    67.233449     231.5681 
   23850    75.629331   -743.80206    58740.177    -12801.36    913.92027    -13715.28    67.382046    236.94073 
   23900    75.676789   -942.47582    58748.661    -12777.66    914.49376   -13692.153    67.343929    237.08942 
   23950    79.208356   -1048.3644    58765.946   -12766.955    957.16993   -13724.125    67.465348    248.15354 
   24000    75.578319   -1140.2246    58727.735    -12718.25    913.30382   -13631.554    67.817988    236.78092 
   24050    76.372185   -1036.3975    58751.851   -12735.897    922.89706   -13658.794    67.777012    239.26804 
   24100    76.592366   -1016.5368    58762.424   -12719.714    925.55777   -13645.271    67.536359    239.95784 
   24150    76.688677   -1180.9387    58766.872   -12763.772    926.72161   -13690.493    67.668751    240.25958 
   24200    71.898275   -1238.0551    58730.979   -12789.522    868.83342   -13658.355    67.606299    225.25163 
   24250    75.570545   -1269.3027    58668.371   -12788.597    913.20987   -13701.807    67.227325    236.75656 
   24300    74.517535   -1120.6101    58650.384   -12802.672    900.48509   -13703.157    67.445078    233.45756 
   24350    74.705228   -741.26908    58573.563    -12809.98    902.75321   -13712.733    67.673853    234.04559 
   24400    76.686181   -822.23182     58588.37   -12792.035    926.69145   -13718.727    67.667913    240.25176 
   24450    74.402812   -1252.6713    58517.736   -12800.687    899.09875   -13699.786    67.934429    233.09814 
   24500    72.632398   -1242.9744    58468.993   -12805.903    877.70471   -13683.608    67.777895    227.55158 
   24550    73.734514   -1106.0781    58455.542   -12809.946     891.0229   -13700.969    68.061069    231.00442 
   24600    72.604542   -1176.6118        58482   -12799.508    877.36809   -13676.876    67.734561    227.46431 
   24650    74.004375   -1262.8208    58498.757   -12781.714    894.28396   -13675.998    67.810126    231.84987 
   24700    74.856358   -1109.7556    58500.824   -12794.285     904.5795   -13698.865    67.755065    234.51907 
   24750    73.461241   -1139.6664    58495.531   -12789.003    887.72062   -13676.723    68.096669    230.14828 
   24800    74.916401   -802.23875    58527.569   -12778.443    905.30507   -13683.748    68.333625    234.70718 
   24850    74.571691   -1314.6574    58528.332    -12786.19    901.13953   -13687.329    68.403661    233.62723 
   24900    76.293666   -676.56491    58537.514     -12794.6    921.94822   -13716.548    68.377783    239.02204 
   24950    74.862626   -944.49796    58546.467   -12795.195    904.65524    -13699.85    68.725429    234.53871 
   25000    74.199603   -901.29122    58538.641    -12780.18    896.64313   -13676.823    68.937564    232.46151 
   25050    71.255556   -974.10783     58509.27   -12785.209    861.06667   -13646.276    69.375277    223.23804 
   25100    73.816263   -1086.8734        58454    -12783.61    892.01078   -13675.621    69.635692    231.26053 
   25150    74.841094   -1041.0893    58470.902   -12749.957    904.39505   -13654.352     69.38531    234.47125 
   25200    77.556071   -1031.2192    58465.765   -12716.911    937.20338   -13654.114    69.528449    242.97706 
   25250    79.732297   -904.55005    58470.343   -12698.845    963.50134   -13662.346    69.646565      249.795 
   25300    78.719015    -948.1802    58465.802    -12690.44    951.25663   -13641.697    69.479348    246.62047 
   25350    79.665645   -1262.8034     58449.84   -12726.919     962.6959   -13689.615    69.146625    249.58619 
   25400    77.979482   -756.77405    58477.288   -12734.374    942.31996   -13676.694     69.35687    244.30357 
   25450    77.534518   -848.09905    58469.916   -12721.494    936.94293   -13658.437    69.549193    242.90953 
   25500    75.413012   -1583.5321    58484.257   -12753.973    911.30622   -13665.279    69.642747    236.26302 
   25550    77.758605   -1066.2993    58494.055   -12749.824    939.65084   -13689.474     69.61279    243.61158 
   25600    76.959435    -837.7086    58472.506   -12743.238     929.9935   -13673.232    69.656804    241.10784 
   25650    76.078634    -1121.291    58481.583   -12742.579    919.34973   -13661.929    69.582398    238.34836 
   25700    75.664711   -934.39709    58549.606   -12753.071     914.3478   -13667.419    69.610361    237.05158 
   25750     76.15475   -826.07346    58579.074   -12739.065    920.26953   -13659.335    69.604005    238.58683 
   25800    76.701533   -927.64797    58624.466   -12710.062    926.87697   -13636.939    69.520766    240.29986 
   25850    73.491074   -1214.4589    58612.578   -12741.356    888.08113   -13629.437    69.401961    230.24174 
   25900    76.132444   -918.33366     58592.34   -12744.701    919.99998   -13664.701     69.72161    238.51695 
   25950    76.329213   -1264.6042    58569.096   -12757.209    922.37778   -13679.587    69.724974    239.13341 
   26000    73.273457   -987.61185    58518.469   -12736.051     885.4514   -13621.503    70.081009    229.55996 
   26050    76.526295   -1136.9399    58503.842   -12723.727    924.75935   -13648.487    70.176906    239.75085 
   26100    78.222533   -1133.4401    58498.294   -12739.929    945.25704   -13685.186    70.009482    245.06503 
   26150     73.73405   -1006.0721    58521.603   -12751.126     891.0173   -13642.144    70.630317    231.00297 
   26200     76.68069   -1085.8094     58540.47   -12749.028    926.62509   -13675.653    70.460508    240.23456 
   26250    72.533792   -1119.5893     58539.02   -12757.452    876.51314   -13633.965    70.342233    227.24265 
   26300    76.609699   -1109.9936    58524.617   -12747.335    925.76723   -13673.103    70.527816    240.01215 
   26350    74.229518   -1358.8393    58490.233   -12774.854    897.00463   -13671.859    70.717823    232.55523 
   26400    72.981869   -1082.4058    58416.523   -12806.357    881.92779   -13688.285    70.708308    228.64644 
   26450    75.044468    -918.2576    58447.608   -12788.521    906.85266   -13695.373    71.263629     235.1084 
   26500    75.366907   -596.77188    58453.169   -12770.386    910.74908   -13681.136    71.545541    236.11858 
   26550    75.018517   -1084.0363    58417.799    -12748.56    906.53906   -13655.099    71.554831     235.0271 
   26600    76.801103   -1084.1473    58442.581   -12711.756     928.0802   -13639.836    71.573796     240.6118 
   26650    74.899447   -1162.7512    58421.995    -12707.17    905.10019    -13612.27    71.778792    234.65406 
   26700    77.991286   -854.96652    58414.724   -12706.845     942.4626   -13649.308    71.808213    244.34055 
   26750    78.387887   -865.46986    58423.382   -12701.988    947.25522   -13649.243    71.919361    245.58307 
   26800    75.965622   -1114.0564     58419.57   -12705.589    917.98407   -13623.573     71.86491    237.99431 
   26850    78.187188   -593.52023    58440.021   -12706.226    944.82992   -13651.056     72.05881     244.9543 
   26900    79.446404   -1242.8888    58423.991   -12678.755    960.04654   -13638.801    72.015135    248.89932 
   26950    77.127906   -998.02674    58432.435   -12667.186    932.02934   -13599.215    72.182171    241.63565 
   27000    78.385347   -993.09203    58423.116   -12671.472    947.22452   -13618.696    72.554767    245.57511 
   27050    79.950658   -1236.4116    58448.457   -12649.188    966.14005   -13615.328    73.018159    250.47911 
   27100    75.778849   -935.28554    58451.847    -12706.14    915.72707   -13621.867    73.346705    237.40916 
   27150     75.74831   -847.79224    58472.705    -12676.58    915.35802   -13591.938    73.314738    237.31348 
   27200     77.32259   -939.11186    58514.756   -12686.297    934.38195   -13620.679    73.448603    242.24558 
   27250    76.026542    -929.8491    58619.575   -12685.384    918.72024   -13604.104    73.751668    238.18516 
   27300    75.404631   -905.00209    58630.992   -12725.901    911.20494   -13637.106    73.902278    236.23677 
   27350    76.552893   -1481.1392    58566.907   -12729.527    925.08078   -13654.608    74.204403    239.83418 
   27400    73.502926   -1325.2064    58493.722   -12724.932    888.22434   -13613.156    74.466191    230.27887 
   27450    73.791219   -1221.4907    58474.827   -12734.517    891.70814   -13626.225    74.321154    231.18207 
   27500    75.062001   -980.87344    58499.179   -12728.439    907.06453   -13635.504      74.6564    235.16333 
   27550     75.68725   -1113.5125    58560.174   -12725.508    914.62016   -13640.128     75.01962    237.12219 
   27600     74.19389   -761.98839    58617.365   -12751.552     896.5741   -13648.126    74.905207    232.44361 
   27650    74.790384    -1229.925     58649.34   -12725.167    903.78226   -13628.949    75.482127    234.31238 
   27700    76.299324   -1072.3552    58664.889   -12720.592     922.0166   -13642.609    75.360928    239.03977 
   27750    76.142678   -711.80056    58685.685   -12720.242    920.12365   -13640.366    75.672683    238.54901 
   27800    75.782133   -1152.9165    58745.126   -12700.205    915.76675   -13615.972    75.900544    237.41945 
   27850    76.626366   -1435.0434    58671.705   -12710.127    925.96864   -13636.095    75.882127    240.06437 
   27900     77.90979   -1113.6061    58640.378   -12726.186     941.4778   -13667.664    75.898797    244.08523 
   27950    76.713947   -859.56694    58629.976   -12710.464    927.02698   -13637.491    75.968869    240.33875 
   28000    76.263448     -1057.64    58645.903   -12714.839    921.58306   -13636.422    75.934641    238.92737 
   28050    77.108854    -1284.292    58625.801   -12653.839    931.79912   -13585.639    75.859228    241.57596 
   28100    77.313743    -1140.895    58614.528   -12650.382    934.27504   -13584.657    76.137188    242.21786 
   28150    78.542138   -1263.2224    58591.519   -12649.341    949.11921    -13598.46    76.183248    246.06633 
   28200     75.21692   -1102.8592    58607.238   -12637.687     908.9366   -13546.623    76.424268    235.64868 
   28250    78.020485   -861.14261    58652.733   -12674.833    942.81546   -13617.649    76.719319    244.43203 
   28300    75.734575   -1260.8111    58695.589   -12686.585    915.19205   -13601.777    77.148136    237.27045 
   28350    74.375953   -1181.8206    58664.957   -12676.181    898.77418   -13574.956    77.358809      233.014 
   28400    76.928399   -869.08834    58684.739   -12672.727    929.61847   -13602.346    77.589862    241.01061 
   28450     76.50475   -1278.0352    58744.282   -12704.136      924.499   -13628.635    77.699378    239.68335 
   28500    75.934221   -909.26095    58792.099   -12679.482    917.60462   -13597.086    77.684456    237.89593 
   28550    76.011405   -802.23712    58869.773   -12688.281    918.53732   -13606.819    77.461661    238.13774 
   28600    75.853903   -1034.3692    58957.755   -12712.777    916.63404   -13629.411    77.425786     237.6443 
   28650    75.749859   -1116.6374    58908.315   -12733.877    915.37674   -13649.254    77.837355    237.31834 
   28700    72.690861   -1099.8532    58847.123    -12734.44    878.41119   -13612.852     78.19975    227.73474 
   28750    74.902728    -974.7814    58812.222   -12736.429    905.13984   -13641.569    78.586059    234.66434 
   28800    75.974153   -825.17648    58781.077   -12740.462    918.08716    -13658.55    78.578486    238.02103 
   28850    75.392634   -1018.2723    58823.248   -12736.374    911.05997   -13647.434    78.990606    236.19918 
   28900    74.689286   -1166.3983    58805.529   -12703.415    902.56057   -13605.976    79.627834    233.99565 
   28950    75.233958   -975.22909     58796.05   -12699.605    909.14249   -13608.748    80.014891    235.70206 
   29000      77.3453   -1083.6115    58783.366   -12668.643    934.65638     -13603.3    80.754356    242.31673 
   29050    73.424985   -1170.8773    58778.003    -12697.32     887.2825   -13584.602    80.888276    230.03469 
   29100    72.226571   -1209.5878    58743.876   -12719.407    872.80062   -13592.208    80.567318    226.28015 
   29150    73.269374    -983.2398    58677.383   -12718.335    885.40205   -13603.737    80.966639    229.54717 
   29200    77.978234   -1119.5129    58677.685   -12688.017    942.30488   -13630.322    81.100752    244.29966 
   29250    77.628407   -1040.6249    58663.502   -12729.068     938.0775   -13667.146    81.145628    243.20368 
   29300     76.53429   -967.34437    58700.315   -12737.925    924.85597    -13662.78    81.223054     239.7759 
   29350    75.552227   -1445.2781    58683.078   -12748.775    912.98852   -13661.763    81.195492    236.69917 
   29400    74.120193   -1242.0633    58648.234   -12747.564    895.68353   -13643.248    81.072388    232.21272 
   29450    70.838852    -1348.366    58593.865   -12768.752    856.03114   -13624.784    80.994628    221.93254 
   29500    74.648672   -1225.7109    58614.382   -12757.798    902.06977   -13659.868    81.280066     233.8684 
   29550    72.039132   -1062.9574    58581.125   -12717.729    870.53556   -13588.265     81.46088    225.69292 
   29600    73.795856   -917.48641    58603.252   -12731.711    891.76417   -13623.475     81.66822     231.1966 
   29650    75.054759   -982.84304    58640.696   -12714.754    906.97702   -13621.731    81.514626    235.14064 
   29700    74.015662    -1141.853    58635.532   -12695.825    894.42035   -13590.246    81.879853    231.88523 
   29750    76.003702   -1208.2777    58583.674   -12690.606    918.44424    -13609.05    81.954329    238.11361 
   29800    77.034715    -1235.074    58546.719   -12709.985     930.9032   -13640.888     82.13436    241.34369 
   29850    73.920173    -1460.262    58574.561   -12731.153    893.26644    -13624.42    82.379739    231.58607 
   29900     79.96513   -1308.2734    58581.871   -12718.184    966.31494   -13684.499    82.979803    250.52445 
   29950    74.516866   -1282.7501    58504.918   -12708.166      900.477   -13608.643    82.984561    233.45547 
   30000    77.548577   -1175.1763    58471.277   -12689.582    937.11282   -13626.695    83.165994    242.95358 
   30050    81.481651   -1284.5689    58435.753   -12672.714    984.64089   -13657.354    83.384985    255.27559 
   30100    76.715487   -1093.4159    58436.382   -12682.924    927.04559    -13609.97    83.425176    240.34357 
   30150    79.335877   -1018.5826    58397.424   -12661.749    958.71092    -13620.46    83.306583    248.55305 
   30200    79.602042   -800.40844    58463.736    -12660.35    961.92731   -13622.278    83.682766    249.38692 
   30250    78.816492   -835.16122    58524.449   -12643.561    952.43457   -13595.995    83.604282    246.92586 
   30300     76.63874   -1006.1326    58599.503   -12654.683    926.11817   -13580.801    84.233766    240.10313 
   30350    78.957279   -1157.1689    58609.037   -12633.883    954.13586   -13588.019    84.447503    247.36693 
   30400    76.986294   -1208.5394     58565.98   -12641.085    930.31808   -13571.403    84.505068    241.19199 
   30450    76.290166   -911.65729    58542.457   -12653.314    921.90592    -13575.22    84.534417    239.01108 
   30500    76.868531   -797.40119    58532.663   -12677.592      928.895   -13606.487    84.499073    240.82305 
   30550    79.910118   -989.88486    58510.698   -12657.451    965.65017   -13623.101    84.787862     250.3521 
   30600    76.491991   -1086.4898    58565.716   -12675.035    924.34481    -13599.38    84.850422    239.64338 
   30650    77.764576   -932.21343    58600.943   -12693.867      939.723    -13633.59    85.502581    243.63029 
   30700    77.938235   -1313.4129     58634.23   -12641.752    941.82153   -13583.574     85.66059    244.17435 
   30750    79.196661   -1057.8781    58645.676   -12647.545     957.0286   -13604.574    85.920453     248.1169 
   30800    78.566974   -859.07733    58594.151   -12654.084    949.41934   -13603.504    85.991461    246.14414 
   30850    79.071221   -940.08626    58609.986   -12675.452    955.51276   -13630.965    85.974165     247.7239 
   30900    75.592874     -841.557    58623.413   -12679.144     913.4797   -13592.623    86.516258    236.82651 
   30950    80.839302    -807.9897    58634.963   -12647.985    976.87862   -13624.863    86.712852    253.26316 
   31000    78.774715   -987.82158    58648.381    -12671.01    951.92972    -13622.94    87.131041    246.79497 
   31050    77.745925   -891.94098    58703.498   -12665.436    939.49762   -13604.934     87.51007    243.57186 
   31100    77.065166   -1108.7844    58677.789    -12665.33    931.27118   -13596.601    87.665043    241.43909 
   31150    77.934313   -1271.8574    58674.638   -12672.189    941.77414   -13613.964    88.315483    244.16206 
   31200    78.217819   -1065.7632    58645.788   -12666.003    945.20008   -13611.203    88.784833    245.05026 
   31250    79.464864   -1179.1045    58605.899   -12652.043    960.26963   -13612.312    88.893668    248.95716 
   31300    78.840876   -967.76973    58592.725   -12657.198    952.72922   -13609.927    89.142792    247.00225 
   31350    77.508678   -1148.0098    58532.745   -12676.512    936.63067   -13613.142      89.2556    242.82858 
   31400    77.086588   -1275.8879    58475.745   -12671.447    931.53005   -13602.977    89.725296     241.5062 
   31450    76.076064   -1060.4291    58448.074    -12674.91    919.31868   -13594.229    89.841213    238.34031 
   31500    77.163607   -1240.0401    58452.629   -12676.886    932.46076   -13609.347    89.959849     241.7475 
   31550     75.03302   -1349.2783     58449.14   -12699.299    906.71431   -13606.013    90.134134    235.07254 
   31600    76.666936   -1072.4801    58431.006    -12704.37    926.45888   -13630.829    90.187474    240.19147 
   31650     76.84086   -880.02862    58467.653   -12689.199    928.56063    -13617.76     90.30086    240.73636 
   31700    75.959506   -914.34364    58534.416   -12689.596    917.91017   -13607.506    90.874414    237.97515 
   31750     74.22574   -827.84872    58570.749   -12720.299    896.95898   -13617.258    91.232281    232.54339 
   31800    74.232996    -1456.635    58623.173   -12725.627    897.04667   -13622.674    91.281029    232.56613 
   31850    77.918834   -926.68375    58611.302   -12689.783    941.58708    -13631.37    90.612536    244.11356 
   31900    74.218555   -1032.0446    58586.072   -12710.587    896.87216   -13607.459    90.851001    232.52088 
   31950     72.76923   -1293.2154     58552.71   -12716.541    879.35822   -13595.899    91.030594    227.98026 
   32000    75.943797   -1103.5344    58541.069   -12690.269    917.72033   -13607.989    90.951843    237.92593 
   32050    75.328952   -1334.6657    58468.287   -12710.521    910.29041   -13620.812    91.183386    235.99967 
   32100    75.455829   -1039.4252    58459.928   -12693.776    911.82362     -13605.6    91.610937    236.39716 
   32150    77.895589   -925.86846    58472.096   -12688.888    941.30618   -13630.194    92.342421    244.04074 
   32200    73.443655   -869.11091    58461.262   -12736.361     887.5081   -13623.869    92.325814    230.09318 
   32250    76.110349   -1047.3771    58490.134   -12726.481    919.73298   -13646.214    92.401868    238.44773 
   32300    75.566855   -745.94595    58499.771   -12716.824    913.16528    -13629.99    92.534281      236.745 
   32350    77.191685   -814.00689     58506.86   -12693.915    932.80006   -13626.715    92.597003    241.83546 
   32400    75.137391   -1230.2676    58530.758   -12701.125    907.97556   -13609.101    92.465853    235.39952 
   32450    77.721663   -739.77723    58605.807   -12678.097    939.20443   -13617.301    92.312088    243.49585 
   32500    75.826723   -1253.5758    58624.145   -12679.885    916.30559   -13596.191     92.71811    237.55915 
   32550    75.052576   -1434.0735    58549.268   -12678.287    906.95063   -13585.238    92.903288     235.1338 
   32600    74.532919    -1215.295    58508.755   -12654.649    900.67099    -13555.32    92.666887    233.50576 
   32650    76.047298   -1129.4464    58418.774   -12676.221    918.97106   -13595.192    92.552523    238.25019 
   32700    76.208868   -1171.0416    58438.552    -12679.74    920.92351   -13600.663    92.461315    238.75638 
   32750    76.188908   -1099.9991    58463.941   -12683.212     920.6823   -13603.895    92.551026    238.69384 
   32800    78.661893   -1185.1189    58487.779   -12691.977    950.56636   -13642.543    92.703977    246.44151 
   32850    74.703022   -984.73045    58498.013   -12684.874    902.72656   -13587.601     92.94718    234.03868 
   32900    77.272561   -606.26928    58498.391   -12681.943    933.77739    -13615.72     93.10418    242.08884 
   32950    79.779875   -1102.9539    58514.118   -12685.479    964.07628   -13649.555    93.499563    249.94406 
   33000    75.000499   -1233.6022    58523.508   -12716.593    906.32132   -13622.914    93.387742    234.97065 
   33050    74.442112   -1211.7828    58482.686   -12712.119    899.57367   -13611.692    93.533683    233.22127 
   33100    76.982218   -1096.1575    58478.955   -12739.396    930.26883   -13669.664    93.220703    241.17922 
   33150    77.361337   -1108.7183    58485.122   -12712.539    934.85017   -13647.389    93.133654    242.36697 
   33200    74.460789   -1200.7349    58454.895   -12721.771    899.79937    -13621.57    93.357236    233.27978 
   33250    74.755387   -1233.1733    58423.044   -12744.436    903.35934   -13647.795    93.764542    234.20273 
   33300    74.095967   -995.25584    58412.054   -12744.715    895.39077   -13640.106    93.798938    232.13682 
   33350    76.502237   -674.87633    58441.663   -12760.149    924.46863   -13684.617    94.111284    239.67548 
   33400    75.994127   -865.04793    58409.102   -12733.645    918.32852   -13651.973    94.816593    238.08361 
   33450    78.268806   -1228.8166    58382.271   -12722.987    945.81622   -13668.803    95.021147       245.21 
   33500    77.073096   -915.04373    58400.181    -12703.09    931.36701   -13634.457    95.191836    241.46393 
   33550    75.702203   -1169.3434    58361.457   -12715.073    914.80086   -13629.874    95.549293    237.16903 
   33600    76.215696   -901.96388    58404.887   -12739.618    921.00601   -13660.624    95.554089    238.77777 
   33650    75.618648   -1175.1591    58397.655   -12704.612    913.79116   -13618.403    95.746003    236.90726 
   33700    78.188025   -1003.9543    58390.556   -12663.317    944.84004   -13608.157     95.62262    244.95692 
   33750    78.241497   -984.59612     58371.75   -12688.561    945.48621   -13634.047     95.34872    245.12444 
   33800    77.025664    -924.8645     58371.77   -12703.612    930.79383   -13634.405    95.106479    241.31533 
   33850    78.501475   -971.66639     58390.03    -12714.07    948.62784   -13662.698    94.882444    245.93893 
   33900     78.35309   -844.76468    58415.995   -12721.982    946.83472   -13668.817    94.914528    245.47405 
   33950    77.529385   -822.40255    58478.729   -12702.599     936.8809    -13639.48    94.778667    242.89345 
[...]
   92000    75.689239   -1035.8261    59105.652   -12835.972     914.6442   -13750.616    204.99053    237.12842 
   92050    77.478034   -972.79988    59159.563   -12815.306    936.26036   -13751.567    204.89396    242.73257 
   92100    77.957022   -850.58202    59134.689   -12821.145    942.04856   -13763.193    204.74136    244.23321 
   92150    74.417346   -1037.9792    59099.028   -12810.557    899.27438   -13709.832    204.78515    233.14368 
   92200    77.917313   -761.25527    59105.189   -12824.141     941.5687    -13765.71    203.83124     244.1088 
   92250    74.761065    -661.2026      59178.2   -12851.772    903.42796     -13755.2    204.45353    234.22052 
   92300    76.593723   -844.30237    59206.378   -12864.184    925.57416   -13789.758     203.6995     239.9621 
   92350    74.799294   -956.76339    59221.556   -12845.803    903.88992   -13749.692    203.53352    234.34029 
   92400    74.060451   -1243.8438    59229.332   -12806.605    894.96159   -13701.566    204.32771    232.02556 
   92450    77.248115   -1371.9294    59224.345   -12816.704    933.48198   -13750.186    204.10477    242.01226 
   92500    74.931382   -1252.9022      59165.1   -12872.676     905.4861   -13778.162    204.04083    234.75411 
   92550    73.897227    -1243.448    59128.299    -12907.93    892.98916   -13800.919    204.20438    231.51419 
   92600    73.434797   -1183.5794    59057.798   -12906.726    887.40106   -13794.127    204.82218    230.06543 
   92650    75.093121   -1037.4134    58999.394   -12899.011    907.44058   -13806.451    204.61269    235.26083 
   92700    74.130449   -1394.0547    58971.515   -12912.566    895.80747   -13808.374    204.33278    232.24485 
   92750    73.778381   -1349.5331    58882.835   -12938.427    891.55301    -13829.98    204.27894    231.14185 
   92800    73.328862   -1076.0706    58864.598   -12924.209    886.12092    -13810.33    204.36031    229.73354 
   92850    73.426153   -996.49767    58884.249   -12911.449     887.2966   -13798.746    204.34851    230.03835 
   92900    72.808133   -773.34606     58868.69   -12909.529    879.82832   -13789.357     204.2677    228.10214 
   92950    75.395031   -1104.2611    58894.855   -12878.173    911.08894   -13789.262    205.22204    236.20669 
   93000    74.359664   -828.99453    58920.384   -12856.636    898.57735   -13755.213    204.85488    232.96297 
   93050    74.327638   -865.19974    58944.124   -12870.177    898.19034   -13768.367    204.87214    232.86263 
   93100    74.597677   -1196.1727    58981.115    -12895.91    901.45354   -13797.363     204.7312    233.70864 
   93150    76.911253   -1044.4698    59013.396   -12857.712    929.41127   -13787.124    205.21448    240.95689 
   93200    73.934727   -993.95118    59052.399   -12877.311    893.44232   -13770.753    205.41309    231.63167 
   93250    72.899164   -1239.4324    59040.488   -12880.098    880.92837   -13761.026    205.85527    228.38733 
   93300    73.719357   -1191.4014    59029.064   -12868.307    890.83975   -13759.147    205.74049    230.95694 
   93350    75.291177   -1141.2139    59013.657   -12869.358    909.83394   -13779.192    205.87284    235.88132 
   93400    75.785029   -674.36736    59056.328   -12876.957    915.80174   -13792.759     205.4709    237.42852 
   93450    77.535777   -748.07091    59054.785   -12858.269    936.95814   -13795.227    205.14085    242.91348 
   93500    74.380234   -920.41004    59065.436   -12896.692    898.82592   -13795.517    205.29247    233.02741 
   93550    73.877273   -997.65318    59070.524   -12880.656    892.74803   -13773.404    205.27477    231.45167 
   93600    78.193539   -1070.7607    59033.863   -12850.277    944.90667   -13795.184     205.4031    244.97419 
   93650     74.94554   -1013.7825    59039.657    -12875.88    905.65719   -13781.537    205.88008    234.79847 
   93700    76.462778   -888.64473    59058.064    -12851.61     923.9918   -13775.602    205.93362    239.55186 
   93750    78.648788   -1003.0354    59077.262   -12867.398    950.40799   -13817.806    205.82092    246.40045 
   93800    76.039288   -892.38918    59090.684   -12854.901    918.87427   -13773.775    206.20234     238.2251 
   93850    77.103693   -1169.5072    59156.228   -12860.308    931.73675   -13792.045    206.16816    241.55979 
   93900    76.211264   -919.94081    59182.622   -12881.616    920.95246   -13802.568    205.67948    238.76388 
   93950    76.249737   -598.57086     59162.27   -12889.001    921.41737   -13810.418    205.78653    238.88442 
   94000     75.44524   -1034.0313    59202.212   -12901.763    911.69566   -13813.458     205.9476    236.36399 
   94050     77.24976   -1163.8233    59215.785   -12892.584    933.50185   -13826.086    204.95335    242.01741 
   94100     75.31367    -1094.973    59180.196   -12881.256    910.10575   -13791.362    204.60157    235.95179 
   94150    76.434682   -1028.4318    59163.751   -12879.374    923.65228   -13803.027    204.70089    239.46383 
   94200    75.356952   -1209.6348    59184.825   -12901.071    910.62878   -13811.699    205.33333    236.08739 
   94250    74.815671    -1543.169     59206.52   -12907.987    904.08783   -13812.075    205.82847     234.3916 
   94300    75.882796   -1036.2064     59132.44    -12899.44    916.98318   -13816.423    205.59096    237.73482 
   94350    76.290774   -936.70023    59101.827   -12866.145    921.91327   -13788.058    205.52132    239.01298 
   94400    76.313937   -841.69011     59131.89   -12892.971    922.19318   -13815.164    205.24648    239.08555 
   94450    75.850969    -1155.714    59134.717   -12889.502    916.59858   -13806.101     205.8407    237.63511 
   94500    76.087176   -973.11289    59140.177   -12881.126    919.45295   -13800.579    205.17166    238.37512 
   94550    74.369585   -1020.5799    59154.931   -12882.739    898.69723   -13781.436    205.54032    232.99405 
   94600    77.105832   -993.09966    59180.135   -12859.732     931.7626   -13791.494    205.47923    241.56649 
   94650    74.160452    -882.8583    59186.453    -12856.77    896.17003    -13752.94    205.98727    232.33885 
   94700    76.387585   -1266.2401    59165.153   -12856.041    923.08315   -13779.124    206.00496    239.31628 
   94750    78.883126   -1014.2995    59159.639   -12820.562    953.23978   -13773.802    205.98449    247.13461 
   94800    77.303384   -1058.0328    59136.714   -12828.294    934.14985   -13762.444    205.75058    242.18541 
   94850    76.118114   -1169.9385    59122.703   -12846.194    919.82681    -13766.02    205.36181    238.47205 
   94900    78.409835    -980.1072    59106.833   -12806.479    947.52044       -13754    205.15162    245.65183 
   94950    78.013239   -1186.3367    59158.645    -12790.04     942.7279   -13732.768     205.3581    244.40933 
   95000    79.315396   -1218.8971    59128.684   -12803.397    958.46342    -13761.86    205.74362    248.48888 
   95050    78.461893   -1031.1895    59160.443   -12792.418    948.14951   -13740.567    205.70371    245.81492 
   95100    78.882506   -972.07904    59115.653     -12774.6    953.23228   -13727.833    205.78098    247.13267 
   95150    78.479983   -1070.0336    59144.576   -12762.827    948.36813   -13711.195    206.09206     245.8716 
   95200    78.289604   -1172.0697    59094.715   -12795.414    946.06754   -13741.482    205.62898    245.27516 
   95250    75.068389   -1247.9249    59135.402   -12820.094    907.14172   -13727.236    205.84454    235.18334 
   95300    76.791703    -1058.021     59152.67   -12789.385    927.96659   -13717.352    206.18173    240.58235 
   95350     75.65911   -1036.4517    59143.004   -12808.701    914.28011   -13722.981    206.43455    237.03403 
   95400     77.83496   -750.42406    59134.968   -12784.177    940.57353    -13724.75    206.50281    243.85079 
   95450    76.721353   -1183.7836    59164.325   -12812.683    927.11648   -13739.799    206.15463    240.36195 
   95500    76.798344   -1059.4499    59205.139   -12836.208    928.04686   -13764.255    205.70307    240.60316 
   95550    76.898374   -896.98333    59228.319   -12821.402    929.25564   -13750.658    206.19981    240.91655 
   95600    74.214432   -1397.1916    59229.174   -12846.495    896.82233   -13743.317     207.0676    232.50797 
   95650    77.421703   -1244.2163    59284.177    -12831.02    935.57964   -13766.599    206.60346    242.55609 
   95700    78.162881    -1060.956    59273.814    -12827.32    944.53619   -13771.856    206.58208    244.87814 
   95750    75.630176   -1124.9616    59318.779   -12832.234    913.93047   -13746.164    206.49225    236.94338 
   95800    76.699135   -1155.1918     59322.99   -12797.733    926.84799   -13724.581    206.69289    240.29234 
   95850    76.898155   -1364.7643    59329.486    -12798.74    929.25299   -13727.993    207.09912    240.91586 
   95900    76.656918   -982.77987    59332.466   -12781.642    926.33783    -13707.98    206.35169    240.16008 
   95950    77.183354   -1047.7296    59287.991   -12779.962    932.69939   -13712.661    206.24664    241.80936 
   96000    77.148192   -1249.2454    59268.332   -12811.215    932.27448   -13743.489    206.15919     241.6992 
   96050    76.147569   -868.44651    59238.156    -12843.86    920.18275   -13764.043    206.21374    238.56433 
   96100    74.660849   -982.23148    59299.564   -12815.943    902.21693    -13718.16    206.98835    233.90656 
   96150    77.303913   -1367.0633    59271.825   -12840.997    934.15625   -13775.153    207.61686    242.18706 
   96200    76.559389   -1496.7571    59250.904   -12815.246    925.15927   -13740.405    207.57264    239.85453 
   96250    77.453215   -1154.7456    59215.869   -12821.958    935.96045   -13757.918    207.62768    242.65482 
   96300    77.885432   -1148.1982     59183.37   -12827.996    941.18344    -13769.18    207.84128    244.00892 
   96350    76.324501    -1142.047    59175.422   -12834.445    922.32083   -13756.766    207.39619    239.11864 
   96400    78.012506   -1249.6112    59186.961   -12822.365    942.71903   -13765.084    207.46853    244.40703 
   96450     78.21448   -936.04114    59196.543   -12815.499    945.15973   -13760.659    206.99978     245.0398 
   96500    74.634462   -1089.4224    59223.479   -12852.568    901.89806   -13754.466     207.1492    233.82389 
   96550    77.057693   -1133.7912    59200.199   -12828.554    931.18087   -13759.735    207.37494    241.41568 
   96600    76.737461   -1017.2985    59233.153   -12853.811    927.31113   -13781.122    207.84595    240.41242 
   96650    76.874921    -1017.765    59248.254     -12855.9    928.97222   -13784.873    207.54996    240.84307 
   96700    75.065158   -1168.5471    59232.104   -12841.716    907.10268   -13748.819    207.52065    235.17322 
   96750    77.098307   -1188.0547    59238.457   -12808.851    931.67166   -13740.522    207.99434    241.54292 
   96800    78.367667    -1386.872    59202.082   -12815.692    947.01087   -13762.703    208.04054    245.51972 
   96850    75.763546   -1037.4572    59203.211   -12835.732    915.54215   -13751.274    208.22474    237.36122 
   96900     80.33657    -679.3498    59212.018   -12801.107     970.8035   -13771.911    208.22713    251.68814 
   96950    81.229996   -1334.9215    59243.865   -12775.547    981.59984   -13757.147    208.07697    254.48718 
   97000    77.718814   -995.91588    59232.179   -12775.228       939.17   -13714.398    208.35043    243.48692 
   97050    79.582168   -1093.6922    59251.566   -12795.491    961.68714   -13757.178    208.83718    249.32466 
   97100    78.467454   -1282.0258    59256.581   -12811.091    948.21672   -13759.308    209.08616    245.83235 
   97150    77.801158   -1319.5892    59243.723   -12825.798    940.16506   -13765.963    209.11696    243.74489 
   97200    77.868446   -1089.2114    59189.227     -12860.8    940.97819   -13801.778    209.24801     243.9557 
   97250    75.339173   -907.90206    59181.183   -12886.402    910.41394   -13796.815    209.34472    236.03169 
   97300    74.288167   -801.14705    59178.551   -12900.437    897.71337    -13798.15     209.8478    232.73897 
   97350     78.40562   -1123.9354    59182.011   -12899.239     947.4695   -13846.709    210.96187    245.63863 
   97400    75.786603   -1059.4825    59213.915   -12920.009    915.82077    -13835.83    211.03905    237.43345 
   97450    74.722461   -1193.4354    59219.874   -12903.211    902.96145   -13806.173     210.9368    234.09958 
   97500    75.540244   -918.08972    59252.838   -12899.845    912.84372   -13812.689    210.87445    236.66163 
   97550    75.911883   -1215.2117    59256.194   -12880.885    917.33467    -13798.22    210.73335    237.82595 
   97600    74.655027   -1100.3388    59227.023   -12879.886    902.14657   -13782.033    211.05097    233.88831 
   97650    77.140322   -1148.0118    59266.016   -12883.026    932.17938   -13815.205    211.11159    241.67455 
   97700    77.645224    -1246.463    59296.449   -12877.251    938.28072   -13815.532    211.31967    243.25637 
   97750    77.114362   -1356.5553    59279.387   -12888.107    931.86568   -13819.973    210.88487    241.59322 
   97800     77.49856   -802.28143    59270.699   -12881.998     936.5084   -13818.507    210.79402    242.79688 
   97850    75.840323   -512.83971    59336.975   -12883.994    916.46993   -13800.464    210.71275    237.60175 
   97900     77.75998   -1208.1267    59388.892   -12866.171    939.66746   -13805.838    211.02923    243.61589 
   97950    75.939862   -951.08377    59369.755   -12864.841    917.67278   -13782.513    211.72792     237.9136 
   98000    78.041559   -1330.2072    59320.376   -12835.673    943.07011   -13778.743    211.68088    244.49805 
   98050     79.56434   -918.26456    59296.027   -12808.664    961.47171   -13770.135    212.00553    249.26881 
   98100    78.473933   -794.58183     59325.27   -12834.775    948.29501    -13783.07    211.96602    245.85265 
   98150    78.915394   -1118.4963    59366.712   -12847.382    953.62972   -13801.012    211.26103    247.23571 
   98200    76.750184   -562.47227    59433.642   -12845.626    927.46487   -13773.091    210.80294    240.45228 
   98250    76.817788   -678.43169    59483.627   -12825.732    928.28181   -13754.014    210.98722    240.66407 
   98300    77.559969   -1212.9783    59504.284   -12841.068    937.25048   -13778.318    211.04165    242.98927 
   98350     76.55992   -846.70663    59496.476   -12876.217    925.16569   -13801.383     211.6551     239.8562 
   98400    79.100704   -1280.8827    59435.656   -12866.707    955.86904   -13822.576    211.93917    247.81627 
   98450    76.431221   -1058.0868     59410.23   -12904.658    923.61047   -13828.268    211.69329    239.45299 
   98500    75.962791   -1054.5476     59337.16     -12881.6    917.94986    -13799.55    211.21115    237.98544 
   98550    76.358335   -851.47666    59340.315   -12873.049    922.72969   -13795.779    211.71186    239.22464 
   98600    77.841199   -845.05521    59378.425   -12884.825    940.64893   -13825.474     211.6473    243.87034 
   98650    75.228434   -1215.8117    59383.247   -12905.452    909.07574   -13814.528    211.94507    235.68476 
   98700    77.576367   -1246.7403    59389.891   -12907.492    937.44864   -13844.941    212.20147    243.04064 
   98750    73.724097   -1226.5669    59387.348   -12894.526    890.89702   -13785.423    211.89041    230.97178 
   98800    80.080045   -988.09298    59404.062   -12860.469    967.70359   -13828.173    212.25495    250.88447 
   98850    73.790562   -1076.5335    59398.913   -12892.752     891.7002   -13784.453    212.03428    231.18002 
   98900    76.720085   -1108.6909    59393.617   -12887.543    927.10115   -13814.644    212.38659    240.35798 
   98950    77.791619   -632.62918     59442.33    -12855.44    940.04979    -13795.49    212.16509    243.71501 
   99000    78.302731   -891.50459    59504.205   -12834.259    946.22617   -13780.485    212.04596    245.31628 
   99050    80.722942   -838.31282    59567.809    -12831.17    975.47249   -13806.643    212.34816    252.89861 
   99100    80.073011   -1230.2416     59568.71   -12819.698     967.6186   -13787.317    212.52274    250.86243 
   99150     76.69999   -1124.0372     59546.35   -12830.007    926.85833   -13756.866    212.19798    240.29502 
   99200    77.872959   -1208.0473    59471.546    -12854.31    941.03272   -13795.343    212.98934    243.96984 
   99250    78.017936   -817.30222    59483.054   -12876.099    942.78465   -13818.884    213.52397    244.42404 
   99300    77.582493    -999.7176    59458.219   -12860.786    937.52267   -13798.309    214.00937    243.05984 
   99350    77.016111    -1042.812    59492.503   -12856.494    930.67839   -13787.173     213.8672     241.2854 
   99400    79.169327   -1192.9014    59530.175   -12874.021    956.69829   -13830.719    214.06736    248.03126 
   99450    79.066646   -854.02794     59513.51   -12876.463    955.45747    -13831.92    214.01018    247.70957 
   99500    79.938734   -1461.1049     59530.15   -12889.367    965.99597   -13855.363    214.70094    250.44175 
   99550    73.292693   -912.21676    59589.287    -12937.85    885.68385   -13823.534    214.81252    229.62023 
   99600    75.710003   -1394.9204    59568.144   -12964.528    914.89511   -13879.423    214.61096    237.19347 
   99650    73.997927   -1388.8345    59545.231   -12968.628    894.20604   -13862.834     213.8242    231.82967 
   99700    74.869913   -1129.4612    59576.647   -12984.932    904.74329   -13889.675    213.69675    234.56153 
   99750    74.918463   -1118.3653    59597.873   -12962.512    905.32999   -13867.842    214.21817    234.71364 
   99800    76.523963    -1168.004    59628.979   -12960.574    924.73117   -13885.305    214.38861    239.74354 
   99850    75.960892   -1081.8158    59618.504   -12941.894    917.92691   -13859.821    214.26643    237.97949 
   99900    78.902824   -886.49665    59600.589   -12924.439    953.47782   -13877.917    214.71683    247.19633 
   99950    79.751133   -905.78258    59586.081   -12910.524    963.72895   -13874.253     214.6969    249.85401 
  100000    77.588597   -1221.9455    59584.308   -12891.914    937.59643    -13829.51    214.44282    243.07896 
Loop time of 80.9894 on 80 procs for 100000 steps with 4055 atoms

Performance: 533.403 ns/day, 0.045 hours/ns, 1234.729 timesteps/s
99.5% CPU use with 80 MPI tasks x no OpenMP threads

MPI task timing breakdown:
Section |  min time  |  avg time  |  max time  |%varavg| %total
---------------------------------------------------------------
Pair    | 43.954     | 50.193     | 55.952     |  38.7 | 61.98
Neigh   | 0.43107    | 1.0408     | 1.9179     |  58.1 |  1.29
Comm    | 14.659     | 21.157     | 27.987     |  67.9 | 26.12
Output  | 0.12739    | 0.13125    | 0.26112    |   4.0 |  0.16
Modify  | 6.4242     | 7.5069     | 8.5318     |  16.5 |  9.27
Other   |            | 0.9603     |            |       |  1.19

Nlocal:    50.6875 ave 86 max 21 min
Histogram: 24 16 0 0 0 0 2 11 17 10
Nghost:    712.275 ave 753 max 673 min
Histogram: 6 10 14 5 4 7 7 8 14 5
Neighs:    0 ave 0 max 0 min
Histogram: 80 0 0 0 0 0 0 0 0 0
FullNghs:  5551.7 ave 11020 max 1142 min
Histogram: 40 0 0 0 0 0 1 8 18 13

Total # of neighbors = 444136
Ave neighs/atom = 109.528
Neighbor list builds = 5476
Dangerous builds = 0

write_data		${DIR}/data.eq-${NAME}-${TEMP}
write_data		run_2/data.eq-${NAME}-${TEMP}
write_data		run_2/data.eq-het_freeze_2-${TEMP}
write_data		run_2/data.eq-het_freeze_2-240
undump          1

reset_timestep  0

unfix           2
unfix           3
unfix           4


################################################
#######         Run Simulation         #########
################################################

log				${DIR}/log.run_${NAME}
log				run_2/log.run_${NAME}
log				run_2/log.run_het_freeze_2
