LAMMPS data file via write_data, version 16 Mar 2018, timestep = 8000000

4537 atoms
2 atom types

0.0000000000000000e+00 4.9219999999999999e+01 xlo xhi
0.0000000000000000e+00 4.9019635930410494e+01 ylo yhi
8.6296398820416442e-01 3.3077036011796764e+01 zlo zhi

Masses

1 18.015
2 12.01

Atoms # atomic

96 2 0.0000000000000000e+00 2.8417180249513345e+00 2.5968219777468047e+00 0 0 0
98 2 0.0000000000000000e+00 0.0000000000000000e+00 2.5968219777468047e+00 0 0 0
100 2 1.2305000000000001e+00 7.1042950623783474e-01 2.5968219777468047e+00 0 0 0
107 2 1.2305000000000001e+00 2.1312885187134998e+00 2.5968219777468047e+00 0 0 0
109 2 2.4610000000000003e+00 2.8417180249513345e+00 2.5968219777468047e+00 0 0 0
111 2 2.4610000000000003e+00 0.0000000000000000e+00 2.5968219777468047e+00 0 0 0
113 2 3.6915000000000004e+00 7.1042950623783474e-01 2.5968219777468047e+00 0 0 0
128 2 3.6914999999999996e+00 2.1312885187134998e+00 2.5968219777468047e+00 0 0 0
130 2 4.9220000000000006e+00 2.8417180249513332e+00 2.5968219777468047e+00 0 0 0
132 2 4.9220000000000006e+00 0.0000000000000000e+00 2.5968219777468047e+00 0 0 0
134 2 6.1524999999999999e+00 7.1042950623783407e-01 2.5968219777468047e+00 0 0 0
157 2 6.1524999999999999e+00 2.1312885187134989e+00 2.5968219777468047e+00 0 0 0
159 2 7.3829999999999991e+00 2.8417180249513345e+00 2.5968219777468047e+00 0 0 0
161 2 7.3829999999999991e+00 0.0000000000000000e+00 2.5968219777468047e+00 0 0 0
163 2 8.6134999999999984e+00 7.1042950623783407e-01 2.5968219777468047e+00 0 0 0
194 2 8.6134999999999984e+00 2.1312885187135002e+00 2.5968219777468047e+00 0 0 0
103 2 0.0000000000000000e+00 4.2625770374269996e+00 2.5968219777468047e+00 0 0 0
105 2 1.2305000000000001e+00 4.9730065436648339e+00 2.5968219777468047e+00 0 0 0
120 2 1.2305000000000001e+00 6.3938655561404980e+00 2.5968219777468047e+00 0 0 0
124 2 2.4610000000000003e+00 4.2625770374269996e+00 2.5968219777468047e+00 0 0 0
126 2 3.6914999999999996e+00 4.9730065436648339e+00 2.5968219777468047e+00 0 0 0
149 2 3.6914999999999996e+00 6.3938655561404980e+00 2.5968219777468047e+00 0 0 0
101 2 0.0000000000000000e+00 7.1042950623783341e+00 2.5968219777468047e+00 0 0 0
122 2 2.4610000000000003e+00 7.1042950623783341e+00 2.5968219777468047e+00 0 0 0
153 2 4.9220000000000006e+00 4.2625770374269978e+00 2.5968219777468047e+00 0 0 0
155 2 6.1524999999999999e+00 4.9730065436648339e+00 2.5968219777468047e+00 0 0 0
186 2 6.1524999999999999e+00 6.3938655561404980e+00 2.5968219777468047e+00 0 0 0
190 2 7.3829999999999991e+00 4.2625770374269996e+00 2.5968219777468047e+00 0 0 0
192 2 8.6135000000000002e+00 4.9730065436648339e+00 2.5968219777468047e+00 0 0 0
231 2 8.6135000000000002e+00 6.3938655561404980e+00 2.5968219777468047e+00 0 0 0
151 2 4.9220000000000006e+00 7.1042950623783341e+00 2.5968219777468047e+00 0 0 0
188 2 7.3830000000000009e+00 7.1042950623783341e+00 2.5968219777468047e+00 0 0 0
116 2 0.0000000000000000e+00 8.5251540748539991e+00 2.5968219777468047e+00 0 0 0
118 2 1.2305000000000001e+00 9.2355835810918343e+00 2.5968219777468047e+00 0 0 0
145 2 2.4610000000000003e+00 8.5251540748539991e+00 2.5968219777468047e+00 0 0 0
147 2 3.6915000000000004e+00 9.2355835810918343e+00 2.5968219777468047e+00 0 0 0
114 2 0.0000000000000000e+00 1.1366872099805333e+01 2.5968219777468047e+00 0 0 0
141 2 1.2305000000000001e+00 1.0656442593567498e+01 2.5968219777468047e+00 0 0 0
143 2 2.4610000000000003e+00 1.1366872099805333e+01 2.5968219777468047e+00 0 0 0
178 2 3.6914999999999996e+00 1.0656442593567499e+01 2.5968219777468047e+00 0 0 0
182 2 4.9220000000000006e+00 8.5251540748539991e+00 2.5968219777468047e+00 0 0 0
184 2 6.1524999999999999e+00 9.2355835810918343e+00 2.5968219777468047e+00 0 0 0
227 2 7.3830000000000009e+00 8.5251540748539991e+00 2.5968219777468047e+00 0 0 0
229 2 8.6134999999999984e+00 9.2355835810918343e+00 2.5968219777468047e+00 0 0 0
180 2 4.9220000000000006e+00 1.1366872099805333e+01 2.5968219777468047e+00 0 0 0
223 2 6.1524999999999999e+00 1.0656442593567499e+01 2.5968219777468047e+00 0 0 0
225 2 7.3829999999999991e+00 1.1366872099805333e+01 2.5968219777468047e+00 0 0 0
270 2 8.6134999999999984e+00 1.0656442593567498e+01 2.5968219777468047e+00 0 0 0
97 2 0.0000000000000000e+00 1.4208590124756650e+00 5.7490902760971831e+00 0 0 0
99 2 0.0000000000000000e+00 0.0000000000000000e+00 5.7490902760971831e+00 0 0 0
108 2 1.2305000000000001e+00 2.1312885187134998e+00 5.7490902760971831e+00 0 0 0
110 2 2.4610000000000003e+00 1.4208590124756650e+00 5.7490902760971831e+00 0 0 0
112 2 2.4610000000000003e+00 0.0000000000000000e+00 5.7490902760971831e+00 0 0 0
129 2 3.6914999999999996e+00 2.1312885187134998e+00 5.7490902760971831e+00 0 0 0
106 2 1.2305000000000001e+00 3.5521475311891644e+00 5.7490902760971831e+00 0 0 0
127 2 3.6914999999999996e+00 3.5521475311891644e+00 5.7490902760971831e+00 0 0 0
131 2 4.9220000000000006e+00 1.4208590124756650e+00 5.7490902760971831e+00 0 0 0
133 2 4.9220000000000006e+00 0.0000000000000000e+00 5.7490902760971831e+00 0 0 0
158 2 6.1524999999999999e+00 2.1312885187134989e+00 5.7490902760971831e+00 0 0 0
160 2 7.3829999999999991e+00 1.4208590124756659e+00 5.7490902760971831e+00 0 0 0
162 2 7.3829999999999991e+00 0.0000000000000000e+00 5.7490902760971831e+00 0 0 0
195 2 8.6134999999999984e+00 2.1312885187135002e+00 5.7490902760971831e+00 0 0 0
156 2 6.1524999999999999e+00 3.5521475311891644e+00 5.7490902760971831e+00 0 0 0
193 2 8.6134999999999984e+00 3.5521475311891657e+00 5.7490902760971831e+00 0 0 0
102 2 0.0000000000000000e+00 5.6834360499026637e+00 5.7490902760971831e+00 0 0 0
104 2 0.0000000000000000e+00 4.2625770374269996e+00 5.7490902760971831e+00 0 0 0
121 2 1.2305000000000001e+00 6.3938655561404980e+00 5.7490902760971831e+00 0 0 0
123 2 2.4610000000000003e+00 5.6834360499026637e+00 5.7490902760971831e+00 0 0 0
125 2 2.4610000000000003e+00 4.2625770374269996e+00 5.7490902760971831e+00 0 0 0
150 2 3.6914999999999996e+00 6.3938655561404980e+00 5.7490902760971831e+00 0 0 0
119 2 1.2305000000000001e+00 7.8147245686161639e+00 5.7490902760971831e+00 0 0 0
148 2 3.6914999999999996e+00 7.8147245686161639e+00 5.7490902760971831e+00 0 0 0
152 2 4.9220000000000006e+00 5.6834360499026637e+00 5.7490902760971831e+00 0 0 0
154 2 4.9220000000000006e+00 4.2625770374269978e+00 5.7490902760971831e+00 0 0 0
187 2 6.1524999999999999e+00 6.3938655561404980e+00 5.7490902760971831e+00 0 0 0
189 2 7.3829999999999991e+00 5.6834360499026637e+00 5.7490902760971831e+00 0 0 0
191 2 7.3829999999999991e+00 4.2625770374269996e+00 5.7490902760971831e+00 0 0 0
232 2 8.6135000000000002e+00 6.3938655561404980e+00 5.7490902760971831e+00 0 0 0
185 2 6.1524999999999999e+00 7.8147245686161639e+00 5.7490902760971831e+00 0 0 0
230 2 8.6135000000000002e+00 7.8147245686161639e+00 5.7490902760971831e+00 0 0 0
115 2 0.0000000000000000e+00 9.9460130873296642e+00 5.7490902760971831e+00 0 0 0
117 2 0.0000000000000000e+00 8.5251540748539991e+00 5.7490902760971831e+00 0 0 0
144 2 2.4610000000000003e+00 9.9460130873296642e+00 5.7490902760971831e+00 0 0 0
146 2 2.4610000000000003e+00 8.5251540748539991e+00 5.7490902760971831e+00 0 0 0
140 2 1.2305000000000001e+00 1.2077301606043163e+01 5.7490902760971831e+00 0 0 0
142 2 1.2305000000000001e+00 1.0656442593567498e+01 5.7490902760971831e+00 0 0 0
177 2 3.6914999999999996e+00 1.2077301606043163e+01 5.7490902760971831e+00 0 0 0
179 2 3.6914999999999996e+00 1.0656442593567499e+01 5.7490902760971831e+00 0 0 0
181 2 4.9220000000000006e+00 9.9460130873296642e+00 5.7490902760971831e+00 0 0 0
183 2 4.9220000000000006e+00 8.5251540748539991e+00 5.7490902760971831e+00 0 0 0
226 2 7.3830000000000009e+00 9.9460130873296642e+00 5.7490902760971831e+00 0 0 0
228 2 7.3830000000000009e+00 8.5251540748539991e+00 5.7490902760971831e+00 0 0 0
222 2 6.1524999999999999e+00 1.2077301606043163e+01 5.7490902760971831e+00 0 0 0
224 2 6.1524999999999999e+00 1.0656442593567499e+01 5.7490902760971831e+00 0 0 0
269 2 8.6135000000000002e+00 1.2077301606043163e+01 5.7490902760971831e+00 0 0 0
271 2 8.6134999999999984e+00 1.0656442593567498e+01 5.7490902760971831e+00 0 0 0
425 2 0.0000000000000000e+00 2.8417180249513345e+00 8.9013585744415256e+00 0 0 0
426 2 0.0000000000000000e+00 0.0000000000000000e+00 8.9013585744415256e+00 0 0 0
427 2 1.2305000000000001e+00 7.1042950623783474e-01 8.9013585744415256e+00 0 0 0
431 2 1.2305000000000001e+00 2.1312885187134998e+00 8.9013585744415256e+00 0 0 0
432 2 2.4610000000000003e+00 2.8417180249513345e+00 8.9013585744415256e+00 0 0 0
433 2 2.4610000000000003e+00 0.0000000000000000e+00 8.9013585744415256e+00 0 0 0
434 2 3.6915000000000004e+00 7.1042950623783474e-01 8.9013585744415256e+00 0 0 0
442 2 3.6914999999999996e+00 2.1312885187134998e+00 8.9013585744415256e+00 0 0 0
443 2 4.9220000000000006e+00 2.8417180249513332e+00 8.9013585744415256e+00 0 0 0
444 2 4.9220000000000006e+00 0.0000000000000000e+00 8.9013585744415256e+00 0 0 0
445 2 6.1524999999999999e+00 7.1042950623783407e-01 8.9013585744415256e+00 0 0 0
457 2 6.1524999999999999e+00 2.1312885187134989e+00 8.9013585744415256e+00 0 0 0
458 2 7.3829999999999991e+00 2.8417180249513345e+00 8.9013585744415256e+00 0 0 0
459 2 7.3829999999999991e+00 0.0000000000000000e+00 8.9013585744415256e+00 0 0 0
460 2 8.6134999999999984e+00 7.1042950623783407e-01 8.9013585744415256e+00 0 0 0
476 2 8.6134999999999984e+00 2.1312885187135002e+00 8.9013585744415256e+00 0 0 0
2850 1 4.0219287354168859e-01 3.5533645557630544e+00 1.1484547278112165e+01 1 1 1
429 2 0.0000000000000000e+00 4.2625770374269996e+00 8.9013585744415256e+00 0 0 0
430 2 1.2305000000000001e+00 4.9730065436648339e+00 8.9013585744415256e+00 0 0 0
438 2 1.2305000000000001e+00 6.3938655561404980e+00 8.9013585744415256e+00 0 0 0
440 2 2.4610000000000003e+00 4.2625770374269996e+00 8.9013585744415256e+00 0 0 0
441 2 3.6914999999999996e+00 4.9730065436648339e+00 8.9013585744415256e+00 0 0 0
453 2 3.6914999999999996e+00 6.3938655561404980e+00 8.9013585744415256e+00 0 0 0
428 2 0.0000000000000000e+00 7.1042950623783341e+00 8.9013585744415256e+00 0 0 0
439 2 2.4610000000000003e+00 7.1042950623783341e+00 8.9013585744415256e+00 0 0 0
491 2 6.1524999999999999e+00 1.0656442593567499e+01 8.9013585744415256e+00 0 0 0
4502 1 4.7646717066317406e+00 8.7725267344925832e+00 1.1517632154601758e+01 1 1 0
455 2 4.9220000000000006e+00 4.2625770374269978e+00 8.9013585744415256e+00 0 0 0
456 2 6.1524999999999999e+00 4.9730065436648339e+00 8.9013585744415256e+00 0 0 0
472 2 6.1524999999999999e+00 6.3938655561404980e+00 8.9013585744415256e+00 0 0 0
474 2 7.3829999999999991e+00 4.2625770374269996e+00 8.9013585744415256e+00 0 0 0
475 2 8.6135000000000002e+00 4.9730065436648339e+00 8.9013585744415256e+00 0 0 0
495 2 8.6135000000000002e+00 6.3938655561404980e+00 8.9013585744415256e+00 0 0 0
454 2 4.9220000000000006e+00 7.1042950623783341e+00 8.9013585744415256e+00 0 0 0
473 2 7.3830000000000009e+00 7.1042950623783341e+00 8.9013585744415256e+00 0 0 0
470 2 4.9220000000000006e+00 8.5251540748539991e+00 8.9013585744415256e+00 0 0 0
437 2 1.2305000000000001e+00 9.2355835810918343e+00 8.9013585744415256e+00 0 0 0
451 2 2.4610000000000003e+00 8.5251540748539991e+00 8.9013585744415256e+00 0 0 0
452 2 3.6915000000000004e+00 9.2355835810918343e+00 8.9013585744415256e+00 0 0 0
435 2 0.0000000000000000e+00 1.1366872099805333e+01 8.9013585744415256e+00 0 0 0
449 2 1.2305000000000001e+00 1.0656442593567498e+01 8.9013585744415256e+00 0 0 0
450 2 2.4610000000000003e+00 1.1366872099805333e+01 8.9013585744415256e+00 0 0 0
468 2 3.6914999999999996e+00 1.0656442593567499e+01 8.9013585744415256e+00 0 0 0
436 2 0.0000000000000000e+00 8.5251540748539991e+00 8.9013585744415256e+00 0 0 0
471 2 6.1524999999999999e+00 9.2355835810918343e+00 8.9013585744415256e+00 0 0 0
494 2 8.6134999999999984e+00 9.2355835810918343e+00 8.9013585744415256e+00 0 0 0
492 2 7.3829999999999991e+00 1.1366872099805333e+01 8.9013585744415256e+00 0 0 0
493 2 7.3830000000000009e+00 8.5251540748539991e+00 8.9013585744415256e+00 0 0 0
515 2 8.6134999999999984e+00 1.0656442593567498e+01 8.9013585744415256e+00 0 0 0
469 2 4.9220000000000006e+00 1.1366872099805333e+01 8.9013585744415256e+00 0 0 0
3793 1 5.5671704905443864e+00 3.6576490729350137e+00 1.1496234410303249e+01 1 0 -1
3741 1 7.5957994261105135e+00 9.8539623804439227e+00 2.1640875414556930e+01 0 -1 -1
4478 1 6.2046320979403428e-02 9.2543179215668534e+00 1.5159976227890507e+01 -2 2 0
2892 1 5.3392497453844205e+00 5.5783675405104640e+00 2.2000546589201196e+01 1 1 0
3699 1 5.2636818406579211e+00 3.3733373236011355e+00 1.4316538439542221e+01 2 0 0
4519 1 5.3475992525418237e+00 4.6332922653174619e-01 1.4662918665158037e+01 0 1 -1
26 1 2.3472214953202140e+00 7.4875668911252076e+00 1.4393445598048164e+01 0 0 0
756 1 2.8713194203917030e+00 4.7466912077457692e+00 1.4686452768432298e+01 0 0 0
4518 1 7.5072528273025529e+00 7.1886078844585137e+00 1.4253836450271805e+01 -1 2 -1
3747 1 7.5394184961820834e+00 4.5913161550450736e+00 1.5024287677204025e+01 1 -1 -1
3607 1 2.1902279769439284e-01 3.1936377649681571e+00 1.4144565356838294e+01 1 1 -1
2326 1 6.2268923642872065e-01 8.3168353472429524e-01 1.7610501026029695e+01 -1 -1 0
1561 1 5.1753883937928640e+00 1.1524704074834927e+01 2.1056310853868307e+01 0 2 -1
772 1 5.0180036897509295e+00 1.1312711989416087e+01 1.4494221895232505e+01 0 2 0
651 1 5.0134328256120408e+00 8.5469991731101516e+00 1.4574926178020052e+01 0 2 0
4389 1 6.7392997490365036e-01 3.4463497029847234e+00 1.8613544603698287e+01 3 0 0
2336 1 9.8406770506584103e+00 8.7434576130781738e-01 1.5007140322280540e+01 0 1 0
4480 1 5.4357124278012066e+00 5.6646341829070279e-01 1.7493760317137372e+01 3 0 1
742 1 5.3550585803875776e+00 3.2987890784512972e+00 1.8415492854555882e+01 2 -1 0
609 1 3.1487762233397447e+00 6.9637904236112291e+00 1.8557426864014392e+01 0 1 0
4347 1 3.0392354682671536e+00 4.3737548230283458e+00 1.7331931580962337e+01 2 1 -1
4335 1 7.5248915945550081e+00 7.2440653606512733e+00 1.8576533154003918e+01 -2 -1 -1
2136 1 7.5368168317560649e+00 4.7049811822313892e+00 1.7809341374483935e+01 -1 1 0
3840 1 9.2676246204443535e-01 8.4903903442080821e+00 1.7803385700377849e+01 2 -1 0
640 1 9.5616993652350135e-01 1.1423286724635192e+01 1.8357993873226022e+01 1 0 0
2992 1 7.8290801358225277e+00 1.7492990149362764e+00 2.2059903706144190e+01 1 0 -1
18 1 5.1562458078640159e+00 1.1380025545401759e+01 1.8384099726438489e+01 2 0 0
2090 1 5.1678571020732740e+00 8.5826674570106185e+00 1.7336403431106934e+01 0 1 -1
3026 1 8.9120729237841956e-01 1.1382643316384296e+01 2.1220042875882047e+01 -1 -3 -1
3730 1 1.1112055008386885e+00 3.1562630390685231e+00 2.1501657379185264e+01 0 -1 -1
616 1 3.1972794095026411e+00 9.8077524620873398e+00 2.2007993869886697e+01 0 0 -1
4521 1 5.4007600420534505e+00 3.0194411471681848e+00 2.1197384502699784e+01 0 1 -1
1468 1 3.4788566854592546e+00 1.6539961000942582e+00 2.2241823273213772e+01 1 0 0
1410 1 3.3064859366801258e+00 7.1611749198510211e+00 2.1312067333703443e+01 -2 0 0
3875 1 1.0422451550459075e+00 5.9024796942986688e+00 2.2275862960930301e+01 0 -1 -1
3608 1 7.2955476801445096e+00 7.0802355223761220e+00 2.1296301806686614e+01 1 0 0
4535 1 2.0447562577014583e-01 4.9372849816076286e-01 1.4893713851037155e+01 0 0 -1
2167 1 5.7143564803965523e+00 6.1911813849392872e-01 1.1620447675318191e+01 2 2 0
1628 1 9.6890328385263853e+00 1.1319931424420597e+01 2.0919978266879614e+01 -2 0 0
3835 1 9.7201290249268464e+00 8.7246399538443651e+00 1.7677177242929641e+01 0 0 0
1614 1 9.7601647990194316e+00 3.1498345172317039e+00 1.8499873325659355e+01 1 0 1
3623 1 9.7711738406552939e+00 3.0291238056717935e+00 2.1058671173990735e+01 2 2 -1
3765 1 9.7726322618205064e+00 8.7923753280654129e+00 1.1760865466816792e+01 2 0 0
3106 1 9.8296186532116288e+00 8.9931197502221227e+00 1.4839899572111387e+01 0 0 0
3749 1 9.5706690482370256e+00 5.8452203915601038e+00 2.2116558583510287e+01 0 -1 -1
724 1 9.8034800424638213e+00 4.5542202138393045e-01 1.7809219951363080e+01 -1 1 0
2894 1 1.5869907485664214e-01 1.2144702605558008e+01 1.4326977191796740e+01 2 1 0
2165 1 7.3620817874198146e+00 7.4862764776133153e+00 1.1675496194108630e+01 0 0 0
55 1 2.0068098365386926e+00 7.4387382757079505e+00 1.1740735144282548e+01 1 0 1
659 1 4.9372080319568817e-01 7.2779918398388421e-01 1.1666200255653226e+01 1 1 0
2113 1 3.0108256865194551e+00 4.7138640641832188e+00 1.1643174243774874e+01 2 1 0
2867 1 8.1045249815416884e+00 4.8887240416925080e+00 1.1603436641389994e+01 -1 -1 -1
3114 1 4.8716155980980815e+00 1.1616734562380307e+01 1.1926596096951510e+01 1 -1 -1
2183 1 3.3714962190737143e+00 1.8850715410286045e+00 2.4919041739912313e+01 1 0 -1
1494 1 1.1046596186565398e+00 7.1355505429147759e-01 2.8464154112701269e+01 -2 2 0
4443 1 7.8722642580537743e+00 1.5592946628291682e+00 2.4762658586328179e+01 0 0 -1
4513 1 5.3945256267793438e+00 3.0800018124479028e-01 2.5724805044996018e+01 1 0 -1
4515 1 7.1620428475128339e-01 5.8206770315687510e+00 2.4868151745655922e+01 2 0 1
3590 1 2.8690904841691811e+00 4.5263945111284150e+00 2.5644019018858032e+01 1 0 0
2273 1 5.2508052667717298e+00 5.6740766481005140e+00 2.4725009830422444e+01 -1 0 0
1420 1 7.5821122766691378e+00 4.4143824653419550e+00 2.5669433635796384e+01 -1 -1 0
737 1 9.5687968657030975e+00 1.1317428007038682e+01 2.9338847956602432e+01 1 1 -1
2994 1 3.2255291535447506e+00 9.9899435944965198e+00 2.4957521231709144e+01 1 1 0
2281 1 9.0913962123597569e-01 8.4245579546155014e+00 2.5848002149196098e+01 1 1 -1
721 1 7.6885422814161961e+00 1.0028306586038067e+01 2.4406489256076675e+01 2 2 0
729 1 5.5773438462738376e+00 8.6252938993718224e+00 2.5428171586650560e+01 1 3 0
2141 1 1.0848416763260835e+00 3.3031156525098266e+00 2.9768712348479585e+01 2 0 0
3633 1 9.8209086293213979e+00 8.5297109338019599e+00 3.2608082099327447e+01 -3 0 0
2161 1 7.9713638338394577e-01 7.8933506383095446e+00 3.2050454038056671e+01 2 0 -1
746 1 5.3173690804740827e+00 3.1875382570194146e+00 2.9144719846691743e+01 3 1 -1
801 1 6.8494433793445131e-01 1.0688823329829876e+01 3.2104423308081451e+01 3 1 0
4352 1 3.0940774472852035e+00 4.2366165504129008e+00 2.8333389882031081e+01 0 2 0
3635 1 3.2366826601655223e+00 6.6885398332456631e+00 2.9167417025877395e+01 -1 -1 0
3613 1 1.0166014054430723e+00 8.4709252943867455e+00 2.8706940292586282e+01 0 1 0
1415 1 7.7205678638293564e+00 4.2970902636774699e+00 2.8301470636463847e+01 0 0 0
4403 1 7.6821134461723695e+00 7.0218465491113955e+00 2.9046192035164129e+01 2 0 1
706 1 1.0401312889438856e+00 1.1054357077510302e+01 2.9170870731718484e+01 1 2 0
3674 1 5.4675668895779337e+00 1.1242494762501581e+01 3.1563339234015501e+01 3 0 -1
3611 1 5.0853244306678498e+00 1.1143854183610449e+01 2.8591147137906866e+01 1 -1 0
3675 1 5.2929218011466164e+00 8.4016141551713801e+00 2.8200342414734955e+01 1 0 -1
2855 1 5.2936744228647559e+00 8.4169605352686325e+00 3.2496692471062545e+01 1 0 0
1512 1 7.6087094757581850e+00 4.2199638370431360e+00 3.2316328592609693e+01 0 1 0
3599 1 5.0327406494794307e+00 2.7965916846871881e+00 3.1779778218015444e+01 2 -2 0
1404 1 2.3004694688222957e+00 3.9548772067454938e+00 3.2453352530295604e+01 1 2 -1
1403 1 3.3429742186617606e+00 6.5541080284873203e+00 3.2007863287074755e+01 2 0 0
3794 1 8.8302857393105660e-01 5.1540072840721973e-01 2.5700377218127127e+01 1 0 0
1595 1 7.7200242026681813e+00 6.9248175140590753e+00 3.1846245421877860e+01 0 -2 0
4381 1 5.4134317461477091e+00 3.9166860752758914e-01 2.8387990021312490e+01 0 1 -1
2388 1 9.6307967310886529e+00 1.1191048866404104e+01 3.1945423246638438e+01 2 1 0
4409 1 9.5323094538070734e+00 8.8465907894284630e+00 2.5766221163154608e+01 2 2 0
3092 1 2.9610433630876529e+00 1.2035166125067791e+01 3.2126465380447335e+01 2 -1 0
137 2 0.0000000000000000e+00 1.2787731112280996e+01 2.5968219777468047e+00 0 0 0
139 2 1.2305000000000001e+00 1.3498160618518829e+01 2.5968219777468047e+00 0 0 0
174 2 2.4610000000000003e+00 1.2787731112280996e+01 2.5968219777468047e+00 0 0 0
176 2 3.6915000000000004e+00 1.3498160618518829e+01 2.5968219777468047e+00 0 0 0
135 2 0.0000000000000000e+00 1.5629449137232333e+01 2.5968219777468047e+00 0 0 0
170 2 1.2305000000000001e+00 1.4919019630994494e+01 2.5968219777468047e+00 0 0 0
172 2 2.4610000000000003e+00 1.5629449137232328e+01 2.5968219777468047e+00 0 0 0
215 2 3.6915000000000004e+00 1.4919019630994494e+01 2.5968219777468047e+00 0 0 0
219 2 4.9220000000000006e+00 1.2787731112280996e+01 2.5968219777468047e+00 0 0 0
221 2 6.1524999999999990e+00 1.3498160618518829e+01 2.5968219777468047e+00 0 0 0
266 2 7.3829999999999991e+00 1.2787731112280996e+01 2.5968219777468047e+00 0 0 0
268 2 8.6135000000000002e+00 1.3498160618518835e+01 2.5968219777468047e+00 0 0 0
217 2 4.9220000000000006e+00 1.5629449137232333e+01 2.5968219777468047e+00 0 0 0
262 2 6.1524999999999990e+00 1.4919019630994494e+01 2.5968219777468047e+00 0 0 0
264 2 7.3829999999999991e+00 1.5629449137232333e+01 2.5968219777468047e+00 0 0 0
309 2 8.6135000000000002e+00 1.4919019630994494e+01 2.5968219777468047e+00 0 0 0
166 2 0.0000000000000000e+00 1.7050308149707998e+01 2.5968219777468047e+00 0 0 0
211 2 2.4610000000000003e+00 1.7050308149707998e+01 2.5968219777468047e+00 0 0 0
164 2 0.0000000000000000e+00 1.9892026174659328e+01 2.5968219777468047e+00 0 0 0
168 2 1.2305000000000001e+00 1.7760737655945832e+01 2.5968219777468047e+00 0 0 0
207 2 1.2305000000000001e+00 1.9181596668421495e+01 2.5968219777468047e+00 0 0 0
209 2 2.4610000000000003e+00 1.9892026174659328e+01 2.5968219777468047e+00 0 0 0
213 2 3.6914999999999996e+00 1.7760737655945832e+01 2.5968219777468047e+00 0 0 0
254 2 3.6914999999999996e+00 1.9181596668421495e+01 2.5968219777468047e+00 0 0 0
258 2 4.9220000000000006e+00 1.7050308149707998e+01 2.5968219777468047e+00 0 0 0
305 2 7.3830000000000009e+00 1.7050308149707998e+01 2.5968219777468047e+00 0 0 0
256 2 4.9220000000000006e+00 1.9892026174659328e+01 2.5968219777468047e+00 0 0 0
260 2 6.1524999999999999e+00 1.7760737655945832e+01 2.5968219777468047e+00 0 0 0
301 2 6.1524999999999999e+00 1.9181596668421495e+01 2.5968219777468047e+00 0 0 0
303 2 7.3829999999999991e+00 1.9892026174659328e+01 2.5968219777468047e+00 0 0 0
307 2 8.6134999999999984e+00 1.7760737655945832e+01 2.5968219777468047e+00 0 0 0
343 2 8.6135000000000002e+00 1.9181596668421495e+01 2.5968219777468047e+00 0 0 0
201 2 0.0000000000000000e+00 2.4154603212086325e+01 2.5968219777468047e+00 0 0 0
203 2 0.0000000000000000e+00 2.1312885187134999e+01 2.5968219777468047e+00 0 0 0
205 2 1.2304999999999993e+00 2.2023314693372832e+01 2.5968219777468047e+00 0 0 0
246 2 1.2304999999999993e+00 2.3444173705848499e+01 2.5968219777468047e+00 0 0 0
248 2 2.4610000000000003e+00 2.4154603212086325e+01 2.5968219777468047e+00 0 0 0
250 2 2.4610000000000003e+00 2.1312885187134995e+01 2.5968219777468047e+00 0 0 0
252 2 3.6914999999999996e+00 2.2023314693372832e+01 2.5968219777468047e+00 0 0 0
293 2 3.6915000000000004e+00 2.3444173705848499e+01 2.5968219777468047e+00 0 0 0
295 2 4.9220000000000006e+00 2.4154603212086325e+01 2.5968219777468047e+00 0 0 0
297 2 4.9220000000000006e+00 2.1312885187134995e+01 2.5968219777468047e+00 0 0 0
299 2 6.1524999999999990e+00 2.2023314693372832e+01 2.5968219777468047e+00 0 0 0
335 2 6.1524999999999999e+00 2.3444173705848499e+01 2.5968219777468047e+00 0 0 0
337 2 7.3830000000000009e+00 2.4154603212086336e+01 2.5968219777468047e+00 0 0 0
339 2 7.3829999999999991e+00 2.1312885187134999e+01 2.5968219777468047e+00 0 0 0
341 2 8.6135000000000002e+00 2.2023314693372832e+01 2.5968219777468047e+00 0 0 0
369 2 8.6134999999999984e+00 2.3444173705848499e+01 2.5968219777468047e+00 0 0 0
138 2 0.0000000000000000e+00 1.2787731112280996e+01 5.7490902760971831e+00 0 0 0
175 2 2.4610000000000003e+00 1.2787731112280996e+01 5.7490902760971831e+00 0 0 0
136 2 0.0000000000000000e+00 1.4208590124756663e+01 5.7490902760971831e+00 0 0 0
171 2 1.2305000000000001e+00 1.4919019630994494e+01 5.7490902760971831e+00 0 0 0
173 2 2.4610000000000003e+00 1.4208590124756663e+01 5.7490902760971831e+00 0 0 0
216 2 3.6915000000000004e+00 1.4919019630994494e+01 5.7490902760971831e+00 0 0 0
220 2 4.9220000000000006e+00 1.2787731112280996e+01 5.7490902760971831e+00 0 0 0
267 2 7.3829999999999991e+00 1.2787731112280996e+01 5.7490902760971831e+00 0 0 0
218 2 4.9220000000000006e+00 1.4208590124756663e+01 5.7490902760971831e+00 0 0 0
263 2 6.1524999999999990e+00 1.4919019630994494e+01 5.7490902760971831e+00 0 0 0
265 2 7.3830000000000009e+00 1.4208590124756663e+01 5.7490902760971831e+00 0 0 0
310 2 8.6135000000000002e+00 1.4919019630994494e+01 5.7490902760971831e+00 0 0 0
167 2 0.0000000000000000e+00 1.7050308149707998e+01 5.7490902760971831e+00 0 0 0
169 2 1.2305000000000001e+00 1.6339878643470165e+01 5.7490902760971831e+00 0 0 0
212 2 2.4610000000000003e+00 1.7050308149707998e+01 5.7490902760971831e+00 0 0 0
214 2 3.6915000000000004e+00 1.6339878643470165e+01 5.7490902760971831e+00 0 0 0
165 2 0.0000000000000000e+00 1.8471167162183658e+01 5.7490902760971831e+00 0 0 0
208 2 1.2305000000000001e+00 1.9181596668421495e+01 5.7490902760971831e+00 0 0 0
210 2 2.4610000000000003e+00 1.8471167162183658e+01 5.7490902760971831e+00 0 0 0
255 2 3.6914999999999996e+00 1.9181596668421495e+01 5.7490902760971831e+00 0 0 0
259 2 4.9220000000000006e+00 1.7050308149707998e+01 5.7490902760971831e+00 0 0 0
261 2 6.1524999999999999e+00 1.6339878643470165e+01 5.7490902760971831e+00 0 0 0
306 2 7.3830000000000009e+00 1.7050308149707998e+01 5.7490902760971831e+00 0 0 0
308 2 8.6134999999999984e+00 1.6339878643470165e+01 5.7490902760971831e+00 0 0 0
257 2 4.9220000000000006e+00 1.8471167162183658e+01 5.7490902760971831e+00 0 0 0
302 2 6.1524999999999999e+00 1.9181596668421495e+01 5.7490902760971831e+00 0 0 0
304 2 7.3829999999999991e+00 1.8471167162183658e+01 5.7490902760971831e+00 0 0 0
344 2 8.6135000000000002e+00 1.9181596668421495e+01 5.7490902760971831e+00 0 0 0
206 2 1.2305000000000001e+00 2.0602455680897162e+01 5.7490902760971831e+00 0 0 0
253 2 3.6915000000000004e+00 2.0602455680897162e+01 5.7490902760971831e+00 0 0 0
202 2 0.0000000000000000e+00 2.2733744199610655e+01 5.7490902760971831e+00 0 0 0
204 2 0.0000000000000000e+00 2.1312885187134999e+01 5.7490902760971831e+00 0 0 0
247 2 1.2304999999999993e+00 2.3444173705848499e+01 5.7490902760971831e+00 0 0 0
249 2 2.4610000000000003e+00 2.2733744199610655e+01 5.7490902760971831e+00 0 0 0
251 2 2.4610000000000003e+00 2.1312885187134995e+01 5.7490902760971831e+00 0 0 0
294 2 3.6915000000000004e+00 2.3444173705848499e+01 5.7490902760971831e+00 0 0 0
300 2 6.1524999999999999e+00 2.0602455680897162e+01 5.7490902760971831e+00 0 0 0
342 2 8.6134999999999984e+00 2.0602455680897162e+01 5.7490902760971831e+00 0 0 0
296 2 4.9220000000000006e+00 2.2733744199610655e+01 5.7490902760971831e+00 0 0 0
298 2 4.9220000000000006e+00 2.1312885187134995e+01 5.7490902760971831e+00 0 0 0
336 2 6.1524999999999999e+00 2.3444173705848499e+01 5.7490902760971831e+00 0 0 0
338 2 7.3829999999999991e+00 2.2733744199610655e+01 5.7490902760971831e+00 0 0 0
340 2 7.3829999999999991e+00 2.1312885187134999e+01 5.7490902760971831e+00 0 0 0
370 2 8.6134999999999984e+00 2.3444173705848499e+01 5.7490902760971831e+00 0 0 0
447 2 0.0000000000000000e+00 1.2787731112280996e+01 8.9013585744415256e+00 0 0 0
448 2 1.2305000000000001e+00 1.3498160618518829e+01 8.9013585744415256e+00 0 0 0
466 2 2.4610000000000003e+00 1.2787731112280996e+01 8.9013585744415256e+00 0 0 0
467 2 3.6915000000000004e+00 1.3498160618518829e+01 8.9013585744415256e+00 0 0 0
446 2 0.0000000000000000e+00 1.5629449137232333e+01 8.9013585744415256e+00 0 0 0
464 2 1.2305000000000001e+00 1.4919019630994494e+01 8.9013585744415256e+00 0 0 0
465 2 2.4610000000000003e+00 1.5629449137232328e+01 8.9013585744415256e+00 0 0 0
487 2 3.6915000000000004e+00 1.4919019630994494e+01 8.9013585744415256e+00 0 0 0
551 2 8.6135000000000002e+00 2.2023314693372832e+01 8.9013585744415256e+00 0 0 0
528 2 4.9220000000000006e+00 2.4154603212086325e+01 8.9013585744415256e+00 0 0 0
489 2 4.9220000000000006e+00 1.2787731112280996e+01 8.9013585744415256e+00 0 0 0
490 2 6.1524999999999990e+00 1.3498160618518829e+01 8.9013585744415256e+00 0 0 0
513 2 7.3829999999999991e+00 1.2787731112280996e+01 8.9013585744415256e+00 0 0 0
514 2 8.6135000000000002e+00 1.3498160618518835e+01 8.9013585744415256e+00 0 0 0
488 2 4.9220000000000006e+00 1.5629449137232333e+01 8.9013585744415256e+00 0 0 0
511 2 6.1524999999999990e+00 1.4919019630994494e+01 8.9013585744415256e+00 0 0 0
512 2 7.3829999999999991e+00 1.5629449137232333e+01 8.9013585744415256e+00 0 0 0
535 2 8.6135000000000002e+00 1.4919019630994494e+01 8.9013585744415256e+00 0 0 0
565 2 8.6134999999999984e+00 2.3444173705848499e+01 8.9013585744415256e+00 0 0 0
462 2 0.0000000000000000e+00 1.7050308149707998e+01 8.9013585744415256e+00 0 0 0
485 2 2.4610000000000003e+00 1.7050308149707998e+01 8.9013585744415256e+00 0 0 0
461 2 0.0000000000000000e+00 1.9892026174659328e+01 8.9013585744415256e+00 0 0 0
463 2 1.2305000000000001e+00 1.7760737655945832e+01 8.9013585744415256e+00 0 0 0
483 2 1.2305000000000001e+00 1.9181596668421495e+01 8.9013585744415256e+00 0 0 0
484 2 2.4610000000000003e+00 1.9892026174659328e+01 8.9013585744415256e+00 0 0 0
486 2 3.6914999999999996e+00 1.7760737655945832e+01 8.9013585744415256e+00 0 0 0
507 2 3.6914999999999996e+00 1.9181596668421495e+01 8.9013585744415256e+00 0 0 0
550 2 7.3829999999999991e+00 2.1312885187134999e+01 8.9013585744415256e+00 0 0 0
549 2 7.3830000000000009e+00 2.4154603212086336e+01 8.9013585744415256e+00 0 0 0
509 2 4.9220000000000006e+00 1.7050308149707998e+01 8.9013585744415256e+00 0 0 0
533 2 7.3830000000000009e+00 1.7050308149707998e+01 8.9013585744415256e+00 0 0 0
508 2 4.9220000000000006e+00 1.9892026174659328e+01 8.9013585744415256e+00 0 0 0
510 2 6.1524999999999999e+00 1.7760737655945832e+01 8.9013585744415256e+00 0 0 0
531 2 6.1524999999999999e+00 1.9181596668421495e+01 8.9013585744415256e+00 0 0 0
532 2 7.3829999999999991e+00 1.9892026174659328e+01 8.9013585744415256e+00 0 0 0