LAMMPS data file via write_data, version 16 Mar 2018, timestep = 100000

6328 atoms
2 atom types

0.0000000000000000e+00 4.9219999999999999e+01 xlo xhi
0.0000000000000000e+00 4.9019635930410494e+01 ylo yhi
3.6310467520107643e+00 5.6430953247989308e+01 zlo zhi

Masses

1 18.015
2 12.01

Atoms # atomic

1364 1 3.1860419900712849e+00 2.9329440701302345e+00 6.6279493292125036e+00 0 0 1
3526 1 9.8732911667308620e+00 3.3469298324288661e+00 6.7011121354705683e+00 0 0 0
3404 1 6.0749294188785914e+00 5.1219061460921473e+00 7.8401541806321147e+00 1 0 0
1416 1 1.1632346179714515e+01 7.5088995199309148e+00 1.0804572961174802e+01 2 0 1
1546 1 3.9963484216902918e+00 4.1663834305372545e+00 9.2528572693988433e+00 0 0 1
2935 1 7.5982329905439476e+00 1.8892672116163318e+00 8.6683344795767923e+00 1 2 1
6058 1 1.5623142009669801e+00 1.1752085767014247e+01 1.0269180650454949e+01 1 0 1
1929 1 9.7421677096433719e+00 5.6294067764821032e-01 7.1942459812308961e+00 0 0 0
4874 1 3.8396529549768017e+00 1.2084657990794634e-01 6.2441672993576045e+00 1 0 0
5292 1 1.2045907468760255e+00 5.0179283891584738e+00 6.4375413230078458e+00 0 1 1
5232 1 4.1494473567358092e+00 1.0519069811609471e+01 1.0716751757023223e+01 1 2 1
1961 1 5.6616560139939756e+00 8.0179943237831761e+00 7.4684409400788514e+00 0 1 0
4596 1 6.3334350367559553e+00 8.0610381588414342e+00 4.5432401682113701e+00 0 1 0
6075 1 1.9928149053054562e+00 9.4430012268059933e+00 6.6232008177746415e+00 0 0 1
1334 1 8.6826748003603580e+00 6.9513793263673174e+00 6.0461787539662506e+00 0 0 0
5276 1 3.7197585176901211e+00 4.0003043721557239e+00 3.7724078951529441e+00 0 0 1
119 1 1.1047859929922257e+00 6.4375537383285355e+00 1.5193389862168992e+01 0 1 0
4564 1 6.0726693106162353e+00 8.1013049287018504e+00 1.4287137948800051e+01 0 0 0
1788 1 8.1832108142851965e+00 4.5423971134675822e+00 5.0842168274664132e+00 1 1 0
4996 1 4.9468762150919314e+00 1.1206756494730007e+01 6.5929707420832928e+00 1 0 0
4632 1 7.8748667352110457e+00 1.0241773549620943e+01 3.7133102195892640e+00 1 1 1
2829 1 1.1015861150818994e+01 7.7025437050579466e+00 4.7670659079543132e+00 1 0 1
3089 1 7.5625454084166090e+00 1.1970163144383465e+01 6.0788794897370355e+00 1 0 1
6169 1 2.4190239435690999e+00 9.6526320143352144e+00 1.6606301959071082e+01 -1 0 0
81 1 8.2429086014012132e+00 1.1337570404354262e+01 1.6084872464362114e+01 1 -1 -1
5960 1 7.8822869656333161e+00 1.4204107286817318e+00 1.1483452429850114e+01 0 0 1
4486 1 1.0452187656648606e+01 2.9585375710631228e+00 1.1887981370428415e+01 0 0 1
2141 1 8.5663100601676501e+00 4.5291360925293134e+00 9.4481121041619165e+00 1 2 0
5101 1 3.5835914065805432e+00 1.2300155986025374e+00 1.1547747145930957e+01 1 0 1
1928 1 3.3099423751961496e+00 8.5416544538815717e+00 8.8164791241575529e+00 2 0 0
1860 1 1.9294923487042159e+00 5.9450820136819491e+00 8.9236166822655374e+00 0 0 0
2801 1 7.7084360444937747e+00 8.0062100040221953e+00 9.3436506253460117e+00 1 0 0
3318 1 5.8723298094667786e+00 7.9590764971049417e+00 1.1298831008803170e+01 2 1 0
6062 1 6.6945162524913160e+00 5.3877599665182823e+00 1.1368448824309844e+01 1 1 0
3197 1 1.0170718095398806e+01 6.6492322618334754e+00 8.8199941002461841e+00 1 0 0
1964 1 1.1909858394098443e+01 1.1500626454814368e+01 8.5366628854867681e+00 0 0 0
3446 1 1.3364762138330830e+00 7.3041594988336680e+00 4.9273002942834552e+00 1 1 1
85 1 6.1957366285672544e+00 3.4336376517622008e-01 4.5170948557096704e+00 1 0 0
38 1 1.1008670008459692e+01 6.8690920531948869e+00 1.3487615948764400e+01 0 0 0
3378 1 6.1083707089708794e-01 7.9838120808688577e+00 1.2582622678084242e+01 1 0 0
1432 1 6.3994566200226561e+00 1.1206260806406865e+01 9.5155736646785218e+00 0 0 0
1772 1 7.6376464957251375e+00 1.0020807684436519e+01 1.2756283456198258e+01 -1 0 0
3257 1 2.1042421306437826e+00 1.5026276351224304e+00 9.1353336605840116e+00 -1 1 1
1830 1 9.4986858828931986e+00 9.9462566676161845e+00 1.0346913808279425e+01 0 1 0
6238 1 3.3408023574684096e+00 2.4346357570301018e+00 1.5402758468064986e+01 0 0 1
250 1 1.0094128399191645e+01 8.4745294151937038e+00 1.6691352285815235e+01 0 0 0
281 1 6.4333329053330113e+00 1.8040107486909851e+00 1.3708482376354723e+01 0 1 0
4619 1 1.8136172956515437e+00 5.3822107366405147e-01 4.1937929753679697e+00 0 0 1
278 1 4.8858154751633798e+00 3.4173150948333233e+00 1.2087063139656241e+01 0 0 0
1731 1 6.1776150130128586e+00 2.8902352277031200e+00 5.8821688799553806e+00 0 0 0
5177 1 9.9033262305974521e+00 1.1963998998698215e+00 1.4368065082367858e+01 -1 -1 0
6064 1 8.3300457595657971e+00 3.3860157056988420e+00 1.5639514316607750e+01 1 0 1
3116 1 4.9484943159588735e-01 3.5224287690232927e+00 1.5498741378241382e+01 0 1 1
6158 1 3.2589242878631870e+00 6.7664401239519218e+00 1.1521952655691024e+01 0 2 1
5981 1 6.1092076098393342e+00 5.4312340429233332e+00 1.5007375424171993e+01 -1 0 0
4931 1 8.9596319147386136e+00 4.9611810992740901e+00 1.3073789492724512e+01 0 0 1
4795 1 3.5366510671690246e+00 4.8747091255205941e+00 1.3866544826642038e+01 1 1 1
1834 1 9.9291998815359825e+00 9.4442258425307397e+00 1.3989730148860664e+01 0 1 0
177 1 4.0550937523540238e+00 1.1567927651528160e+01 1.3247177294100904e+01 1 -1 1
1734 1 3.4449801914667573e+00 8.9154597098258286e+00 1.4114063825012503e+01 1 1 1
4430 1 2.8099768268168650e+00 1.1619251804688151e+01 4.4159074933823455e+00 1 -1 1
5007 1 1.1823398789848033e+01 5.0634459494865007e+00 7.1769521076730083e+00 1 1 0
4671 1 1.1971119199918352e+01 2.7003171644817097e+00 1.6785699519431034e+01 0 0 1
5012 1 2.1320135929552664e+00 3.2758347494272644e+00 1.8247421640854967e+01 0 0 0
3689 1 5.4802740585298260e-01 9.7263870718755516e+00 2.4201307695736325e+01 -2 0 0
730 2 9.8440000000000012e+00 8.5251540748539956e+00 2.6880157456544950e+01 0 0 0
6101 1 9.9165837243467454e+00 6.2805229664947637e-01 1.9694477568323016e+01 0 1 0
5038 1 5.9235250830691273e+00 1.5504000514759779e+00 2.0097775972133199e+01 0 0 0
5304 1 7.5735809548617210e+00 3.3593233870409276e+00 2.1574989800968737e+01 1 0 1
17 1 9.6690851204750494e+00 1.7361710412592593e-01 2.3924098851182023e+01 -1 1 0
359 1 9.9377176633375051e+00 3.2945304392131054e+00 2.0209633049013689e+01 -1 -1 1
2958 1 9.2476694394330288e+00 9.9810152011550564e+00 2.1749716433126103e+01 1 1 1
157 1 1.8066176963993215e+00 7.0671084863307243e+00 2.4498527350046640e+01 0 1 1
6323 1 1.1777746047569468e+00 6.3466256625490081e+00 1.7981401849264060e+01 0 0 1
5075 1 5.1403267802671782e-01 6.8448404011168646e+00 2.1836912708156156e+01 0 -1 0
1342 1 5.9426267462151587e+00 5.9970345329142116e+00 1.7707795160640902e+01 0 0 0
3697 1 3.5572880980092960e+00 7.4937040683167222e+00 1.8427703799725013e+01 1 0 1
3412 1 1.0921910040699641e+01 7.8878747498296375e+00 2.1096426005361245e+01 1 0 1
5093 1 9.4471691055896798e+00 4.6415934407602411e+00 1.7914502939001167e+01 1 0 1
3469 1 1.2961600790735406e+00 4.3903517857814434e+00 2.4316979505174999e+01 -1 0 0
1917 1 1.9008244896551236e+00 3.0317740945179822e-01 1.7296493729971619e+01 0 -1 0
211 1 6.3325299928891514e+00 1.1528296584576246e+01 1.8217290275792514e+01 1 0 0
775 2 1.2304999999999998e+01 1.1366872099805333e+01 2.6880157456544950e+01 0 0 0
446 1 8.6793312686314064e+00 6.8815331932257644e+00 1.9210599485949203e+01 -1 1 1
439 1 6.7664995793502341e+00 9.2177727089020713e+00 2.0361001546144202e+01 0 0 1
2927 1 3.2679285979272654e+00 1.8055877907306341e+00 2.1699289954722548e+01 0 0 1
4852 1 1.1950187771247898e+00 3.9765184681324688e+00 2.1297010186699520e+01 0 0 1
3465 1 4.4243158482267724e+00 4.0470040191800507e+00 1.9422931379988626e+01 0 0 0
726 2 8.6134999999999984e+00 1.0656442593567498e+01 2.6880157456544950e+01 0 0 0
3216 1 1.9118880298225968e-01 1.2000284031047947e+00 1.9983285007891048e+01 1 0 0
3111 1 3.1915616481103402e+00 4.9291798944574078e-01 2.4377960426338614e+01 0 0 1
6322 1 1.1644469713078063e+01 6.0452813023581502e+00 1.7289567503720274e+01 1 0 1
392 1 8.5167178272143964e+00 3.0067930738475757e+00 2.4414735342937462e+01 1 2 0
3133 1 1.1127865221834647e+01 3.8676025749732865e+00 2.4406250385925375e+01 0 1 1
1760 1 3.7379905677287031e+00 1.0011043795921884e+01 2.0029311129107025e+01 0 1 0
389 1 4.5754669892782545e+00 7.4447435084960221e+00 2.3653467046136278e+01 0 0 0
4504 1 3.7954582843749605e+00 3.4693688700454670e+00 2.3741262521062154e+01 0 1 1
2063 1 6.1795030509369200e+00 5.0314284429636000e+00 2.4261939144748236e+01 1 0 1
362 1 3.7457036800683521e+00 6.3588684003419189e+00 2.1147122258383604e+01 0 -1 0
1757 1 8.3471569414684694e+00 7.0980743555648829e+00 2.3631575419932247e+01 0 1 0
4965 1 6.7284557284736408e+00 6.0518199354925013e+00 2.1228083951177492e+01 0 0 0
5193 1 1.1071476533314206e+01 6.6139290303840079e+00 2.3755241032853608e+01 1 1 0
1594 1 1.3645698662931298e+00 9.5665790872367307e+00 2.1342537078076976e+01 1 1 1
4519 1 5.6693033889773190e+00 2.6868706782104352e+00 1.6837884146576251e+01 -1 2 1
3463 1 7.1635019489930307e-01 1.3901954073876543e+00 2.4157715700565692e+01 1 1 0
127 1 5.3034197632734772e+00 1.0188296117240238e+01 2.2852041378633391e+01 0 -1 1
6007 1 7.2780564173603990e+00 8.6944762495585248e+00 1.6945115791563843e+01 0 1 0
4939 1 1.0952346562381909e+01 1.0766907406796745e+01 2.4513754495440740e+01 1 0 1
1907 1 3.1642876973891640e+00 1.1148981111926741e+01 2.4567846476944680e+01 0 -1 1
282 1 7.7378698151042533e+00 1.0218201376809649e+01 2.4288164787229796e+01 0 1 0
552 2 0.0000000000000000e+00 2.8417180249513345e+00 2.6880157456544950e+01 0 0 0
554 2 0.0000000000000000e+00 0.0000000000000000e+00 2.6880157456544950e+01 0 0 0
556 2 1.2305000000000001e+00 7.1042950623783474e-01 2.6880157456544950e+01 0 0 0
563 2 1.2305000000000001e+00 2.1312885187134998e+00 2.6880157456544950e+01 0 0 0
565 2 2.4610000000000003e+00 2.8417180249513345e+00 2.6880157456544950e+01 0 0 0
567 2 2.4610000000000003e+00 0.0000000000000000e+00 2.6880157456544950e+01 0 0 0
569 2 3.6915000000000004e+00 7.1042950623783474e-01 2.6880157456544950e+01 0 0 0
584 2 3.6914999999999996e+00 2.1312885187134998e+00 2.6880157456544950e+01 0 0 0
586 2 4.9220000000000006e+00 2.8417180249513332e+00 2.6880157456544950e+01 0 0 0
588 2 4.9220000000000006e+00 0.0000000000000000e+00 2.6880157456544950e+01 0 0 0
590 2 6.1524999999999999e+00 7.1042950623783407e-01 2.6880157456544950e+01 0 0 0
613 2 6.1524999999999999e+00 2.1312885187134989e+00 2.6880157456544950e+01 0 0 0
615 2 7.3829999999999991e+00 2.8417180249513345e+00 2.6880157456544950e+01 0 0 0
617 2 7.3829999999999991e+00 0.0000000000000000e+00 2.6880157456544950e+01 0 0 0
619 2 8.6134999999999984e+00 7.1042950623783407e-01 2.6880157456544950e+01 0 0 0
650 2 8.6134999999999984e+00 2.1312885187135002e+00 2.6880157456544950e+01 0 0 0
652 2 9.8440000000000012e+00 2.8417180249513332e+00 2.6880157456544950e+01 0 0 0
654 2 9.8440000000000012e+00 0.0000000000000000e+00 2.6880157456544950e+01 0 0 0
656 2 1.1074500000000002e+01 7.1042950623783330e-01 2.6880157456544950e+01 0 0 0
695 2 1.1074500000000002e+01 2.1312885187135002e+00 2.6880157456544950e+01 0 0 0
559 2 0.0000000000000000e+00 4.2625770374269996e+00 2.6880157456544950e+01 0 0 0
561 2 1.2305000000000001e+00 4.9730065436648339e+00 2.6880157456544950e+01 0 0 0
576 2 1.2305000000000001e+00 6.3938655561404980e+00 2.6880157456544950e+01 0 0 0
580 2 2.4610000000000003e+00 4.2625770374269996e+00 2.6880157456544950e+01 0 0 0
582 2 3.6914999999999996e+00 4.9730065436648339e+00 2.6880157456544950e+01 0 0 0
605 2 3.6914999999999996e+00 6.3938655561404980e+00 2.6880157456544950e+01 0 0 0
557 2 0.0000000000000000e+00 7.1042950623783341e+00 2.6880157456544950e+01 0 0 0
578 2 2.4610000000000003e+00 7.1042950623783341e+00 2.6880157456544950e+01 0 0 0
609 2 4.9220000000000006e+00 4.2625770374269978e+00 2.6880157456544950e+01 0 0 0
611 2 6.1524999999999999e+00 4.9730065436648339e+00 2.6880157456544950e+01 0 0 0
642 2 6.1524999999999999e+00 6.3938655561404980e+00 2.6880157456544950e+01 0 0 0
646 2 7.3829999999999991e+00 4.2625770374269996e+00 2.6880157456544950e+01 0 0 0
607 2 4.9220000000000006e+00 7.1042950623783341e+00 2.6880157456544950e+01 0 0 0
644 2 7.3830000000000009e+00 7.1042950623783341e+00 2.6880157456544950e+01 0 0 0
648 2 8.6135000000000002e+00 4.9730065436648339e+00 2.6880157456544950e+01 0 0 0
687 2 8.6135000000000002e+00 6.3938655561404980e+00 2.6880157456544950e+01 0 0 0
691 2 9.8440000000000012e+00 4.2625770374270004e+00 2.6880157456544950e+01 0 0 0
693 2 1.1074500000000002e+01 4.9730065436648339e+00 2.6880157456544950e+01 0 0 0
734 2 1.1074500000000002e+01 6.3938655561404980e+00 2.6880157456544950e+01 0 0 0
689 2 9.8440000000000012e+00 7.1042950623783341e+00 2.6880157456544950e+01 0 0 0
572 2 0.0000000000000000e+00 8.5251540748539991e+00 2.6880157456544950e+01 0 0 0
574 2 1.2305000000000001e+00 9.2355835810918343e+00 2.6880157456544950e+01 0 0 0
601 2 2.4610000000000003e+00 8.5251540748539991e+00 2.6880157456544950e+01 0 0 0
603 2 3.6915000000000004e+00 9.2355835810918343e+00 2.6880157456544950e+01 0 0 0
570 2 0.0000000000000000e+00 1.1366872099805333e+01 2.6880157456544950e+01 0 0 0
597 2 1.2305000000000001e+00 1.0656442593567498e+01 2.6880157456544950e+01 0 0 0
599 2 2.4610000000000003e+00 1.1366872099805333e+01 2.6880157456544950e+01 0 0 0
634 2 3.6914999999999996e+00 1.0656442593567499e+01 2.6880157456544950e+01 0 0 0
640 2 6.1524999999999999e+00 9.2355835810918343e+00 2.6880157456544950e+01 0 0 0
679 2 6.1524999999999999e+00 1.0656442593567499e+01 2.6880157456544950e+01 0 0 0
638 2 4.9220000000000006e+00 8.5251540748539991e+00 2.6880157456544950e+01 0 0 0
681 2 7.3829999999999991e+00 1.1366872099805333e+01 2.6880157456544950e+01 0 0 0
683 2 7.3830000000000009e+00 8.5251540748539991e+00 2.6880157456544950e+01 0 0 0
636 2 4.9220000000000006e+00 1.1366872099805333e+01 2.6880157456544950e+01 0 0 0
773 2 1.1074500000000002e+01 1.0656442593567498e+01 2.6880157456544950e+01 0 0 0
728 2 9.8440000000000012e+00 1.1366872099805333e+01 2.6880157456544950e+01 0 0 0
685 2 8.6134999999999984e+00 9.2355835810918343e+00 2.6880157456544950e+01 0 0 0
732 2 1.1074500000000002e+01 9.2355835810918343e+00 2.6880157456544950e+01 0 0 0
3591 1 3.6306408566703925e+00 1.1770463968650020e+01 1.7435213594544685e+01 0 0 0
3371 1 6.0813151068503855e+00 1.1843374619880485e+00 2.4576851400095194e+01 0 1 1
2987 1 1.0383624548116671e+01 1.9493771836499102e-01 1.7070299562839580e+01 1 -2 1
553 2 0.0000000000000000e+00 1.4208590124756650e+00 3.0031000000000091e+01 0 0 0
555 2 0.0000000000000000e+00 0.0000000000000000e+00 3.0031000000000091e+01 0 0 0
564 2 1.2305000000000001e+00 2.1312885187134998e+00 3.0031000000000091e+01 0 0 0
566 2 2.4610000000000003e+00 1.4208590124756650e+00 3.0031000000000091e+01 0 0 0
568 2 2.4610000000000003e+00 0.0000000000000000e+00 3.0031000000000091e+01 0 0 0
585 2 3.6914999999999996e+00 2.1312885187134998e+00 3.0031000000000091e+01 0 0 0
562 2 1.2305000000000001e+00 3.5521475311891644e+00 3.0031000000000091e+01 0 0 0
583 2 3.6914999999999996e+00 3.5521475311891644e+00 3.0031000000000091e+01 0 0 0
881 2 0.0000000000000000e+00 2.8417180249513345e+00 3.3181842543454110e+01 0 0 0
882 2 0.0000000000000000e+00 0.0000000000000000e+00 3.3181842543454110e+01 0 0 0
883 2 1.2305000000000001e+00 7.1042950623783474e-01 3.3181842543454110e+01 0 0 0
887 2 1.2305000000000001e+00 2.1312885187134998e+00 3.3181842543454110e+01 0 0 0
888 2 2.4610000000000003e+00 2.8417180249513345e+00 3.3181842543454110e+01 0 0 0
889 2 2.4610000000000003e+00 0.0000000000000000e+00 3.3181842543454110e+01 0 0 0
890 2 3.6915000000000004e+00 7.1042950623783474e-01 3.3181842543454110e+01 0 0 0
898 2 3.6914999999999996e+00 2.1312885187134998e+00 3.3181842543454110e+01 0 0 0
587 2 4.9220000000000006e+00 1.4208590124756650e+00 3.0031000000000091e+01 0 0 0
589 2 4.9220000000000006e+00 0.0000000000000000e+00 3.0031000000000091e+01 0 0 0
614 2 6.1524999999999999e+00 2.1312885187134989e+00 3.0031000000000091e+01 0 0 0
616 2 7.3829999999999991e+00 1.4208590124756659e+00 3.0031000000000091e+01 0 0 0
618 2 7.3829999999999991e+00 0.0000000000000000e+00 3.0031000000000091e+01 0 0 0
612 2 6.1524999999999999e+00 3.5521475311891644e+00 3.0031000000000091e+01 0 0 0
899 2 4.9220000000000006e+00 2.8417180249513332e+00 3.3181842543454110e+01 0 0 0
900 2 4.9220000000000006e+00 0.0000000000000000e+00 3.3181842543454110e+01 0 0 0
901 2 6.1524999999999999e+00 7.1042950623783407e-01 3.3181842543454110e+01 0 0 0
913 2 6.1524999999999999e+00 2.1312885187134989e+00 3.3181842543454110e+01 0 0 0
914 2 7.3829999999999991e+00 2.8417180249513345e+00 3.3181842543454110e+01 0 0 0
915 2 7.3829999999999991e+00 0.0000000000000000e+00 3.3181842543454110e+01 0 0 0
651 2 8.6134999999999984e+00 2.1312885187135002e+00 3.0031000000000091e+01 0 0 0
653 2 9.8440000000000012e+00 1.4208590124756659e+00 3.0031000000000091e+01 0 0 0
655 2 9.8440000000000012e+00 0.0000000000000000e+00 3.0031000000000091e+01 0 0 0
696 2 1.1074500000000002e+01 2.1312885187135002e+00 3.0031000000000091e+01 0 0 0
649 2 8.6134999999999984e+00 3.5521475311891657e+00 3.0031000000000091e+01 0 0 0
694 2 1.1074500000000002e+01 3.5521475311891644e+00 3.0031000000000091e+01 0 0 0
916 2 8.6134999999999984e+00 7.1042950623783407e-01 3.3181842543454110e+01 0 0 0
932 2 8.6134999999999984e+00 2.1312885187135002e+00 3.3181842543454110e+01 0 0 0
933 2 9.8440000000000012e+00 2.8417180249513332e+00 3.3181842543454110e+01 0 0 0
934 2 9.8440000000000012e+00 0.0000000000000000e+00 3.3181842543454110e+01 0 0 0
935 2 1.1074500000000002e+01 7.1042950623783330e-01 3.3181842543454110e+01 0 0 0
955 2 1.1074500000000002e+01 2.1312885187135002e+00 3.3181842543454110e+01 0 0 0
558 2 0.0000000000000000e+00 5.6834360499026637e+00 3.0031000000000091e+01 0 0 0
560 2 0.0000000000000000e+00 4.2625770374269996e+00 3.0031000000000091e+01 0 0 0
577 2 1.2305000000000001e+00 6.3938655561404980e+00 3.0031000000000091e+01 0 0 0
579 2 2.4610000000000003e+00 5.6834360499026637e+00 3.0031000000000091e+01 0 0 0
581 2 2.4610000000000003e+00 4.2625770374269996e+00 3.0031000000000091e+01 0 0 0
606 2 3.6914999999999996e+00 6.3938655561404980e+00 3.0031000000000091e+01 0 0 0
575 2 1.2305000000000001e+00 7.8147245686161639e+00 3.0031000000000091e+01 0 0 0
604 2 3.6914999999999996e+00 7.8147245686161639e+00 3.0031000000000091e+01 0 0 0
885 2 0.0000000000000000e+00 4.2625770374269996e+00 3.3181842543454110e+01 0 0 0
886 2 1.2305000000000001e+00 4.9730065436648339e+00 3.3181842543454110e+01 0 0 0
894 2 1.2305000000000001e+00 6.3938655561404980e+00 3.3181842543454110e+01 0 0 0
896 2 2.4610000000000003e+00 4.2625770374269996e+00 3.3181842543454110e+01 0 0 0
897 2 3.6914999999999996e+00 4.9730065436648339e+00 3.3181842543454110e+01 0 0 0
909 2 3.6914999999999996e+00 6.3938655561404980e+00 3.3181842543454110e+01 0 0 0
884 2 0.0000000000000000e+00 7.1042950623783341e+00 3.3181842543454110e+01 0 0 0
895 2 2.4610000000000003e+00 7.1042950623783341e+00 3.3181842543454110e+01 0 0 0
608 2 4.9220000000000006e+00 5.6834360499026637e+00 3.0031000000000091e+01 0 0 0
610 2 4.9220000000000006e+00 4.2625770374269978e+00 3.0031000000000091e+01 0 0 0
643 2 6.1524999999999999e+00 6.3938655561404980e+00 3.0031000000000091e+01 0 0 0
645 2 7.3829999999999991e+00 5.6834360499026637e+00 3.0031000000000091e+01 0 0 0
647 2 7.3829999999999991e+00 4.2625770374269996e+00 3.0031000000000091e+01 0 0 0
641 2 6.1524999999999999e+00 7.8147245686161639e+00 3.0031000000000091e+01 0 0 0
911 2 4.9220000000000006e+00 4.2625770374269978e+00 3.3181842543454110e+01 0 0 0
912 2 6.1524999999999999e+00 4.9730065436648339e+00 3.3181842543454110e+01 0 0 0
928 2 6.1524999999999999e+00 6.3938655561404980e+00 3.3181842543454110e+01 0 0 0
930 2 7.3829999999999991e+00 4.2625770374269996e+00 3.3181842543454110e+01 0 0 0
910 2 4.9220000000000006e+00 7.1042950623783341e+00 3.3181842543454110e+01 0 0 0
929 2 7.3830000000000009e+00 7.1042950623783341e+00 3.3181842543454110e+01 0 0 0
688 2 8.6135000000000002e+00 6.3938655561404980e+00 3.0031000000000091e+01 0 0 0
690 2 9.8440000000000012e+00 5.6834360499026637e+00 3.0031000000000091e+01 0 0 0
692 2 9.8440000000000012e+00 4.2625770374270004e+00 3.0031000000000091e+01 0 0 0
735 2 1.1074500000000002e+01 6.3938655561404980e+00 3.0031000000000091e+01 0 0 0
686 2 8.6135000000000002e+00 7.8147245686161639e+00 3.0031000000000091e+01 0 0 0
733 2 1.1074500000000002e+01 7.8147245686161639e+00 3.0031000000000091e+01 0 0 0
931 2 8.6135000000000002e+00 4.9730065436648339e+00 3.3181842543454110e+01 0 0 0
951 2 8.6135000000000002e+00 6.3938655561404980e+00 3.3181842543454110e+01 0 0 0
953 2 9.8440000000000012e+00 4.2625770374270004e+00 3.3181842543454110e+01 0 0 0
954 2 1.1074500000000002e+01 4.9730065436648339e+00 3.3181842543454110e+01 0 0 0
975 2 1.1074500000000002e+01 6.3938655561404980e+00 3.3181842543454110e+01 0 0 0
952 2 9.8440000000000012e+00 7.1042950623783341e+00 3.3181842543454110e+01 0 0 0
571 2 0.0000000000000000e+00 9.9460130873296642e+00 3.0031000000000091e+01 0 0 0
573 2 0.0000000000000000e+00 8.5251540748539991e+00 3.0031000000000091e+01 0 0 0
600 2 2.4610000000000003e+00 9.9460130873296642e+00 3.0031000000000091e+01 0 0 0
602 2 2.4610000000000003e+00 8.5251540748539991e+00 3.0031000000000091e+01 0 0 0
596 2 1.2305000000000001e+00 1.2077301606043163e+01 3.0031000000000091e+01 0 0 0
598 2 1.2305000000000001e+00 1.0656442593567498e+01 3.0031000000000091e+01 0 0 0
633 2 3.6914999999999996e+00 1.2077301606043163e+01 3.0031000000000091e+01 0 0 0
635 2 3.6914999999999996e+00 1.0656442593567499e+01 3.0031000000000091e+01 0 0 0
892 2 0.0000000000000000e+00 8.5251540748539991e+00 3.3181842543454110e+01 0 0 0
893 2 1.2305000000000001e+00 9.2355835810918343e+00 3.3181842543454110e+01 0 0 0
907 2 2.4610000000000003e+00 8.5251540748539991e+00 3.3181842543454110e+01 0 0 0
908 2 3.6915000000000004e+00 9.2355835810918343e+00 3.3181842543454110e+01 0 0 0
891 2 0.0000000000000000e+00 1.1366872099805333e+01 3.3181842543454110e+01 0 0 0
905 2 1.2305000000000001e+00 1.0656442593567498e+01 3.3181842543454110e+01 0 0 0
906 2 2.4610000000000003e+00 1.1366872099805333e+01 3.3181842543454110e+01 0 0 0
924 2 3.6914999999999996e+00 1.0656442593567499e+01 3.3181842543454110e+01 0 0 0
637 2 4.9220000000000006e+00 9.9460130873296642e+00 3.0031000000000091e+01 0 0 0
639 2 4.9220000000000006e+00 8.5251540748539991e+00 3.0031000000000091e+01 0 0 0
682 2 7.3830000000000009e+00 9.9460130873296642e+00 3.0031000000000091e+01 0 0 0
684 2 7.3830000000000009e+00 8.5251540748539991e+00 3.0031000000000091e+01 0 0 0
678 2 6.1524999999999999e+00 1.2077301606043163e+01 3.0031000000000091e+01 0 0 0
680 2 6.1524999999999999e+00 1.0656442593567499e+01 3.0031000000000091e+01 0 0 0
926 2 4.9220000000000006e+00 8.5251540748539991e+00 3.3181842543454110e+01 0 0 0
927 2 6.1524999999999999e+00 9.2355835810918343e+00 3.3181842543454110e+01 0 0 0
949 2 7.3830000000000009e+00 8.5251540748539991e+00 3.3181842543454110e+01 0 0 0
925 2 4.9220000000000006e+00 1.1366872099805333e+01 3.3181842543454110e+01 0 0 0
947 2 6.1524999999999999e+00 1.0656442593567499e+01 3.3181842543454110e+01 0 0 0
948 2 7.3829999999999991e+00 1.1366872099805333e+01 3.3181842543454110e+01 0 0 0
729 2 9.8440000000000012e+00 9.9460130873296642e+00 3.0031000000000091e+01 0 0 0
731 2 9.8440000000000012e+00 8.5251540748539956e+00 3.0031000000000091e+01 0 0 0
725 2 8.6135000000000002e+00 1.2077301606043163e+01 3.0031000000000091e+01 0 0 0
727 2 8.6134999999999984e+00 1.0656442593567498e+01 3.0031000000000091e+01 0 0 0
772 2 1.1074500000000002e+01 1.2077301606043163e+01 3.0031000000000091e+01 0 0 0
774 2 1.1074500000000002e+01 1.0656442593567498e+01 3.0031000000000091e+01 0 0 0
950 2 8.6134999999999984e+00 9.2355835810918343e+00 3.3181842543454110e+01 0 0 0
973 2 9.8440000000000012e+00 8.5251540748539956e+00 3.3181842543454110e+01 0 0 0
974 2 1.1074500000000002e+01 9.2355835810918343e+00 3.3181842543454110e+01 0 0 0
971 2 8.6134999999999984e+00 1.0656442593567498e+01 3.3181842543454110e+01 0 0 0
972 2 9.8440000000000012e+00 1.1366872099805333e+01 3.3181842543454110e+01 0 0 0
995 2 1.1074500000000002e+01 1.0656442593567498e+01 3.3181842543454110e+01 0 0 0
996 2 1.2304999999999998e+01 1.1366872099805333e+01 3.3181842543454110e+01 0 0 0
2050 1 2.0921955000122336e+00 4.5665885628389082e+00 3.5519228930704912e+01 0 1 -1
3291 1 1.1118301511740663e+01 1.1969143309482185e+01 4.1589147203512439e+01 1 0 0
3675 1 4.0327385064657433e+00 2.3256623205305189e+00 3.5616374683548571e+01 0 1 0
4553 1 6.7437748136222151e+00 2.2008809600563950e+00 3.5447926688486376e+01 0 0 -1
1559 1 4.2635186670459282e+00 2.6875831280931632e+00 3.8407545895500022e+01 1 0 0
3063 1 6.9516057429529345e+00 7.2127364810224293e-01 3.7845193111489920e+01 0 0 0
1275 1 3.3619130808034461e+00 4.9562845918933354e+00 4.1660728189611390e+01 1 1 -1
6231 1 1.1764837051759359e+01 1.5539956169368787e+00 3.6088348791414433e+01 0 0 0
6144 1 2.2958280050986257e+00 7.6749094156198945e+00 3.5418199004735442e+01 1 0 -1
2809 1 2.1569451475319190e+00 7.6355593497420768e+00 3.8294745736033889e+01 0 1 0
70 1 2.1705379547812735e+00 4.7292929868757305e+00 3.8798235857679458e+01 1 0 0
3540 1 5.1524277140673771e+00 7.0606905963919129e+00 3.9071876394499043e+01 1 1 -1
1322 1 5.0931839355750697e+00 6.8284269733825180e+00 3.5975645322788225e+01 0 1 0
1356 1 7.5359903375904409e+00 4.7166768104072556e+00 3.6132203223838033e+01 0 1 0
1862 1 9.8328198183157731e+00 4.5921168212582728e+00 3.8329875670069200e+01 0 0 -1
2059 1 1.0491088724499537e+01 3.9496824677331253e+00 3.5679517524802037e+01 0 0 0
2846 1 1.8156321890718754e+00 1.0337535309541714e+01 3.6044088930692979e+01 0 0 0
4531 1 2.2136914383396440e+00 1.0175983657534839e+01 3.9512324958957478e+01 0 0 0
63 1 4.1107159822786316e-01 3.9617470375501601e-01 3.9082375704598618e+01 1 1 0
1264 1 6.1532032099760041e+00 9.6039199618966986e+00 3.5651601999732577e+01 0 0 0
5132 1 6.9226694555877586e+00 9.2541645838509865e+00 3.8609699212574682e+01 1 0 0
2879 1 3.0614477028493686e-01 4.7299357828802996e-01 3.6339633328620025e+01 1 1 0
1423 1 9.2678148072925897e+00 7.6009849703367713e+00 3.8822625897638133e+01 0 1 0
4571 1 8.5091487400276637e+00 7.2549842966862572e+00 3.6091858349148126e+01 0 0 0
5136 1 9.0528667180425479e+00 1.0405838666883792e+01 3.5529929083001250e+01 0 1 0
4494 1 3.3231808132032210e+00 3.7548063390656727e-01 3.9909827998769217e+01 0 0 0
110 1 6.3571724773182012e+00 1.1250796424238453e+01 4.0282863551760613e+01 2 0 -1
2908 1 5.8490524766964089e+00 6.8568059259265537e+00 4.1991800819369104e+01 0 1 0
2979 1 3.8340479498758615e+00 2.1809236017497384e+00 4.2093280604460588e+01 1 1 -1
1607 1 4.1123917714185900e+00 1.1880231110538263e+01 3.8561660713296675e+01 1 1 0
2993 1 6.3591745778115891e+00 4.5414258761064570e+00 3.8736665945914709e+01 1 1 0
4461 1 8.6284428658334171e+00 2.2291805189479517e+00 3.9762101839187920e+01 -1 0 0
1715 1 8.4295647107360858e-02 1.1637144816357338e+01 3.8648532788208797e+01 1 0 0
6197 1 4.6702112859903355e-01 5.4699467285278125e+00 4.1773463210108858e+01 1 0 0
2080 1 1.1613975427514108e+01 8.9805083502673497e+00 3.5641236635677686e+01 1 0 -1
4473 1 8.4422870728118742e+00 5.8756475839483144e+00 4.1182588343802323e+01 -1 1 0
4468 1 8.0534875863937163e+00 3.2699526436339816e+00 4.2228476212129792e+01 0 1 0
3645 1 1.1059350925315094e+01 5.2525075803288521e+00 4.2313381750809597e+01 0 0 0
3081 1 1.1746815230619973e+01 9.2261804943921426e+00 4.1471980505870960e+01 1 1 0
3048 1 4.3715718807338835e+00 1.1602327486854907e+01 3.5792152199142222e+01 0 0 -1
5174 1 1.6584935008634534e+00 9.9244199059798621e+00 4.2387552565640959e+01 -1 1 -1
4616 1 1.1800132169542934e+01 8.6244729356656897e+00 3.8694645503207042e+01 1 0 0
1323 1 6.4821406117793616e+00 9.5799240996011612e+00 4.2653145869128139e+01 1 1 0
321 1 1.1891748380484943e+01 2.2471487114391886e+00 3.8853776477202317e+01 0 0 -1
4844 1 9.1333281278743463e+00 8.7053388620820105e+00 4.3181939274475610e+01 0 0 -1
521 1 9.1767047236325414e+00 1.4353763680911835e-01 3.6037302265619502e+01 0 0 0
3500 1 1.0557366508783197e+01 2.4619966069379878e-01 4.0351995963118171e+01 -1 0 -1
6270 1 4.9249450141953597e+00 3.4318546817846611e+00 4.5227342094982802e+01 0 1 0
2999 1 3.3343502717903934e+00 8.5244763024450343e+00 4.4595727824373228e+01 1 1 0
1768 1 1.1453655028294573e+01 1.0206869869306312e+00 5.1567529760713825e+01 0 1 -1
2975 1 7.2813994583266597e+00 1.0537579636852238e+01 5.3444239434368598e+01 0 1 0
1840 1 7.2801206016346471e+00 2.6709145307223636e+00 4.6700956605992602e+01 -1 1 -1
4944 1 9.9746850831541494e+00 4.1323956661509946e+00 4.6223650942794237e+01 2 1 -1
1918 1 7.3282721530214285e+00 7.4349912215235636e-01 5.2283404694692877e+01 0 0 0
4464 1 5.5113791726514250e-01 3.9464958739158931e+00 5.0383308626277199e+01 1 0 0
6321 1 7.5304414317292767e-01 5.9235296489762854e+00 4.5775477941464629e+01 1 1 -1
1312 1 1.1424652713337117e+01 9.5801078033314777e+00 5.3042923033322580e+01 1 -1 0
3217 1 3.4975335497842313e+00 5.6500822237169661e+00 4.4308695604393790e+01 1 1 0
3386 1 5.1540205073570826e+00 1.1647575925561783e+01 4.4006566315651540e+01 0 -1 -1
1979 1 9.0650963126012680e+00 6.6226200376948050e+00 4.4931299105557940e+01 0 0 0
1767 1 6.1565197099316071e+00 1.6732028140315753e+00 4.3366228841891854e+01 0 0 -1
1531 1 4.4377475739280454e+00 1.0017734537135935e+01 5.3246213920092686e+01 1 1 -1
4649 1 1.2471532211672496e+00 9.2103848841886240e+00 4.6614988773896158e+01 1 0 0
4824 1 1.0221744314934279e+01 2.8758614909159812e+00 4.3629025560462424e+01 0 0 -1
5002 1 6.1910937829916870e+00 9.3312570711863589e+00 4.5901578941381857e+01 0 0 -1
5190 1 2.1386049925491668e+00 9.5968605409857444e-01 4.3813693298817000e+01 -1 1 -1
1692 1 6.2782910900716633e+00 6.9334151273692628e+00 4.5091783002871779e+01 0 0 -1
4787 1 1.4132700511848797e+00 9.6120030823506291e+00 5.3816098301341896e+01 0 0 0
1560 1 1.0039356552670649e+01 1.1168491090303259e+01 4.4288002214043800e+01 0 0 -1
4497 1 1.0305885234226094e+01 7.4443991151276814e+00 4.7175724220233491e+01 -1 0 0
1386 1 5.1310030808581164e-01 1.1810826464874302e+00 5.1098700731518250e+01 0 1 0
3277 1 3.1674383811795788e+00 1.8472023766170094e+00 4.6435807970345422e+01 3 0 -1