LAMMPS data file via write_data, version 16 Mar 2018, timestep = 8000000

6328 atoms
2 atom types

0.0000000000000000e+00 4.9219999999999999e+01 xlo xhi
0.0000000000000000e+00 4.9019635930410494e+01 ylo yhi
2.2427956736454888e+00 5.7819204326344007e+01 zlo zhi

Masses

1 18.015
2 12.01

Atoms # atomic

3656 1 1.2058763678671616e+00 8.1871698352091660e-01 4.7340772545920089e+00 3 -3 0
130 1 5.8081732737427636e+00 3.4541938463307509e-01 4.5690419966581306e+00 5 3 1
3444 1 5.8239455085710281e+00 2.8701260915892370e+00 5.6839686305331512e+00 4 -3 0
6326 1 1.0237311074388595e+01 6.0405382000958352e-01 4.5986161314918625e+00 3 1 1
3033 1 3.6306604689219402e+00 4.1841346729089688e+00 4.4197247395682799e+00 0 0 0
1987 1 4.1125821317055502e+00 6.5642059085830082e+00 5.8057632204956811e+00 -5 6 0
3685 1 7.9032680467053318e+00 4.3676654012961453e+00 4.5462670372702441e+00 0 -3 1
6256 1 1.0378189597955679e+01 7.7598010944844082e+00 4.8107254794898875e+00 -1 -4 0
514 1 1.1064413428524180e+01 1.0944761199149042e+01 1.3216520582742254e+01 1 -4 1
3521 1 2.0091578386990498e+00 8.2579322418539078e+00 4.5173020897627181e+00 1 0 0
3635 1 2.3217709529193020e+00 1.0633511731995034e+01 5.8798782472837487e+00 1 0 1
4991 1 6.1749259091233819e+00 8.1680441458252666e+00 4.8218191600985412e+00 2 0 0
1810 1 1.9258467798234986e+00 1.1183034358830763e+01 1.5716759756541393e+01 -1 1 0
4553 1 1.0572827553786871e+01 1.0400435666962075e+01 5.8379822090198257e+00 3 -4 0
1678 1 1.2406635598846556e+00 3.2074634619988780e+00 5.6496699379898416e+00 2 1 0
2925 1 1.4232716778158563e+00 3.1613077808106973e+00 8.3854651707855439e+00 0 2 1
1889 1 6.0160686643447887e+00 2.7866328456757792e+00 8.6259548128690913e+00 4 -2 0
3366 1 1.0336982641628214e+01 3.2841614466020541e+00 5.3229068377690689e+00 3 5 0
3288 1 1.0280385597623743e+01 2.8852095059268943e+00 8.2020496244221537e+00 6 0 0
5295 1 4.2639912516695002e+00 6.8383148908353029e+00 8.5341652755184469e+00 3 -2 1
3499 1 8.1396092407465588e+00 6.6849751391454451e+00 6.0253380014843447e+00 1 -4 0
1935 1 8.2993814009989233e+00 6.9077665485325346e+00 8.6885154046385438e+00 -1 0 0
5073 1 1.6839608657734095e+00 1.0624659212765271e+01 8.5885544197263002e+00 -2 1 1
3697 1 6.5910690552288100e+00 1.0529335335742502e+01 5.9828549198766448e+00 2 -1 1
4803 1 6.2386265517008237e+00 1.0839147876581022e+01 8.7277460845997137e+00 2 1 0
2056 1 1.0707691197256867e+01 1.0841386074456054e+01 8.5290552418496226e+00 -3 6 1
2004 1 3.5670001031388154e+00 1.8667995474151964e+00 9.4737252043421840e+00 4 4 1
6122 1 3.7137629574702413e+00 2.2790989878324908e+00 1.2289656661201144e+01 2 1 1
4963 1 8.3021717307282419e+00 1.6318095807370683e+00 9.4065375938374700e+00 -2 1 0
4928 1 8.2702644416741418e+00 2.1527937498400083e+00 1.2353891080867418e+01 4 5 0
3417 1 6.3118827266020485e+00 1.1266742309983613e+01 1.3231120650457736e+01 1 3 0
5246 1 1.9211295797404466e+00 5.6566976637054118e+00 9.3854642516514275e+00 -1 -1 1
5072 1 1.8179496549890339e+00 6.1501099692220969e+00 1.2087357327850635e+01 0 1 1
3384 1 6.2301202710249042e+00 5.3578220743319660e+00 9.6327268642293795e+00 -1 -2 1
2886 1 6.1956401642368375e+00 5.7973302851227961e+00 1.2477484398770528e+01 -1 0 1
3406 1 1.0560902491039290e+01 5.6145545852315202e+00 9.2336762862674604e+00 2 -2 0
5070 1 1.0624983040400574e+01 5.5826479609508386e+00 1.2241111027164534e+01 2 -1 1
3471 1 3.8800519545807588e+00 9.2016888051157046e+00 9.5684840269420821e+00 6 -6 0
3171 1 3.9113725330004718e+00 9.8133677957094783e+00 1.2314547558418987e+01 2 0 1
6285 1 8.6119292658379791e+00 9.4766304316380463e+00 9.6647529067923799e+00 0 -3 1
3319 1 8.5287183206113593e+00 9.9563851339822609e+00 1.2356776403223853e+01 9 1 0
4486 1 1.0997884446870138e+01 1.0607746178402294e+01 1.6058355849752807e+01 0 0 1
214 1 1.5222875361422774e+00 3.6078621483125772e+00 1.2934278607722069e+01 1 1 0
159 1 6.1392418988384492e+00 3.2038188996508974e+00 1.3570227028375058e+01 4 -2 0
3293 1 1.3112280392983422e-01 1.1877668207225149e+01 4.8672693230328701e+00 4 0 0
1263 1 1.0533087672716505e+01 3.0741578995502956e+00 1.3307856663607318e+01 -3 2 1
4660 1 1.6807335507165515e+00 1.0995134298508757e+01 1.3116012488876652e+01 7 3 1
3103 1 3.8886815397891463e+00 7.2771376179826062e+00 1.3053649037429480e+01 1 -2 1
4528 1 8.5577599245064313e+00 7.2125903639821249e+00 1.3238226601854743e+01 -1 -3 1
203 1 4.5027406434240511e+00 1.2068614768348690e+01 5.0256051856913615e+00 0 -2 0
1825 1 8.2810387532282146e+00 7.2425540779233923e+00 1.6040463845319117e+01 -2 1 0
1813 1 6.4391147391807015e+00 1.0755108904592461e+01 1.5887641912372278e+01 2 2 1
2856 1 3.9947553084753835e+00 7.0009965318200580e+00 1.5944719594425434e+01 1 2 1
455 1 8.6299347582894974e+00 1.2086052369934244e+01 5.0454146663321362e+00 -1 0 0
6322 1 9.2770791270458748e+00 1.1659778855887588e+01 2.3025893211714612e+00 1 1 1
2955 1 1.0567269049533389e+01 3.1833594445951197e+00 1.6045986964608279e+01 0 0 1
4831 1 1.2476453472159168e+00 3.3314019438266995e+00 1.5721823305322072e+01 -5 -2 0
217 1 4.4652970394798697e+00 1.1675791976059731e+01 2.4444152109210293e+00 3 2 1
4692 1 1.0719827303724687e+00 8.2524918909867273e-01 1.6803987442309506e+01 0 8 0
66 1 1.2011523478502011e+00 9.1245431114029130e-01 1.9834020193275126e+01 3 -2 1
6 1 5.4660714210042807e+00 6.6264785166300877e-01 1.6996570846903268e+01 -2 -1 0
5144 1 5.9760520777965720e+00 4.6298952561185747e-01 1.9622330983243614e+01 4 -1 0
6055 1 1.0232407384433165e+01 7.2357816014811860e-01 1.6649961017264332e+01 -4 2 0
1598 1 3.4084228541794754e+00 4.4828495247525328e+00 1.6882259799371063e+01 2 0 1
4849 1 3.6651649598414071e+00 4.3810145558807081e+00 1.9593401918882275e+01 -1 -3 1
435 1 8.4342613512492832e+00 4.8799703477602154e+00 1.7061425603500251e+01 1 -2 1
3560 1 8.3603149717092364e+00 4.6717230011080142e+00 1.9815149560914371e+01 -2 -1 1
5054 1 1.7966663488595380e+00 8.5896327465055471e+00 1.6940790108910484e+01 0 1 1
775 2 1.2304999999999998e+01 1.1366872099805333e+01 2.6714469263176714e+01 0 0 0
5109 1 6.1786440417320776e+00 8.3758373683995568e+00 1.7065114871402095e+01 1 -2 0
1978 1 6.1710409683043084e+00 8.2393529745847349e+00 1.9882201042692191e+01 -1 -1 0
732 2 1.1074500000000002e+01 9.2355835810918343e+00 2.6714469263176714e+01 0 0 0
773 2 1.1074500000000002e+01 1.0656442593567498e+01 2.6714469263176714e+01 0 0 0
1900 1 1.0776527671781565e+01 8.0684171971432175e+00 1.7246633157135385e+01 -2 -1 0
728 2 9.8440000000000012e+00 1.1366872099805333e+01 2.6714469263176714e+01 0 0 0
1591 1 3.6787660271684484e+00 1.8228318185416399e+00 2.0742870824666905e+01 1 -5 1
3042 1 7.7398927578682839e+00 2.0476466088848886e+00 2.0301522000852618e+01 -3 2 1
228 1 1.0153008575519911e+01 1.3124467220703262e+00 1.9293551345138670e+01 -4 2 0
1888 1 1.7606231749343002e+00 5.8515951925538428e+00 2.0820530459208289e+01 1 -1 0
2037 1 1.7419556146360031e+00 5.7871336441850261e+00 2.3785701653078092e+01 2 2 0
1403 1 6.0462358027535377e+00 5.7211920231161022e+00 2.0808696098369349e+01 5 5 1
1413 1 5.9624844408289146e+00 5.8253074939386220e+00 2.3275125901076738e+01 -1 -1 0
3463 1 1.0566730827246039e+01 5.7170786368255992e+00 2.1202985318102634e+01 1 1 0
4542 1 1.5482726339619048e+00 8.5410711533319095e+00 1.9606200385344223e+01 3 -3 0
52 1 3.8977368176149847e+00 9.5846171034570311e+00 2.0665893559749865e+01 -6 1 1
4872 1 1.0771101732317033e+01 8.2648071672755137e+00 1.9890081998116550e+01 -5 1 0
6084 1 8.5688223254439251e+00 9.5677239169802757e+00 2.0836535017676560e+01 0 -2 1
730 2 9.8440000000000012e+00 8.5251540748539956e+00 2.6714469263176714e+01 0 0 0
1788 1 8.5616706097233060e+00 1.1800480541520603e+01 1.6747318867511062e+01 1 4 0
3228 1 3.7202260787736492e+00 1.7668093374778298e+00 2.3599446867958068e+01 1 1 0
685 2 8.6134999999999984e+00 9.2355835810918343e+00 2.6714469263176714e+01 0 0 0
4453 1 7.6750902633779807e+00 2.1112604414277594e+00 2.2931821119311923e+01 -1 3 1
1576 1 9.7781162356924174e+00 1.2443176144465635e+00 2.4294182352711221e+01 -1 -1 1
4603 1 3.9533680050824098e+00 4.4513095241296705e+00 2.4273584233095320e+01 4 -1 1
4789 1 1.5724950601142726e+00 8.4081167070650995e+00 2.4331129070786961e+01 0 -2 0
2827 1 5.9554265311737522e+00 8.4148489797175134e+00 2.4384022931429261e+01 -3 2 0
4643 1 8.2844341325156670e+00 4.3664176220441284e+00 2.4326082757180782e+01 -2 -3 1
3347 1 1.0778846275301406e+01 5.8864803393304870e+00 2.4054337506674901e+01 2 1 0
726 2 8.6134999999999984e+00 1.0656442593567498e+01 2.6714469263176714e+01 0 0 0
2941 1 3.8407610060242150e+00 9.8305566997700744e+00 2.3183111263757368e+01 2 3 1
5062 1 1.3410782151997513e+00 6.4305457956660428e-01 2.4209409224638790e+01 4 -1 0
3487 1 1.0818624677766014e+01 8.5937686697799176e+00 2.4301769946857398e+01 1 -5 0
1285 1 8.3406625513240407e+00 9.6325972348286051e+00 2.3664711100206112e+01 1 3 1
552 2 0.0000000000000000e+00 2.8417180249513345e+00 2.6714469263176714e+01 0 0 0
554 2 0.0000000000000000e+00 0.0000000000000000e+00 2.6714469263176714e+01 0 0 0
556 2 1.2305000000000001e+00 7.1042950623783474e-01 2.6714469263176714e+01 0 0 0
563 2 1.2305000000000001e+00 2.1312885187134998e+00 2.6714469263176714e+01 0 0 0
565 2 2.4610000000000003e+00 2.8417180249513345e+00 2.6714469263176714e+01 0 0 0
567 2 2.4610000000000003e+00 0.0000000000000000e+00 2.6714469263176714e+01 0 0 0
569 2 3.6915000000000004e+00 7.1042950623783474e-01 2.6714469263176714e+01 0 0 0
584 2 3.6914999999999996e+00 2.1312885187134998e+00 2.6714469263176714e+01 0 0 0
586 2 4.9220000000000006e+00 2.8417180249513332e+00 2.6714469263176714e+01 0 0 0
588 2 4.9220000000000006e+00 0.0000000000000000e+00 2.6714469263176714e+01 0 0 0
590 2 6.1524999999999999e+00 7.1042950623783407e-01 2.6714469263176714e+01 0 0 0
613 2 6.1524999999999999e+00 2.1312885187134989e+00 2.6714469263176714e+01 0 0 0
615 2 7.3829999999999991e+00 2.8417180249513345e+00 2.6714469263176714e+01 0 0 0
617 2 7.3829999999999991e+00 0.0000000000000000e+00 2.6714469263176714e+01 0 0 0
619 2 8.6134999999999984e+00 7.1042950623783407e-01 2.6714469263176714e+01 0 0 0
650 2 8.6134999999999984e+00 2.1312885187135002e+00 2.6714469263176714e+01 0 0 0
652 2 9.8440000000000012e+00 2.8417180249513332e+00 2.6714469263176714e+01 0 0 0
654 2 9.8440000000000012e+00 0.0000000000000000e+00 2.6714469263176714e+01 0 0 0
656 2 1.1074500000000002e+01 7.1042950623783330e-01 2.6714469263176714e+01 0 0 0
695 2 1.1074500000000002e+01 2.1312885187135002e+00 2.6714469263176714e+01 0 0 0
559 2 0.0000000000000000e+00 4.2625770374269996e+00 2.6714469263176714e+01 0 0 0
561 2 1.2305000000000001e+00 4.9730065436648339e+00 2.6714469263176714e+01 0 0 0
576 2 1.2305000000000001e+00 6.3938655561404980e+00 2.6714469263176714e+01 0 0 0
580 2 2.4610000000000003e+00 4.2625770374269996e+00 2.6714469263176714e+01 0 0 0
582 2 3.6914999999999996e+00 4.9730065436648339e+00 2.6714469263176714e+01 0 0 0
605 2 3.6914999999999996e+00 6.3938655561404980e+00 2.6714469263176714e+01 0 0 0
557 2 0.0000000000000000e+00 7.1042950623783341e+00 2.6714469263176714e+01 0 0 0
578 2 2.4610000000000003e+00 7.1042950623783341e+00 2.6714469263176714e+01 0 0 0
609 2 4.9220000000000006e+00 4.2625770374269978e+00 2.6714469263176714e+01 0 0 0
611 2 6.1524999999999999e+00 4.9730065436648339e+00 2.6714469263176714e+01 0 0 0
642 2 6.1524999999999999e+00 6.3938655561404980e+00 2.6714469263176714e+01 0 0 0
646 2 7.3829999999999991e+00 4.2625770374269996e+00 2.6714469263176714e+01 0 0 0
607 2 4.9220000000000006e+00 7.1042950623783341e+00 2.6714469263176714e+01 0 0 0
644 2 7.3830000000000009e+00 7.1042950623783341e+00 2.6714469263176714e+01 0 0 0
648 2 8.6135000000000002e+00 4.9730065436648339e+00 2.6714469263176714e+01 0 0 0
687 2 8.6135000000000002e+00 6.3938655561404980e+00 2.6714469263176714e+01 0 0 0
691 2 9.8440000000000012e+00 4.2625770374270004e+00 2.6714469263176714e+01 0 0 0
693 2 1.1074500000000002e+01 4.9730065436648339e+00 2.6714469263176714e+01 0 0 0
734 2 1.1074500000000002e+01 6.3938655561404980e+00 2.6714469263176714e+01 0 0 0
689 2 9.8440000000000012e+00 7.1042950623783341e+00 2.6714469263176714e+01 0 0 0
574 2 1.2305000000000001e+00 9.2355835810918343e+00 2.6714469263176714e+01 0 0 0
601 2 2.4610000000000003e+00 8.5251540748539991e+00 2.6714469263176714e+01 0 0 0
603 2 3.6915000000000004e+00 9.2355835810918343e+00 2.6714469263176714e+01 0 0 0
570 2 0.0000000000000000e+00 1.1366872099805333e+01 2.6714469263176714e+01 0 0 0
597 2 1.2305000000000001e+00 1.0656442593567498e+01 2.6714469263176714e+01 0 0 0
599 2 2.4610000000000003e+00 1.1366872099805333e+01 2.6714469263176714e+01 0 0 0
634 2 3.6914999999999996e+00 1.0656442593567499e+01 2.6714469263176714e+01 0 0 0
572 2 0.0000000000000000e+00 8.5251540748539991e+00 2.6714469263176714e+01 0 0 0
683 2 7.3830000000000009e+00 8.5251540748539991e+00 2.6714469263176714e+01 0 0 0
636 2 4.9220000000000006e+00 1.1366872099805333e+01 2.6714469263176714e+01 0 0 0
638 2 4.9220000000000006e+00 8.5251540748539991e+00 2.6714469263176714e+01 0 0 0
640 2 6.1524999999999999e+00 9.2355835810918343e+00 2.6714469263176714e+01 0 0 0
679 2 6.1524999999999999e+00 1.0656442593567499e+01 2.6714469263176714e+01 0 0 0
681 2 7.3829999999999991e+00 1.1366872099805333e+01 2.6714469263176714e+01 0 0 0
201 1 8.5361844660706243e+00 1.2084243841346654e+01 1.9575294725909455e+01 -5 6 0
2979 1 4.2110556745607450e+00 1.2089426672877247e+01 2.4111349907149599e+01 6 0 0
1934 1 4.1491044124960430e+00 1.2100717770670007e+01 1.6702745935206082e+01 2 1 0
3261 1 8.6065716567085051e+00 1.2179406807374296e+01 2.4241395369943568e+01 -4 -1 0
4779 1 5.8427804235345491e+00 4.4916610234016041e-01 2.4374962059895999e+01 5 0 1
3425 1 3.9741686118748052e+00 1.1945408161229089e+01 1.9476522219827700e+01 2 -5 0
4873 1 1.1965072104384760e+01 2.4594941249786886e+00 2.3048662439943307e+01 -3 1 1
2920 1 6.0122445646296763e+00 3.5230107353333540e+00 1.6415105183273944e+01 1 -4 1
553 2 0.0000000000000000e+00 1.4208590124756650e+00 3.0030999999994808e+01 0 0 0
555 2 0.0000000000000000e+00 0.0000000000000000e+00 3.0030999999994808e+01 0 0 0
564 2 1.2305000000000001e+00 2.1312885187134998e+00 3.0030999999994808e+01 0 0 0
566 2 2.4610000000000003e+00 1.4208590124756650e+00 3.0030999999994808e+01 0 0 0
568 2 2.4610000000000003e+00 0.0000000000000000e+00 3.0030999999994808e+01 0 0 0
585 2 3.6914999999999996e+00 2.1312885187134998e+00 3.0030999999994808e+01 0 0 0
562 2 1.2305000000000001e+00 3.5521475311891644e+00 3.0030999999994808e+01 0 0 0
583 2 3.6914999999999996e+00 3.5521475311891644e+00 3.0030999999994808e+01 0 0 0
881 2 0.0000000000000000e+00 2.8417180249513345e+00 3.3347530736794212e+01 0 0 0
882 2 0.0000000000000000e+00 0.0000000000000000e+00 3.3347530736794212e+01 0 0 0
883 2 1.2305000000000001e+00 7.1042950623783474e-01 3.3347530736794212e+01 0 0 0
887 2 1.2305000000000001e+00 2.1312885187134998e+00 3.3347530736794212e+01 0 0 0
888 2 2.4610000000000003e+00 2.8417180249513345e+00 3.3347530736794212e+01 0 0 0
889 2 2.4610000000000003e+00 0.0000000000000000e+00 3.3347530736794212e+01 0 0 0
890 2 3.6915000000000004e+00 7.1042950623783474e-01 3.3347530736794212e+01 0 0 0
898 2 3.6914999999999996e+00 2.1312885187134998e+00 3.3347530736794212e+01 0 0 0
587 2 4.9220000000000006e+00 1.4208590124756650e+00 3.0030999999994808e+01 0 0 0
589 2 4.9220000000000006e+00 0.0000000000000000e+00 3.0030999999994808e+01 0 0 0
614 2 6.1524999999999999e+00 2.1312885187134989e+00 3.0030999999994808e+01 0 0 0
616 2 7.3829999999999991e+00 1.4208590124756659e+00 3.0030999999994808e+01 0 0 0
618 2 7.3829999999999991e+00 0.0000000000000000e+00 3.0030999999994808e+01 0 0 0
612 2 6.1524999999999999e+00 3.5521475311891644e+00 3.0030999999994808e+01 0 0 0
899 2 4.9220000000000006e+00 2.8417180249513332e+00 3.3347530736794212e+01 0 0 0
900 2 4.9220000000000006e+00 0.0000000000000000e+00 3.3347530736794212e+01 0 0 0
901 2 6.1524999999999999e+00 7.1042950623783407e-01 3.3347530736794212e+01 0 0 0
913 2 6.1524999999999999e+00 2.1312885187134989e+00 3.3347530736794212e+01 0 0 0
914 2 7.3829999999999991e+00 2.8417180249513345e+00 3.3347530736794212e+01 0 0 0
915 2 7.3829999999999991e+00 0.0000000000000000e+00 3.3347530736794212e+01 0 0 0
651 2 8.6134999999999984e+00 2.1312885187135002e+00 3.0030999999994808e+01 0 0 0
653 2 9.8440000000000012e+00 1.4208590124756659e+00 3.0030999999994808e+01 0 0 0
655 2 9.8440000000000012e+00 0.0000000000000000e+00 3.0030999999994808e+01 0 0 0
696 2 1.1074500000000002e+01 2.1312885187135002e+00 3.0030999999994808e+01 0 0 0
649 2 8.6134999999999984e+00 3.5521475311891657e+00 3.0030999999994808e+01 0 0 0
694 2 1.1074500000000002e+01 3.5521475311891644e+00 3.0030999999994808e+01 0 0 0
916 2 8.6134999999999984e+00 7.1042950623783407e-01 3.3347530736794212e+01 0 0 0
932 2 8.6134999999999984e+00 2.1312885187135002e+00 3.3347530736794212e+01 0 0 0
933 2 9.8440000000000012e+00 2.8417180249513332e+00 3.3347530736794212e+01 0 0 0
934 2 9.8440000000000012e+00 0.0000000000000000e+00 3.3347530736794212e+01 0 0 0
935 2 1.1074500000000002e+01 7.1042950623783330e-01 3.3347530736794212e+01 0 0 0
955 2 1.1074500000000002e+01 2.1312885187135002e+00 3.3347530736794212e+01 0 0 0
558 2 0.0000000000000000e+00 5.6834360499026637e+00 3.0030999999994808e+01 0 0 0
560 2 0.0000000000000000e+00 4.2625770374269996e+00 3.0030999999994808e+01 0 0 0
577 2 1.2305000000000001e+00 6.3938655561404980e+00 3.0030999999994808e+01 0 0 0
579 2 2.4610000000000003e+00 5.6834360499026637e+00 3.0030999999994808e+01 0 0 0
581 2 2.4610000000000003e+00 4.2625770374269996e+00 3.0030999999994808e+01 0 0 0
606 2 3.6914999999999996e+00 6.3938655561404980e+00 3.0030999999994808e+01 0 0 0
575 2 1.2305000000000001e+00 7.8147245686161639e+00 3.0030999999994808e+01 0 0 0
604 2 3.6914999999999996e+00 7.8147245686161639e+00 3.0030999999994808e+01 0 0 0
885 2 0.0000000000000000e+00 4.2625770374269996e+00 3.3347530736794212e+01 0 0 0
886 2 1.2305000000000001e+00 4.9730065436648339e+00 3.3347530736794212e+01 0 0 0
894 2 1.2305000000000001e+00 6.3938655561404980e+00 3.3347530736794212e+01 0 0 0
896 2 2.4610000000000003e+00 4.2625770374269996e+00 3.3347530736794212e+01 0 0 0
897 2 3.6914999999999996e+00 4.9730065436648339e+00 3.3347530736794212e+01 0 0 0
909 2 3.6914999999999996e+00 6.3938655561404980e+00 3.3347530736794212e+01 0 0 0
884 2 0.0000000000000000e+00 7.1042950623783341e+00 3.3347530736794212e+01 0 0 0
895 2 2.4610000000000003e+00 7.1042950623783341e+00 3.3347530736794212e+01 0 0 0
608 2 4.9220000000000006e+00 5.6834360499026637e+00 3.0030999999994808e+01 0 0 0
610 2 4.9220000000000006e+00 4.2625770374269978e+00 3.0030999999994808e+01 0 0 0
643 2 6.1524999999999999e+00 6.3938655561404980e+00 3.0030999999994808e+01 0 0 0
645 2 7.3829999999999991e+00 5.6834360499026637e+00 3.0030999999994808e+01 0 0 0
647 2 7.3829999999999991e+00 4.2625770374269996e+00 3.0030999999994808e+01 0 0 0
641 2 6.1524999999999999e+00 7.8147245686161639e+00 3.0030999999994808e+01 0 0 0
911 2 4.9220000000000006e+00 4.2625770374269978e+00 3.3347530736794212e+01 0 0 0
912 2 6.1524999999999999e+00 4.9730065436648339e+00 3.3347530736794212e+01 0 0 0
928 2 6.1524999999999999e+00 6.3938655561404980e+00 3.3347530736794212e+01 0 0 0
930 2 7.3829999999999991e+00 4.2625770374269996e+00 3.3347530736794212e+01 0 0 0
910 2 4.9220000000000006e+00 7.1042950623783341e+00 3.3347530736794212e+01 0 0 0
929 2 7.3830000000000009e+00 7.1042950623783341e+00 3.3347530736794212e+01 0 0 0
688 2 8.6135000000000002e+00 6.3938655561404980e+00 3.0030999999994808e+01 0 0 0
690 2 9.8440000000000012e+00 5.6834360499026637e+00 3.0030999999994808e+01 0 0 0
692 2 9.8440000000000012e+00 4.2625770374270004e+00 3.0030999999994808e+01 0 0 0
735 2 1.1074500000000002e+01 6.3938655561404980e+00 3.0030999999994808e+01 0 0 0
686 2 8.6135000000000002e+00 7.8147245686161639e+00 3.0030999999994808e+01 0 0 0
733 2 1.1074500000000002e+01 7.8147245686161639e+00 3.0030999999994808e+01 0 0 0
931 2 8.6135000000000002e+00 4.9730065436648339e+00 3.3347530736794212e+01 0 0 0
951 2 8.6135000000000002e+00 6.3938655561404980e+00 3.3347530736794212e+01 0 0 0
953 2 9.8440000000000012e+00 4.2625770374270004e+00 3.3347530736794212e+01 0 0 0
954 2 1.1074500000000002e+01 4.9730065436648339e+00 3.3347530736794212e+01 0 0 0
975 2 1.1074500000000002e+01 6.3938655561404980e+00 3.3347530736794212e+01 0 0 0
952 2 9.8440000000000012e+00 7.1042950623783341e+00 3.3347530736794212e+01 0 0 0
571 2 0.0000000000000000e+00 9.9460130873296642e+00 3.0030999999994808e+01 0 0 0
573 2 0.0000000000000000e+00 8.5251540748539991e+00 3.0030999999994808e+01 0 0 0
600 2 2.4610000000000003e+00 9.9460130873296642e+00 3.0030999999994808e+01 0 0 0
602 2 2.4610000000000003e+00 8.5251540748539991e+00 3.0030999999994808e+01 0 0 0
596 2 1.2305000000000001e+00 1.2077301606043163e+01 3.0030999999994808e+01 0 0 0
598 2 1.2305000000000001e+00 1.0656442593567498e+01 3.0030999999994808e+01 0 0 0
633 2 3.6914999999999996e+00 1.2077301606043163e+01 3.0030999999994808e+01 0 0 0
635 2 3.6914999999999996e+00 1.0656442593567499e+01 3.0030999999994808e+01 0 0 0
892 2 0.0000000000000000e+00 8.5251540748539991e+00 3.3347530736794212e+01 0 0 0
893 2 1.2305000000000001e+00 9.2355835810918343e+00 3.3347530736794212e+01 0 0 0
907 2 2.4610000000000003e+00 8.5251540748539991e+00 3.3347530736794212e+01 0 0 0
908 2 3.6915000000000004e+00 9.2355835810918343e+00 3.3347530736794212e+01 0 0 0
891 2 0.0000000000000000e+00 1.1366872099805333e+01 3.3347530736794212e+01 0 0 0
905 2 1.2305000000000001e+00 1.0656442593567498e+01 3.3347530736794212e+01 0 0 0
906 2 2.4610000000000003e+00 1.1366872099805333e+01 3.3347530736794212e+01 0 0 0
924 2 3.6914999999999996e+00 1.0656442593567499e+01 3.3347530736794212e+01 0 0 0
637 2 4.9220000000000006e+00 9.9460130873296642e+00 3.0030999999994808e+01 0 0 0
639 2 4.9220000000000006e+00 8.5251540748539991e+00 3.0030999999994808e+01 0 0 0
682 2 7.3830000000000009e+00 9.9460130873296642e+00 3.0030999999994808e+01 0 0 0
684 2 7.3830000000000009e+00 8.5251540748539991e+00 3.0030999999994808e+01 0 0 0
678 2 6.1524999999999999e+00 1.2077301606043163e+01 3.0030999999994808e+01 0 0 0
680 2 6.1524999999999999e+00 1.0656442593567499e+01 3.0030999999994808e+01 0 0 0
926 2 4.9220000000000006e+00 8.5251540748539991e+00 3.3347530736794212e+01 0 0 0
927 2 6.1524999999999999e+00 9.2355835810918343e+00 3.3347530736794212e+01 0 0 0
949 2 7.3830000000000009e+00 8.5251540748539991e+00 3.3347530736794212e+01 0 0 0
925 2 4.9220000000000006e+00 1.1366872099805333e+01 3.3347530736794212e+01 0 0 0
947 2 6.1524999999999999e+00 1.0656442593567499e+01 3.3347530736794212e+01 0 0 0
948 2 7.3829999999999991e+00 1.1366872099805333e+01 3.3347530736794212e+01 0 0 0
729 2 9.8440000000000012e+00 9.9460130873296642e+00 3.0030999999994808e+01 0 0 0
731 2 9.8440000000000012e+00 8.5251540748539956e+00 3.0030999999994808e+01 0 0 0
725 2 8.6135000000000002e+00 1.2077301606043163e+01 3.0030999999994808e+01 0 0 0
727 2 8.6134999999999984e+00 1.0656442593567498e+01 3.0030999999994808e+01 0 0 0
772 2 1.1074500000000002e+01 1.2077301606043163e+01 3.0030999999994808e+01 0 0 0
774 2 1.1074500000000002e+01 1.0656442593567498e+01 3.0030999999994808e+01 0 0 0
950 2 8.6134999999999984e+00 9.2355835810918343e+00 3.3347530736794212e+01 0 0 0
973 2 9.8440000000000012e+00 8.5251540748539956e+00 3.3347530736794212e+01 0 0 0
974 2 1.1074500000000002e+01 9.2355835810918343e+00 3.3347530736794212e+01 0 0 0
971 2 8.6134999999999984e+00 1.0656442593567498e+01 3.3347530736794212e+01 0 0 0
972 2 9.8440000000000012e+00 1.1366872099805333e+01 3.3347530736794212e+01 0 0 0
995 2 1.1074500000000002e+01 1.0656442593567498e+01 3.3347530736794212e+01 0 0 0
996 2 1.2304999999999998e+01 1.1366872099805333e+01 3.3347530736794212e+01 0 0 0
6324 1 1.5805881861393039e+00 3.0899143056213343e+00 3.5884889601481262e+01 3 -9 -1
3219 1 4.0634809608801792e+00 1.9202131802049638e+00 3.5908155449590225e+01 -2 0 -1
6048 1 6.3423433309076334e+00 3.8173217114474198e+00 3.5906671154312178e+01 5 0 0
3532 1 8.6857878607017227e+00 2.4103909099042609e+00 3.5811938758440327e+01 2 5 -1
144 1 1.1161602495960864e+01 3.6657000058098581e+00 3.5692869275543565e+01 5 -6 0
3322 1 1.1261178600710791e+00 6.1719459497792366e+00 3.6217780418486562e+01 1 5 -1
2875 1 3.7019358583646360e+00 7.2743041721373620e+00 3.6396365641431373e+01 3 -3 0
5285 1 6.4335774269236152e+00 6.4967320035393010e+00 3.5754292351451063e+01 0 0 0
2859 1 8.8411242187079537e+00 7.4347054709263576e+00 3.6369914383240101e+01 -4 -2 0
4417 1 1.1375563172398069e+01 6.5647085449621221e+00 3.5574435126944735e+01 4 3 0
1447 1 1.3493378232678741e+00 1.1222386447826359e+01 3.5935997731713393e+01 4 4 0
3583 1 3.8917222958444544e+00 1.0097048388204444e+01 3.6531178157617177e+01 0 2 0
1701 1 6.4624119038155889e+00 1.1378223370631833e+01 3.6371270050717726e+01 0 1 0
3072 1 9.1267069828344258e+00 1.0081445004647653e+01 3.5708337474238611e+01 2 1 -1
3073 1 1.3701108024668160e+00 3.7700844940538638e+00 3.8637851843102482e+01 -1 2 0
2889 1 3.9038726704677473e+00 2.5036900339066603e+00 3.9075868497064654e+01 1 -2 0
1938 1 6.2453733266414986e+00 3.9109066523195879e+00 3.8856893599711178e+01 -1 1 -1
1381 1 8.7655811392813749e+00 2.6109658532426687e+00 3.8681856817165134e+01 -3 0 0
1722 1 1.0983574554988827e+01 3.6740421853193679e+00 3.8561151510207338e+01 2 0 0
3104 1 1.4112436424354109e+00 6.1614008068283965e+00 3.9699342162435492e+01 3 0 0
225 1 3.9181749856127270e+00 7.3069710461480533e+00 3.9154336165222382e+01 -1 -3 -1
3044 1 6.4332123808983628e+00 6.3318366847656886e+00 3.9953762861228931e+01 2 -3 0
2821 1 1.1062558730320466e+01 6.2130213961107303e+00 3.9621532503577590e+01 -1 -3 -1
365 1 8.7379195914707850e+00 7.7915897590145144e+00 3.9167001110161927e+01 -1 5 -1
486 1 1.0863804313385925e+00 1.1488156432208340e+01 3.9632883806842393e+01 -2 -2 -1
5173 1 3.5727474160712034e+00 1.0233642941910903e+01 3.9370700938754297e+01 3 0 -2
1368 1 6.4365800235106754e+00 1.1664807489350340e+01 3.9183343782622750e+01 2 3 0
1401 1 9.0569736686490057e+00 1.0599107597913555e+01 4.0048172760837979e+01 -3 -2 0
5061 1 1.1482742125870988e+01 1.1743691450162020e+01 3.8841637490565716e+01 -3 1 -1
3065 1 3.3771966986295316e+00 2.0953979704633792e+00 4.1924967390918773e+01 0 4 0
1500 1 1.0528115541799989e+00 3.4235838268522132e+00 4.2601502681853951e+01 -2 7 0
1633 1 5.5055357860610297e+00 3.6214998053833627e+00 4.2825916128630972e+01 3 -1 -1
3078 1 8.0764681494096333e+00 2.6297740681617023e+00 4.1467126435390334e+01 -1 -2 0
3496 1 1.0521473119508684e+01 3.8698268672456111e+00 4.2567108788995682e+01 1 5 -1
6244 1 9.7598595048560881e+00 1.0859202136939530e+01 4.2617545710288766e+01 -1 -2 0
113 1 1.0084455151216956e+00 6.0297202037096689e+00 4.2148877479932715e+01 2 -2 0
3032 1 2.9594157256482889e+00 6.9745445684714573e+00 4.3574740247820372e+01 -3 -3 0
2806 1 1.2276775930541111e+01 2.8471489068171052e-01 4.2631998980793995e+01 -1 -2 0
6259 1 5.6006534219412760e+00 6.4728760113249484e+00 4.2618554115167917e+01 2 5 -1
1252 1 1.0607637866526229e+01 6.7456993373647194e+00 4.2383348317597608e+01 -1 0 0
3649 1 2.7018817323168229e+00 9.8041875682240054e+00 4.3458999488852079e+01 1 -1 -1
2972 1 6.0181328284651747e-01 1.1328616336023927e+01 4.2329567585897934e+01 2 -1 0
4759 1 1.1893816395987866e+01 8.9895552388246625e+00 4.3496297770302604e+01 -2 2 0
3507 1 5.2774698346325888e+00 1.0562673174332494e+01 4.1941750593909035e+01 2 2 -1
3208 1 1.1324729016542875e+01 1.1597540015868608e+01 3.6348618325667694e+01 -1 2 0
3286 1 7.5058691620582900e+00 9.8992089502304577e+00 4.3717222807611719e+01 -1 -2 -1
434 1 8.0386949203548514e+00 7.2573751050464379e+00 4.3776024675326646e+01 3 3 -1
5064 1 1.1963308780052848e+00 3.4009699562718185e+00 4.5490494278288807e+01 0 0 -1
1251 1 1.3048296090363298e+00 1.0159107270801369e+00 4.6433236756334843e+01 4 -2 -1
4830 1 5.7861350357842403e+00 1.1330091272931706e+00 4.6299766120194334e+01 -2 -1 -1
1981 1 5.6339976153664431e+00 3.7487408444258410e+00 4.5533429074105243e+01 2 4 -1
1619 1 9.8165145976324073e+00 1.5115385528185135e+00 4.6320121519837286e+01 1 -2 0
6263 1 1.2091863481826785e+01 2.8809911414641904e+00 5.0078579907792538e+01 -4 3 0
3147 1 3.4121567333114786e+00 4.9942026024621633e+00 4.6122772200824578e+01 0 -2 -1
1291 1 2.0160908013712748e+00 7.6340928122499001e+00 4.6624403616229685e+01 -3 1 0
3069 1 7.7950915696004879e+00 5.4226130999056865e+00 4.5858469960086126e+01 2 1 0
1497 1 9.9687659202490231e+00 4.2198962292754016e+00 4.5374844842917611e+01 3 -3 0
6181 1 2.8922588929504549e+00 1.0304961679566599e+01 4.5921703915451346e+01 2 1 0
1360 1 1.1561270844584614e+01 5.9015043135257939e+00 4.6863402347190309e+01 -4 -3 0
1542 1 5.2175651841853847e+00 1.1533193680281537e+01 4.6700278736953877e+01 -1 -2 0
550 1 7.7410137281172808e+00 1.1242458934910109e+01 4.6114732131988042e+01 4 3 0
1412 1 1.1322689347083877e+01 8.9445086191824075e+00 4.6106721713048891e+01 -1 -4 0
3377 1 1.4136015828612469e+00 8.6712395844454315e-01 4.9063336976493481e+01 -3 -1 0
1560 1 3.7311148041676163e+00 2.1320449433370201e+00 4.9908058455356432e+01 -2 -1 -1
545 1 5.9753503778413180e+00 9.4108118796883278e-01 4.8894091843147244e+01 0 0 -1
3670 1 7.8929351245926593e+00 3.0296854248283016e+00 4.9831971498792235e+01 1 0 -1
6217 1 9.9620394222267805e+00 1.5071530595273905e+00 4.9069289878010068e+01 2 -4 0
4845 1 1.4070111500847826e+00 5.9245795323742030e+00 5.0062159275671746e+01 5 -3 0
348 1 3.7300005042254618e+00 4.7097708682034849e+00 4.9114226442708784e+01 5 2 -1
2976 1 5.5065723492891046e+00 6.7284283144727386e+00 4.9998956846299883e+01 -2 -2 0
4581 1 7.8311137496713030e+00 7.1887520317899067e+00 4.8282834365104023e+01 3 1 -1
1269 1 8.8555646627560201e+00 5.5519613614802061e+00 5.0075291218149211e+01 1 5 0
4621 1 1.2259383897195613e+01 2.1666577413554933e-02 5.4082819120450999e+01 -1 -1 0
4418 1 9.9896449420364526e+00 7.7140870140078821e+00 5.7511134372729494e+01 0 4 0
4579 1 1.9695419048606355e+00 8.6969749328440109e+00 4.9342640977319633e+01 4 5 -1
222 1 4.3947650739435540e+00 9.1595633152286009e+00 5.0375387067561661e+01 0 -2 -1