
# Create simulation box and atoms

read_data data.ML_graphite_1atm_240K
  orthogonal box = (0 0 3.74403) to (49.22 49.0196 56.318)
  4 by 4 by 4 MPI processor grid
  reading atoms ...
  6328 atoms
  reading velocities ...
  6328 velocities
group water type 1
3568 atoms in group water
group graphite type 2
2760 atoms in group graphite

# Define potential

pair_style sw
pair_coeff * * MLC_e.sw mW C


# Fix graphite atoms in place

fix 5 graphite setforce 0.0 0.0 0.0
velocity graphite set 0.0 0.0 0.0


# Equilibration of molecular water

# Add velocity/set timestep

velocity	    water create ${TEMP} ${SEED} rot yes dist gaussian
velocity	    water create 240 ${SEED} rot yes dist gaussian
velocity	    water create 240 7373 rot yes dist gaussian
timestep	    5.0

# Define output

compute			1 water msd
compute			3 water temp
thermo	    	50
thermo_style	custom step temp press vol etotal ke pe c_1[4] c_3

# Neighbor lists

neigh_modify    delay 0 every 1 check yes

# Set fixes

fix             1 water momentum 10 linear 1 1 1 rescale
fix             2 water nve
fix             3 water temp/csvr ${TEMP} ${TEMP} 500.0 ${SEED}
fix             3 water temp/csvr 240 ${TEMP} 500.0 ${SEED}
fix             3 water temp/csvr 240 240 500.0 ${SEED}
fix             3 water temp/csvr 240 240 500.0 7373
fix             4 water press/berendsen z ${PRES} ${PRES} 1000.0 modulus 20000
fix             4 water press/berendsen z 1 ${PRES} 1000.0 modulus 20000
fix             4 water press/berendsen z 1 1 1000.0 modulus 20000

# Run 0.5 ns equilibration

dump		    1 all atom 2000 ${DIR}/eq.${NAME}-${TEMP}.dump
dump		    1 all atom 2000 run_19/eq.${NAME}-${TEMP}.dump
dump		    1 all atom 2000 run_19/eq.het_freeze_19-${TEMP}.dump
dump		    1 all atom 2000 run_19/eq.het_freeze_19-240.dump

reset_timestep  0

run	            100000
Neighbor list info ...
  update every 1 steps, delay 0 steps, check yes
  max neighbors/atom: 2000, page size: 100000
  master list distance cutoff = 6.67472
  ghost atom cutoff = 6.67472
  binsize = 3.33736, bins = 15 15 16
  1 neighbor lists, perpetual/occasional/extra = 1 0 0
  (1) pair sw, perpetual
      attributes: full, newton on
      pair build: full/bin/atomonly
      stencil: full/bin/3d
      bin: standard
Per MPI rank memory allocation (min/avg/max) = 4.072 | 4.208 | 4.496 Mbytes
Step Temp Press Volume TotEng KinEng PotEng c_1[4] c_3 
       0    135.30583   -58.143592    126847.59   -33960.221    2551.8119   -36512.033            0          240 
      50    137.65709   -171.77274    126964.24   -33922.137    2596.1556   -36518.293   0.51495243    244.17056 
     100    137.75486   -273.17098    127003.86   -33969.753    2597.9995   -36567.752   0.90678383    244.34399 
     150    137.10783   -168.74474    126981.19    -33951.78    2585.7967   -36537.577    1.1835293     243.1963 
     200    135.37376   -372.36019    127072.63   -34011.911     2553.093   -36565.004     1.394528    240.12049 
     250    134.70459   -220.63356    127145.85   -34027.052    2540.4727   -36567.524    1.6702817    238.93354 
     300    135.54629    -146.8656    127148.25   -34007.785    2556.3468   -36564.131    1.9015879    240.42651 
     350    135.14199   -254.25577    127135.48   -33994.945    2548.7219   -36543.667    2.1527146    239.70938 
     400    135.83155    -72.62615     127028.9   -33970.553    2561.7267   -36532.279    2.4082912     240.9325 
     450    138.63655   -212.54287    127053.96   -33978.595    2614.6278   -36593.223    2.6276301    245.90789 
     500    136.77132   -447.97713    127033.17   -33989.172    2579.4503   -36568.623     2.894192    242.59942 
     550    138.00792   -282.43187    127003.83   -33941.652    2602.7722   -36544.424    3.1879484    244.79286 
     600    137.26248    -337.3513     126984.2   -33920.157    2588.7135    -36508.87    3.4793862    243.47062 
     650    135.79036    -155.3236    126984.49   -33978.957    2560.9499   -36539.907    3.6847874    240.85944 
     700    135.75179    -255.8264    126924.99   -33990.156    2560.2225   -36550.379    3.8718518    240.79102 
     750     136.3626   -275.71991     126884.3   -33967.403    2571.7421   -36539.145    4.0926873    241.87445 
     800    134.39289    -304.8024     126831.9   -34015.851    2534.5941   -36550.445    4.3527476    238.38066 
     850    132.68501   -35.961363    126849.98   -34042.663    2502.3842   -36545.047    4.5651881    235.35129 
     900    133.46886    128.44251    126871.34   -34056.182    2517.1674   -36573.349    4.8126974    236.74166 
     950     136.8209    53.521271    127017.87   -33993.443    2580.3853   -36573.828    5.0374748    242.68736 
    1000    136.52569   -375.65299     127022.3   -34009.469    2574.8178   -36584.287    5.2572215    242.16373 
    1050    134.37523    23.025627    126946.43   -34034.213    2534.2611   -36568.474    5.4367903    238.34934 
    1100    132.89987   -207.36714    126984.91   -34057.757    2506.4363   -36564.193    5.6932577    235.73239 
    1150    134.58133   -282.07827    126979.84    -34048.92     2538.148   -36587.068    5.9309511    238.71491 
    1200    134.67832   -338.52333    127000.04    -34008.84    2539.9773   -36548.818    6.1799896    238.88695 
    1250    137.88235   -286.03618    127072.24   -33959.697    2600.4039   -36560.101    6.4732908    244.57012 
    1300    136.68058   -143.07879     127088.9   -33998.856    2577.7391   -36576.595    6.7586369    242.43847 
    1350    136.74403   -152.97993    127184.23   -33948.786    2578.9357   -36527.722    6.9961503    242.55102 
    1400    134.11881   -374.33127    127162.62   -33952.241    2529.4251   -36481.666     7.179032    237.89451 
    1450    133.67949   -562.13242    127080.23   -33976.202    2521.1398   -36497.342    7.3864425    237.11526 
    1500    133.92627    -341.1901    127065.47   -33998.722    2525.7938   -36524.516    7.7020911    237.55298 
    1550    131.75401   -226.88888    127039.92   -34008.029     2484.826   -36492.855    7.9140466    233.69993 
    1600    133.42452   -195.80525    127120.38   -33999.059     2516.331    -36515.39    8.0865004      236.663 
    1650    136.78433   -392.28671    127146.09   -33999.086    2579.6958   -36578.781    8.2914005    242.62251 
    1700    133.81753   -372.33381    127122.37   -34006.642    2523.7431   -36530.386    8.6123687    237.36011 
    1750    133.15578   -232.93744    127114.59   -34036.453    2511.2629   -36547.716     8.831064    236.18633 
    1800     135.0975   -236.93424    127080.61   -34029.755    2547.8828   -36577.638    8.9145459    239.63046 
    1850    135.99177   -378.47622    127076.26   -34042.058    2564.7483   -36606.806    9.2038237    241.21669 
    1900    135.43683   -250.57922    127036.91   -34068.324    2554.2825   -36622.607    9.4657312    240.23237 
    1950    136.15613   -250.32998    126989.26   -34057.116    2567.8481   -36624.965    9.7547063    241.50822 
    2000    136.36633    -441.5816    126955.76   -34024.333    2571.8125   -36596.146    9.9415518    241.88107 
    2050    134.08735    -314.7489    126977.99   -34056.103    2528.8318   -36584.935    10.213102    237.83871 
    2100    137.10281   -75.721925     126971.9   -34038.827    2585.7021   -36624.529    10.503864    243.18741 
    2150    135.97108   -469.14946    126950.24   -34061.644    2564.3581   -36626.002    10.633435    241.17998 
    2200    133.94415   -250.54165     126971.4   -34074.329    2526.1311    -36600.46    10.795748     237.5847 
    2250    136.21928   -256.77062    127022.83   -34102.825    2569.0391   -36671.864    11.063945    241.62023 
    2300    135.60094   -338.12734    127159.62   -34094.958    2557.3776   -36652.335    11.281465    240.52346 
    2350    138.34275   -221.24415    127264.56   -34040.328    2609.0868   -36649.414     11.40233    245.38676 
    2400    134.59087   -95.343491    127311.17   -34083.676    2538.3281   -36622.004    11.609185    238.73184 
    2450    134.25827   -66.089138    127312.63    -34130.85    2532.0553   -36662.906    11.816144    238.14188 
    2500    132.76651    -224.5488    127317.34   -34116.724    2503.9214   -36620.645    11.954166    235.49586 
    2550     135.7949   -218.24754    127246.61   -34084.866    2561.0355   -36645.902    12.071216    240.86749 
    2600    136.10258    24.116033    127260.38   -34030.705    2566.8381   -36597.543    12.228396    241.41323 
    2650     136.8472   -225.98914    127336.33   -33995.414    2580.8814   -36576.295    12.477373    242.73401 
    2700    134.39436   -125.16368    127276.04   -33983.067    2534.6219   -36517.689     12.73841    238.38327 
    2750    137.27193    -162.7708    127264.71   -33940.049    2588.8917   -36528.941    12.944933    243.48739 
    2800    136.74655   -112.03435    127257.43   -33972.878    2578.9832   -36551.861     13.14388    242.55549 
    2850    135.81256   -199.23061    127309.76   -33977.532    2561.3686   -36538.901    13.311184    240.89882 
    2900    133.08885   -330.19812    127324.38   -34027.096    2510.0004   -36537.096    13.482118     236.0676 
    2950    138.52351   -307.05468    127278.41   -33946.001     2612.496   -36558.497    13.754834    245.70739 
    3000    133.15902   -62.117943     127354.8   -33948.789    2511.3239   -36460.113      14.1136    236.19207 
    3050    136.14889    46.342804     127473.5   -33992.467    2567.7116   -36560.178     14.21264    241.49538 
    3100    134.59514   -114.08808    127531.95   -34016.262    2538.4085    -36554.67    14.425722     238.7394 
    3150    132.03413   -396.99494    127513.12   -34043.979     2490.109   -36534.088    14.680744    234.19679 
    3200    132.39999   -294.22091    127440.01   -34038.667    2497.0088   -36535.675    14.967256    234.84573 
    3250    137.06991   -283.42827    127479.74   -33987.789    2585.0816   -36572.871    15.100773    243.12904 
    3300    136.70994   -281.79033    127487.33    -34033.29    2578.2928   -36611.583    15.375585    242.49055 
    3350    137.08299   -233.50498    127489.95   -33999.985    2585.3284   -36585.313    15.575242    243.15226 
    3400    138.02309   -262.51794    127502.07   -34043.083    2603.0583   -36646.141    15.820651    244.81977 
    3450    134.72675    12.838236    127512.34   -34037.873    2540.8907   -36578.763    16.090627    238.97285 
    3500    133.89806   -109.40055    127464.34   -34067.852    2525.2619   -36593.114    16.244446    237.50296 
    3550    133.72315   -79.139639    127420.93   -34038.662    2521.9631   -36560.625    16.452571     237.1927 
    3600    133.76791   -310.74466    127402.07   -34088.527    2522.8073   -36611.334     16.69556    237.27209 
    3650    134.02956   -254.13538    127377.44   -34063.434    2527.7418   -36591.176    16.855974    237.73619 
    3700    135.13653   -250.70943    127490.33   -34125.648    2548.6189   -36674.267    17.031897     239.6997 
    3750    133.72362   -377.18981    127461.26   -34112.626    2521.9721   -36634.598    17.285256    237.19354 
    3800    134.22438   -131.40219    127472.45   -34065.291     2531.416   -36596.707    17.438902    238.08176 
    3850    132.09281   -360.93461    127515.37   -34070.014    2491.2157    -36561.23    17.677585    234.30088 
    3900     132.9663   -409.32155    127514.51   -34101.915    2507.6893   -36609.604     17.87682    235.85024 
    3950    136.82166   -133.39541    127522.86   -34129.276    2580.3997   -36709.676    18.048456    242.68871 
    4000    135.47466   -296.31865    127597.65   -34020.019    2554.9959   -36575.015    18.214012    240.29946 
    4050    136.29132   -146.39532    127569.16   -34043.984    2570.3977   -36614.382    18.400258    241.74802 
    4100     133.3218    -58.45575    127581.53   -34066.426    2514.3939    -36580.82    18.640874     236.4808 
    4150    136.52812   -540.25947    127626.04    -34045.02    2574.8638   -36619.884      18.8152    242.16805 
    4200    137.33509   -421.19936    127596.12   -34091.971    2590.0828   -36682.054    19.001229    243.59942 
    4250    133.00592   -212.00602    127485.54   -34138.434    2508.4365    -36646.87    19.144086    235.92051 
    4300    131.79641   -75.177502    127492.34   -34134.721    2485.6256   -36620.347    19.223084    233.77513 
    4350    133.50404    -206.5192    127485.22   -34164.453    2517.8308   -36682.284    19.356212    236.80405 
    4400    132.32656   -91.532549    127506.68   -34177.495     2495.624   -36673.119    19.474341    234.71548 
    4450     133.7146    67.067487    127559.87   -34159.295    2521.8019   -36681.096    19.721204    237.17754 
    4500    133.77841   -199.95703    127584.98   -34117.831    2523.0053   -36640.837    20.087963    237.29072 
    4550    136.84173   -108.09718    127627.67    -34092.07    2580.7783   -36672.848    20.347398    242.72431 
    4600    134.90915   -25.449653    127681.51    -34101.11    2544.3307   -36645.441    20.519695    239.29639 
    4650    137.38734    11.645772    127686.27    -34083.81    2591.0682   -36674.878    20.652184    243.69209 
    4700    134.63359    20.013142    127718.86   -34074.061    2539.1336   -36613.195    20.810754     238.8076 
    4750    134.76406   -376.85502    127778.25   -34074.523    2541.5942   -36616.117    20.910537    239.03902 
    4800    138.70945   -470.12749    127745.46   -34028.553    2616.0027   -36644.556    21.051697     246.0372 
    4850    137.50955   -453.49627    127724.99   -34029.103    2593.3731   -36622.477    21.322513    243.90887 
    4900    137.25391   -83.649732     127721.4   -34045.312    2588.5519   -36633.863    21.580962    243.45543 
    4950    135.61205   -231.33222    127761.78   -33978.572     2557.587   -36536.159     21.86143    240.54315 
    5000    134.25267   -419.58662     127730.4    -34030.81    2531.9497    -36562.76    22.101901    238.13195 
    5050    138.81858    -314.1225    127742.54   -33957.413    2618.0609   -36575.474    22.372537    246.23078 
    5100    135.84516   -434.56033    127793.14   -33969.231    2561.9834   -36531.214     22.60034    240.95664 
    5150    135.76714   -129.10795     127820.9   -33952.573    2560.5119   -36513.085     22.89225    240.81825 
    5200     135.8744   -295.53094    127806.53   -34003.251    2562.5348   -36565.786    23.091835     241.0085 
    5250    135.21932   -398.70738    127743.43   -34021.241    2550.1802   -36571.421    23.354943    239.84654 
    5300    135.70454   -139.66654    127679.57    -34023.41    2559.3313   -36582.741    23.647713    240.70721 
    5350    135.79241    55.669922    127649.74   -34028.731    2560.9885   -36589.719     24.05912    240.86307 
    5400    134.26934   -301.36705    127722.46   -33999.378    2532.2641   -36531.642    24.351764    238.16151 
    5450    135.81791   -82.907394    127692.26   -34012.156    2561.4694   -36573.626    24.434058     240.9083 
    5500    134.14361   -224.72596    127683.67   -34048.403    2529.8928   -36578.296     24.67689    237.93849 
    5550    133.58905   -55.930093    127742.55   -34036.819    2519.4341   -36556.254    24.766909    236.95485 
    5600    136.70597   -246.39647    127788.58   -33990.196    2578.2179   -36568.414    24.842503    242.48351 
    5650    137.05708   -230.48656    127793.72   -34025.397    2584.8397   -36610.237    25.114762     243.1063 
    5700    135.51151   -116.61814    127865.87   -34059.105    2555.6908   -36614.796    25.291116    240.36482 
    5750    138.07119   -348.93092    127873.81   -34071.861    2603.9653   -36675.827    25.642175    244.90508 
    5800    134.95136   -376.73531    127903.49    -34039.65    2545.1266   -36584.777    25.950896    239.37124 
    5850    135.40506   -118.96326    127950.43   -34010.272    2553.6833   -36563.955    26.240048    240.17601 
    5900    134.24779   -267.15895    127985.86   -34054.915    2531.8577   -36586.773    26.407073    238.12329 
    5950     137.8039   -144.60599    128008.71   -34062.972    2598.9243   -36661.896    26.686883    244.43097 
    6000    132.97891   -527.17887    127971.96   -34072.179     2507.927   -36580.106    26.767701    235.87259 
    6050    135.34861    -598.0061    127954.41   -34076.899    2552.6187   -36629.518    26.967026    240.07588 
    6100    135.51055    -293.0962    127923.73   -34033.888    2555.6728   -36589.561    27.291656    240.36313 
    6150    136.41293   -498.66956     127881.2   -34076.763    2572.6913   -36649.454    27.521238    241.96373 
    6200    135.49754   -365.49922    127856.38   -34074.492    2555.4274   -36629.919    27.675621    240.34004 
    6250    136.07521    -398.4693    127982.02    -34088.86    2566.3221   -36655.182    27.912623     241.3647 
    6300    133.83414   -404.45398    128014.86    -34092.19    2524.0564   -36616.246    28.074727    237.38957 
    6350    137.11838    -324.9796    128049.98   -34082.791    2585.9957   -36668.787    28.245443    243.21502 
    6400    136.17705   -460.86586    127995.43   -34103.105    2568.2428   -36671.348    28.507078    241.54534 
    6450    134.08727   -336.04159    127946.05   -34122.788    2528.8302   -36651.618    28.660986    237.83856 
    6500    136.61878   -179.71743    127905.36   -34081.374    2576.5736   -36657.948    28.964185    242.32886 
    6550    135.23677    -386.1417    127880.31   -34131.237    2550.5094   -36681.746    29.069795    239.87751 
    6600    135.27641   -491.91328    127849.59   -34131.794    2551.2569   -36683.051     29.24663    239.94781 
    6650    134.80187   -155.57613    127772.85   -34140.321    2542.3073   -36682.629      29.4589    239.10609 
    6700     135.4375   -100.72115    127762.01   -34151.244    2554.2951   -36705.539    29.632684    240.23355 
    6750     129.8332   -141.84692    127694.89   -34194.202    2448.6002   -36642.802    29.775146    230.29286 
    6800    133.99267   -161.30844    127758.22   -34175.294    2527.0462    -36702.34    29.984094    237.67077 
    6850    133.02761   -325.72288    127786.18   -34180.115    2508.8456    -36688.96    30.068211    235.95898 
    6900    133.93988   -222.88992    127759.54   -34171.222    2526.0507   -36697.273    30.193492    237.57714 
    6950    133.75701   -324.41568    127679.65   -34175.171    2522.6018   -36697.773    30.333905    237.25276 
    7000    132.62685   -553.72682    127555.12   -34144.861    2501.2874   -36646.149    30.600812    235.24814 
    7050    132.37837    53.372979    127527.42   -34174.336    2496.6011   -36670.938    30.795701    234.80739 
    7100     133.5812   -27.849245    127505.59   -34161.532    2519.2859   -36680.818    31.006895    236.94091 
    7150     131.5808   -160.73421     127571.1   -34136.119    2481.5593   -36617.678    31.298918    233.39268 
    7200    134.34659   -309.29449    127529.49    -34146.09    2533.7211   -36679.811    31.569625    238.29854 
    7250    132.20467   -138.54601    127594.29   -34150.733    2493.3253   -36644.058    31.682413    234.49929 
    7300    133.95787    -275.0924    127602.36   -34114.375    2526.3898   -36640.764    31.848673    237.60904 
    7350    136.00495   -163.12042    127589.56   -34103.856    2564.9969   -36668.853    32.128327    241.24007 
    7400    136.05466   -301.86975    127637.84   -34100.365    2565.9344     -36666.3    32.468936    241.32824 
    7450    133.51686    -111.0476    127662.64   -34103.244    2518.0726   -36621.317    32.753198    236.82679 
    7500    135.62343   -219.38664    127698.71   -34096.457    2557.8017   -36654.259    33.023127    240.56335 
    7550    136.65171   -235.12243     127734.1   -34069.952    2577.1945   -36647.146    33.221662    242.38726 
    7600    135.44317   -190.38916     127804.4    -34093.86     2554.402   -36648.262    33.438656     240.2436 
    7650    136.32219   -244.91824    127876.73   -34053.777    2570.9799   -36624.757    33.700991    241.80277 
    7700    133.03645   -280.70717    127868.32   -34031.957    2509.0122   -36540.969    33.871117    235.97466 
    7750    135.69954   -410.46313    127886.33   -34038.621     2559.237   -36597.858    34.092681    240.69834 
    7800    135.16603    -360.2793    127818.72   -34068.806    2549.1752   -36617.981    34.411297    239.75202 
    7850    135.16132   -403.14617    127838.47   -34082.977    2549.0864   -36632.063    34.682114    239.74367 
    7900    133.18146   -381.62199    127810.12   -34065.906    2511.7472   -36577.653    34.954006    236.23188 
    7950    137.31767   -133.71858    127734.36   -34008.695    2589.7543   -36598.449    35.130361    243.56851 
    8000    133.61505   -365.43325    127778.91   -33959.393    2519.9243   -36479.318    35.187578    237.00095 
    8050    137.84288   -352.06143    127678.88   -33979.269    2599.6596   -36578.929     35.27362    244.50012 
    8100    137.85015    -310.0677    127608.23   -33959.621    2599.7967   -36559.417    35.544425    244.51301 
    8150    137.93635   -377.40234    127593.56   -33936.875    2601.4223   -36538.298    35.830352     244.6659 
    8200    136.06733   -381.74061    127616.55   -33978.826    2566.1734       -36545    36.136983    241.35071 
    8250    135.22537   -10.095284    127630.39   -33990.588    2550.2944   -36540.883    36.411956    239.85728 
    8300    134.67877   -120.01521    127671.13   -33985.282    2539.9857   -36525.268    36.583281    238.88773 
    8350    136.11363   -60.146164    127658.62   -34020.388    2567.0467   -36587.435     36.69706    241.43284 
    8400    136.80563   -219.52652    127660.32   -33998.561    2580.0974   -36578.658    36.837419    242.66028 
    8450    138.97019    5.1140044    127668.42   -33967.951    2620.9201   -36588.871    37.017717    246.49969 
    8500    138.29897   -397.47991     127599.7    -33966.83    2608.2613   -36575.091    37.298806    245.30911 
    8550    138.09323   -76.933152    127648.54   -33969.806     2604.381   -36574.187    37.536951    244.94417 
    8600    137.14083   -100.73566    127614.39   -34005.749    2586.4191   -36592.168    37.615369    243.25484 
    8650    133.30057   -76.334031    127666.08    -34036.46    2513.9935   -36550.453    37.942881    236.44315 
    8700     137.1828   -68.441675    127757.76   -34051.801    2587.2107   -36639.012    38.149146    243.32929 
    8750     135.8631   -353.27197     127894.1   -34017.058    2562.3217   -36579.379    38.546556    240.98846 
    8800    136.34136   -329.87492     127846.2   -34042.106    2571.3416   -36613.448    38.862083    241.83678 
    8850    135.63409   -500.78891    127748.18   -34026.551    2558.0028   -36584.554     39.17002    240.58226 
    8900    137.01368   -120.72788    127725.46   -34006.571    2584.0211   -36590.592    39.239822     243.0293 
    8950    135.76077   -237.89804    127720.88   -33984.343    2560.3918   -36544.735    39.161556    240.80695 
    9000    135.91687    36.517474    127760.65   -33976.463    2563.3358   -36539.799     39.33772    241.08384 
    9050    136.42388   -142.20556     127783.1   -34023.634    2572.8977   -36596.532    39.426913    241.98314 
    9100    136.05165   -362.16147    127809.12   -34036.577    2565.8778   -36602.455    39.521247    241.32291 
    9150    137.70992   -356.81583    127806.84   -34053.582    2597.1519   -36650.733    39.781645    244.26427 
    9200    134.99733   -325.19734    127809.44     -34054.1    2545.9936   -36600.094    40.017163    239.45279 
    9250      137.685   -213.46502    127823.11   -34053.168     2596.682    -36649.85    40.183323    244.22008 
    9300    135.25361   -557.92128    127827.86   -34024.237     2550.827   -36575.064    40.535221    239.90737 
    9350     138.0356   -174.04796    127826.53    -34004.33    2603.2942   -36607.624    40.739476    244.84196 
    9400    136.30507   -280.22574    127822.69    -33977.01     2570.657   -36547.667    40.813325     241.7724 
    9450    136.13778   -247.19644    127939.14   -33963.139    2567.5021   -36530.641    41.048276    241.47568 
    9500    136.41715   -476.05285    127925.12   -34032.269    2572.7709    -36605.04    41.195824    241.97121 
    9550    132.39559   -573.27228    127849.12   -34079.541     2496.926   -36576.467    41.344771    234.83793 
    9600    133.96183   -84.389343    127844.37    -34125.34    2526.4645   -36651.804    41.466433    237.61606 
    9650    134.64956   -242.27081    127838.31   -34106.828    2539.4348   -36646.262    41.573422    238.83592 
    9700    134.94006   -300.23075    127768.42   -34126.077    2544.9135    -36670.99    41.785261     239.3512 
    9750    136.08073   -190.29977     127791.2   -34061.037    2566.4261   -36627.463     41.98159    241.37448 
    9800     134.1835   -373.72499     127761.6   -34083.509    2530.6451   -36614.155    41.916408    238.00925 
    9850    138.51608   -281.20633    127785.26     -34055.8    2612.3558   -36668.156    41.976139    245.69421 
    9900    133.58436   -194.89412    127821.39   -34098.135    2519.3456   -36617.481    42.333576    236.94652 
    9950    133.46285   -451.69077    127806.23   -34088.054     2517.054   -36605.108    42.422498    236.73099 
   10000    133.84362   -366.33283    127693.93   -34119.966    2524.2351   -36644.201    42.558682    237.40638 
   10050    134.29385   -328.02532    127650.65   -34107.888    2532.7263   -36640.614    42.726347    238.20498 
   10100    132.75536   -384.54768    127645.02    -34139.18    2503.7111   -36642.891     42.72331    235.47608 
   10150    132.88736   -242.59224    127597.09   -34150.881    2506.2004   -36657.081    42.766671    235.71021 
   10200    132.07618   -188.09971     127577.1   -34101.188    2490.9019    -36592.09    42.889798    234.27137 
   10250    135.94379   -393.05614    127669.77   -34073.424    2563.8435   -36637.268    42.998312    241.13159 
   10300    132.54633   -296.81249    127593.63   -34065.338    2499.7688   -36565.107    43.037167    235.10531 
   10350    133.72533   -164.43635    127651.28   -34053.569    2522.0042   -36575.573    43.338326    237.19656 
   10400      135.773    115.24631    127744.52   -34078.051    2560.6225   -36638.673    43.716192    240.82864 
   10450    137.36034    -108.7108    127841.87   -34025.403    2590.5589   -36615.962    44.049008    243.64419 
   10500    138.10377   -170.43236    127859.34   -34049.746    2604.5798   -36654.326    44.083336    244.96286 
   10550    133.38028    -282.3876    127851.05    -34099.67    2515.4967   -36615.167    44.358983    236.58453 
   10600    135.18082    -158.7204    127896.64   -34078.579    2549.4541   -36628.033    44.775356    239.77825 
   10650    135.68662   -164.66954    127911.08   -34050.854    2558.9933   -36609.847    45.212141    240.67542 
   10700     135.2306   -161.71264       127874   -34080.109     2550.393   -36630.502    45.265049    239.86656 
   10750    135.43339   -353.53942    127803.09    -34157.66    2554.2175   -36711.878    45.363327    240.22625 
   10800    134.03006   -277.07765     127792.9    -34140.25    2527.7514   -36668.001    45.622924    237.73709 
   10850    134.97199   -289.03993    127755.54   -34094.192    2545.5157   -36639.707    45.832699    239.40784 
   10900    134.99765   -508.76276    127679.85   -34048.896    2545.9997   -36594.896    46.058009    239.45336 
   10950     136.0394   -424.18582    127641.04   -34070.778    2565.6467   -36636.425    46.336621    241.30118 
   11000    135.96672    62.124478    127657.74   -34037.313    2564.2759   -36601.589    46.483095    241.17225 
   11050    134.08029   -295.30413    127678.53    -34064.73    2528.6987   -36593.429    46.535895    237.82619 
   11100    136.30907   -465.85812    127502.76   -34061.752    2570.7325   -36632.484    46.652053     241.7795 
   11150    134.31133   -333.08534    127416.02   -34083.754     2533.056    -36616.81    46.806407    238.23599 
   11200    135.74324   -152.41023    127442.29   -34057.828    2560.0612   -36617.889    47.114017    240.77586 
   11250    131.00197   -422.08734    127484.09   -34079.682    2470.6428   -36550.325    47.463861    232.36598 
   11300    135.95635   -26.099728    127444.43   -34051.577    2564.0805   -36615.657    47.706614    241.15387 
   11350    133.43802   -318.68166    127509.77   -34080.275    2516.5856   -36596.861    47.927656    236.68694 
   11400    134.08904    -39.78404    127490.86   -34038.908    2528.8637   -36567.771    48.078056    237.84171 
   11450     135.4266    12.075547    127452.84   -33995.909    2554.0895   -36549.998    48.215329    240.21421 
   11500    134.69849   -35.341635    127506.39   -33995.038    2540.3577   -36535.396    48.522956    238.92272 
   11550    133.81418   -280.46942    127451.18   -33994.514      2523.68   -36518.194    48.804084    237.35417 
   11600    137.04986   -348.06579    127403.36   -33977.728    2584.7034   -36562.432    49.137747    243.09348 
   11650    132.19134   -484.26446    127269.56   -34057.001    2493.0739   -36550.075    49.333036    234.47564 
   11700    134.95175   -176.21818    127222.97   -34079.953     2545.134   -36625.087    49.344907    239.37194 
   11750    134.77032   -316.61126    127216.54   -34068.968    2541.7124    -36610.68    49.549607    239.05014 
   11800    134.84893   -99.687534    127206.92   -34061.648    2543.1948   -36604.843    49.800846    239.18956 
   11850    134.01689    -360.4075    127211.97   -34040.964    2527.5029   -36568.466    50.087456    237.71372 
   11900    136.67737   -282.65191    127123.71   -33986.829    2577.6784   -36564.507     50.52739    242.43277 
   11950     135.6831   -301.09405    127178.63   -33968.988    2558.9271   -36527.915    50.850948    240.66919 
   12000    139.93313   -6.1757123    127182.24   -33918.378    2639.0808   -36557.459    50.939519    248.20771 
   12050    136.93927   -238.66706    127249.22   -33937.581    2582.6178   -36520.199    51.205986    242.89732 
   12100    135.88044    31.018528    127244.22    -33935.71    2562.6488   -36498.359    51.418561    241.01922 
   12150    140.09414   -330.44019       127262   -33881.152    2642.1174    -36523.27    51.593208    248.49331 
   12200    136.91112   -165.60641    127315.12     -33934.1     2582.087   -36516.187    51.729551     242.8474 
   12250    135.80679     -425.837    127284.59   -33931.489    2561.2598   -36492.749     51.62797    240.88858 
   12300    135.88457   -208.03608     127178.6   -33939.195    2562.7267   -36501.922    51.748857    241.02654 
   12350    136.17173   -162.52226    127201.16    -33979.66    2568.1423   -36547.803     51.96512    241.53589 
   12400    132.43608   -253.30672    127185.49   -34056.869    2497.6895   -36554.559    52.228104    234.90974 
   12450    133.49905   -239.91002    127168.52    -34091.14    2517.7366   -36608.876    52.561323     236.7952 
   12500    132.32368   -525.27696     127172.3   -34050.589    2495.5697   -36546.159    52.666437    234.71037 
   12550    134.42765   -84.620542    127126.56    -34028.79    2535.2497   -36564.039     52.87432    238.44231 
   12600    132.69582   -579.68087    127130.77   -34029.594    2502.5881   -36532.182    53.242074    235.37047 
   12650     133.7395   -365.14367    127076.61   -34036.617    2522.2716   -36558.888     53.62328    237.22171 
   12700     133.9012   -100.65504     127031.1   -34056.407    2525.3211   -36581.728    53.921342    237.50852 
   12750    135.16342   -403.34108    127080.44   -33986.725    2549.1261   -36535.851    54.061905     239.7474 
   12800    138.49603   -249.15724    127045.79   -33919.373    2611.9776    -36531.35    54.343279    245.65864 
   12850      138.503   -478.58799    127005.97   -33918.404    2612.1092   -36530.513    54.837181    245.67101 
   12900    135.82122    20.278449    127024.71   -33943.536    2561.5319   -36505.068    55.157016    240.91417 
   12950    138.98947   -424.61747    127133.19   -33958.054    2621.2837   -36579.338    55.405103    246.53388 
   13000    134.51211   -256.13075    127176.31   -33933.688    2536.8425   -36470.531    55.613137    238.59212 
   13050    137.63664    -47.37138    127251.01   -33933.061      2595.77   -36528.831    55.731815     244.1343 
   13100    141.25369     269.2204    127332.68   -33892.347    2663.9859   -36556.333    56.026528    250.55006 
   13150    138.59436   -285.69208    127428.88   -33865.271    2613.8321   -36479.103    56.199915    245.83305 
   13200    136.82908   -257.31866    127407.74   -33878.659    2580.5396   -36459.199    56.611832    242.70187 
   13250    136.67025   -268.70646    127418.06   -33881.575    2577.5442    -36459.12    57.059444    242.42015 
   13300    141.99625   -221.18732    127356.52   -33829.036    2677.9903   -36507.026     57.34558    251.86719 
   13350    135.89343   -276.01635    127283.45   -33882.607    2562.8937   -36445.501    57.428264    241.04226 
   13400    137.83408   -337.37758    127255.54   -33874.389    2599.4935   -36473.882    57.642508     244.4845 
   13450    139.26817    15.864074    127248.76   -33875.385    2626.5399   -36501.925    58.048976    247.02823 
   13500    135.12694   -267.45107    127200.31   -33885.098     2548.438   -36433.536    58.367069    239.68268 
   13550    133.50448   -63.711907    127181.78   -33951.125    2517.8392   -36468.964    58.762044    236.80484 
   13600    135.10764   -197.38246    127150.46   -33953.744     2548.074   -36501.818    58.951154    239.64845 
   13650    133.54632   -355.95782     127198.1   -33947.779    2518.6281   -36466.407    59.158108    236.87904 
   13700     133.9441   -151.37821    127151.02   -33942.854    2526.1302   -36468.984    59.535629    237.58462 
   13750    136.40844    -109.9358    127266.04   -33893.932    2572.6065   -36466.539    59.723025    241.95575 
   13800    138.80029   -101.32074    127349.59   -33911.427    2617.7158   -36529.143    59.978839    246.19832 
   13850    132.79953   -300.99028    127473.37   -33977.014     2504.544   -36481.558     60.24741    235.55442 
   13900     133.9424   -264.76446    127438.66   -33943.191     2526.098   -36469.289    60.613966    237.58159 
   13950     136.4792   -143.38238    127504.66   -33964.267    2573.9411   -36538.208    60.935955    242.08128 
   14000    136.05876   -280.47615     127510.6   -33926.768    2566.0118    -36492.78    61.073086    241.33551 
   14050     135.5787   -349.13958    127499.06   -33959.887    2556.9581   -36516.845    61.165505    240.48401 
   14100    136.42444   -109.28898    127468.29   -33965.773    2572.9084   -36538.682    61.334405    241.98414 
   14150    133.60893   -217.80607     127356.6   -34010.703     2519.809   -36530.512    61.528397    236.99011 
   14200    131.42107   -229.55993    127199.59   -34062.363    2478.5468   -36540.909    61.675804    233.10936 
   14250    135.87977   -370.87124    127176.92   -34048.713    2562.6361   -36611.349    62.120439    241.01803 
   14300    135.71245   -408.18171    127060.36   -33968.499    2559.4805    -36527.98    62.368977    240.72124 
   14350     137.1757   -435.26018     127102.3   -33949.319    2587.0768   -36536.396    62.320746    243.31669 
   14400    136.47395    -123.8473     127105.6   -33972.739    2573.8422   -36546.581    62.453762    242.07197 
   14450    135.54564   -278.42516    127115.13   -34033.161    2556.3345   -36589.495     62.96769    240.42536 
   14500    134.90635   -719.22049       127062   -34051.798    2544.2778   -36596.076     63.27324    239.29141 
   14550    132.55803   -261.16655    126982.87   -34087.288    2499.9894   -36587.277    63.392303    235.12606 
   14600    131.33306   -217.40818    127007.28   -34071.181    2476.8871   -36548.068    63.753491    232.95326 
   14650    133.03732   -90.388001    127014.74   -34067.748    2509.0287   -36576.777    64.239328    235.97621 
   14700    130.83475   -230.22374    127094.62   -34041.796    2467.4891   -36509.285     64.70531    232.06937 
   14750    135.66247   -199.64444    127042.69   -34056.183    2558.5379   -36614.721    65.038068    240.63259 
   14800    136.18873   -204.35986    126981.03    -34004.43     2568.463   -36572.893     65.07755    241.56605 
   14850    135.76845    16.550087    127028.68    -33991.08    2560.5367   -36551.616    64.951848    240.82058 
   14900    136.76039   -317.72179    127039.24   -34000.542    2579.2441   -36579.786    65.330675    242.58003 
   14950    134.49531    206.99524    127057.08   -33964.956    2536.5258   -36501.482    65.379249    238.56233 
   15000    135.72585    -67.36228     127069.1   -33932.081    2559.7331   -36491.814    65.739318      240.745 
   15050    132.57428    32.589508    127083.53   -33960.652     2500.296   -36460.948    65.949669    235.15489 
   15100    134.86641    -410.7276    127013.77   -33952.887    2543.5245   -36496.412    66.493868    239.22057 
   15150    132.81576   -114.39569    127035.18   -33912.859    2504.8501   -36417.709    66.747809     235.5832 
   15200     137.7108   -143.14573    127093.69   -33888.996    2597.1685   -36486.165    67.053374    244.26583 
   15250    138.61821   -455.52015    127103.38   -33868.088     2614.282    -36482.37    67.176474    245.87536 
   15300     136.2428   -255.74463    127091.04   -33884.787    2569.4827    -36454.27    67.385643    241.66195 
   15350    135.15523   -380.92448    127177.44   -33926.068    2548.9716   -36475.039    67.731388    239.73287 
   15400    135.57352   -253.89381    127151.92   -33914.874    2556.8604   -36471.734    67.873875    240.47482 
   15450    136.82414   -294.29021    127089.65   -33912.736    2580.4465   -36493.183    68.016533    242.69311 
   15500    133.18013   -208.59795    127130.52   -33958.742     2511.722   -36470.464    68.465609    236.22952 
   15550    137.39203    65.500116    127164.72   -33971.057    2591.1568   -36562.214    68.851327    243.70042 
   15600    135.33663    -230.2743    127244.11   -33965.915    2552.3927   -36518.308    69.419807    240.05463 
   15650    135.17581   -206.21391    127218.18   -33952.742    2549.3596   -36502.102    69.754509    239.76937 
   15700      134.541   -285.15588    127177.34   -33954.639    2537.3874   -36492.026    70.187613    238.64337 
   15750    137.87311   -368.44104    127146.49    -33933.02    2600.2297    -36533.25    70.469353    244.55374 
   15800    132.90376    -405.4439    127040.77   -33955.651    2506.5097   -36462.161    70.420555     235.7393 
   15850    131.86021   -178.02515    126896.49   -34021.838    2486.8288   -36508.667    70.589396    233.88829 
   15900    134.52966   -141.27179    126848.25   -34017.695    2537.1736   -36554.868    71.040363    238.62326 
   15950    134.93252    -577.2295    126728.48   -34066.894    2544.7713   -36611.665    71.218795    239.33783 
   16000    135.05891    16.479414    126869.72   -34077.685    2547.1551    -36624.84    71.693058    239.56203 
   16050    135.95955    9.4557225    126934.16   -34097.953    2564.1407   -36662.094    71.783932    241.15954 
   16100    134.46283   -183.44981    126985.47   -34054.748    2535.9132   -36590.661    72.073831    238.50471 
   16150    134.44691   -522.46693    126920.91    -34046.65    2535.6129   -36582.263    72.301506    238.47648 
   16200    134.01604   -130.14786     126917.9   -34022.126    2527.4869   -36549.612    72.612886    237.71222 
   16250    131.56037   -17.129283    127016.73   -34052.342    2481.1741   -36533.516    72.556458    233.35646 
   16300    135.42208   -33.151524    127001.97    -34045.81    2554.0043   -36599.815    72.643517     240.2062 
   16350     131.2566   -67.445451    127036.14   -34082.776     2475.445   -36558.221    72.901201    232.81764 
   16400     135.5718   -82.463191    127079.14   -34119.502    2556.8279    -36676.33     72.95256    240.47176 
   16450     133.5132    -150.1509    127096.67   -34103.829    2518.0036   -36621.833    73.044438    236.82031 
   16500    132.96642    106.30436    127173.15    -34121.07    2507.6916   -36628.762    73.128145    235.85045 
   16550    134.29589    30.696333    127273.71   -34094.216    2532.7647   -36626.981    73.566865     238.2086 
   16600    133.33474   -360.42495    127245.71   -34093.097    2514.6379   -36607.735    73.570586    236.50376 
   16650     135.9293   -294.99341    127197.78    -34043.37    2563.5703    -36606.94    73.576557    241.10589 
   16700    134.15137   -235.35339     127221.5   -34073.959    2530.0392   -36603.998    73.627179    237.95226 
   16750    133.44551    -250.2826     127158.3   -34067.524     2516.727   -36584.251    73.831451    236.70024 
   16800    134.67602   -371.52564    127167.52   -34064.092    2539.9339   -36604.026    74.016309    238.88287 
   16850    136.50946    -107.3001    127128.11   -34058.046    2574.5118   -36632.558    74.256124    242.13495 
   16900    135.24099   -92.284337    127207.72   -33983.577    2550.5889   -36534.166    74.401516    239.88498 
   16950    134.40325   -231.54883    127247.92   -33985.158    2534.7895   -36519.947    74.538041    238.39903 
   17000    136.34115   -249.26048     127238.7   -34004.695    2571.3375   -36576.032    74.747887     241.8364 
   17050     136.6491   -279.05358    127239.37   -34001.609    2577.1453   -36578.754    75.271962    242.38263 
   17100     133.9686   -298.44563    127248.12   -34006.793    2526.5923   -36533.385    75.708099    237.62808 
   17150    134.62916   -23.970866    127373.72   -34050.538    2539.0501   -36589.588    75.848212    238.79975 
   17200    134.85179   -190.78217    127384.47   -34041.915    2543.2489   -36585.164    76.048897    239.19464 
   17250    133.69849    9.3360207    127377.74   -34034.389     2521.498   -36555.887    76.056772    237.14896 
   17300    136.35541   -444.52958    127446.18   -34068.928    2571.6064   -36640.535    76.145475    241.86169 
   17350    136.30967    -175.7968    127523.54   -34051.489    2570.7439   -36622.233    76.206499    241.78057 
   17400    134.57592   -125.34067    127556.88   -34045.601     2538.046   -36583.646     76.56402    238.70531 
   17450    136.13915   -223.92072    127479.67   -34005.693     2567.528   -36573.221       76.716    241.47811 
   17500    137.50557   -234.38636    127494.22   -33971.181     2593.298   -36564.479    76.845674    243.90181 
   17550    137.68129   -613.16158    127411.77   -33971.403    2596.6121   -36568.015    77.066611     244.2135 
   17600    136.88476   -343.62545    127390.67   -34014.111    2581.5897   -36595.701    77.386431    242.80063 
   17650    135.19902   -181.15537     127382.3   -34049.759    2549.7974   -36599.556    77.624399    239.81054 
   17700    136.74506   -114.74629    127596.28   -34040.435    2578.9552    -36619.39    77.893491    242.55285 
   17750    132.75252   -157.71186    127559.08   -34099.945    2503.6574   -36603.602      77.9721    235.47103 
   17800    133.32494   -412.16933    127568.94    -34149.07     2514.453   -36663.523    78.041598    236.48637 
   17850    135.56168    -485.9249    127502.43   -34116.768    2556.6371   -36673.405    78.220408    240.45381 
   17900    136.10194   -3.3096245    127455.97   -34054.053    2566.8262   -36620.879    78.303469    241.41211 
   17950    136.81878    13.661861    127480.75   -34050.675    2580.3454    -36631.02    78.199575     242.6836 
   18000    134.63215   -156.39457    127565.67    -33990.94    2539.1066   -36530.046    78.457442    238.80506 
   18050    135.19473   -41.212677       127602   -34022.725    2549.7165   -36572.442    78.459186    239.80292 
   18100    138.89411   -477.80781     127576.6   -33999.898    2619.4854   -36619.383    78.703229    246.36475 
   18150    137.21171   -433.33492    127615.42   -33973.355    2587.7559   -36561.111    79.023607    243.38056 
   18200     134.2127   -121.74752    127613.24   -33997.728    2531.1958   -36528.924    79.212153    238.06104 
   18250     134.3754   -518.27344     127634.7    -34017.32    2534.2643   -36551.585    79.657371    238.34964 
   18300    135.89469   -124.73126    127545.69   -34001.199    2562.9174   -36564.116    80.033221    241.04449 
   18350     136.9982   -249.60212    127521.27    -33948.51    2583.7292   -36532.239    80.326493    243.00185 
   18400    137.36954    -453.2371    127509.08   -33969.228    2590.7326   -36559.961    80.683306    243.66053 
   18450     134.9671   -369.34375    127493.72   -33996.765    2545.4234   -36542.189    81.078365    239.39916 
   18500    136.16893   -325.48297    127452.29    -34006.86    2568.0896    -36574.95    81.264211    241.53094 
   18550    135.69008   -154.78221    127470.77   -34029.642    2559.0586   -36588.701    81.516434    240.68156 
   18600    136.39019   -352.35439    127559.54   -34040.085    2572.2624   -36612.347    81.676417    241.92339 
   18650    134.56124   -627.94181    127547.31   -34044.747    2537.7691   -36582.516    82.072624    238.67926 
   18700    134.24404   -376.06008    127426.32   -34061.128    2531.7869   -36592.915     82.17234    238.11663 
   18750    134.27216   -488.32185    127270.76    -34074.74    2532.3173   -36607.057    82.114508    238.16652 
   18800    133.57841   -305.60724    127149.88   -34059.683    2519.2333   -36578.917    82.464775    236.93596 
   18850    137.76713   -308.81104    127110.81   -34019.249    2598.2308   -36617.479    82.607563    244.36574 
   18900       137.79    40.428435    127138.94    -34021.56    2598.6622   -36620.222    82.748925    244.40631 
   18950    134.22994   -506.79789    127123.98   -34060.425    2531.5209   -36591.946    82.808801    238.09162 
   19000    137.68493   -155.53781    127049.55   -34019.095    2596.6806   -36615.775    83.247958    244.21994 
   19050    135.16852   -208.36376    127124.18   -33987.656    2549.2223   -36536.878    83.494025    239.75645 
   19100      136.122   -136.51868    127254.25   -33985.416    2567.2044   -36552.621     83.88709    241.44768 
   19150    137.33922   -167.83692    127294.29   -33977.512    2590.1608   -36567.673    84.318559    243.60675 
   19200    136.96592   -397.86622    127373.85   -34016.067    2583.1205   -36599.187    84.653443     242.9446 
   19250    135.68186   -373.58525    127175.23   -34037.287    2558.9035    -36596.19    85.046443    240.66698 
   19300    136.45044   -247.42275    127088.29   -34039.243    2573.3987   -36612.641    85.534069    242.03026 
   19350    136.64271   -237.98345     127123.2   -34041.204    2577.0247   -36618.229    85.742467    242.37129 
   19400    134.01651   -343.61222    127103.56   -34061.587    2527.4959   -36589.083    86.031503    237.71306 
   19450    134.54699   -228.64127    127065.99   -34034.277    2537.5004   -36571.777    86.115586    238.65399 
   19500    132.27152   -434.40105    127059.98   -34033.078    2494.5859   -36527.664    86.515893    234.61785 
   19550    132.65763   -151.99526    127016.29   -34096.289    2501.8679   -36598.157    86.904899    235.30273 
   19600    134.94873   -298.80745    127018.05   -34071.637    2545.0771   -36616.714    87.202913    239.36659 
   19650    135.21822   -244.46948    126956.49   -34105.764    2550.1596   -36655.924    87.361432    239.84461 
   19700    132.45873   -278.63265    126885.98   -34131.736    2498.1167   -36629.853    87.549368    234.94993 
   19750     133.2526   -224.66647    126866.89   -34131.379    2513.0888   -36644.468    87.953523    236.35806 
   19800    134.34539   -205.08057    126900.13   -34159.918    2533.6983   -36693.617    88.230263    238.29641 
   19850    133.15877   -178.89195    127018.62   -34167.029    2511.3191   -36678.348    88.520484    236.19162 
   19900    132.90782   -244.48665    127051.55   -34186.925    2506.5864   -36693.512     88.65663    235.74651 
   19950    134.14273   -145.20484    127101.99   -34109.661    2529.8762   -36639.537    89.147447    237.93693 
   20000    136.50133   -363.99079    127151.79   -34096.783    2574.3585   -36671.142    89.536792    242.12053 
   20050    134.88444   -188.06393     127093.4   -34087.763    2543.8645   -36631.627    90.025958    239.25254 
   20100    133.61684   -98.802095    127085.79   -34076.568    2519.9581   -36596.526    90.322414    237.00413 
   20150    134.80802    -61.12317    127118.02   -34104.053    2542.4233   -36646.477    90.522472      239.117 
   20200    133.90797   -54.915385    127114.63   -34152.184    2525.4488   -36677.633    91.001271    237.52053 
   20250     133.3461   -228.77448    127237.17   -34111.349    2514.8522   -36626.202      91.4141    236.52391 
   20300    132.40302   -168.31757    127241.69   -34122.808    2497.0661   -36619.874    91.265799    234.85111 
   20350    134.19605   -406.84511     127262.3   -34133.099    2530.8819    -36663.98    91.593431    238.03152 
   20400    133.04576   -575.46543    127243.41   -34119.253    2509.1878    -36628.44    92.018161    235.99117 
   20450    133.90101    -464.8691    127270.96   -34102.738    2525.3174   -36628.056    92.205683    237.50818 
   20500     135.2641    -47.06875    127249.43   -34116.803    2551.0248   -36667.828    92.373346    239.92597 
   20550    131.28832   -387.34297    127294.77   -34154.123    2476.0432   -36630.166     92.74778     232.8739 
   20600    132.65224   -145.74042    127302.28   -34161.452    2501.7662   -36663.218    92.943181    235.29317 
   20650    133.50406   -154.39781    127344.08   -34140.432    2517.8312   -36658.263    93.034669    236.80409 
   20700    133.50055    -480.7554    127350.83    -34154.15    2517.7651   -36671.915    93.311567    236.79787 
   20750    135.06433   -446.67769    127308.59   -34142.151    2547.2572   -36689.408    93.520033    239.57163 
   20800    133.26823   -292.46414    127211.21    -34165.68    2513.3835   -36679.063    93.919372    236.38578 
   20850    132.56775   -217.46009    127255.58   -34159.135    2500.1727   -36659.307    94.279802    235.14329 
   20900     132.4112   -367.48018    127241.42   -34185.667    2497.2203   -36682.887    94.145541    234.86562 
   20950    133.34655   -229.06826     127177.1   -34203.297    2514.8607   -36718.158    94.419878    236.52471 
   21000    133.42511   -161.86607    127194.28   -34217.036    2516.3423   -36733.379     94.42601    236.66406 
   21050     132.7482   -309.37443    127312.34   -34186.803     2503.576   -36690.379    94.711215    235.46337 
   21100    134.68923   -234.71636    127236.21   -34141.999    2540.1831   -36682.182    95.075123     238.9063 
   21150    135.11432    -206.0582    127208.18    -34140.05       2548.2    -36688.25    95.140056     239.6603 
   21200     136.7359    -257.0665    127144.45   -34073.764    2578.7823   -36652.546    95.242404    242.53659 
   21250    136.60029   -391.35713    127059.78   -34005.929    2576.2248   -36582.153    95.427221    242.29606 
   21300    136.90538   -226.33109    127043.29   -34018.853    2581.9788   -36600.831    95.569571    242.83722 
   21350    135.60958   -94.875794    127086.33   -34035.407    2557.5405   -36592.947    95.861192    240.53878 
   21400    133.66292   -250.10863    127134.06   -34042.998    2520.8271   -36563.825    96.459769    237.08586 
   21450    137.09312   -122.04027    127068.34   -34040.288    2585.5193   -36625.808    96.783363    243.17021 
   21500    137.50517   -315.30676    127077.28   -34041.289    2593.2904    -36634.58    97.052919    243.90109 
   21550    138.03931   -271.66455    127090.82   -34014.935    2603.3641   -36618.299    97.340612    244.84853 
   21600    133.87967   -183.84616    127100.98   -34015.206     2524.915   -36540.121    97.579227    237.47032 
   21650    132.34343   -333.48953    127055.08   -34068.311    2495.9423   -36564.254    97.867848    234.74542 
   21700    135.64189    169.81056    127071.32   -34003.915    2558.1498   -36562.065    98.205188    240.59609 
   21750     135.5176   -94.250023    127055.39   -34001.988    2555.8056   -36557.794    98.801997    240.37562 
   21800    136.13133    -227.6185    127063.05   -33978.476    2567.3805   -36545.857     99.33341    241.46424 
   21850    137.34539   -281.49018    127057.68   -33968.687     2590.277   -36558.964    99.580627    243.61768 
   21900    136.87624   -24.550377    127029.12   -34037.786    2581.4291   -36619.215    99.974497    242.78552 
   21950    136.27273   -155.96594    127111.43   -34041.075    2570.0471   -36611.122    99.926819    241.71504 
   22000    134.95937   -309.45685    127148.15   -34065.765    2545.2778   -36611.043    100.32546    239.38547 
   22050    136.19985   -305.57541    127129.49   -33990.738    2568.6726   -36559.411    100.51614    241.58577 
   22100    136.73394   -212.86489    127142.32   -33940.823    2578.7454   -36519.568    100.59192    242.53312 
   22150    139.52426   -61.529129    127131.96   -33921.629    2631.3696   -36552.998    100.97245    247.48247 
   22200    139.51212   -119.65767    127193.69   -33866.433    2631.1408   -36497.574    101.38955    247.46095 
   22250    137.69698   -450.33823    127179.43   -33857.362    2596.9078   -36454.269    101.75294    244.24131 
   22300    138.13999   -596.01354    127095.69   -33900.179    2605.2629   -36505.442    101.83957    245.02711 
   22350    138.73352   -455.86225    126996.47    -33909.94    2616.4566   -36526.396    101.87632    246.07989 
   22400    134.43232   -71.090935    127004.79   -33912.891    2535.3378   -36448.229    101.89312     238.4506 
   22450      136.302   -83.359837    127026.18   -33911.977    2570.5991   -36482.576    101.93805    241.76696 
   22500    136.86217   -312.17681    127054.93   -33955.622    2581.1638   -36536.786    102.22496    242.76057 
   22550    136.11855   -204.01548    127104.46    -33912.91    2567.1394    -36480.05    102.07237    241.44156 
   22600    133.53003   -276.98956    127013.56   -33927.622     2518.321   -36445.943     102.1766    236.85016 
   22650    134.74015   -163.27333    126916.43   -33983.434    2541.1433   -36524.577    102.16701    238.99661 
   22700    135.54509   -173.13301    126924.94   -33957.824    2556.3242   -36514.149    102.27096    240.42439 
   22750    138.06672   -99.606822    126891.95   -33967.599    2603.8812    -36571.48    102.27291    244.89716 
   22800    138.20086   -195.26521     126861.3   -33948.525    2606.4109   -36554.935    101.97198    245.13509 
   22850    135.99063   -52.563122    126878.19   -33943.895    2564.7269   -36508.622    102.07587    241.21467 
   22900    135.42502    79.051209    126956.18   -33967.615    2554.0597   -36521.675    102.14825    240.21141 
   22950     136.7764   -105.18425    127034.53   -34001.734    2579.5462    -36581.28    102.31286    242.60843 
   23000    135.83364   -166.69718    127073.22   -34012.871    2561.7661   -36574.637    102.52264     240.9362 
   23050    134.93081   -206.72781    127046.97   -34021.181    2544.7391   -36565.921    102.90633     239.3348 
   23100    132.40002   -325.65191     127015.6   -34095.357    2497.0094   -36592.367    103.17581    234.84578 
   23150    133.75298   -34.673428    127072.62   -34021.084    2522.5258    -36543.61    103.32403    237.24562 
   23200    135.89757   -222.46212    127123.27   -33990.546    2562.9717   -36553.518      103.414    241.04959 
   23250    135.20857   -127.59867    127194.41   -33945.671    2549.9775   -36495.649    103.63281    239.82748 
   23300    134.71052    -472.7704    127167.95    -33961.09    2540.5846   -36501.675    103.70161    238.94406 
   23350    135.93315   -492.37606    127086.44   -33985.238    2563.6429   -36548.881    103.87292    241.11272 
   23400    138.60414   -135.17371    127104.59   -34041.739    2614.0167   -36655.756    103.91846    245.85041 
   23450    136.26619   -290.52946     127200.7   -34075.173    2569.9239   -36645.097    104.32162    241.70345 
   23500    138.33891   -89.296137    127257.94    -34056.52    2609.0144   -36665.535    104.73035    245.37994 
   23550    135.45161   -193.84357     127303.5   -34067.282    2554.5613   -36621.844    104.96545    240.25858 
   23600    135.44424    77.733331    127350.54   -34021.127    2554.4222   -36575.549    104.99812     240.2455 
   23650    137.61982   -212.70606    127465.31    -34005.94    2595.4528   -36601.392    104.80665    244.10446 
   23700    136.75694   -184.51991    127482.48   -34011.118    2579.1791   -36590.297    104.99892    242.57391 
   23750    137.72136   -11.154812    127525.38   -33987.635    2597.3676   -36585.003    105.13494    244.28456 
   23800     134.3047   -407.77196    127545.67   -34047.764    2532.9309   -36580.695    105.41572    238.22423 
   23850     135.6633    -351.7601    127409.07   -34057.865    2558.5535   -36616.418    105.53815    240.63406 
   23900    134.86581   -521.76518    127277.36   -34084.883    2543.5132   -36628.396    105.37462     239.2195 
   23950    133.63132   -279.38888    127143.49   -34034.158    2520.2313   -36554.389    105.34042    237.02982 
   24000    136.51527   -118.66701    127089.98    -34035.87    2574.6213   -36610.491    105.27868    242.14525 
   24050    137.77106    18.097864    127168.93   -34013.771    2598.3051   -36612.076    105.77563    244.37273 
   24100     137.8274   -233.63656    127186.82   -34034.187    2599.3676   -36633.554    105.95821    244.47266 
   24150    134.73641   -149.33897    127270.57   -34004.737    2541.0729    -36545.81    105.99124    238.98999 
   24200     134.6152   -225.20811    127272.16   -34043.261    2538.7868   -36582.048    106.22848    238.77498 
   24250    133.12825   -253.82142     127280.8   -34046.639    2510.7436   -36557.383    106.28424    236.13749 
   24300    134.94661   -147.78528    127327.55   -34106.378    2545.0371   -36651.415     106.3965    239.36283 
   24350    136.26361    83.898008    127535.04   -34093.458    2569.8752   -36663.333    106.80313    241.69887 
   24400    137.71037   -235.96135    127705.38   -34000.732    2597.1604   -36597.893    107.03705    244.26507 
   24450    136.25712   -495.48914    127735.28   -33966.447    2569.7527     -36536.2      107.123    241.68735 
   24500    139.52915   -529.83928     127685.7   -34004.217     2631.462   -36635.679    107.26938    247.49116 
   24550    135.08654   -385.46207    127626.34   -33976.283    2547.6761    -36523.96    107.40019    239.61103 
   24600    139.42119   -588.52833    127561.46   -33960.812    2629.4258   -36590.238    107.46586    247.29965 
   24650    137.10719   -371.82241    127458.08   -33966.197    2585.7846   -36551.982    107.59658    243.19517 
   24700    134.45633   -482.59791    127429.37   -33984.281    2535.7907   -36520.072    107.83182     238.4932 
   24750    133.55258   -472.55858    127328.55   -33967.922    2518.7463   -36486.668    107.75044    236.89016 
   24800    137.07206   -250.53792    127320.74   -33964.417    2585.1222   -36549.539    107.84852    243.13286 
   24850    137.98579   -345.39368    127357.34   -33903.069    2602.3547   -36505.424    108.03059     244.7536 
   24900    138.15944   -283.37782    127333.48   -33915.271    2605.6297     -36520.9    108.13101    245.06161 
   24950    136.32941   -208.12054    127442.15   -33883.525    2571.1161   -36454.641    108.36942    241.81558 
   25000     139.0499   -387.18711    127454.54   -33863.825    2622.4235   -36486.248    108.71086    246.64108 
   25050    137.73919   -453.84634    127429.13   -33923.661    2597.7041   -36521.365    108.93136     244.3162 
   25100    137.70707    -112.0056    127488.59   -33894.611    2597.0982   -36491.709     109.1076    244.25921 
   25150    134.82262   -331.78482    127573.11   -33928.095    2542.6988   -36470.793    109.57418     239.1429 
   25200    134.44671   -262.71114    127666.34   -33936.941    2535.6093   -36472.551     109.7979    238.47613 
   25250    138.53158    133.14903    127777.79   -33903.952    2612.6482     -36516.6    110.31662    245.72171 
   25300    136.23586   -143.38507    127782.42   -33914.799    2569.3518   -36484.151    110.53051    241.64965 
   25350    137.87219    6.3806794    127824.25   -33945.571    2600.2123   -36545.783    110.42228     244.5521 
   25400    137.48037   -170.51851     127835.2   -33961.841    2592.8228   -36554.664    110.69486    243.85711 
   25450     136.2187   -449.62269    127845.52   -33938.039    2569.0282   -36507.067    111.00745    241.61921 
   25500    139.13645   -495.60454    127765.81   -33974.599    2624.0557   -36598.654     111.1572    246.79459 
   25550    136.37021   -259.96807    127786.95   -33970.801    2571.8856   -36542.687    111.30472    241.88795 
   25600    134.58043   -165.40291    127719.22   -34005.769    2538.1312     -36543.9     111.2801    238.71332 
   25650    134.85998   -219.07333    127705.31   -34078.344    2543.4032   -36621.747    111.07095    239.20916 
   25700    132.96637   -112.59241    127765.12   -34088.159    2507.6905    -36595.85    111.15245    235.85035 
   25750    133.75358   -243.54835    127804.03   -34054.088     2522.537   -36576.625    111.48145    237.24667 
   25800    135.89495   -323.47081    127787.38   -34069.495    2562.9224   -36632.417    111.61032    241.04495 
   25850    132.61486   -280.16569    127743.14    -34085.77    2501.0613   -36586.831    111.61882    235.22687 
   25900    133.31115   -342.46591    127629.47   -34080.355     2514.193   -36594.548    111.79101    236.46191 
   25950    133.28242   -302.93452    127585.92   -34051.722    2513.6511   -36565.373     111.8125    236.41095 
   26000    134.95913   -610.88616    127501.39   -34049.288    2545.2733   -36594.561    111.91045    239.38504 
   26050    136.91284   -407.46072    127359.07   -34049.071    2582.1193   -36631.191    111.75041    242.85044 
   26100    135.48208    -465.0901    127268.12   -34013.132    2555.1357   -36568.268    111.70203    240.31261 
   26150    134.64323    -320.6379    127281.37    -34010.02    2539.3154   -36549.336    111.65919     238.8247 
   26200    134.80437   -370.59501    127292.56   -34041.978    2542.3545   -36584.332    111.74285    239.11053 
   26250    133.51272   -546.48456    127248.29    -34048.54    2517.9945   -36566.534    111.73935    236.81945 
   26300    134.70355   -275.40186    127269.05   -34039.557     2540.453    -36580.01    111.83058    238.93169 
   26350    134.83121   -180.19602    127301.36   -34052.744    2542.8608   -36595.604    112.25234    239.15814 
   26400    135.67346   -406.36588    127274.45   -34046.607    2558.7453   -36605.352    112.49517    240.65209 
   26450    136.39908   -238.54836    127277.19   -34078.874    2572.4301   -36651.304    112.59318    241.93916 
   26500    136.96102   -160.42306    127254.99   -34062.872     2583.028     -36645.9    112.56824    242.93591 
   26550    135.64868   -86.397327     127194.3   -34128.239    2558.2778   -36686.517    112.40874    240.60813 
   26600    135.54194    -223.1067    127170.92   -34115.252    2556.2648   -36671.517    112.51428     240.4188 
   26650    135.56426    52.307348    127200.71   -34095.026    2556.6858   -36651.712    112.59596    240.45839 
   26700    134.15022     -177.523    127222.16   -34073.671    2530.0175   -36603.688      112.704    237.95022 
   26750    135.12825    -168.1573    127207.16    -34041.65    2548.4627   -36590.112    112.62995    239.68501 
   26800    133.56004    -263.4485     127203.1   -34003.713    2518.8869     -36522.6    113.04539    236.90338 
   26850    137.94575   -113.81255     127205.8    -33938.95    2601.5997    -36540.55    113.04374    244.68259 
   26900    138.70571    254.09104    127314.26   -33910.789    2615.9321   -36526.721    113.50457    246.03056 
   26950    134.67531   -26.878776     127488.2   -33975.964    2539.9205   -36515.885    113.75273    238.88161 
   27000    134.42172   -359.27042    127583.53   -33989.544    2535.1378   -36524.682    113.83894    238.43179 
   27050    138.12493   -352.25481    127543.43   -34014.296    2604.9788   -36619.274    113.76534    245.00039 
   27100    135.71791   -259.21176    127564.22   -34023.909    2559.5835   -36583.492    113.87988    240.73093 
   27150    136.08061   -327.78768    127474.97   -34023.849    2566.4238   -36590.273    114.44991    241.37427 
   27200    137.67909   -379.34482    127522.18   -34038.317    2596.5706   -36634.888    114.82003    244.20959 
   27250    134.45341   -483.14124    127518.95   -34082.971    2535.7355   -36618.707    114.75127      238.488 
   27300    137.85641   -341.57809    127492.05   -34039.151    2599.9147   -36639.066    115.10051    244.52411 
   27350     131.9737   -239.71442    127488.95   -34046.387    2488.9693   -36535.356    115.41407    234.08961 
   27400    132.45363   -205.64531    127514.56    -34017.87    2498.0204   -36515.891    115.73643    234.94087 
   27450    135.73201   -327.11347    127443.37   -33988.655    2559.8495   -36548.504    115.73285    240.75594 
   27500    133.22132   -245.57629    127436.76   -34010.782    2512.4987   -36523.281    116.02276    236.30257 
   27550    135.51243   -86.864684    127543.49   -34033.882    2555.7081    -36589.59    116.32374    240.36645 
   27600    132.71323   -331.66414    127495.04    -34032.47    2502.9164   -36535.386    116.32831    235.40135 
   27650     135.0555    -192.4571    127526.98   -34038.943    2547.0907   -36586.033    116.73664    239.55597 
   27700    135.67687   -308.61942    127518.67   -34027.419    2558.8094   -36586.229    116.90735    240.65812 
   27750    136.17346   -151.86335     127524.2   -34041.171    2568.1749   -36609.346    117.26187    241.53896 
   27800    134.02449   -62.730961    127535.92   -34041.807    2527.6463   -36569.453    117.41292    237.72721 
   27850    134.13502   -159.90436    127566.04   -34079.629    2529.7308    -36609.36    117.35039    237.92326 
   27900    131.41519   -108.91534    127657.45   -34113.154     2478.436    -36591.59     117.6413    233.09894 
   27950    133.83241    -350.6104    127695.78   -34051.363    2524.0237   -36575.386    118.10446     237.3865 
   28000    135.84929   -181.23974     127664.6    -34052.39    2562.0613   -36614.451     118.3124    240.96396 
   28050    132.91948   -178.78244    127689.51   -34098.077    2506.8062   -36604.883    118.61345    235.76718 
   28100    134.27006   -151.21341    127690.98   -34077.866    2532.2776   -36610.144    118.89482    238.16279 
   28150     134.8482   -41.138361    127753.93   -34085.925    2543.1811   -36629.106    119.12638    239.18827 
   28200    134.10809   -381.25728    127760.16   -34113.722    2529.2229   -36642.945    119.45471    237.87549 
   28250    134.76156   -171.64346     127727.7   -34144.557    2541.5471   -36686.104    119.69981    239.03459 
   28300    135.84536   -118.79776    127670.15   -34108.851    2561.9872   -36670.838    119.80573      240.957 
   28350      134.925   -386.50319    127711.91   -34059.041    2544.6294   -36603.671    120.33211    239.32449 
   28400    136.32262   -293.62467    127657.01    -34042.77    2570.9882   -36613.758    120.33412    241.80355 
   28450    135.21226   -183.02224    127668.91   -34077.216    2550.0471   -36627.264    120.50031    239.83402 
   28500    136.73523   -389.89115    127659.35   -34000.138    2578.7696   -36578.908    120.67593     242.5354 
   28550    137.14462   -577.17405    127663.32   -33978.937    2586.4906   -36565.427    120.86969    243.26156 
   28600    138.81715    -288.7822    127566.04   -33976.848    2618.0339   -36594.882    121.13972    246.22823 
   28650    136.94749   -257.70078     127530.3   -34014.421    2582.7729   -36597.194    121.47989    242.91191 
   28700     139.4985   -216.80886    127476.39   -33979.742    2630.8838   -36610.626    121.73118    247.43678 
   28750    135.48922   -110.10079    127506.25   -34018.711    2555.2705   -36573.982    122.02375    240.32529 
   28800    138.17941   -139.32976    127520.08   -33991.352    2606.0064   -36597.358    122.13936    245.09704 
   28850    136.56815   -19.232505    127530.57   -34025.921    2575.6187   -36601.539    122.34035    242.23905 
   28900    134.90921   -185.25034    127574.28   -34074.976    2544.3318   -36619.308    122.94295    239.29649 
   28950     135.6696   -18.302845    127657.53   -34054.099    2558.6723   -36612.771    123.35345    240.64523 
   29000     134.4561   -150.57488    127680.76   -34047.667    2535.7863   -36583.453    123.38081    238.49278 
   29050     136.8721   -463.85659    127683.51   -34046.797     2581.351   -36628.148    123.62909    242.77818 
   29100    135.73159   -185.73158    127631.78   -34062.715    2559.8416   -36622.557    123.65192     240.7552 
   29150    136.31478    242.01073    127668.86   -34118.268    2570.8401   -36689.108    124.07681    241.78962 
   29200    133.66975    88.473062    127753.19   -34085.617    2520.9561   -36606.573    124.57027    237.09799 
   29250    134.60339   -155.37232    127767.64   -34066.182     2538.564   -36604.746    124.77347    238.75403 
   29300    135.68262    -267.5037    127717.92   -34039.735    2558.9179   -36598.653    125.08524    240.66833 
   29350    134.86999   -222.66957    127739.92   -34002.924    2543.5922   -36546.516    125.34211    239.22693 
   29400    139.10537   -96.601679    127820.52   -33971.558    2623.4696   -36595.028    125.74117    246.73947 
   29450    135.93936   -433.10369    127801.99   -34013.799      2563.76   -36577.559    126.09747    241.12373 
   29500    137.21856    56.128068    127746.48    -34038.61    2587.8851   -36626.495    126.47019    243.39272 
   29550    133.29374    -376.2794    127752.36   -34083.673    2513.8646   -36597.537     127.1233    236.43103 
   29600    136.66913   -271.01399    127756.76   -34049.851    2577.5231   -36627.374    127.45193    242.41816 
   29650     137.9519   -144.78129    127701.98   -34015.438    2601.7155   -36617.153    127.71427    244.69348 
   29700    138.68099    56.472798    127678.25   -34045.627     2615.466   -36661.093    128.18716    245.98672 
   29750    137.06099   -328.93319     127627.9   -34042.414    2584.9134   -36627.328    128.24977    243.11322 
   29800    134.27842   -513.62912    127561.63   -34094.483    2532.4354   -36626.919    128.61241    238.17762 
   29850    133.73903   -356.37083    127474.94   -34138.629    2522.2626   -36660.891    128.81809    237.22087 
   29900    134.88851   -283.27274    127442.84   -34123.167    2543.9413   -36667.109     129.1125    239.25976 
   29950    134.75489   -142.92528    127465.28   -34124.135    2541.4212   -36665.556    129.23047    239.02275 
   30000    133.92162   -526.33658    127499.98   -34110.713    2525.7063    -36636.42    129.52252    237.54475 
   30050     135.6646   -253.42046    127424.24   -34109.309    2558.5782   -36667.887    129.51767    240.63638 
   30100     135.4875   -297.71529    127465.37   -34139.516     2555.238   -36694.754    129.51091    240.32223 
   30150     134.4149   -98.699951    127513.05   -34107.318    2535.0093   -36642.327    129.69183    238.41971 
   30200     132.5925   -152.28825    127633.91   -34134.569    2500.6395   -36635.209    130.09527     235.1872 
   30250    134.82385   -348.27348    127606.91    -34115.01    2542.7219   -36657.732    130.35717    239.14508 
   30300    135.26132    -263.1151    127553.33   -34144.753    2550.9724   -36695.725    130.86812    239.92105 
   30350    136.43049   -127.41737    127524.65   -34095.681    2573.0225   -36668.704    131.16566    241.99488 
   30400    131.17174    -156.4656    127576.06   -34078.346    2473.8446    -36552.19    131.57413    232.66711 
   30450    135.50596    -192.0732    127592.58   -34085.213    2555.5862   -36640.799     132.0574    240.35498 
   30500    133.35767   -486.17045    127499.31   -34064.518    2515.0704   -36579.588    132.30026    236.54443 
   30550    137.66583    -76.60527    127459.36   -34028.368    2596.3204   -36624.688    132.82623    244.18606 
   30600    136.50128   -135.41188    127433.69   -34030.827    2574.3575   -36605.184    132.88657    242.12044 
   30650    136.08476   -351.99616    127464.67   -34026.224    2566.5021   -36592.726    132.98226    241.38163 
   30700    139.10424    -180.7649    127548.82   -34004.373    2623.4482   -36627.822    133.04364    246.73746 
   30750    134.17511   -258.09551    127537.21   -34035.364    2530.4869   -36565.851     133.0553    237.99437 
   30800    136.60406   -400.39802    127499.99    -34014.89    2576.2959   -36591.186    133.34521    242.30274 
   30850    137.04365   -384.72309    127420.76   -34012.867    2584.5863   -36597.453    133.45903    243.08247 
   30900    135.67641   -273.31346       127428   -33962.565    2558.8008   -36521.365    133.49587    240.65732 
   30950    136.83007   -520.10027       127495   -33938.104    2580.5585   -36518.662    133.86787    242.70364 
   31000    134.34004   -397.65291    127434.64   -34013.637    2533.5974   -36547.235    134.38633    238.28691 
   31050    137.53929   -275.02535    127377.77   -33981.435    2593.9339   -36575.368    134.85517    243.96161 
   31100    136.69068   -310.52317    127363.65   -33995.905    2577.9295   -36573.834    135.02719    242.45639 
   31150    135.26821    -130.7046       127376   -33979.105    2551.1024   -36530.207    135.21043    239.93327 
   31200    138.36561   -375.68511     127332.6   -33956.569     2609.518   -36566.087    135.36892     245.4273 
   31250    139.50833   -136.16461    127389.66   -33939.053    2631.0693   -36570.122    135.85084    247.45422 
   31300    138.05559    -335.0671    127370.29   -33921.481    2603.6712   -36525.152    136.16946    244.87741 
   31350    137.96941   -333.29031    127436.62   -33885.475    2602.0458    -36487.52    136.67419    244.72454 
   31400    137.73217   -420.17731    127513.92   -33874.112    2597.5716   -36471.683    137.02943    244.30374 
   31450    134.46649   -189.72082    127416.79    -33955.08    2535.9822   -36491.062    136.95806    238.51121 
   31500    135.37874    62.511023    127483.47   -33987.127    2553.1868   -36540.314    137.12741    240.12931 
   31550    135.72982   -43.781196     127587.3   -34019.471    2559.8081   -36579.279    137.49393    240.75205 
   31600    137.25815   -145.75437     127694.4   -33960.286    2588.6318   -36548.918    137.75259    243.46295 
   31650    135.55422   -337.20862    127687.01    -34013.52    2556.4964   -36570.016     138.3343    240.44058 
   31700    136.87647   -348.50745    127651.49   -34018.865    2581.4334   -36600.299    138.42804    242.78593 
   31750    137.40502   -380.65425    127640.43   -34024.691    2591.4017   -36616.093    138.88366    243.72346 
   31800    139.05949     -362.558    127534.05   -34047.661    2622.6043   -36670.265    139.37471    246.65809 
   31850    134.82007   -321.30328    127547.35    -34081.28    2542.6505   -36623.931    139.58093    239.13837 
   31900    134.14667   -253.53275    127494.88   -34100.437    2529.9506   -36630.388    139.53602    237.94393 
   31950     134.9463   -213.05254    127467.81   -34098.347    2545.0313   -36643.378    139.59373    239.36228 
   32000    135.24275    -67.67617    127467.17   -34087.774    2550.6221   -36638.396    139.88793     239.8881 
   32050    132.59324   -449.20446    127451.48   -34110.764    2500.6534   -36611.417    140.27121    235.18851 
   32100     134.0479   -325.22217    127384.52   -34154.076    2528.0878   -36682.164    140.26287    237.76873 
   32150    134.19373   -230.55005    127307.27   -34132.886     2530.838   -36663.724    140.47142    238.02739 
   32200    132.85206   -167.92526    127267.67   -34128.222    2505.5348   -36633.757    140.49641     235.6476 
   32250    135.80921   -119.75792    127338.27    -34092.26    2561.3054   -36653.565    141.00824    240.89288 
   32300    134.24216    7.7707354    127347.02   -34076.784    2531.7515   -36608.536    141.37713    238.11331 
   32350    133.71074    -234.4703    127409.03   -34076.674    2521.7291   -36598.403     142.0315     237.1707 
   32400    136.80533   -235.36714    127363.34   -34066.019    2580.0917   -36646.111    142.13848    242.65975 
   32450    135.93693    -328.7704    127255.88   -34126.146    2563.7141    -36689.86    142.28431    241.11942 
   32500    133.74159   -391.33208     127183.4   -34143.606    2522.3109   -36665.916    142.43144    237.22541 
   32550     134.9136   -482.13069    127128.86   -34083.976    2544.4146    -36628.39    142.67357    239.30428 
   32600    137.37269   -109.30805    127106.56   -34116.238     2590.792    -36707.03    142.68726    243.66611 
   32650    134.50692   -133.11812    127133.11   -34099.632    2536.7446   -36636.377    143.01837    238.58292 
   32700    134.96555    4.7457138    127176.66   -34069.606    2545.3943       -36615    143.40309    239.39642 
   32750    134.24038    2.0333254    127193.32   -34055.336    2531.7179   -36587.054    143.83034    238.11014 
   32800    135.18919   -281.40005    127182.86   -34017.856    2549.6121   -36567.468    143.71791    239.79311 
   32850    134.83532   -123.64985    127121.04   -34043.885    2542.9382   -36586.823    143.80803    239.16542 
   32900    132.16245   -309.73017    127185.64   -34047.027    2492.5289   -36539.556    143.91324    234.42439 
   32950    134.09514   -168.85443    127073.62   -34063.814    2528.9786   -36592.793    143.95391    237.85252 
   33000     132.0301   -192.90286    127032.58   -34076.666    2490.0329   -36566.699     144.1744    234.18963 
   33050    133.32687    17.002143    126984.54     -34047.5    2514.4895    -36561.99    144.30535     236.4898 
   33100    136.87329   -145.36707    127041.65   -33983.716    2581.3735    -36565.09    144.47852     242.7803 
   33150    139.10206   -285.61051    127016.86   -33913.546    2623.4071   -36536.953    144.62603    246.73359 
   33200    135.90287   -42.637461    126995.69   -33884.395    2563.0718   -36447.467    144.36911      241.059 
   33250    136.41367   -9.5289729    126982.64   -33929.744    2572.7052   -36502.449    144.83812    241.96503 
   33300    134.92212    145.71822     127000.1   -33963.708    2544.5752   -36508.283     144.6997    239.31939 
   33350    137.85674   -69.068214    127050.16   -34000.646     2599.921   -36600.567    144.65516     244.5247 
   33400    135.16061   -548.74246    127139.82     -34041.2     2549.073   -36590.273    144.90951     239.7424 
   33450    137.75925   -205.81773    127143.99   -34003.291    2598.0824   -36601.373    144.60773    244.35178 
   33500    136.27867   -10.600817    127229.91   -33971.613    2570.1592   -36541.772    144.70772    241.72559 
   33550    136.43707   -253.16825    127325.39   -33992.296    2573.1466   -36565.443    145.18588    242.00655 
   33600    137.11182   -542.09333    127364.98   -33978.808    2585.8721    -36564.68    145.51277    243.20339 
   33650    134.82121   -181.16661    127396.85   -34021.007    2542.6721   -36563.679    145.70351     239.1404 
   33700    134.66193   -301.27704    127422.69   -34033.159    2539.6681   -36572.827    145.38775    238.85786 
   33750    133.48904   -477.63307    127295.83   -34050.486    2517.5479   -36568.034    145.22201    236.77745 
   33800     133.9871   -290.43174    127322.94   -34020.159    2526.9411     -36547.1    145.46477    237.66089 
   33850    135.91084   -450.10888     127309.4   -34031.419    2563.2221   -36594.641    145.62208    241.07314 
   33900    135.68809   -229.18743    127248.81   -34047.359    2559.0211    -36606.38    145.81585    240.67804 
   33950    134.90683    32.765676    127173.95    -34077.38    2544.2869   -36621.666    146.02748    239.29227 
[...]
   92000    133.53612   -140.25754    127821.52   -34227.821    2518.4358   -36746.257    363.38943    236.86095 
   92050    133.42712   -394.28609    127848.02    -34244.42    2516.3801     -36760.8    363.50025    236.66762 
   92100    133.30129    -207.9409    127852.15   -34253.437     2514.007   -36767.444    363.41898    236.44442 
   92150    132.75483   -334.18461    127847.12   -34244.417     2503.701   -36748.118    363.71603    235.47513 
   92200    131.43545   -397.20143    127861.57   -34200.612    2478.8181    -36679.43    363.91789    233.13487 
   92250    133.29961   -564.76476    127797.97   -34163.662    2513.9753   -36677.637    363.89707    236.44144 
   92300    133.69419   -303.77795    127735.85   -34197.687     2521.417   -36719.104    363.91565    237.14134 
   92350    136.03587   -388.95654    127694.95   -34114.425    2565.5802   -36680.005    363.91819    241.29492 
   92400     135.0653   -319.09838    127657.31   -34132.079    2547.2756   -36679.354    364.16746    239.57336 
   92450    135.03784   -227.48408    127659.42   -34154.578    2546.7576   -36701.336    364.19075    239.52464 
   92500    131.24039   -592.74173    127583.83   -34209.883    2475.1394   -36685.023    364.53717    232.78889 
   92550    136.19736   -363.21719     127538.9   -34178.761    2568.6257   -36747.386    364.70331    241.58136 
   92600    135.53074   -308.21236    127468.83   -34171.502    2556.0536   -36727.555    364.53156    240.39893 
   92650     131.4737   -322.99342    127427.88    -34167.03    2479.5394    -36646.57    364.95756    233.20272 
   92700    136.01708    -193.8296    127474.33   -34113.789    2565.2256   -36679.014     365.0279    241.26158 
   92750    133.80942   -133.34715    127496.23   -34147.012    2523.5902   -36670.602    365.27808    237.34573 
   92800    134.08184   -80.485691    127514.72   -34130.055    2528.7279   -36658.783    365.50056    237.82894 
   92850    134.28875   -58.285292       127635   -34094.852    2532.6302   -36627.482    366.13229    238.19595 
   92900     133.9872   -1.7554925    127664.85   -34152.769     2526.943   -36679.712    366.20602    237.66107 
   92950    130.82881   -301.28818    127758.49   -34184.489    2467.3772   -36651.866    366.53158    232.05885 
   93000    131.85373   -146.21949    127805.26   -34188.659    2486.7067   -36675.366     366.6908     233.8768 
   93050    130.30212   -55.710822     127788.7   -34210.323    2457.4439   -36667.767    367.03284    231.12462 
   93100    132.08872   -261.42228    127844.57    -34167.96    2491.1384   -36659.098    367.64872    234.29361 
   93150     135.6918   -343.88905    127771.66    -34173.46    2559.0911   -36732.551    367.31235    240.68462 
   93200    134.00054   -132.20962    127801.91   -34207.559    2527.1946   -36734.753    367.64623    237.68472 
   93250    134.46029   -214.35521    127840.86   -34216.413    2535.8654   -36752.278    368.47444    238.50022 
   93300     133.8998   -10.767155    127870.84   -34183.522    2525.2946   -36708.816    369.01868    237.50603 
   93350    133.23653   -179.38172    127895.93   -34225.279    2512.7857   -36738.065    368.97577    236.32955 
   93400    133.91813   -236.44641    127834.13   -34229.396    2525.6404   -36755.036    368.96422    237.53855 
   93450    130.77211   -181.87181    127929.22   -34223.984    2466.3077   -36690.292     368.8442    231.95826 
   93500    135.06644   -488.22133    127942.61   -34166.264     2547.297   -36713.561    369.34763    239.57538 
   93550    133.62745   -103.15504    127900.39   -34128.142    2520.1583     -36648.3    369.89694    237.02295 
   93600    132.50792   -320.10533    127936.46   -34091.226    2499.0444    -36590.27    370.11719    235.03718 
   93650    133.54311   -264.56855    127893.62   -34152.008    2518.5676   -36670.575    370.27656    236.87335 
   93700     132.6027   -225.30098    127861.24   -34150.065    2500.8319   -36650.897    370.35577    235.20529 
   93750    136.43238    -177.9832    127858.58   -34130.638    2573.0581   -36703.696    370.63437    241.99823 
   93800    135.48405    -53.49552    127866.04   -34122.958     2555.173   -36678.131    370.80274    240.31612 
   93850    136.96455    -246.9071    127832.42   -34089.311    2583.0946   -36672.406    370.93126    242.94217 
   93900    134.47909   -308.04991    127856.88   -34113.076    2536.2198   -36649.295    371.35483    238.53356 
   93950    137.47902   -376.57144    127818.61   -34119.659    2592.7973   -36712.456    371.41781    243.85471 
   94000    135.68114   -481.92284    127801.18   -34141.248    2558.8899   -36700.138    371.79865     240.6657 
   94050    134.75803   -236.47469    127772.82   -34101.676    2541.4806   -36643.157    371.95883    239.02833 
   94100     138.4076   -183.48487    127823.14   -34078.428    2610.3099   -36688.738    372.12381    245.50179 
   94150     135.2615   -298.28769    127826.48   -34117.932    2550.9759   -36668.908    372.35397    239.92137 
   94200    135.23917   -350.05239    127884.62   -34120.318    2550.5546   -36670.872    372.32217    239.88175 
   94250    137.53579   -184.40848    127907.75   -34086.536    2593.8679   -36680.404    372.15045     243.9554 
   94300    135.61309   -373.76517    127896.07   -34067.929    2557.6066   -36625.535    372.42973      240.545 
   94350    134.49539   -410.59838    127874.14   -34108.767    2536.5272   -36645.294    372.89898    238.56247 
   94400    135.57969   -344.26664    127758.38   -34066.349    2556.9767   -36623.325     372.8602    240.48575 
   94450    134.91289   -20.223019    127739.19   -33986.428    2544.4012   -36530.829    372.70649    239.30302 
   94500    136.55887   -330.11366    127744.85   -33942.467    2575.4437    -36517.91    373.22144     242.2226 
   94550    138.49159    -357.3692    127719.97   -33942.558    2611.8939   -36554.452    372.93911    245.65077 
   94600    135.19296   -420.43002       127796    -33930.19    2549.6831   -36479.873    372.74685    239.79978 
   94650    134.10231   -416.37811    127733.57   -34000.013     2529.114   -36529.127    372.82545    237.86525 
   94700    134.12747   -635.45131    127624.65   -33985.016    2529.5884   -36514.604    372.96037    237.90986 
   94750    135.51956   -194.14309    127654.39   -34032.451    2555.8427   -36588.294    372.86373    240.37911 
   94800    134.22012   -344.57446     127613.8   -34053.643    2531.3358   -36584.979    372.81317    238.07421 
   94850    130.00487   -625.39875    127628.52   -34070.219    2451.8379   -36522.057    373.38492    230.59737 
   94900    135.02847   -403.91449    127575.14   -34014.938    2546.5809   -36561.519    373.14222    239.50803 
   94950    133.74862   -357.62721    127483.36   -34019.621    2522.4435   -36542.064    373.25882    237.23788 
   95000    135.36614   -336.28952     127478.5   -34060.227    2552.9492   -36613.177    373.13178    240.10697 
   95050    134.74502   -375.19168    127510.01   -34025.824    2541.2351   -36567.059    373.35025    239.00525 
   95100     136.1472    17.839494    127545.66   -33989.369    2567.6798   -36557.049    374.01046    241.49239 
   95150    135.64347    -176.5773    127584.35   -34004.379    2558.1796   -36562.559    374.59267    240.59889 
   95200    133.59136   -338.79407    127582.67   -34044.783    2519.4777    -36564.26    374.60239    236.95894 
   95250    134.42705   -326.98938    127532.46   -34009.747    2535.2384   -36544.986    375.09983    238.44125 
   95300    138.63773   -426.89071    127505.48   -33994.682    2614.6501   -36609.332    375.49042    245.90999 
   95350    135.35083   -304.53527    127491.27   -34019.942    2552.6605   -36572.602    375.41347    240.07981 
   95400    134.30062   -85.008694     127531.1   -34036.435    2532.8541   -36569.289    375.50239      238.217 
   95450    133.33746    -463.4641    127563.23   -34034.972    2514.6891   -36549.661    375.68105    236.50858 
   95500    136.53252   -180.34129    127535.49   -33992.502    2574.9468   -36567.449    374.93535    242.17586 
   95550      134.161    -414.6444    127433.87   -34060.143    2530.2208   -36590.364    375.01745    237.96934 
   95600    135.68134   -480.57048    127380.82   -34023.804    2558.8938   -36582.697    375.50767    240.66606 
   95650    134.05004    -240.4452    127388.07   -34053.603    2528.1282   -36581.731    375.75892    237.77253 
   95700    133.72341   -9.2296063    127470.35   -34063.997    2521.9681   -36585.965    376.16143    237.19317 
   95750    136.46262   -42.844608    127589.25   -33980.705    2573.6283   -36554.333     376.4103    242.05186 
   95800    137.02808   -157.64085    127644.03    -33992.45    2584.2928   -36576.742    376.74784    243.05486 
   95850    134.71166   -398.32146    127784.09   -34043.249    2540.6061   -36583.855    376.91939    238.94609 
   95900    135.34574   -213.92076    127827.45   -34065.144    2552.5646   -36617.709    376.98381    240.07079 
   95950    135.60237   -133.60799     127846.1   -34071.317    2557.4044   -36628.721    377.18462    240.52599 
   96000    135.68239   -383.04468    127861.66   -34071.507    2558.9135    -36630.42    377.70226    240.66792 
   96050    135.03764   -257.02957    127739.33   -34013.969    2546.7539   -36560.723    377.58586    239.52429 
   96100    136.86185   -17.665338    127690.26   -34020.428    2581.1577   -36601.586    377.66293       242.76 
   96150    136.22853   -381.14218    127643.65   -34028.144    2569.2135   -36597.357    378.51736    241.63664 
   96200    135.39768   -178.26913    127610.73   -34067.655     2553.544   -36621.199    378.81236    240.16291 
   96250    134.95974   -463.94619    127573.51   -34106.497    2545.2847   -36651.781    379.17647    239.38612 
   96300    136.73262   -359.25696    127509.44   -34089.829    2578.7205   -36668.549    378.76714    242.53077 
   96350    133.34316   -389.78895    127424.93   -34104.482    2514.7967   -36619.279    379.03739     236.5187 
   96400    137.41472   -166.23101     127454.3   -34037.333    2591.5846   -36628.918    378.82733    243.74066 
   96450    136.60148   -532.07923     127398.5   -34098.385    2576.2473   -36674.632    378.91343    242.29817 
   96500    133.11597   -601.50042    127262.04   -34105.832    2510.5119   -36616.344    378.84861    236.11571 
   96550    133.78413   -363.80307    127131.67   -34099.335    2523.1131   -36622.448    378.67167    237.30086 
   96600    134.07155   -376.56983     127082.2   -34095.152    2528.5338   -36623.686    378.73736    237.81068 
   96650    134.32548   -177.05583    127133.88    -34079.78    2533.3229   -36613.103    378.91699     238.2611 
   96700     133.7883   -239.36681    127131.17   -34112.436    2523.1918   -36635.627    378.77348    237.30826 
   96750    133.19715   -567.41812    127055.58   -34105.385    2512.0431   -36617.428    378.36144    236.25971 
   96800    135.91571    -170.1455    126992.33   -34046.068    2563.3138   -36609.382    378.61758    241.08177 
   96850    133.87928   -175.27437    127032.34   -33989.484    2524.9077   -36514.392    379.14352    237.46964 
   96900    134.96739   -192.38116    127078.31   -33974.681     2545.429    -36520.11    379.56136    239.39969 
   96950    134.64127     128.1841    127218.58   -33963.115    2539.2786   -36502.394    380.03713    238.82123 
   97000    137.14972    12.897226    127283.68   -33939.467    2586.5867   -36526.054    380.54823    243.27061 
   97050    136.93791   -205.70037    127364.15   -33908.044    2582.5922   -36490.636    380.85411    242.89492 
   97100    137.33993   -227.77139    127379.66   -33862.303    2590.1741   -36452.477    381.19825      243.608 
   97150    136.98545   -408.91264    127370.65   -33878.056    2583.4887   -36461.545    381.51168    242.97923 
   97200    139.05992   -309.00619    127425.63     -33864.5    2622.6124   -36487.112    381.73336    246.65885 
   97250    137.80859   -256.31939    127548.91   -33910.586    2599.0128   -36509.598    382.12344    244.43928 
   97300    136.61151   -363.55283    127514.32   -33898.336    2576.4363   -36474.772    382.00411    242.31595 
   97350    139.63068    -183.3477    127451.95   -33873.085    2633.3767   -36506.462    381.99033    247.67124 
   97400    139.88974   -275.22925    127460.98   -33891.758    2638.2624    -36530.02     382.6269    248.13074 
   97450    135.53142   -364.73514    127457.58    -33911.26    2556.0663   -36467.327    383.09919    240.40014 
   97500    138.68574   -168.41076    127461.91   -33959.746    2615.5556   -36575.302    383.31304    245.99515 
   97550    135.82634   -302.87456    127458.87   -33976.486    2561.6285   -36538.115    383.66179    240.92326 
   97600    136.34326   -269.06048    127522.53   -33983.936    2571.3774   -36555.313    383.40223    241.84015 
   97650    137.76158   -200.52223    127491.55    -33971.16    2598.1262   -36569.286    383.16285     244.3559 
   97700    135.40625   -354.36755    127573.13   -34020.151    2553.7057   -36573.857    383.70179    240.17811 
   97750    136.17682   -435.90485    127609.56   -34081.655    2568.2384   -36649.893    384.02737    241.54493 
   97800    135.39596   -294.97517    127585.04   -34074.589    2553.5116   -36628.101    384.40226    240.15986 
   97850    136.62546   -165.04724    127660.76   -34021.716    2576.6994   -36598.416     385.0925     242.3407 
   97900    136.25218   -342.19065    127690.23   -33996.684    2569.6595   -36566.343    385.71819    241.67859 
   97950     131.8349   -187.28567    127679.71   -34060.825    2486.3515   -36547.176     385.6036    233.84339 
   98000     134.5043   -434.85561    127647.89   -34075.022    2536.6954   -36611.717    385.90452    238.57828 
   98050    131.88853   -260.47627    127622.36   -34079.795     2487.363   -36567.158    386.04699    233.93853 
   98100    134.80977   -327.98969    127622.14   -34084.172    2542.4563   -36626.628    386.26708     239.1201 
   98150    132.24767   -236.05004    127615.64   -34040.711    2494.1361   -36534.847     386.5664    234.57555 
   98200    137.03924   -336.76271    127559.45    -34042.77    2584.5033   -36627.273    386.69701    243.07465 
   98250    135.45249   -377.98021    127530.55   -34062.514    2554.5778   -36617.092    386.45337    240.26014 
   98300     134.4143   -112.23534    127492.16   -34055.831     2534.998   -36590.829     386.6221    238.41864 
   98350    134.21128   -389.29743     127482.3   -34070.877    2531.1691   -36602.046    386.57301    238.05853 
   98400    135.42501   -248.53272    127555.76   -34106.987    2554.0595   -36661.046    387.13867    240.21139 
   98450    133.88403   -280.53128    127462.59   -34070.591    2524.9973   -36595.588    386.79592    237.47807 
   98500     134.5936   -225.67788    127475.35   -34053.726    2538.3795   -36592.106    386.69103    238.73668 
   98550    133.31079   -397.20627    127431.47   -34070.751    2514.1862   -36584.937    387.01624    236.46128 
   98600     132.7502    -88.72858    127442.42    -34036.26    2503.6136   -36539.874    386.85429    235.46692 
   98650    137.72916   -39.800221    127504.58   -33999.339    2597.5149   -36596.854    387.53351    244.29841 
   98700    137.51489    8.5008215    127389.96   -34044.265    2593.4738   -36637.739    387.92258    243.91834 
   98750       135.29     -118.548    127329.51   -34035.938    2551.5133   -36587.451    388.26227    239.97192 
   98800    133.83555   -195.17688    127335.07   -34040.435     2524.083   -36564.518    388.65621    237.39208 
   98850    136.91377   -230.55071    127394.92   -34074.585    2582.1368   -36656.722    388.88401    242.85209 
   98900    137.21506   -330.32319    127440.36   -34070.853    2587.8192   -36658.672     389.8276    243.38652 
   98950    136.34015   -231.07572    127375.59   -34029.398    2571.3186   -36600.717    390.07943    241.83463 
   99000    134.43401    156.05062    127491.55   -34004.006    2535.3696   -36539.376    389.98884    238.45359 
   99050    136.04987   -209.42053    127491.49   -34055.025    2565.8442   -36620.869    390.23273    241.31975 
   99100    133.14149   -139.28801     127466.8   -34056.948    2510.9932   -36567.941      390.721    236.16097 
   99150     132.6203   -424.78923    127447.85   -34084.334    2501.1638   -36585.498    391.00579    235.23651 
   99200    136.18418   -343.29055    127406.31   -34040.614    2568.3771   -36608.991    391.26353    241.55797 
   99250    135.77934   -603.26971    127330.67   -34028.683     2560.742   -36589.425     391.4149    240.83988 
   99300    134.17904   -180.33159    127267.66   -34042.754     2530.561   -36573.315    391.90174    238.00134 
   99350    132.27694   -262.03575     127369.4   -34045.737    2494.6882   -36540.425     392.2808    234.62747 
   99400    134.35077   -187.31784    127393.73   -34041.602    2533.7998   -36575.402    392.41295    238.30595 
   99450    133.94391   -268.75793    127359.34   -34038.497    2526.1265   -36564.623     392.3464    237.58427 
   99500    132.08254   -359.85959    127239.77   -34074.571    2491.0219   -36565.593    392.27864    234.28266 
   99550    134.90372    32.316545    127176.81   -34098.957    2544.2283   -36643.186     392.0298    239.28675 
   99600     132.0849   -337.48275    127134.43   -34181.614    2491.0665    -36672.68    392.39534    234.28684 
   99650    133.57256   -44.888739    127079.18   -34127.862     2519.123   -36646.985    392.71177    236.92559 
   99700    134.44553    -412.0575    127173.44   -34098.772     2535.587   -36634.359    393.37043    238.47404 
   99750    132.51558    -186.6621    127122.98   -34113.894     2499.189   -36613.083    394.04229    235.05077 
   99800    135.43653   -421.10211     127159.7   -34145.606    2554.2768   -36699.883    394.32855    240.23183 
   99850     135.2297   -144.75877    127294.13   -34094.367     2550.376   -36644.743    394.33576    239.86495 
   99900    134.65016   -469.94178     127344.8     -34078.4    2539.4461   -36617.846    394.53278    238.83699 
   99950    133.04691   -160.61712    127318.72   -34097.619    2509.2096   -36606.829    394.71644    235.99322 
  100000     131.3533   -493.80356    127392.79   -34150.501    2477.2688   -36627.769    394.92755    232.98916 
Loop time of 96.5336 on 64 procs for 100000 steps with 6328 atoms

Performance: 447.513 ns/day, 0.054 hours/ns, 1035.909 timesteps/s
99.5% CPU use with 64 MPI tasks x no OpenMP threads

MPI task timing breakdown:
Section |  min time  |  avg time  |  max time  |%varavg| %total
---------------------------------------------------------------
Pair    | 17.767     | 39.575     | 64.481     | 339.6 | 41.00
Neigh   | 0.89056    | 1.8502     | 3.5402     |  77.3 |  1.92
Comm    | 16.968     | 40.993     | 64.879     | 317.1 | 42.47
Output  | 0.21375    | 0.2163     | 0.23166    |   0.5 |  0.22
Modify  | 9.6422     | 12.505     | 18.407     |  90.2 | 12.95
Other   |            | 1.393      |            |       |  1.44

Nlocal:    98.875 ave 170 max 59 min
Histogram: 30 2 0 8 8 0 0 0 8 8
Nghost:    766.812 ave 1076 max 487 min
Histogram: 32 0 0 0 0 0 0 0 14 18
Neighs:    0 ave 0 max 0 min
Histogram: 64 0 0 0 0 0 0 0 0 0
FullNghs:  8123.88 ave 18904 max 2296 min
Histogram: 32 0 0 2 14 0 0 0 4 12

Total # of neighbors = 519928
Ave neighs/atom = 82.1631
Neighbor list builds = 5982
Dangerous builds = 0

write_data		${DIR}/data.eq-${NAME}-${TEMP}
write_data		run_19/data.eq-${NAME}-${TEMP}
write_data		run_19/data.eq-het_freeze_19-${TEMP}
write_data		run_19/data.eq-het_freeze_19-240
undump          1

reset_timestep  0

unfix           2
unfix           3
unfix           4


################################################
#######         Run Simulation         #########
################################################

log				${DIR}/log.run_${NAME}
log				run_19/log.run_${NAME}
log				run_19/log.run_het_freeze_19
