LAMMPS data file via write_data, version 16 Mar 2018, timestep = 8000000

5031 atoms
2 atom types

0.0000000000000000e+00 4.9219999999999999e+01 xlo xhi
0.0000000000000000e+00 4.9019635930410494e+01 ylo yhi
2.4256015040650425e-01 3.9757439849597489e+01 zlo zhi

Masses

1 18.015
2 12.01

Atoms # atomic

140 2 0.0000000000000000e+00 2.8417180249513345e+00 2.3576741283083393e+00 0 0 0
142 2 0.0000000000000000e+00 0.0000000000000000e+00 2.3576741283083393e+00 0 0 0
144 2 1.2305000000000001e+00 7.1042950623783474e-01 2.3576741283083393e+00 0 0 0
151 2 1.2305000000000001e+00 2.1312885187134998e+00 2.3576741283083393e+00 0 0 0
153 2 2.4610000000000003e+00 2.8417180249513345e+00 2.3576741283083393e+00 0 0 0
155 2 2.4610000000000003e+00 0.0000000000000000e+00 2.3576741283083393e+00 0 0 0
157 2 3.6915000000000004e+00 7.1042950623783474e-01 2.3576741283083393e+00 0 0 0
172 2 3.6914999999999996e+00 2.1312885187134998e+00 2.3576741283083393e+00 0 0 0
174 2 4.9220000000000006e+00 2.8417180249513332e+00 2.3576741283083393e+00 0 0 0
176 2 4.9220000000000006e+00 0.0000000000000000e+00 2.3576741283083393e+00 0 0 0
178 2 6.1524999999999999e+00 7.1042950623783407e-01 2.3576741283083393e+00 0 0 0
201 2 6.1524999999999999e+00 2.1312885187134989e+00 2.3576741283083393e+00 0 0 0
203 2 7.3829999999999991e+00 2.8417180249513345e+00 2.3576741283083393e+00 0 0 0
205 2 7.3829999999999991e+00 0.0000000000000000e+00 2.3576741283083393e+00 0 0 0
207 2 8.6134999999999984e+00 7.1042950623783407e-01 2.3576741283083393e+00 0 0 0
238 2 8.6134999999999984e+00 2.1312885187135002e+00 2.3576741283083393e+00 0 0 0
147 2 0.0000000000000000e+00 4.2625770374269996e+00 2.3576741283083393e+00 0 0 0
149 2 1.2305000000000001e+00 4.9730065436648339e+00 2.3576741283083393e+00 0 0 0
164 2 1.2305000000000001e+00 6.3938655561404980e+00 2.3576741283083393e+00 0 0 0
168 2 2.4610000000000003e+00 4.2625770374269996e+00 2.3576741283083393e+00 0 0 0
170 2 3.6914999999999996e+00 4.9730065436648339e+00 2.3576741283083393e+00 0 0 0
193 2 3.6914999999999996e+00 6.3938655561404980e+00 2.3576741283083393e+00 0 0 0
145 2 0.0000000000000000e+00 7.1042950623783341e+00 2.3576741283083393e+00 0 0 0
166 2 2.4610000000000003e+00 7.1042950623783341e+00 2.3576741283083393e+00 0 0 0
197 2 4.9220000000000006e+00 4.2625770374269978e+00 2.3576741283083393e+00 0 0 0
199 2 6.1524999999999999e+00 4.9730065436648339e+00 2.3576741283083393e+00 0 0 0
230 2 6.1524999999999999e+00 6.3938655561404980e+00 2.3576741283083393e+00 0 0 0
234 2 7.3829999999999991e+00 4.2625770374269996e+00 2.3576741283083393e+00 0 0 0
236 2 8.6135000000000002e+00 4.9730065436648339e+00 2.3576741283083393e+00 0 0 0
275 2 8.6135000000000002e+00 6.3938655561404980e+00 2.3576741283083393e+00 0 0 0
195 2 4.9220000000000006e+00 7.1042950623783341e+00 2.3576741283083393e+00 0 0 0
232 2 7.3830000000000009e+00 7.1042950623783341e+00 2.3576741283083393e+00 0 0 0
160 2 0.0000000000000000e+00 8.5251540748539991e+00 2.3576741283083393e+00 0 0 0
162 2 1.2305000000000001e+00 9.2355835810918343e+00 2.3576741283083393e+00 0 0 0
189 2 2.4610000000000003e+00 8.5251540748539991e+00 2.3576741283083393e+00 0 0 0
191 2 3.6915000000000004e+00 9.2355835810918343e+00 2.3576741283083393e+00 0 0 0
158 2 0.0000000000000000e+00 1.1366872099805333e+01 2.3576741283083393e+00 0 0 0
185 2 1.2305000000000001e+00 1.0656442593567498e+01 2.3576741283083393e+00 0 0 0
187 2 2.4610000000000003e+00 1.1366872099805333e+01 2.3576741283083393e+00 0 0 0
222 2 3.6914999999999996e+00 1.0656442593567499e+01 2.3576741283083393e+00 0 0 0
226 2 4.9220000000000006e+00 8.5251540748539991e+00 2.3576741283083393e+00 0 0 0
228 2 6.1524999999999999e+00 9.2355835810918343e+00 2.3576741283083393e+00 0 0 0
271 2 7.3830000000000009e+00 8.5251540748539991e+00 2.3576741283083393e+00 0 0 0
273 2 8.6134999999999984e+00 9.2355835810918343e+00 2.3576741283083393e+00 0 0 0
224 2 4.9220000000000006e+00 1.1366872099805333e+01 2.3576741283083393e+00 0 0 0
267 2 6.1524999999999999e+00 1.0656442593567499e+01 2.3576741283083393e+00 0 0 0
269 2 7.3829999999999991e+00 1.1366872099805333e+01 2.3576741283083393e+00 0 0 0
314 2 8.6134999999999984e+00 1.0656442593567498e+01 2.3576741283083393e+00 0 0 0
141 2 0.0000000000000000e+00 1.4208590124756650e+00 5.5870776634086319e+00 0 0 0
143 2 0.0000000000000000e+00 0.0000000000000000e+00 5.5870776634086319e+00 0 0 0
152 2 1.2305000000000001e+00 2.1312885187134998e+00 5.5870776634086319e+00 0 0 0
154 2 2.4610000000000003e+00 1.4208590124756650e+00 5.5870776634086319e+00 0 0 0
156 2 2.4610000000000003e+00 0.0000000000000000e+00 5.5870776634086319e+00 0 0 0
173 2 3.6914999999999996e+00 2.1312885187134998e+00 5.5870776634086319e+00 0 0 0
150 2 1.2305000000000001e+00 3.5521475311891644e+00 5.5870776634086319e+00 0 0 0
171 2 3.6914999999999996e+00 3.5521475311891644e+00 5.5870776634086319e+00 0 0 0
469 2 0.0000000000000000e+00 2.8417180249513345e+00 8.8164811985061267e+00 0 0 0
470 2 0.0000000000000000e+00 0.0000000000000000e+00 8.8164811985061267e+00 0 0 0
471 2 1.2305000000000001e+00 7.1042950623783474e-01 8.8164811985061267e+00 0 0 0
475 2 1.2305000000000001e+00 2.1312885187134998e+00 8.8164811985061267e+00 0 0 0
476 2 2.4610000000000003e+00 2.8417180249513345e+00 8.8164811985061267e+00 0 0 0
477 2 2.4610000000000003e+00 0.0000000000000000e+00 8.8164811985061267e+00 0 0 0
478 2 3.6915000000000004e+00 7.1042950623783474e-01 8.8164811985061267e+00 0 0 0
486 2 3.6914999999999996e+00 2.1312885187134998e+00 8.8164811985061267e+00 0 0 0
175 2 4.9220000000000006e+00 1.4208590124756650e+00 5.5870776634086319e+00 0 0 0
177 2 4.9220000000000006e+00 0.0000000000000000e+00 5.5870776634086319e+00 0 0 0
202 2 6.1524999999999999e+00 2.1312885187134989e+00 5.5870776634086319e+00 0 0 0
204 2 7.3829999999999991e+00 1.4208590124756659e+00 5.5870776634086319e+00 0 0 0
206 2 7.3829999999999991e+00 0.0000000000000000e+00 5.5870776634086319e+00 0 0 0
239 2 8.6134999999999984e+00 2.1312885187135002e+00 5.5870776634086319e+00 0 0 0
200 2 6.1524999999999999e+00 3.5521475311891644e+00 5.5870776634086319e+00 0 0 0
237 2 8.6134999999999984e+00 3.5521475311891657e+00 5.5870776634086319e+00 0 0 0
487 2 4.9220000000000006e+00 2.8417180249513332e+00 8.8164811985061267e+00 0 0 0
488 2 4.9220000000000006e+00 0.0000000000000000e+00 8.8164811985061267e+00 0 0 0
489 2 6.1524999999999999e+00 7.1042950623783407e-01 8.8164811985061267e+00 0 0 0
501 2 6.1524999999999999e+00 2.1312885187134989e+00 8.8164811985061267e+00 0 0 0
502 2 7.3829999999999991e+00 2.8417180249513345e+00 8.8164811985061267e+00 0 0 0
503 2 7.3829999999999991e+00 0.0000000000000000e+00 8.8164811985061267e+00 0 0 0
504 2 8.6134999999999984e+00 7.1042950623783407e-01 8.8164811985061267e+00 0 0 0
520 2 8.6134999999999984e+00 2.1312885187135002e+00 8.8164811985061267e+00 0 0 0
146 2 0.0000000000000000e+00 5.6834360499026637e+00 5.5870776634086319e+00 0 0 0
148 2 0.0000000000000000e+00 4.2625770374269996e+00 5.5870776634086319e+00 0 0 0
165 2 1.2305000000000001e+00 6.3938655561404980e+00 5.5870776634086319e+00 0 0 0
167 2 2.4610000000000003e+00 5.6834360499026637e+00 5.5870776634086319e+00 0 0 0
169 2 2.4610000000000003e+00 4.2625770374269996e+00 5.5870776634086319e+00 0 0 0
194 2 3.6914999999999996e+00 6.3938655561404980e+00 5.5870776634086319e+00 0 0 0
163 2 1.2305000000000001e+00 7.8147245686161639e+00 5.5870776634086319e+00 0 0 0
192 2 3.6914999999999996e+00 7.8147245686161639e+00 5.5870776634086319e+00 0 0 0
473 2 0.0000000000000000e+00 4.2625770374269996e+00 8.8164811985061267e+00 0 0 0
474 2 1.2305000000000001e+00 4.9730065436648339e+00 8.8164811985061267e+00 0 0 0
482 2 1.2305000000000001e+00 6.3938655561404980e+00 8.8164811985061267e+00 0 0 0
484 2 2.4610000000000003e+00 4.2625770374269996e+00 8.8164811985061267e+00 0 0 0
485 2 3.6914999999999996e+00 4.9730065436648339e+00 8.8164811985061267e+00 0 0 0
497 2 3.6914999999999996e+00 6.3938655561404980e+00 8.8164811985061267e+00 0 0 0
472 2 0.0000000000000000e+00 7.1042950623783341e+00 8.8164811985061267e+00 0 0 0
483 2 2.4610000000000003e+00 7.1042950623783341e+00 8.8164811985061267e+00 0 0 0
196 2 4.9220000000000006e+00 5.6834360499026637e+00 5.5870776634086319e+00 0 0 0
198 2 4.9220000000000006e+00 4.2625770374269978e+00 5.5870776634086319e+00 0 0 0
231 2 6.1524999999999999e+00 6.3938655561404980e+00 5.5870776634086319e+00 0 0 0
233 2 7.3829999999999991e+00 5.6834360499026637e+00 5.5870776634086319e+00 0 0 0
235 2 7.3829999999999991e+00 4.2625770374269996e+00 5.5870776634086319e+00 0 0 0
276 2 8.6135000000000002e+00 6.3938655561404980e+00 5.5870776634086319e+00 0 0 0
229 2 6.1524999999999999e+00 7.8147245686161639e+00 5.5870776634086319e+00 0 0 0
274 2 8.6135000000000002e+00 7.8147245686161639e+00 5.5870776634086319e+00 0 0 0
499 2 4.9220000000000006e+00 4.2625770374269978e+00 8.8164811985061267e+00 0 0 0
500 2 6.1524999999999999e+00 4.9730065436648339e+00 8.8164811985061267e+00 0 0 0
516 2 6.1524999999999999e+00 6.3938655561404980e+00 8.8164811985061267e+00 0 0 0
518 2 7.3829999999999991e+00 4.2625770374269996e+00 8.8164811985061267e+00 0 0 0
519 2 8.6135000000000002e+00 4.9730065436648339e+00 8.8164811985061267e+00 0 0 0
539 2 8.6135000000000002e+00 6.3938655561404980e+00 8.8164811985061267e+00 0 0 0
498 2 4.9220000000000006e+00 7.1042950623783341e+00 8.8164811985061267e+00 0 0 0
517 2 7.3830000000000009e+00 7.1042950623783341e+00 8.8164811985061267e+00 0 0 0
159 2 0.0000000000000000e+00 9.9460130873296642e+00 5.5870776634086319e+00 0 0 0
161 2 0.0000000000000000e+00 8.5251540748539991e+00 5.5870776634086319e+00 0 0 0
188 2 2.4610000000000003e+00 9.9460130873296642e+00 5.5870776634086319e+00 0 0 0
190 2 2.4610000000000003e+00 8.5251540748539991e+00 5.5870776634086319e+00 0 0 0
184 2 1.2305000000000001e+00 1.2077301606043163e+01 5.5870776634086319e+00 0 0 0
186 2 1.2305000000000001e+00 1.0656442593567498e+01 5.5870776634086319e+00 0 0 0
221 2 3.6914999999999996e+00 1.2077301606043163e+01 5.5870776634086319e+00 0 0 0
223 2 3.6914999999999996e+00 1.0656442593567499e+01 5.5870776634086319e+00 0 0 0
480 2 0.0000000000000000e+00 8.5251540748539991e+00 8.8164811985061267e+00 0 0 0
481 2 1.2305000000000001e+00 9.2355835810918343e+00 8.8164811985061267e+00 0 0 0
495 2 2.4610000000000003e+00 8.5251540748539991e+00 8.8164811985061267e+00 0 0 0
496 2 3.6915000000000004e+00 9.2355835810918343e+00 8.8164811985061267e+00 0 0 0
479 2 0.0000000000000000e+00 1.1366872099805333e+01 8.8164811985061267e+00 0 0 0
493 2 1.2305000000000001e+00 1.0656442593567498e+01 8.8164811985061267e+00 0 0 0
494 2 2.4610000000000003e+00 1.1366872099805333e+01 8.8164811985061267e+00 0 0 0
512 2 3.6914999999999996e+00 1.0656442593567499e+01 8.8164811985061267e+00 0 0 0
514 2 4.9220000000000006e+00 8.5251540748539991e+00 8.8164811985061267e+00 0 0 0
515 2 6.1524999999999999e+00 9.2355835810918343e+00 8.8164811985061267e+00 0 0 0
537 2 7.3830000000000009e+00 8.5251540748539991e+00 8.8164811985061267e+00 0 0 0
513 2 4.9220000000000006e+00 1.1366872099805333e+01 8.8164811985061267e+00 0 0 0
538 2 8.6134999999999984e+00 9.2355835810918343e+00 8.8164811985061267e+00 0 0 0
535 2 6.1524999999999999e+00 1.0656442593567499e+01 8.8164811985061267e+00 0 0 0
559 2 8.6134999999999984e+00 1.0656442593567498e+01 8.8164811985061267e+00 0 0 0
536 2 7.3829999999999991e+00 1.1366872099805333e+01 8.8164811985061267e+00 0 0 0
225 2 4.9220000000000006e+00 9.9460130873296642e+00 5.5870776634086319e+00 0 0 0
227 2 4.9220000000000006e+00 8.5251540748539991e+00 5.5870776634086319e+00 0 0 0
270 2 7.3830000000000009e+00 9.9460130873296642e+00 5.5870776634086319e+00 0 0 0
272 2 7.3830000000000009e+00 8.5251540748539991e+00 5.5870776634086319e+00 0 0 0
268 2 6.1524999999999999e+00 1.0656442593567499e+01 5.5870776634086319e+00 0 0 0
266 2 6.1524999999999999e+00 1.2077301606043163e+01 5.5870776634086319e+00 0 0 0
313 2 8.6135000000000002e+00 1.2077301606043163e+01 5.5870776634086319e+00 0 0 0
315 2 8.6134999999999984e+00 1.0656442593567498e+01 5.5870776634086319e+00 0 0 0
3410 1 3.6042247641123635e+00 2.8261612558649438e+00 1.1230323624257080e+01 2 0 0
3341 1 2.8186251679902696e+00 1.6572756987352357e+00 1.4321922615535295e+01 -1 -1 0
811 1 1.1626879815119322e+00 1.1241441697089498e+00 1.1703059056017420e+01 -2 -2 -1
1776 1 8.8188785096689877e+00 2.5420185283134482e+00 1.1759918124116675e+01 1 0 0
4910 1 6.9958745551875410e+00 1.7940685437331259e+00 1.4163653318445647e+01 0 1 0
4293 1 6.0173625632324157e+00 1.4118593426087176e+00 1.1309697495621057e+01 3 1 0
3347 1 7.4782796592692413e-01 6.0220534192650401e+00 1.4717327163920300e+01 1 3 -1
4980 1 4.2337833274905128e+00 5.7403251903328423e+00 1.1544274286412818e+01 3 1 -1
2637 1 1.5011836834263228e+00 6.4827003812994732e+00 1.2045085085326159e+01 1 -3 0
4970 1 4.6817486768924024e+00 5.7754500462617848e+00 1.4417831962731560e+01 1 1 0
114 1 6.7613429260209257e+00 7.0614421268461838e+00 1.1229406220173487e+01 3 -1 0
2691 1 8.9548230605663370e+00 5.3830339651134720e+00 1.1756315611093830e+01 -1 1 1
103 1 9.6983823444935595e+00 3.2070175184987537e+00 1.7827877933319510e+01 3 2 -1
1841 1 3.8279506533144150e+00 1.0600715983610943e+01 1.1516544621080051e+01 2 3 1
3132 1 1.0668053480248370e+00 9.2541741887622315e+00 1.2067316696605580e+01 2 -2 1
3492 1 2.5738886642678986e+00 1.0123131031991621e+01 1.4409716981131472e+01 2 1 0
1653 1 6.5197215254591621e+00 9.7758991185522230e+00 1.1939189323602164e+01 1 -1 0
779 1 7.1196429132004653e+00 9.5101824928031586e+00 1.4757368850523054e+01 2 2 0
2679 1 8.8983402200270909e+00 1.1355291082492014e+01 1.1087430072469568e+01 1 0 0
1554 1 6.5822746090767137e-01 3.3627390788684353e+00 1.5120144263306296e+01 0 -1 0
937 1 4.4941628921624410e-01 3.1593279460588626e+00 1.8008895844332532e+01 1 1 1
4319 1 2.6011135746469192e+00 1.8706327037666246e+00 1.9206177144575726e+01 4 1 0
650 1 4.9321301274740303e+00 2.9968270165701347e+00 1.5344715499071574e+01 1 5 -1
4265 1 4.7790248948150156e+00 2.9124394260693180e+00 1.8237370062634088e+01 2 1 0
3434 1 7.2966027782132254e+00 1.9796285867929007e+00 1.8841431936314073e+01 -2 -2 -1
59 1 2.7187472686124452e+00 7.5000787469748085e+00 1.5597737492612774e+01 1 1 -1
788 1 5.4023508315675250e-01 5.6076822456886903e+00 1.8709633958257921e+01 -1 2 -1
4957 1 2.8613390188278327e+00 7.0071536312658758e+00 1.8477569181873090e+01 2 2 0
57 1 4.8986819320032335e+00 5.5588200217694892e+00 1.9309934888301711e+01 0 -4 0
1604 1 7.1528173604945149e+00 6.8531493586180696e+00 1.5722443578261657e+01 4 3 0
3155 1 7.1109954727497602e+00 6.9971329746715849e+00 1.8415176852750985e+01 0 0 0
2382 1 2.9161570193709920e+00 9.8051243278606979e+00 1.9042890956316779e+01 0 -1 0
2663 1 8.0588741912005357e-01 1.1369177476637791e+01 1.8102243667726757e+01 -2 1 1
4162 1 7.7915933040904561e-01 1.1736746872080683e+01 1.5470775727790537e+01 1 2 0
3307 1 4.8319621350797588e+00 1.1185730665783227e+01 1.8209852622242153e+01 0 -1 -1
2688 1 6.9922526025971452e+00 9.8267359917643162e+00 1.8999738185840133e+01 0 0 0
1544 1 5.0003484625618642e+00 1.1272102938431233e+01 1.5442037469589204e+01 0 -1 -1
1785 1 9.2962532743749140e+00 1.1475733866085388e+01 1.5462105035451710e+01 0 3 0
4335 1 9.6123552488226061e+00 5.6171473797655604e+00 1.4440407344823722e+01 2 1 0
4279 1 9.4327880942800846e+00 2.8913039336654385e+00 1.5007393077035049e+01 1 0 0
837 1 9.6554889337609744e+00 5.8168399378629578e+00 1.8741434800183505e+01 2 0 0
2562 1 9.3824225816003448e+00 1.1438525790644576e+01 1.8070631844054205e+01 1 -1 0
4047 1 2.7640936695387146e+00 1.6718120344941687e+00 2.1952725525026722e+01 -2 4 0
4189 1 5.7326384040908018e-01 3.4400324928321839e+00 2.2565762304927507e+01 1 -1 0
1632 1 5.0759798923073971e+00 2.8512799734894401e+00 2.2745155778483849e+01 -2 -3 0
996 1 7.3003118764547565e+00 1.7743409539353028e+00 2.1533893524130828e+01 -2 -2 1
987 1 5.3923455315531807e+00 8.1686096966341122e+00 2.8639846020235151e+01 1 -1 1
1533 1 2.8724486162637466e+00 7.1660048227543687e+00 2.2725404395232399e+01 -1 1 0
3302 1 4.5498596426179783e-01 5.9310418252199897e+00 2.1621019437932247e+01 1 1 0
2409 1 5.1774690064591944e+00 5.6403156038882623e+00 2.1935374380893993e+01 -1 1 0
637 1 7.5086492253135084e+00 7.1170212149074086e+00 2.2374678187083806e+01 -2 2 0
4953 1 7.4476386113395989e+00 9.8724669373832779e+00 2.9705095001136375e+01 0 -1 0
4199 1 3.0003823490966837e+00 9.9597085934027678e+00 2.1885631465542389e+01 0 -1 -1
1722 1 6.4948154518732837e-01 1.1159126920410435e+01 2.2845956230867682e+01 0 1 -1
4016 1 5.2034040603028924e+00 1.1539469295708965e+01 2.2515460748359050e+01 1 0 0
2485 1 7.3198096334070675e+00 9.6145080783220251e+00 2.1601339721261166e+01 -1 2 0
1492 1 8.0245319498282675e-01 8.3778456591621850e+00 2.8976137066059039e+01 -1 -1 0
1818 1 5.4448935814749866e-01 3.2593846360364300e+00 2.5422874893619465e+01 1 -3 0
1630 1 5.8625099071831122e-01 6.6066742119989308e-01 2.6147298111017033e+01 4 1 -1
4814 1 7.7718701523011913e-01 5.3600410471520932e-01 2.8816927845521104e+01 0 -2 0
3243 1 2.9786929126588908e+00 4.2719307796379411e+00 2.9049995686560237e+01 4 3 0
670 1 9.6153350155890909e+00 1.1160923864509886e+01 2.2372795136075265e+01 -1 -2 0
952 1 9.7564687322821460e+00 8.5849550655997415e+00 2.8817661302514992e+01 -1 -1 0
888 1 5.1667632605218667e+00 3.2754188950209057e-01 2.8777079581313217e+01 2 -2 0
130 1 5.4089739832383099e+00 3.2164243660916196e+00 2.5415127046168156e+01 1 0 1
640 1 5.3988256010493814e+00 4.0050526282512383e-01 2.5911817507627276e+01 1 1 0
2420 1 7.7959234917019227e-01 1.1294259285623751e+01 2.5615945624676023e+01 1 -1 0
3286 1 5.0668861366290852e+00 1.1484299463096356e+01 2.5277534598869266e+01 -2 2 0
3195 1 2.7391637577906307e+00 7.1396793732065822e+00 2.5483887232724364e+01 0 1 0
3293 1 3.0355302079151589e+00 4.2940156549668735e+00 2.6296360773781142e+01 2 -2 0
3181 1 9.5458122358254585e+00 8.7058413317637324e+00 2.6012551394454047e+01 1 0 -1
2574 1 7.6347059120316096e+00 7.2000358656658285e+00 2.5127447294895322e+01 -2 2 0
4044 1 7.5543195427469785e+00 4.5857450745993376e+00 2.5890057057074149e+01 3 -3 0
1627 1 7.3428004360940875e+00 4.5479651352221078e+00 2.8642024698201208e+01 1 0 0
895 1 6.7276859481642359e-01 8.5271854511610794e+00 2.6513812123563316e+01 0 -3 0
660 1 5.2112660663793626e+00 8.6590899156382637e+00 2.5946601551921436e+01 1 0 1
1767 1 9.5636059414016277e+00 4.3430126236481514e-01 2.8608104132991389e+01 -3 2 0
2673 1 9.6885638413844042e+00 1.1409588549736551e+01 2.5248211749717814e+01 0 1 0
812 1 9.4714450398666514e+00 3.0550808869874584e+00 2.2587294551989842e+01 0 1 -1
3415 1 9.6397530681408590e+00 5.5181094450107171e+00 2.1465613049663276e+01 1 1 0
2477 1 9.6323861738069141e+00 5.8667638619172671e+00 2.9455425119691476e+01 6 -1 0
4338 1 7.4305662738367344e+00 1.7844017461739192e+00 2.9301328345451932e+01 0 0 0
2532 1 3.2548035927479164e+00 9.9401540750190751e+00 2.9528668796227539e+01 3 2 0
3203 1 6.4227256821847034e-01 5.6714895456019514e+00 2.9846676492802974e+01 -2 -1 0
3468 1 3.2318506750249889e+00 1.5469046713796224e+00 3.2754088048456822e+01 -1 2 0
4949 1 2.4849359737799026e+00 3.8205758907773038e+00 3.9339386626796689e+01 2 2 0
3403 1 7.6871663521750895e+00 1.7150227799054703e+00 3.1995341114066182e+01 2 -1 0
2520 1 3.7141485533213892e-01 5.5172394550822883e+00 3.6635868693218519e+01 1 -1 0
1553 1 4.0471905612146297e-01 7.6957148602693604e+00 3.8971356811628986e+01 3 -2 -1
3316 1 2.9842017770024674e+00 4.3744167903798052e+00 3.3538035464935916e+01 0 -2 -1
124 1 8.8237007210077967e-01 5.6353460657436392e+00 3.2766169547687319e+01 1 -3 0
713 1 7.3236007423737526e+00 4.2861972988304009e+00 3.3014855464075559e+01 4 2 0
4104 1 5.2355521533953002e+00 5.8390214753870735e+00 3.2952773585175358e+01 -2 -1 0
3348 1 7.9388391552860293e-01 8.7786272882099361e+00 3.3174137192842238e+01 1 -1 0
1720 1 3.1298926320148723e+00 1.0067340290571590e+01 3.2220244836559232e+01 0 0 0
1595 1 2.5734095011332623e+00 1.2244735893896669e+01 3.6184242764895870e+01 -2 -2 0
4326 1 5.2510485323056635e+00 8.6797399800748636e+00 3.3278112646389651e+01 0 1 0
1693 1 7.3846484524382516e+00 9.8604446119007552e+00 3.2304295580073919e+01 0 1 0
3153 1 9.6406701741523637e+00 8.1430318288313472e+00 3.5771105704976179e+01 -2 2 -1
4103 1 2.8583474002910654e+00 9.5282429869625007e-01 3.6721765946124123e+01 3 1 0
887 1 2.3941732972372209e+00 9.8743408610735584e-01 3.9412237843486828e+01 -2 0 0
3231 1 7.4310396909520300e+00 1.7220959167569783e+00 3.8918262000365573e+01 1 0 -1
1596 1 7.3870551900561070e+00 1.5534108458976459e+00 3.6196815387540127e+01 -2 0 0
1570 1 7.3709901589501117e+00 9.4862054065737098e+00 3.6576770191208880e+01 0 -1 0
2593 1 4.9710642566586172e+00 8.1286035225109572e+00 3.6160621546034641e+01 2 2 -1
2308 1 5.1856030953041623e+00 5.3403465579671163e+00 3.9437763165765666e+01 -1 -2 0
3998 1 3.0257011891079095e+00 1.2237479936187107e+01 3.9162078027822346e+01 1 -2 0
4857 1 2.8641435760096465e+00 3.7963552933167817e+00 3.6330517956670391e+01 1 -2 0
3983 1 2.7270963779865078e+00 9.5364740240841872e+00 3.6353947544605163e+01 1 0 0
1679 1 7.4578899872160429e+00 1.0101435201692425e+01 3.9238417867788996e+01 1 1 -1
3278 1 7.5122181175433722e+00 4.1797568444481712e+00 3.5708271639519779e+01 2 0 0
3997 1 5.1421501611832037e+00 5.3890852641109612e+00 3.6664192486334393e+01 0 2 -1
4792 1 7.7815915023411613e+00 4.3712497320259356e+00 3.9517619194081540e+01 -2 0 0
2465 1 5.3812405690346452e+00 8.3306854949739062e+00 3.9201759850817602e+01 1 1 0
819 1 2.7321518225535537e+00 9.3488520100944363e+00 3.9275491209660444e+01 2 0 0
631 1 9.4340664378473704e+00 8.2114046042757654e+00 3.2889361235866595e+01 1 1 0
1843 1 3.2715097680519722e-01 8.2956421171900150e+00 3.5821653313091147e+01 5 0 0
1745 1 9.6507350946860733e+00 1.7004874211402085e-01 3.8892507047033249e+01 0 -2 0
4958 1 1.1552118290876955e-01 4.9173533140829440e+00 3.9701636636193420e+01 2 2 0
824 1 1.0477670988087531e+00 1.8941447926980698e-01 3.3365280151236639e+01 2 -3 -1
46 1 9.5349397944825256e+00 5.4511246234446276e+00 3.2037240638073811e+01 0 0 0
4013 1 9.8243514490337525e+00 1.8388788960132177e-01 3.2819393770939314e+01 0 2 0
4124 1 5.3088508765500162e+00 5.7083198672673099e+00 3.0061464112353985e+01 1 -1 0
4135 1 2.9933595731524427e+00 1.6580758348396629e+00 2.9953854068408532e+01 -2 1 0
3217 1 9.8278449618565169e+00 8.6594769615952494e+00 3.9652658587586693e+01 0 3 0
181 2 0.0000000000000000e+00 1.2787731112280996e+01 2.3576741283083393e+00 0 0 0
183 2 1.2305000000000001e+00 1.3498160618518829e+01 2.3576741283083393e+00 0 0 0
218 2 2.4610000000000003e+00 1.2787731112280996e+01 2.3576741283083393e+00 0 0 0
220 2 3.6915000000000004e+00 1.3498160618518829e+01 2.3576741283083393e+00 0 0 0
179 2 0.0000000000000000e+00 1.5629449137232333e+01 2.3576741283083393e+00 0 0 0
214 2 1.2305000000000001e+00 1.4919019630994494e+01 2.3576741283083393e+00 0 0 0
216 2 2.4610000000000003e+00 1.5629449137232328e+01 2.3576741283083393e+00 0 0 0
259 2 3.6915000000000004e+00 1.4919019630994494e+01 2.3576741283083393e+00 0 0 0
263 2 4.9220000000000006e+00 1.2787731112280996e+01 2.3576741283083393e+00 0 0 0
265 2 6.1524999999999990e+00 1.3498160618518829e+01 2.3576741283083393e+00 0 0 0
310 2 7.3829999999999991e+00 1.2787731112280996e+01 2.3576741283083393e+00 0 0 0
312 2 8.6135000000000002e+00 1.3498160618518835e+01 2.3576741283083393e+00 0 0 0
261 2 4.9220000000000006e+00 1.5629449137232333e+01 2.3576741283083393e+00 0 0 0
306 2 6.1524999999999990e+00 1.4919019630994494e+01 2.3576741283083393e+00 0 0 0
308 2 7.3829999999999991e+00 1.5629449137232333e+01 2.3576741283083393e+00 0 0 0
353 2 8.6135000000000002e+00 1.4919019630994494e+01 2.3576741283083393e+00 0 0 0
210 2 0.0000000000000000e+00 1.7050308149707998e+01 2.3576741283083393e+00 0 0 0
255 2 2.4610000000000003e+00 1.7050308149707998e+01 2.3576741283083393e+00 0 0 0
208 2 0.0000000000000000e+00 1.9892026174659328e+01 2.3576741283083393e+00 0 0 0
212 2 1.2305000000000001e+00 1.7760737655945832e+01 2.3576741283083393e+00 0 0 0
251 2 1.2305000000000001e+00 1.9181596668421495e+01 2.3576741283083393e+00 0 0 0
253 2 2.4610000000000003e+00 1.9892026174659328e+01 2.3576741283083393e+00 0 0 0
257 2 3.6914999999999996e+00 1.7760737655945832e+01 2.3576741283083393e+00 0 0 0
298 2 3.6914999999999996e+00 1.9181596668421495e+01 2.3576741283083393e+00 0 0 0
302 2 4.9220000000000006e+00 1.7050308149707998e+01 2.3576741283083393e+00 0 0 0
349 2 7.3830000000000009e+00 1.7050308149707998e+01 2.3576741283083393e+00 0 0 0
300 2 4.9220000000000006e+00 1.9892026174659328e+01 2.3576741283083393e+00 0 0 0
304 2 6.1524999999999999e+00 1.7760737655945832e+01 2.3576741283083393e+00 0 0 0
345 2 6.1524999999999999e+00 1.9181596668421495e+01 2.3576741283083393e+00 0 0 0
347 2 7.3829999999999991e+00 1.9892026174659328e+01 2.3576741283083393e+00 0 0 0
351 2 8.6134999999999984e+00 1.7760737655945832e+01 2.3576741283083393e+00 0 0 0
387 2 8.6135000000000002e+00 1.9181596668421495e+01 2.3576741283083393e+00 0 0 0
245 2 0.0000000000000000e+00 2.4154603212086325e+01 2.3576741283083393e+00 0 0 0
247 2 0.0000000000000000e+00 2.1312885187134999e+01 2.3576741283083393e+00 0 0 0
249 2 1.2304999999999993e+00 2.2023314693372832e+01 2.3576741283083393e+00 0 0 0
290 2 1.2304999999999993e+00 2.3444173705848499e+01 2.3576741283083393e+00 0 0 0
292 2 2.4610000000000003e+00 2.4154603212086325e+01 2.3576741283083393e+00 0 0 0
294 2 2.4610000000000003e+00 2.1312885187134995e+01 2.3576741283083393e+00 0 0 0
296 2 3.6914999999999996e+00 2.2023314693372832e+01 2.3576741283083393e+00 0 0 0
337 2 3.6915000000000004e+00 2.3444173705848499e+01 2.3576741283083393e+00 0 0 0
339 2 4.9220000000000006e+00 2.4154603212086325e+01 2.3576741283083393e+00 0 0 0
341 2 4.9220000000000006e+00 2.1312885187134995e+01 2.3576741283083393e+00 0 0 0
343 2 6.1524999999999990e+00 2.2023314693372832e+01 2.3576741283083393e+00 0 0 0
379 2 6.1524999999999999e+00 2.3444173705848499e+01 2.3576741283083393e+00 0 0 0
381 2 7.3830000000000009e+00 2.4154603212086336e+01 2.3576741283083393e+00 0 0 0
383 2 7.3829999999999991e+00 2.1312885187134999e+01 2.3576741283083393e+00 0 0 0
385 2 8.6135000000000002e+00 2.2023314693372832e+01 2.3576741283083393e+00 0 0 0
413 2 8.6134999999999984e+00 2.3444173705848499e+01 2.3576741283083393e+00 0 0 0
182 2 0.0000000000000000e+00 1.2787731112280996e+01 5.5870776634086319e+00 0 0 0
219 2 2.4610000000000003e+00 1.2787731112280996e+01 5.5870776634086319e+00 0 0 0
180 2 0.0000000000000000e+00 1.4208590124756663e+01 5.5870776634086319e+00 0 0 0
215 2 1.2305000000000001e+00 1.4919019630994494e+01 5.5870776634086319e+00 0 0 0
217 2 2.4610000000000003e+00 1.4208590124756663e+01 5.5870776634086319e+00 0 0 0
260 2 3.6915000000000004e+00 1.4919019630994494e+01 5.5870776634086319e+00 0 0 0
491 2 0.0000000000000000e+00 1.2787731112280996e+01 8.8164811985061267e+00 0 0 0
492 2 1.2305000000000001e+00 1.3498160618518829e+01 8.8164811985061267e+00 0 0 0
510 2 2.4610000000000003e+00 1.2787731112280996e+01 8.8164811985061267e+00 0 0 0
511 2 3.6915000000000004e+00 1.3498160618518829e+01 8.8164811985061267e+00 0 0 0
490 2 0.0000000000000000e+00 1.5629449137232333e+01 8.8164811985061267e+00 0 0 0
508 2 1.2305000000000001e+00 1.4919019630994494e+01 8.8164811985061267e+00 0 0 0
509 2 2.4610000000000003e+00 1.5629449137232328e+01 8.8164811985061267e+00 0 0 0
531 2 3.6915000000000004e+00 1.4919019630994494e+01 8.8164811985061267e+00 0 0 0
264 2 4.9220000000000006e+00 1.2787731112280996e+01 5.5870776634086319e+00 0 0 0
311 2 7.3829999999999991e+00 1.2787731112280996e+01 5.5870776634086319e+00 0 0 0
262 2 4.9220000000000006e+00 1.4208590124756663e+01 5.5870776634086319e+00 0 0 0
307 2 6.1524999999999990e+00 1.4919019630994494e+01 5.5870776634086319e+00 0 0 0
309 2 7.3830000000000009e+00 1.4208590124756663e+01 5.5870776634086319e+00 0 0 0
354 2 8.6135000000000002e+00 1.4919019630994494e+01 5.5870776634086319e+00 0 0 0
533 2 4.9220000000000006e+00 1.2787731112280996e+01 8.8164811985061267e+00 0 0 0
534 2 6.1524999999999990e+00 1.3498160618518829e+01 8.8164811985061267e+00 0 0 0
557 2 7.3829999999999991e+00 1.2787731112280996e+01 8.8164811985061267e+00 0 0 0
558 2 8.6135000000000002e+00 1.3498160618518835e+01 8.8164811985061267e+00 0 0 0
532 2 4.9220000000000006e+00 1.5629449137232333e+01 8.8164811985061267e+00 0 0 0
555 2 6.1524999999999990e+00 1.4919019630994494e+01 8.8164811985061267e+00 0 0 0
556 2 7.3829999999999991e+00 1.5629449137232333e+01 8.8164811985061267e+00 0 0 0
579 2 8.6135000000000002e+00 1.4919019630994494e+01 8.8164811985061267e+00 0 0 0
211 2 0.0000000000000000e+00 1.7050308149707998e+01 5.5870776634086319e+00 0 0 0
213 2 1.2305000000000001e+00 1.6339878643470165e+01 5.5870776634086319e+00 0 0 0
256 2 2.4610000000000003e+00 1.7050308149707998e+01 5.5870776634086319e+00 0 0 0
258 2 3.6915000000000004e+00 1.6339878643470165e+01 5.5870776634086319e+00 0 0 0
209 2 0.0000000000000000e+00 1.8471167162183658e+01 5.5870776634086319e+00 0 0 0
252 2 1.2305000000000001e+00 1.9181596668421495e+01 5.5870776634086319e+00 0 0 0
254 2 2.4610000000000003e+00 1.8471167162183658e+01 5.5870776634086319e+00 0 0 0
299 2 3.6914999999999996e+00 1.9181596668421495e+01 5.5870776634086319e+00 0 0 0
506 2 0.0000000000000000e+00 1.7050308149707998e+01 8.8164811985061267e+00 0 0 0
529 2 2.4610000000000003e+00 1.7050308149707998e+01 8.8164811985061267e+00 0 0 0
505 2 0.0000000000000000e+00 1.9892026174659328e+01 8.8164811985061267e+00 0 0 0
507 2 1.2305000000000001e+00 1.7760737655945832e+01 8.8164811985061267e+00 0 0 0
527 2 1.2305000000000001e+00 1.9181596668421495e+01 8.8164811985061267e+00 0 0 0
528 2 2.4610000000000003e+00 1.9892026174659328e+01 8.8164811985061267e+00 0 0 0
530 2 3.6914999999999996e+00 1.7760737655945832e+01 8.8164811985061267e+00 0 0 0
551 2 3.6914999999999996e+00 1.9181596668421495e+01 8.8164811985061267e+00 0 0 0
303 2 4.9220000000000006e+00 1.7050308149707998e+01 5.5870776634086319e+00 0 0 0
305 2 6.1524999999999999e+00 1.6339878643470165e+01 5.5870776634086319e+00 0 0 0
350 2 7.3830000000000009e+00 1.7050308149707998e+01 5.5870776634086319e+00 0 0 0