
# Create simulation box and atoms

read_data data.ML_graphite_m1000atm_250K
  orthogonal box = (0 0 1.04861) to (49.22 49.0196 38.9514)
  5 by 4 by 4 MPI processor grid
  reading atoms ...
  5031 atoms
  reading velocities ...
  5031 velocities
group water type 1
2271 atoms in group water
group graphite type 2
2760 atoms in group graphite

# Define potential

pair_style sw
pair_coeff * * MLC_e.sw mW C


# Fix graphite atoms in place

fix 5 graphite setforce 0.0 0.0 0.0
velocity graphite set 0.0 0.0 0.0


# Equilibration of molecular water

# Add velocity/set timestep

velocity	    water create ${TEMP} ${SEED} rot yes dist gaussian
velocity	    water create 250 ${SEED} rot yes dist gaussian
velocity	    water create 250 23677 rot yes dist gaussian
timestep	    5.0

# Define output

compute			1 water msd
compute			3 water temp
thermo	    	50
thermo_style	custom step temp press vol etotal ke pe c_1[4] c_3

# Neighbor lists

neigh_modify    delay 0 every 1 check yes

# Set fixes

fix             1 water momentum 10 linear 1 1 1 rescale
fix             2 water nve
fix             3 water temp/csvr ${TEMP} ${TEMP} 500.0 ${SEED}
fix             3 water temp/csvr 250 ${TEMP} 500.0 ${SEED}
fix             3 water temp/csvr 250 250 500.0 ${SEED}
fix             3 water temp/csvr 250 250 500.0 23677
fix             4 water press/berendsen z ${PRES} ${PRES} 1000.0 modulus 20000
fix             4 water press/berendsen z -1000 ${PRES} 1000.0 modulus 20000
fix             4 water press/berendsen z -1000 -1000 1000.0 modulus 20000

# Run 0.5 ns equilibration

dump		    1 all atom 2000 ${DIR}/eq.${NAME}-${TEMP}.dump
dump		    1 all atom 2000 run_4/eq.${NAME}-${TEMP}.dump
dump		    1 all atom 2000 run_4/eq.het_freeze_4-${TEMP}.dump
dump		    1 all atom 2000 run_4/eq.het_freeze_4-250.dump

reset_timestep  0

run	            100000
Neighbor list info ...
  update every 1 steps, delay 0 steps, check yes
  max neighbors/atom: 2000, page size: 100000
  master list distance cutoff = 6.67472
  ghost atom cutoff = 6.67472
  binsize = 3.33736, bins = 15 15 12
  1 neighbor lists, perpetual/occasional/extra = 1 0 0
  (1) pair sw, perpetual
      attributes: full, newton on
      pair build: full/bin/atomonly
      stencil: full/bin/3d
      bin: standard
Per MPI rank memory allocation (min/avg/max) = 4.069 | 4.188 | 4.476 Mbytes
Step Temp Press Volume TotEng KinEng PotEng c_1[4] c_3 
       0    112.82306   -1433.2777    91449.793   -21655.009    1691.6097   -23346.618            0          250 
      50    109.42259   -1470.1671    91465.519   -21709.624    1640.6248   -23350.249   0.53027205    242.46503 
     100    110.15801   -1191.7285    91467.965   -21720.473    1651.6513   -23372.124   0.82084883    244.09462 
     150    112.04085   -1458.5363    91417.633   -21719.995    1679.8817   -23399.876    1.0284665    248.26674 
     200    110.73212   -1668.3386    91367.931   -21717.111    1660.2591    -23377.37    1.2456727    245.36676 
     250    111.89272    -1375.178     91278.41   -21712.097    1677.6607   -23389.758    1.4306784     247.9385 
     300      113.524   -1261.9624    91312.534   -21671.038    1702.1192   -23373.157    1.6515737    251.55318 
     350    111.33467   -1385.5405    91263.899   -21659.105    1669.2936   -23328.399    1.8756821    246.70194 
     400    110.89827   -1199.8882     91180.52   -21648.956    1662.7504   -23311.706    2.0812627    245.73494 
     450    110.76821    -1328.961    91226.576   -21662.128    1660.8003   -23322.928     2.246761    245.44673 
     500    115.40386   -1251.4636    91136.243   -21676.091    1730.3048   -23406.396    2.4578828    255.71868 
     550    114.14352   -1459.7219    91108.246   -21643.123    1711.4079   -23354.531    2.6843698    252.92594 
     600    114.70545    -1160.676    91150.024   -21631.639    1719.8333   -23351.472    2.8552362    254.17111 
     650    116.29259   -1454.3866    91090.561   -21604.136      1743.63   -23347.766    2.9656764    257.68798 
     700    112.50879    -1448.876     91066.77   -21630.289    1686.8977   -23317.187    3.0710831    249.30362 
     750    112.34405   -1081.7279    91005.024   -21676.487    1684.4277   -23360.915    3.2109354    248.93858 
     800    112.26327   -1139.4125    90960.934   -21681.317    1683.2165   -23364.533    3.3500795    248.75959 
     850    110.88035   -1220.2398    90924.505   -21694.605    1662.4818   -23357.087    3.4907588    245.69523 
     900    111.77215   -1446.3112    90817.184   -21733.588    1675.8529   -23409.441    3.6735103    247.67133 
     950    110.94051   -1133.3636    90820.626   -21716.953    1663.3838   -23380.337    3.8740434    245.82854 
    1000    110.19556   -1308.5614    90825.091   -21711.946    1652.2143    -23364.16    3.9945035    244.17782 
    1050    112.75709   -1332.8713    90845.008   -21737.168    1690.6206   -23427.788    4.0944477    249.85383 
    1100    111.30304   -1631.9389    90838.342   -21701.318    1668.8194   -23370.138    4.2438207    246.63186 
    1150    114.99005   -1179.0039    90865.251   -21685.725    1724.1004   -23409.826    4.4128233    254.80174 
    1200    112.01411   -1397.4249    90888.474   -21691.024    1679.4806   -23370.505    4.6362674    248.20747 
    1250    111.31033   -1161.8097    90910.744   -21713.024    1668.9286   -23381.953    4.8720986      246.648 
    1300    114.45257   -1100.2459    90877.827   -21740.335    1716.0418   -23456.377    5.0393978    253.61077 
    1350    112.94988   -1083.4994    90945.764   -21734.197    1693.5112   -23427.708     5.278198    250.28101 
    1400    111.82274   -997.86728    90957.228   -21731.001    1676.6115   -23407.613    5.4462555    247.78344 
    1450    110.50666   -1222.7507    90991.497   -21769.317    1656.8789   -23426.196    5.6508742    244.86719 
    1500    110.19096   -1199.8504    90957.456   -21781.537    1652.1453   -23433.682    5.8210091    244.16762 
    1550    113.38149   -969.37391    90963.547   -21741.519    1699.9825   -23441.502    5.9433867    251.23741 
    1600    112.13859   -1176.5247    91011.762    -21759.38    1681.3471   -23440.728     6.050163     248.4833 
    1650    110.23118   -1287.0877    90968.543   -21763.826    1652.7484   -23416.575     6.218796    244.25676 
    1700    111.29135   -1486.0012    90929.903   -21755.683     1668.644   -23424.327    6.3068038    246.60594 
    1750    114.07621   -1301.8927    90836.872   -21745.196    1710.3987   -23455.595    6.4232002    252.77679 
    1800    111.75114   -1153.0725    90785.421   -21760.938    1675.5379   -23436.475    6.5804332    247.62477 
    1850    111.14995   -1172.1605    90801.169   -21771.067    1666.5239   -23437.591    6.7678294    246.29261 
    1900    110.78283   -1392.3216    90760.353   -21732.528    1661.0196   -23393.547    6.7758606    245.47914 
    1950    111.63346   -1337.9855     90784.93   -21707.344    1673.7734   -23381.117    6.9334823      247.364 
    2000    113.52333    -1285.208    90773.393   -21704.676    1702.1092   -23406.785    7.0080618     251.5517 
    2050    112.71699   -984.90074    90790.151   -21705.584    1690.0193   -23395.604    7.0852843    249.76496 
    2100    114.08799   -1253.6409    90802.084   -21699.531    1710.5754   -23410.107    7.2914582    252.80291 
    2150    115.95277   -1329.4842    90763.154   -21731.573     1738.535   -23470.108    7.3506103      256.935 
    2200    111.32515   -1167.7033    90761.771   -21752.584    1669.1508   -23421.735     7.444718    246.68084 
    2250    111.28371   -1258.3998    90783.892   -21740.756    1668.5295   -23409.286    7.6315178    246.58902 
    2300    113.45901   -985.26612    90785.034   -21739.163    1701.1447   -23440.308    7.8957576    251.40916 
    2350    110.83495   -1293.4973    90784.947   -21779.792    1661.8011   -23441.593    8.0506321    245.59463 
    2400    111.35785   -1163.4931    90740.845   -21775.802    1669.6411   -23445.443    8.2560208     246.7533 
    2450    112.87854   -1092.6032    90720.823    -21754.72    1692.4416   -23447.161    8.4290184    250.12294 
    2500    112.41278   -791.89111    90774.734   -21809.854    1685.4581   -23495.312    8.5146025    249.09087 
    2550    111.91413    -1285.237    90766.514   -21825.429    1677.9817   -23503.411    8.6012777    247.98594 
    2600    114.14956   -1031.5798    90733.161   -21775.211    1711.4986    -23486.71    8.7420282    252.93934 
    2650    112.01154   -1086.0538    90885.211   -21706.491    1679.4421   -23385.934    8.9853168    248.20178 
    2700    111.99921   -1318.2722    90893.785   -21715.185    1679.2574   -23394.443    9.1215736    248.17447 
    2750    109.01244   -1009.8449    90915.798   -21751.776    1634.4752   -23386.251    9.2942665    241.55619 
    2800    114.90195   -1493.1119    90945.667   -21721.081    1722.7795   -23443.861     9.641893    254.60652 
    2850    112.92455   -1220.7824    90956.205   -21718.603    1693.1313   -23411.735    9.8505383    250.22488 
    2900    117.42901   -1290.0464    91013.344   -21681.423    1760.6689   -23442.092    9.9475691    260.20614 
    2950    114.39977   -1475.4163    91046.994   -21693.572      1715.25   -23408.822    10.217591    253.49375 
    3000    110.41653   -1663.3646    91004.837   -21716.931    1655.5274   -23372.458    10.470148    244.66746 
    3050    112.57668   -1230.9668    90972.083   -21676.463    1687.9156   -23364.379    10.725757    249.45406 
    3100    114.34506   -1462.8829    90961.029   -21663.171    1714.4298   -23377.601    10.862624    253.37254 
    3150     115.1975    -1321.314    90939.892   -21658.961    1727.2108   -23386.171    11.088023    255.26143 
    3200    113.39674   -1478.2363    90906.788   -21680.505    1700.2112   -23380.716    11.252747     251.2712 
    3250    111.92675   -1268.7726    90886.189   -21731.639    1678.1708   -23409.809    11.268604    248.01389 
    3300    113.94955   -1345.8271     90864.92   -21726.988    1708.4997   -23435.488    11.350291    252.49615 
    3350    113.61926   -1333.7257    90863.146   -21703.684    1703.5475   -23407.232    11.429322    251.76426 
    3400    112.25836   -1141.0121    90914.319   -21703.282    1683.1429   -23386.425    11.630981    248.74871 
    3450    114.50841   -1233.4973    90961.127   -21681.007    1716.8789   -23397.886    11.855593    253.73449 
    3500    112.29207   -1283.6791    90925.526   -21695.453    1683.6483   -23379.101    11.901304     248.8234 
    3550    114.99797   -1102.7441     90899.48   -21692.287    1724.2191   -23416.506     12.07647    254.81929 
    3600     112.1009   -1180.2998    90854.256   -21734.756    1680.7821   -23415.538    12.276134     248.3998 
    3650    113.22759    -1238.876    90852.118   -21741.723     1697.675   -23439.398    12.483918    250.89638 
    3700    115.73377   -1213.3582    90852.688   -21695.178    1735.2514    -23430.43    12.692259    256.44973 
    3750    114.25714   -1089.8327    90905.585   -21700.059    1713.1115   -23413.171    12.776221    253.17771 
    3800    114.37915   -853.26716    90966.064   -21674.076    1714.9409   -23389.017    12.963608    253.44807 
    3850    113.76712   -1278.9854    91056.714   -21696.558    1705.7645   -23402.322    13.074785    252.09191 
    3900    110.33666   -1308.1036    91000.902   -21692.261    1654.3298   -23346.591    13.307351    244.49047 
    3950    114.40108    -1313.441    90963.719    -21701.28    1715.2696    -23416.55    13.557933    253.49666 
    4000    111.70984   -1210.0792    91044.414   -21686.483    1674.9186   -23361.402    13.704551    247.53326 
    4050    115.26492   -1402.8469    91142.252   -21655.299    1728.2217   -23383.521     13.69643    255.41082 
    4100     112.5355   -1490.5778    91122.348   -21656.422    1687.2982    -23343.72    13.866117    249.36281 
    4150    113.37922   -1098.1116     91093.49   -21633.604    1699.9484   -23333.552    14.134557    251.23236 
    4200    113.55205   -1203.0659    91170.032    -21616.53    1702.5398   -23319.069    14.307135    251.61535 
    4250    112.48696   -1376.1311     91238.12   -21614.436    1686.5703   -23301.007    14.626691    249.25524 
    4300    115.00242   -1020.8314    91247.513    -21582.65    1724.2859   -23306.936    14.851327    254.82916 
    4350    117.66514   -1288.7276    91232.373   -21589.574    1764.2094   -23353.784      15.2099    260.72937 
    4400    110.41646   -1209.6306    91282.385   -21664.436    1655.5263   -23319.962    15.308815     244.6673 
    4450      108.651   -1167.2321    91312.237   -21643.229     1629.056   -23272.285    15.508315     240.7553 
    4500      115.363   -1112.7207    91340.682   -21593.759    1729.6921   -23323.451    15.710653    255.62813 
    4550    114.97633   -991.90365    91357.681   -21568.792    1723.8947   -23292.687     15.90249    254.77134 
    4600    115.53504   -1349.9878    91341.851   -21586.611    1732.2716   -23318.883    16.047073    256.00936 
    4650    113.20219   -1625.7254    91348.129   -21592.632    1697.2942   -23289.926    16.157388     250.8401 
    4700    112.03506   -1233.5586    91265.305   -21628.877    1679.7948   -23308.672    16.196551    248.25389 
    4750     112.5827   -936.25043    91350.578   -21651.812    1688.0059   -23339.818    16.266719     249.4674 
    4800    111.11822   -1284.0828    91371.168   -21645.199    1666.0482   -23311.247    16.387346    246.22232 
    4850    115.39653   -1431.7236    91339.954   -21624.989    1730.1949   -23355.184    16.682057    255.70244 
    4900    116.16568   -1347.4736    91334.684   -21615.318    1741.7272   -23357.045    16.703439    257.40677 
    4950    112.05266   -1408.9524    91315.767    -21645.55    1680.0586   -23325.609    16.756968    248.29289 
    5000    115.97894   -1527.1611    91263.657    -21640.46    1738.9273   -23379.387    16.966062    256.99299 
    5050     113.2634   -1394.6466    91193.237   -21644.232    1698.2119   -23342.444    16.973877    250.97573 
    5100    114.18941   -1378.3678    91164.669   -21678.871    1712.0959   -23390.967    17.061121    253.02763 
    5150    114.02693   -1253.8783    91178.642   -21687.322    1709.6598   -23396.982    17.324556    252.66759 
    5200    112.25352   -1439.3363     91166.17    -21707.59    1683.0703    -23390.66    17.438827    248.73798 
    5250    112.18552   -1350.4569    91139.874   -21702.653    1682.0508   -23384.704    17.552049     248.5873 
    5300      111.485    -1102.846    91184.318   -21693.601    1671.5476   -23365.149    17.755647    247.03505 
    5350    111.15787    -1247.932    91198.239   -21704.934    1666.6427   -23371.576    17.955199    246.31017 
    5400    110.95148    -1207.883    91166.478   -21704.421    1663.5481   -23367.969    18.096315    245.85283 
    5450    113.90303   -1157.5708     91078.05   -21726.487    1707.8021    -23434.29    18.298988    252.39305 
    5500     110.7558   -1496.5829    91064.291   -21762.382    1660.6142   -23422.996    18.711141    245.41923 
    5550    112.30292   -1213.2082    90997.513   -21742.931     1683.811   -23426.742    18.791687    248.84745 
    5600    111.75899   -1208.2353     90980.77   -21743.709    1675.6555   -23419.365    18.741175    247.64216 
    5650    109.36582    -1248.086    90992.022   -21737.108    1639.7736   -23376.882    19.025507    242.33923 
    5700    115.03516   -1539.0372    90997.839   -21733.555    1724.7768   -23458.332    19.359067    254.90171 
    5750    111.88864   -1111.6658     91014.99   -21742.379    1677.5994   -23419.978    19.507008    247.92945 
    5800    115.63756   -1147.8412    91063.887   -21727.459    1733.8088   -23461.267    19.713712    256.23653 
    5850    113.03313   -1380.3361    91085.917   -21690.988    1694.7594   -23385.748    19.721915    250.46549 
    5900    112.31578   -1308.5782    91158.354   -21695.838    1684.0038   -23379.842    19.948369    248.87594 
    5950    112.08112   -1271.0396    91201.055   -21717.786    1680.4854   -23398.272    20.061155    248.35597 
    6000    112.79326   -1151.2172    91170.722   -21719.025    1691.1629   -23410.188    20.193374    249.93397 
    6050    109.74555   -1134.7185    91163.548   -21721.879    1645.4671   -23367.346    20.284147    243.18066 
    6100    110.75967   -1152.1504    91108.272   -21720.087    1660.6723   -23380.759    20.465427    245.42781 
    6150    112.91993   -1095.7915    91099.381   -21730.258    1693.0622    -23423.32    20.628141    250.21466 
    6200    112.41568   -912.21391    91034.554    -21755.18    1685.5016   -23440.681    20.711639     249.0973 
    6250    110.46723   -1317.9824      91024.4   -21776.365    1656.2876   -23432.653    20.862458    244.77981 
    6300    111.89555   -1183.3144    91073.497   -21764.826    1677.7031    -23442.53    20.862981    247.94477 
    6350     110.3229   -1239.2791    91127.936   -21768.201    1654.1236   -23422.324    20.980407       244.46 
    6400    111.67043   -1158.7864    91194.807   -21757.476    1674.3278   -23431.804    21.247654    247.44594 
    6450    112.94052   -1381.6182    91156.079   -21726.904    1693.3708   -23420.275    21.403914    250.26027 
    6500    113.38407   -1165.7575    91138.518   -21713.674    1700.0212   -23413.695    21.510746    251.24311 
    6550    113.04449   -887.13986    91141.725   -21711.323    1694.9298   -23406.253    21.601814    250.49066 
    6600    113.22746   -1106.4975    91176.434   -21706.938     1697.673   -23404.611    21.658644    250.89608 
    6650    114.29666   -1338.4556    91139.802   -21727.472    1713.7041   -23441.176    21.951271    253.26529 
    6700    111.85772   -1409.2031    91149.529   -21736.585    1677.1359   -23413.721    22.191056    247.86094 
    6750      113.704   -1412.1702    91118.445    -21736.95    1704.8181   -23441.768    22.267346    251.95204 
    6800    111.83482    -1141.193    91105.551   -21734.176    1676.7926   -23410.968    22.425466     247.8102 
    6850    112.21967   -1243.1485    91145.557   -21703.224    1682.5628   -23385.787    22.640686    248.66297 
    6900    113.56533   -1256.9809    91127.014   -21701.733     1702.739   -23404.472    22.983973    251.64477 
    6950    111.23853   -1403.2606    91062.973   -21706.196    1667.8521   -23374.048    23.283584    246.48891 
    7000    113.26867   -1365.9789    91050.084   -21755.544    1698.2909   -23453.835    23.527563    250.98741 
    7050    111.49939   -1576.4871    91021.792   -21767.853    1671.7632   -23439.616    23.801009    247.06693 
    7100    112.71624   -1262.7243    90992.963   -21756.937    1690.0081   -23446.945    24.055213    249.76331 
    7150     114.5729   -1137.0763    91057.224   -21707.689    1717.8459   -23425.534    24.013168     253.8774 
    7200    114.57554   -1409.8993    91070.488   -21715.623    1717.8854   -23433.509    24.185112    253.88324 
    7250    114.56222   -1143.0394    91131.007   -21753.906    1717.6857   -23471.592    24.461681    253.85373 
    7300    115.46843   -1247.4776    91190.567   -21734.447    1731.2729   -23465.719    24.662414    255.86176 
    7350    112.32425   -1237.1737    91187.013   -21785.637    1684.1308   -23469.767     24.70546    248.89471 
    7400    108.65707   -1212.2706    91248.089   -21805.979     1629.147   -23435.126    24.793706    240.76874 
    7450      112.685   -1140.8397    91225.762   -21806.408    1689.5398   -23495.947    24.871368    249.69409 
    7500    112.23668   -872.24928    91259.652   -21776.532    1682.8178   -23459.349    25.143664    248.70065 
    7550    111.77795   -1301.5277    91342.214   -21775.565    1675.9399   -23451.505    25.200588    247.68418 
    7600    109.67304   -1240.2883    91332.996   -21813.951    1644.3799   -23458.331    25.331391    243.01999 
    7650    110.68006   -1458.3148    91330.509   -21819.501    1659.4787   -23478.979    25.441811    245.25141 
    7700    110.85157    -1279.483     91331.17    -21830.14    1662.0502    -23492.19    25.587488    245.63145 
    7750    111.31642    -1301.055    91326.846   -21787.091    1669.0198    -23456.11     25.83262    246.66148 
    7800    114.45451   -1541.0395     91314.39   -21757.631    1716.0707   -23473.701    25.832017    253.61505 
    7850    111.72098   -1178.1368    91331.132   -21768.195    1675.0857    -23443.28    26.093011    247.55794 
    7900    111.56671    -1402.255     91411.74   -21793.206    1672.7726   -23465.979    26.340773     247.2161 
    7950    111.58816   -1360.0363    91360.625   -21753.116    1673.0942    -23426.21    26.521772    247.26363 
    8000    113.12266   -1013.0623    91336.772   -21720.008    1696.1017    -23416.11    26.482066    250.66387 
    8050    111.22545   -1444.5716    91302.079   -21734.032     1667.656   -23401.688    26.678308    246.45993 
    8100    111.29844   -1262.1615    91286.015   -21741.055    1668.7503   -23409.805    26.796286    246.62164 
    8150    109.57419   -1289.4492    91123.027    -21768.74    1642.8978   -23411.637    27.144894    242.80095 
    8200    112.24554   -1218.7465    91098.079   -21795.114    1682.9506   -23478.064    27.185872    248.72028 
    8250    110.83804   -1192.1192    91093.988   -21766.218    1661.8473   -23428.066    27.148085    245.60146 
    8300    113.57779   -1096.6399    91121.162   -21751.054    1702.9257   -23453.979    27.384442    251.67237 
    8350    113.32974   -1462.8768    91134.162   -21748.975    1699.2066   -23448.181    27.735998    251.12274 
    8400    113.19766   -1095.3425    91025.175    -21724.18    1697.2263   -23421.406    28.079778    250.83007 
    8450    108.80558   -1256.7035    91002.408   -21762.608    1631.3738   -23393.982     28.30886    241.09784 
    8500    111.69328   -1034.5606     91082.72   -21763.948    1674.6703   -23438.618    28.660802    247.49655 
    8550    110.60798   -1348.6703    91100.246   -21776.117    1658.3979   -23434.515    28.927494    245.09169 
    8600    113.44968   -1564.7215    91105.682   -21793.213    1701.0048   -23494.218    29.156055    251.38849 
    8650    108.79339   -1500.3632    91077.404    -21810.93    1631.1909   -23442.121    29.361769    241.07082 
    8700    111.58889   -1250.7208    91156.955   -21807.755    1673.1052    -23480.86    29.443801    247.26525 
    8750    109.98284   -1524.9705    91217.556   -21804.619    1649.0249   -23453.644    29.641651    243.70647 
    8800    109.71985   -1336.6761    91163.422     -21791.4    1645.0817   -23436.482    29.661962    243.12371 
    8850    113.57209   -1424.3098    91139.185   -21788.621    1702.8402   -23491.461    29.827504    251.65974 
    8900    111.37369   -1271.8539    91146.278   -21780.475    1669.8787   -23450.353    29.944128    246.78841 
    8950    111.74973    -1269.024    91150.423   -21774.592    1675.5168   -23450.109    30.045513    247.62166 
    9000    112.53517   -1361.1415    91146.883   -21776.145    1687.2932   -23463.439    30.175829    249.36208 
    9050    111.85045   -1214.6094    91146.184   -21714.846    1677.0269   -23391.873    30.559901    247.84483 
    9100    113.00812   -1384.2477    91055.376   -21729.501    1694.3844   -23423.885    30.783236    250.41007 
    9150    111.84063   -1079.1184    91015.908   -21735.306    1676.8797   -23412.185    31.034639    247.82308 
    9200    114.29608   -1204.1333    91012.138   -21716.091    1713.6953   -23429.786    31.079444    253.26399 
    9250    110.79568   -1252.6544    91083.521   -21734.058    1661.2121    -23395.27    31.138683     245.5076 
    9300    113.17431   -1084.4301    91142.968   -21722.755    1696.8762   -23419.631      31.3015    250.77833 
    9350    112.68493   -1238.9093    91097.344   -21715.925    1689.5386   -23405.464    31.444862    249.69392 
    9400    114.30279   -1885.7626    91059.082   -21720.691     1713.796   -23434.487    31.564202    253.27887 
    9450    114.43829   -1343.8766    90995.844   -21721.255    1715.8276   -23437.083    31.798063    253.57913 
    9500    110.98413   -1282.0352    90981.577   -21741.647    1664.0377   -23405.685    31.909623    245.92518 
    9550    113.59019   -1208.5905    90946.315   -21713.509    1703.1116    -23416.62    31.995621    251.69984 
    9600    112.89083    -1339.728    90954.412    -21729.23    1692.6258   -23421.856     32.29785    250.15017 
    9650    112.54995    -1266.224    90958.312   -21716.655    1687.5148    -23404.17    32.641476    249.39482 
    9700    113.57753    -1086.438    90960.008   -21678.825    1702.9219   -23381.747    33.022121     251.6718 
    9750     114.3097   -1021.4629    90971.597   -21727.412    1713.8995   -23441.312    33.127089    253.29417 
    9800    112.06725   -1218.7582    90969.778   -21731.028    1680.2774   -23411.306    33.209216    248.32522 
    9850    112.17816   -991.66469     90982.69   -21745.981    1681.9403   -23427.921    33.369869    248.57098 
    9900    112.51159   -1004.1209    91003.176   -21728.282    1686.9397   -23415.222    33.336891    249.30983 
    9950    110.23028   -1578.8507    90995.998   -21726.784    1652.7349   -23379.519    33.540023    244.25477 
   10000    113.12307   -1144.6876    91002.158   -21693.847    1696.1079   -23389.955    33.685744    250.66479 
   10050    114.03612   -1071.7756     91033.38   -21697.348    1709.7976   -23407.146     33.77113    252.68796 
   10100    113.13752   -1258.3406     91080.08   -21651.738    1696.3245   -23348.063     33.97118    250.69679 
   10150    114.06851   -989.88995    91093.447   -21716.359    1710.2834   -23426.643    34.072918    252.75975 
   10200    114.79485   -805.76182    91223.741   -21693.291    1721.1736   -23414.464    34.098263     254.3692 
   10250    111.52797   -1329.3735      91235.2   -21754.261    1672.1918   -23426.453    34.165649    247.13026 
   10300    112.83184   -1429.1568    91188.539   -21735.516    1691.7413   -23427.257    34.206977    250.01945 
   10350    110.14917   -1348.5111     91103.67   -21752.364    1651.5188   -23403.883    34.366876    244.07503 
   10400    111.65253    -1376.167    91055.699   -21748.435    1674.0594   -23422.495    34.335785    247.40628 
   10450    113.39523   -1374.0138    91066.762    -21750.35    1700.1885   -23450.539    34.475395    251.26784 
   10500    109.31252   -1811.4506     91068.74   -21773.691    1638.9746   -23412.665    34.860776    242.22114 
   10550    112.24648   -1191.2791    90928.362   -21787.942    1682.9648   -23470.907    35.056442    248.72238 
   10600    108.57615   -1126.1973    90958.169   -21789.898    1627.9338   -23417.832    35.198174    240.58945 
   10650    110.39132   -1037.4852    91070.561   -21808.831    1655.1495    -23463.98    35.236946    244.61161 
   10700    113.52899   -994.77094     91078.67   -21753.109     1702.194   -23455.303    35.339827    251.56424 
   10750    110.91152   -1423.5031    91058.061   -21770.266    1662.9491   -23433.215    35.388914    245.76429 
   10800    113.41609   -1094.7931    91047.444   -21718.294    1700.5012   -23418.795    35.645133    251.31406 
   10850     115.5929   -1118.9697    90979.265   -21688.526    1733.1392   -23421.666    35.701253    256.13757 
   10900     114.3471    -1290.906    90918.296   -21742.265    1714.4604   -23456.726    35.886636    253.37706 
   10950    111.35201   -1190.0146    90894.471    -21749.39    1669.5536   -23418.944    36.217097    246.74036 
   11000    111.84482   -1437.8651    90891.674   -21739.817    1676.9424    -23416.76    36.176462    247.83235 
   11050    114.54358   -1001.4468    90951.857   -21761.655    1717.4062   -23479.061    36.535235    253.81242 
   11100    110.72381   -1407.6343    90987.239   -21772.023    1660.1347   -23432.158    36.657232    245.34836 
   11150    114.04138    -1065.419    91060.224    -21753.47    1709.8766   -23463.347    36.707074    252.69963 
   11200    111.28379   -1024.6568    91072.428   -21767.277    1668.5307   -23435.808    36.847968    246.58919 
   11250    112.61061   -1494.0085    91104.823   -21743.946    1688.4243    -23432.37    36.850101    249.52923 
   11300    110.83526   -1262.5534    91084.617   -21734.316    1661.8057   -23396.122    36.798038    245.59531 
   11350    112.18007   -1268.2407    91146.181   -21751.291    1681.9691    -23433.26     36.84074    248.57523 
   11400    113.19157   -1415.5143    91159.812   -21732.608    1697.1349   -23429.743    36.909396    250.81656 
   11450    114.25926   -1307.6321    91246.217   -21719.298    1713.1433   -23432.441    37.279192    253.18241 
   11500    113.46818   -1099.7804    91268.621   -21712.785    1701.2822   -23414.067    37.464016    251.42949 
   11550    113.68872   -1204.2006    91292.555   -21683.659     1704.589   -23388.248    37.724502    251.91818 
   11600    115.54603   -1056.0904    91304.621   -21724.739    1732.4364   -23457.175    37.802237    256.03371 
   11650    113.95325    -1159.651    91326.278   -21716.734    1708.5552   -23425.289    38.035424    252.50434 
   11700    111.63943   -1120.5969    91273.593   -21690.417     1673.863    -23364.28      38.3068    247.37725 
   11750    116.68664   -1169.7916    91205.099    -21654.56    1749.5381   -23404.098    38.668148    258.56114 
   11800    113.95403   -1567.0243    91208.188   -21609.699    1708.5669   -23318.266    39.231246    252.50607 
   11850    113.01047   -1355.5738    91174.306   -21643.973    1694.4196   -23338.393    39.402681    250.41527 
   11900    115.64476   -1587.1739    91169.537   -21660.213    1733.9167    -23394.13    39.446791    256.25248 
   11950    114.40385   -1451.8447    91078.387   -21646.711    1715.3112   -23362.022    39.471136     253.5028 
   12000    113.29855   -1149.7264    90981.869   -21681.049    1698.7389   -23379.788    39.792184    251.05361 
   12050    114.05133   -1166.9246     90989.73   -21719.365    1710.0257   -23429.391     40.07226    252.72167 
   12100    114.19809    -1219.208    91024.871   -21709.286    1712.2262   -23421.512    40.071376    253.04687 
   12150    116.26309   -1180.9016    91069.348   -21698.402    1743.1877    -23441.59    40.167291    257.62262 
   12200    112.32862   -1128.0773    91032.677   -21687.402    1684.1962   -23371.598    40.365975    248.90438 
   12250    112.50988   -942.35665    91006.808   -21699.076     1686.914    -23385.99    40.353764    249.30602 
   12300    112.71161    -863.4938     91088.43   -21709.671    1689.9387    -23399.61    40.379628    249.75305 
   12350    115.46211   -891.90312    91123.726   -21709.462    1731.1783    -23440.64    40.532115    255.84777 
   12400    114.27887   -1419.7375    91100.955   -21701.288    1713.4373   -23414.725    40.690455    253.22586 
   12450    113.46774   -1066.8875    91095.822    -21687.79    1701.2757   -23389.066    40.820061    251.42852 
   12500    111.22747   -1139.1308    91078.495   -21716.875    1667.6863   -23384.562    40.974553     246.4644 
   12550    112.05651    -1047.678    91176.275   -21777.982    1680.1164   -23458.098    41.255613    248.30143 
   12600    112.25734   -1238.2053    91250.894   -21757.263    1683.1275   -23440.391    41.273935    248.74644 
   12650     112.0241   -1582.3786    91155.956   -21723.708    1679.6305   -23403.338    41.365001    248.22961 
   12700    113.81755   -1253.1395    91103.726   -21754.003    1706.5205   -23460.523    41.252924    252.20364 
   12750    113.41395   -1287.8758    91109.912   -21733.271    1700.4692    -23433.74    41.186896    251.30932 
   12800    110.98665   -1151.0981    91120.601   -21734.523    1664.0755   -23398.599    41.296492    245.93077 
   12850    111.49223    -1144.127    91234.466   -21730.032     1671.656   -23401.688    41.702999    247.05108 
   12900    113.17868   -1175.8931    91283.349   -21717.494    1696.9417   -23414.436    41.847816      250.788 
   12950    114.38732   -1456.7059    91282.488   -21763.138    1715.0634   -23478.201    41.882573    253.46618 
   13000    117.09038   -1411.6248    91183.025   -21695.764    1755.5917   -23451.356    41.932729    259.45579 
   13050    113.83141    -1410.521    91153.799    -21702.37    1706.7284   -23409.098    41.961346    252.23437 
   13100    115.95626   -1329.4387    91134.387   -21703.694    1738.5873   -23442.281    41.887346    256.94274 
   13150    113.28706   -1379.5442     91106.66   -21718.763    1698.5666    -23417.33    42.067537    251.02814 
   13200    112.73044   -1226.1923    91085.978   -21715.744     1690.221   -23405.965    42.159842    249.79476 
   13250    112.92435   -1177.7646    91094.361   -21705.813    1693.1284   -23398.941    42.158743    250.22444 
   13300    114.97406   -1309.2172    91081.971   -21715.196    1723.8606   -23439.057     42.24367     254.7663 
   13350    112.26123   -1113.8666    91041.559   -21734.303    1683.1859   -23417.489    42.343527    248.75507 
   13400    112.32316   -1467.6722     90980.79   -21681.143    1684.1144   -23365.257    42.523312    248.89229 
   13450    114.44156   -1304.1979    91006.592   -21654.554    1715.8767   -23370.431    42.688546    253.58637 
   13500     112.6297   -1230.2652    90950.949   -21692.553    1688.7105   -23381.263    42.874841    249.57154 
   13550     114.5913   -1122.5945    90977.356   -21671.262    1718.1217   -23389.384    43.021007    253.91816 
   13600    115.10632   -920.69955    91024.481   -21661.585    1725.8437   -23387.429     43.18909    255.05938 
   13650    113.45245   -1260.2581     90996.68   -21661.497    1701.0465   -23362.544    43.472089    251.39464 
   13700    114.12015   -1130.5282    90992.594   -21681.434    1711.0575   -23392.492    43.878039    252.87416 
   13750    112.07748   -1382.7051     90899.09   -21705.065    1680.4309   -23385.496    43.786478     248.3479 
   13800    112.71226   -1274.6345    90842.542   -21730.815    1689.9485   -23420.763    43.731113    249.75449 
   13850    115.45961   -799.21788    90816.674   -21711.632    1731.1407   -23442.772     43.84757    255.84221 
   13900    114.95047   -1365.5618    90845.979   -21686.618    1723.5069   -23410.125    43.776783    254.71403 
   13950    113.44409   -1288.9742    90870.774   -21706.498     1700.921   -23407.419    43.928083     251.3761 
   14000    113.52791   -1145.5323    90848.144   -21706.571    1702.1778   -23408.748    44.148277    251.56185 
   14050    115.86582   -1011.5827    90839.832   -21667.827    1737.2312   -23405.058    44.136589    256.74231 
   14100    115.65939   -1141.1752    90972.748   -21690.135    1734.1361   -23424.272    44.308496    256.28489 
   14150    113.44112   -1236.1278    91014.526   -21706.256    1700.8766   -23407.132    44.446029    251.36953 
   14200    112.28314   -1046.5556    91052.671   -21690.677    1683.5144   -23374.191    44.545139    248.80361 
   14250    116.22679   -1211.5476    91140.158   -21710.008    1742.6434   -23452.651    44.891963    257.54218 
   14300     114.1202    -1501.424    91132.638   -21696.125    1711.0583   -23407.184    45.100775    252.87427 
   14350    115.91965   -1026.5203    91170.795   -21699.089    1738.0383   -23437.127     45.29337     256.8616 
   14400    117.45128   -1481.8344    91150.816   -21679.828    1761.0027   -23440.831    45.472444    260.25547 
   14450     112.7942   -1206.1685    91101.196   -21703.706     1691.177   -23394.883    45.730936    249.93604 
   14500    114.21475   -1080.8012    91111.794   -21685.746    1712.4759   -23398.222    45.962576    253.08378 
   14550    113.50513   -1171.0778    91084.955   -21682.693    1701.8363   -23384.529    46.185612    251.51136 
   14600    115.32432   -1017.9156     91088.86   -21656.055    1729.1123   -23385.167    46.384882    255.54245 
   14650    112.91304   -1289.5486    91185.413     -21666.9    1692.9588   -23359.859    46.645159    250.19938 
   14700    116.81584   -1181.8141    91229.628    -21717.27    1751.4753   -23468.746    46.734824    258.84742 
   14750     112.1517    -1155.423    91332.798   -21755.803    1681.5436   -23437.346    46.755968    248.51236 
   14800    116.24474   -1285.2349    91299.635   -21717.056    1742.9125   -23459.969    47.065922    257.58195 
   14850     115.4737   -1273.5396    91372.734   -21748.192     1731.352   -23479.544    47.198887    255.87344 
   14900    111.81655   -1342.2471    91339.735   -21797.112    1676.5186   -23473.631     47.15029    247.76971 
   14950    114.42303   -1343.7458    91277.594     -21739.5    1715.5988   -23455.099    47.267451    253.54531 
   15000    115.53575   -980.19053    91367.781   -21748.901    1732.2824   -23481.183    47.310157    256.01094 
   15050    112.50364   -1242.4585    91368.009   -21774.295    1686.8204   -23461.115    47.525327     249.2922 
   15100    111.33178   -948.62552    91397.821   -21778.056    1669.2503   -23447.306    47.505643    246.69554 
   15150    114.02747   -1192.5129    91469.761   -21789.162     1709.668    -23498.83    47.440004    252.66881 
   15200    111.43524   -1464.7653    91414.322   -21807.912    1670.8015   -23478.714    47.802457    246.92479 
   15250    110.62011    -1209.549    91313.741   -21804.777    1658.5797   -23463.356    47.975498    245.11856 
   15300    112.47654   -1144.7896    91269.623    -21799.23    1686.4142   -23485.644    48.149332    249.23216 
   15350    112.28895   -1064.4793    91250.484   -21772.743    1683.6016   -23456.345    48.321016    248.81649 
   15400    114.79931   -1291.3616    91273.945   -21748.094    1721.2406   -23469.334    48.687415    254.37909 
   15450    112.48958   -1499.1409    91226.917    -21772.28    1686.6097   -23458.889    48.794508    249.26105 
   15500    113.63626   -1346.5199    91218.346   -21759.731    1703.8024   -23463.533    48.760657    251.80193 
   15550    112.56743   -1068.3157    91231.116   -21741.842    1687.7769   -23429.619    48.564292    249.43356 
   15600    111.42889   -1172.6038    91317.736   -21735.183    1670.7062   -23405.889    48.601907    246.91071 
   15650    111.09259   -1153.4735    91305.578    -21735.71     1665.664   -23401.374    48.816067    246.16552 
   15700    112.06192   -1539.8024    91269.129   -21764.765    1680.1975   -23444.962    49.003452    248.31341 
   15750    112.57225   -1294.0079    91281.579   -21751.954    1687.8491   -23439.803     48.91453    249.44423 
   15800    109.96585   -1331.4306    91287.647   -21782.278    1648.7701   -23431.048    49.051744    243.66882 
   15850    112.42823   -1449.0012    91337.326   -21768.996    1685.6898   -23454.685     49.09121     249.1251 
   15900     112.4181   -1227.6189    91289.276   -21742.282     1685.538    -23427.82    49.354305    249.10267 
   15950    108.24839   -1487.3244    91269.903   -21742.398    1623.0196   -23365.418     49.64512    239.86318 
   16000    110.99415   -1341.3582    91206.383   -21716.605    1664.1879   -23380.793    49.795827    245.94738 
   16050    111.49878   -1326.3205    91126.747   -21700.928    1671.7542   -23372.682    49.737004    247.06559 
   16100    110.10178   -1348.0909    91084.164   -21713.544    1650.8083   -23364.352    50.239454    243.97003 
   16150    110.17621   -1412.0393      91033.5   -21722.931    1651.9242   -23374.855    50.572393    244.13495 
   16200    110.95708   -1071.8238    91051.496   -21686.036    1663.6321   -23349.668    50.813031    245.86524 
   16250    111.13727   -1585.3093    91082.148   -21681.236    1666.3338    -23347.57    51.376651    246.26452 
   16300    114.12102    -1400.606    91150.953   -21627.694    1711.0707   -23338.765    51.742401     252.8761 
   16350    110.49123    -1523.581    91215.511   -21639.326    1656.6475   -23295.973    52.122485    244.83299 
   16400     114.4991   -1675.2102    91147.373   -21639.773    1716.7393   -23356.513     52.13252    253.71386 
   16450    115.12211    -1512.822    91152.896   -21588.049    1726.0804   -23314.129    52.115271    255.09436 
   16500    113.27809   -1301.3577      91095.1   -21609.628    1698.4322    -23308.06    51.974699    251.00829 
   16550    113.54631   -1243.0296    91102.593   -21617.485    1702.4537   -23319.939    51.916539    251.60261 
   16600    112.87753   -1381.8218    91150.584   -21592.138    1692.4263   -23284.564    51.954844    250.12069 
   16650    113.09267   -1674.1584    91095.974   -21614.599    1695.6521   -23310.251    52.353409    250.59741 
   16700    112.96393   -1308.0234    91138.751   -21614.743    1693.7217   -23308.465    52.586674    250.31213 
   16750    116.18384   -1283.7781    91161.817   -21608.668    1741.9994   -23350.667    52.931689      257.447 
   16800    112.44472   -1167.7746    91200.591   -21650.294    1685.9371   -23336.231    53.335753    249.16165 
   16850    111.43591   -1394.0803    91233.147   -21658.569    1670.8114    -23329.38    53.651819    246.92626 
   16900    110.99488   -1302.8391    91249.774   -21627.722    1664.1989   -23291.921    53.855757    245.94901 
   16950    112.51823   -1243.4715    91208.203   -21613.631    1687.0392    -23300.67    53.912297    249.32454 
   17000    114.27972   -1234.8185    91085.865   -21624.483      1713.45   -23337.933    54.338335    253.22774 
   17050    113.19745   -1232.0491    91135.974   -21630.027     1697.223    -23327.25    54.508389    250.82958 
   17100    113.75477   -1288.6379    91155.296   -21634.815    1705.5793   -23340.394     54.67689    252.06454 
   17150    113.78529   -1141.6746    91178.622   -21654.059    1706.0368   -23360.096    54.525033    252.13215 
   17200    109.32094   -1149.4846    91328.607   -21654.824    1639.1007   -23293.924    54.921564    242.23979 
   17250    111.79431   -1414.5169    91395.357   -21667.664    1676.1851   -23343.849    55.058809    247.72042 
   17300    113.31307   -1181.3042    91305.662   -21646.071    1698.9566   -23345.027    55.075387    251.08579 
   17350    112.64068   -1605.1387    91225.873    -21637.66    1688.8751   -23326.535     55.03642    249.59586 
   17400    112.51679   -1142.5765    91257.105   -21610.785    1687.0177   -23297.803    55.538021    249.32136 
   17450    114.85147   -1008.7539    91337.255   -21635.603    1722.0226   -23357.626    55.479881    254.49466 
   17500     112.6947    -1455.079    91412.229   -21650.243    1689.6851   -23339.928     55.50034    249.71556 
   17550    112.03464    -1343.737     91439.47   -21644.575    1679.7885   -23324.363    55.872059    248.25296 
   17600     113.4971   -1299.1701    91428.618   -21610.169    1701.7159   -23311.885    55.957811    251.49358 
   17650    115.54039   -1506.9949    91389.856   -21626.063    1732.3518   -23358.414     56.02772    256.02121 
   17700    113.32473   -1217.3193    91353.486   -21624.834    1699.1314   -23323.965    56.128273    251.11162 
   17750    115.48598   -1075.9174    91432.009   -21627.072    1731.5361   -23358.608    56.035276    255.90065 
   17800    112.19017   -1466.9257    91417.463   -21642.072    1682.1205   -23324.193     56.08082    248.59761 
   17850     113.1623   -1458.6832    91373.586   -21664.712    1696.6961   -23361.408    56.062524    250.75171 
   17900    112.27859   -1572.6546    91280.155   -21685.437    1683.4462   -23368.883    56.243573    248.79353 
   17950     111.0092   -1160.5358    91238.857   -21702.835    1664.4137   -23367.248    56.269336    245.98075 
   18000    113.80288    -1490.071    91268.922   -21675.352    1706.3007   -23381.653     56.49546    252.17115 
   18050    112.92028   -1656.1666    91206.191   -21659.375    1693.0673   -23352.443    56.754106    250.21542 
   18100    115.30291   -1186.5303    91275.645   -21612.717    1728.7912   -23341.508    56.913572    255.49498 
   18150    116.22586    -1048.729    91357.709    -21588.79    1742.6294    -23331.42    57.146769    257.54011 
   18200    115.07332   -1065.5839    91428.738   -21597.267    1725.3489   -23322.616     57.30482    254.98625 
   18250    114.93105   -1186.7714    91449.952   -21616.638    1723.2158   -23339.854    57.570766    254.67101 
   18300    114.33249   -1018.6528    91459.002   -21601.573    1714.2413   -23315.814    57.720614    253.34469 
   18350    116.29038   -1255.2848    91525.685   -21642.983    1743.5968    -23386.58    57.827672    257.68308 
   18400    112.29622   -1469.9718    91472.249   -21670.563    1683.7105   -23354.274    57.900185     248.8326 
   18450    113.85238   -1383.0464    91456.046   -21653.139    1707.0427   -23360.182    58.112063    252.28082 
   18500    111.75373   -1372.9434    91444.175   -21669.621    1675.5767   -23345.198     58.22216    247.63051 
   18550    112.21963   -1296.3242    91402.032   -21714.918    1682.5622    -23397.48    58.462288    248.66288 
   18600    109.05196   -1406.8629    91332.236   -21759.573    1635.0678    -23394.64    58.419665    241.64377 
   18650    113.10646   -1357.1384    91272.711    -21772.38    1695.8589   -23468.239    58.628776    250.62798 
   18700    110.15795    -1292.563    91300.478   -21793.973    1651.6504   -23445.623    58.921211    244.09449 
   18750    112.00405   -1459.4432    91317.675   -21766.893    1679.3298   -23446.223    59.006551    248.18518 
   18800    113.76571   -1586.6043    91365.127   -21704.374    1705.7433   -23410.118    58.977362    252.08878 
   18850     109.4167   -1005.9106     91344.16   -21756.504    1640.5365    -23397.04    58.979037    242.45199 
   18900    110.41254   -1716.9681    91286.456   -21748.694    1655.4675   -23404.161     59.08612    244.65861 
   18950    111.50329   -1594.8877     91199.67   -21742.322    1671.8218   -23414.144    59.146105    247.07558 
   19000    112.47755   -1645.6579    91180.505   -21713.338    1686.4293   -23399.767    59.273665     249.2344 
   19050    111.22461   -1326.8523    91149.663   -21723.699    1667.6434   -23391.342    59.302541    246.45806 
   19100    111.81772   -1388.0857    91125.369    -21734.91    1676.5361   -23411.446     59.52632     247.7723 
   19150    110.61284   -1590.4002    91128.424   -21743.849    1658.4708   -23402.319     59.70983    245.10245 
   19200    112.55732   -1216.4738    91120.212   -21726.002    1687.6253   -23413.627    59.678592    249.41115 
   19250    115.72764    -1373.035    91132.906   -21721.492    1735.1594   -23456.652    60.018468    256.43613 
   19300    113.02217   -1400.2411    91081.628   -21729.921    1694.5951   -23424.516    60.106755    250.44121 
   19350    111.96502   -1319.1694    91077.675   -21665.512    1678.7447   -23344.257    60.112191     248.0987 
   19400    114.20869   -1482.9767    91129.119   -21689.928     1712.385   -23402.313    60.226432    253.07035 
   19450    111.52863   -1195.3519    91117.621    -21715.64    1672.2017   -23387.842    60.202536    247.13173 
   19500    114.03423   -1030.0861    91139.083    -21712.58    1709.7694    -23422.35    60.401404    252.68378 
   19550    112.59757   -1235.8708    91122.599   -21719.121    1688.2287   -23407.349    60.668307    249.50033 
   19600    114.09732   -1442.4277    91076.753   -21718.238    1710.7153   -23428.954    60.810552    252.82358 
   19650    114.08631   -1159.6787    91083.751   -21689.597    1710.5502   -23400.148    60.969925    252.79918 
   19700    112.41539   -1121.2222    91066.958   -21706.264    1685.4973   -23391.761    61.124955    249.09665 
   19750    112.16536   -1098.5753    91061.773   -21721.287    1681.7485   -23403.036    61.292118    248.54263 
   19800     113.5058   -1156.4455    91143.077   -21719.567    1701.8463   -23421.413     61.68732    251.51286 
   19850    110.99651   -1034.4402    91219.735   -21718.119    1664.2234   -23382.342    62.052939    245.95262 
   19900    110.82145     -1308.24    91260.809   -21727.389    1661.5986   -23388.988    62.244006    245.56472 
   19950    112.69877   -1125.4924    91227.826   -21699.558    1689.7462   -23389.304    62.430687    249.72459 
   20000    111.08821   -1096.3936    91199.137   -21721.927    1665.5983   -23387.525    62.679567    246.15581 
   20050    113.89593   -1037.2136    91194.466    -21714.36    1707.6958   -23422.056    62.625221    252.37733 
   20100    109.07251   -1228.0608    91210.499   -21667.676    1635.3759   -23303.051    63.078234    241.68931 
   20150    111.99318   -1221.5258    91216.265   -21684.248    1679.1668   -23363.415    62.862377    248.16109 
   20200    114.71577    -1110.172    91221.183   -21662.068     1719.988   -23382.056    62.768746    254.19397 
   20250    115.32774   -1473.3642    91202.933   -21641.631    1729.1636   -23370.795    62.882478    255.55003 
   20300    110.74478    -1117.964    91161.559   -21664.696     1660.449   -23325.145    63.181105    245.39482 
   20350    110.45002    -1492.798      91214.9   -21692.677    1656.0295   -23348.707    63.442691    244.74167 
   20400    112.90994   -1642.8981    91192.414   -21705.707    1692.9123   -23398.619    63.609673    250.19251 
   20450    114.65581   -1413.3548    91136.486   -21665.946    1719.0889   -23385.035    63.632258    254.06111 
   20500    116.22896   -1535.1681     91097.52   -21640.172    1742.6759   -23382.848    63.691939    257.54699 
   20550    114.00887   -1372.4202    90978.893   -21681.463    1709.3892   -23390.853    63.994325    252.62759 
   20600    111.19101   -1190.8987    91001.037   -21693.478    1667.1396   -23360.618    64.402294     246.3836 
   20650     111.9424   -1191.5918    91045.694   -21692.059    1678.4055   -23370.465    64.601189    248.04857 
   20700     112.0371    -1412.985    90984.081   -21699.025    1679.8255    -23378.85    64.615216    248.25843 
   20750     113.7049   -1511.1328    91000.356   -21683.689    1704.8316   -23388.521    64.684509    251.95404 
   20800    116.74362   -958.80851     91031.52    -21631.98    1750.3925   -23382.372    64.830292     258.6874 
   20850    112.12255   -1532.4263    91085.152   -21678.945    1681.1066   -23360.052    65.023308    248.44777 
   20900    115.86244   -1370.2775    91124.416   -21674.221    1737.1805   -23411.401    64.816937    256.73483 
   20950    110.64785   -1240.3866    91184.938   -21702.451    1658.9957   -23361.446    64.890891    245.18003 
   21000    112.95684   -1215.7183    91259.687   -21666.447    1693.6155   -23360.063    65.030616    250.29643 
   21050    112.51791   -1086.5561    91289.474   -21653.236    1687.0344   -23340.271    65.226655    249.32383 
   21100    116.26042   -1403.4063    91288.156   -21666.157    1743.1476   -23409.304    65.581877    257.61669 
   21150    112.44548   -1409.6585    91219.804   -21668.938    1685.9484   -23354.887    65.751912    249.16333 
   21200    111.46401   -1350.4562    91098.318   -21710.901    1671.2328   -23382.134    66.267976    246.98853 
   21250     111.5444   -1614.6801    91027.832   -21723.259    1672.4382   -23395.697    66.207713    247.16667 
   21300    114.39699   -1450.1493     90952.06   -21706.435    1715.2083   -23421.644    66.594724    253.48759 
   21350    112.49687   -1347.3626    90941.401   -21666.621    1686.7189    -23353.34     66.75662     249.2772 
   21400    111.58508   -1337.8304    90971.451   -21702.218     1673.048   -23375.266    67.307763     247.2568 
   21450     115.4716   -1397.0571    90916.958   -21663.903    1731.3204   -23395.224    67.519987    255.86878 
   21500    112.03792   -1515.0213    90913.036   -21686.799    1679.8378   -23366.637    67.528579    248.26025 
   21550    115.37777   -1492.0028    90978.386    -21697.88    1729.9137   -23427.793    67.375383    255.66088 
   21600    109.16896    -1599.072    90910.027   -21742.547    1636.8221   -23379.369    67.421321    241.90304 
   21650    112.14732   -1283.5318    90816.109   -21733.903     1681.478   -23415.381    67.343287    248.50265 
   21700    111.04232   -1205.2979     90765.95   -21754.356    1664.9102   -23419.266    67.609066    246.05412 
   21750    109.59671   -1464.3385    90753.449   -21757.178    1643.2355   -23400.413    68.109599    242.85086 
   21800    112.87713   -1325.1073    90783.422   -21727.005    1692.4203   -23419.425    68.080046     250.1198 
   21850    109.13262   -1355.3675    90802.508    -21759.72    1636.2772   -23395.997    68.363716    241.82251 
   21900    112.71728      -1244.3    90841.239   -21769.659    1690.0237   -23459.683    68.547535     249.7656 
   21950     107.7379   -1491.0816    90854.886   -21817.439    1615.3655   -23432.805    68.505758    238.73201 
   22000     107.4722   -1059.0473    90819.321   -21827.488    1611.3816    -23438.87    68.634058    238.14324 
   22050    111.07984    -1532.732    90802.999   -21828.335    1665.4727   -23493.808    68.685177    246.13726 
   22100    110.08205    -1328.762    90784.941   -21829.429    1650.5124   -23479.942    68.681208     243.9263 
   22150    108.70816   -1408.8069    90741.409    -21833.97     1629.913   -23463.883    69.047837    240.88195 
   22200     110.4738   -1342.2582    90702.295   -21816.967    1656.3862   -23473.353    69.290028    244.79438 
   22250    108.36596   -1087.2904    90704.364    -21729.04    1624.7822   -23353.822    69.433768    240.12368 
   22300    109.34211   -1345.6652    90777.468   -21785.012    1639.4181    -23424.43    69.380054     242.2867 
   22350    112.98847    -1396.425    90761.085   -21757.091    1694.0898   -23451.181    69.433897    250.36652 
   22400    111.50279   -1329.7099    90814.807   -21748.791    1671.8142   -23420.605    69.624518    247.07446 
   22450    110.13336   -1189.9623    90852.456   -21746.076    1651.2817   -23397.358    69.755607       244.04 
   22500     113.6896    -1171.693     90902.86   -21733.543    1704.6021   -23438.145    69.946689    251.92012 
   22550    112.49881   -1304.9065    90915.794   -21762.198    1686.7481   -23448.946    70.273934    249.28151 
   22600    114.59449   -1405.6913    90950.756   -21767.901    1718.1696   -23486.071    70.533304    253.92524 
   22650    111.97232   -1278.3158    90972.716   -21763.126    1678.8541    -23441.98    70.556926    248.11487 
   22700    111.50008   -1158.8457    91056.486   -21754.916    1671.7737   -23426.689    70.582872    247.06847 
   22750    115.34742   -1202.8228    91055.173   -21683.918    1729.4586   -23413.376     70.26114    255.59363 
   22800    114.43289    -1205.482    91060.693   -21626.685    1715.7466   -23342.431    70.127255    253.56715 
   22850    113.54307   -1342.7221    91081.432   -21675.579    1702.4052   -23377.984    70.204176    251.59544 
   22900    109.93872   -1373.3429     91012.69   -21718.653    1648.3634   -23367.017    70.240454    243.60871 
   22950    114.25331   -1285.3482    90983.202   -21647.258     1713.054   -23360.312    70.599539    253.16922 
   23000    111.54076   -1264.1036    90912.668    -21640.92    1672.3835   -23313.303    71.021616     247.1586 
   23050    114.28493   -1457.9994    90904.017   -21647.575    1713.5282   -23361.103     71.42953    253.23929 
   23100    111.08909   -1158.9956    90897.211   -21665.321    1665.6115   -23330.933    71.647609    246.15776 
   23150    111.90291   -1185.8823    90899.419    -21717.43    1677.8134   -23395.244    71.656696    247.96107 
   23200    113.18126   -1459.9934    90922.557   -21749.307    1696.9803   -23446.287    71.934486    250.79372 
   23250    109.80154   -1334.0467    90864.927   -21764.827    1646.3066   -23411.134     72.15019    243.30473 
   23300     110.2042   -1260.6985    90824.545   -21803.815    1652.3439   -23456.159     72.06576    244.19698 
   23350    111.99948   -1240.3608    90740.627   -21790.692    1679.2614   -23469.953    72.074443    248.17507 
   23400    109.50376   -1374.0587    90770.819   -21748.027    1641.8419   -23389.869    71.954593     242.6449 
   23450    113.71832   -1444.4903    90781.652   -21672.571    1705.0327   -23377.604    72.225648    251.98376 
   23500    111.10108   -1283.1314     90747.59   -21674.676    1665.7912   -23340.467    72.490588    246.18433 
   23550    110.70337   -1625.4708    90681.509   -21699.212    1659.8282   -23359.041    72.780552    245.30307 
   23600    111.35293   -1273.1663    90702.144   -21670.746    1669.5673   -23340.313    73.056633    246.74239 
   23650    111.42564   -1228.7956    90689.047   -21688.769    1670.6574   -23359.427      73.0153     246.9035 
   23700    109.05492   -1205.9943    90731.732   -21721.377    1635.1122   -23356.489    73.357635    241.65033 
   23750    110.66354   -978.07562    90779.916   -21735.262     1659.231   -23394.493    73.641032    245.21481 
   23800    116.05962   -1075.9418    90815.599   -21677.932    1740.1369   -23418.069     73.65103    257.17175 
   23850    115.29164   -1203.2005    90837.301   -21674.498    1728.6223    -23403.12    74.230218    255.47002 
   23900    114.00974   -1451.5731    90842.206   -21692.301    1709.4021   -23401.703    74.589494    252.62951 
   23950    113.42405   -1258.9617    90821.623   -21702.885    1700.6206   -23403.506    74.726307     251.3317 
   24000    114.60943   -1170.6918    90869.518   -21692.087    1718.3936    -23410.48    74.666898    253.95835 
   24050    111.85331   -1435.0758    90829.765   -21695.164    1677.0697   -23372.234    74.741815    247.85116 
   24100    114.26507   -1318.3292    90820.764   -21699.119    1713.2304    -23412.35     74.74868    253.19528 
   24150     115.2946   -1279.4813    90806.527   -21684.995    1728.6666   -23413.662     74.90478    255.47658 
   24200    109.98796   -1644.3769    90745.899   -21739.474    1649.1016   -23388.576    74.757268    243.71781 
   24250    110.85754   -1267.0722    90760.523   -21729.998    1662.1396   -23392.138    75.176792    245.64467 
   24300     109.9204   -1339.3925    90782.856     -21747.7    1648.0887   -23395.789      75.3823    243.56811 
   24350    112.17868   -1418.0934    90803.065   -21763.553    1681.9482   -23445.502    75.453152    248.57215 
   24400    109.35457   -1394.4651    90753.653   -21765.462     1639.605   -23405.067    75.746326    242.31432 
   24450     111.5906   -1571.9934    90807.784    -21727.96    1673.1308   -23401.091     76.05766    247.26903 
   24500    108.90774   -1093.4684    90855.752   -21704.745    1632.9054   -23337.651     76.43044     241.3242 
   24550    110.00386   -1514.7502    90833.585   -21724.859    1649.3401   -23374.199    76.578912    243.75305 
   24600    112.94279    -1268.272    90804.325   -21718.397    1693.4049   -23411.802    76.645503    250.26531 
   24650    109.37284   -1228.9996    90822.651   -21695.814    1639.8789   -23335.693    76.959953    242.35479 
   24700    113.55214   -1207.8823    90858.187   -21648.692    1702.5412   -23351.233    77.164859    251.61554 
   24750    113.69848   -893.94694    90898.851   -21596.533    1704.7352   -23301.268     77.56876     251.9398 
   24800    115.96911   -1316.0653    90903.055   -21653.199    1738.7798   -23391.979    77.789896    256.97119 
   24850    115.57926   -1179.3118    90869.151   -21637.574    1732.9347   -23370.509    77.866351    256.10735 
   24900    116.34266   -991.08048    90961.649   -21642.655    1744.3807   -23387.036     77.97324    257.79893 
   24950     115.5782   -1247.0577    91040.129   -21590.877    1732.9188   -23323.796    78.028954      256.105 
   25000    114.63425   -1137.2467    91141.454   -21597.999    1718.7657   -23316.765    78.118476    254.01333 
   25050    113.14738   -1508.4726    91162.416   -21613.925    1696.4724   -23310.398    78.298485    250.71864 
   25100    113.11509   -1529.1578    91097.791   -21607.668    1695.9882   -23303.657    78.591511    250.64708 
   25150     115.3968   -1275.0709    91151.688   -21651.843    1730.1989   -23382.042     78.63931    255.70303 
   25200    114.68903   -911.89503    91209.628   -21672.008    1719.5871   -23391.595    78.909442    254.13473 
   25250    113.30799   -1397.9692    91247.493   -21679.864    1698.8805   -23378.745    79.140465    251.07454 
   25300    112.67204   -1263.7212    91265.987   -21656.505    1689.3453    -23345.85    78.926666    249.66535 
   25350    117.07958   -1457.7627    91216.966   -21673.556    1755.4297   -23428.986    78.694494    259.43185 
   25400     116.8654    -1326.791    91194.232   -21670.012    1752.2184   -23422.231    78.342881    258.95725 
   25450    114.31755    -1109.461    91170.125   -21712.249    1714.0173   -23426.266    78.722727    253.31158 
   25500    114.56125   -1400.7557    91221.498   -21723.044    1717.6711   -23440.715    78.898218    253.85157 
   25550    111.94615   -1173.8194     91186.28   -21715.035    1678.4617   -23393.496    78.906683    248.05689 
   25600    115.48659   -1528.9103    91171.391   -21655.301    1731.5453   -23386.846    79.129363    255.90201 
   25650    112.17933   -1060.1633    91125.999    -21703.66     1681.958   -23385.618    79.319947    248.57358 
   25700    114.03058   -1163.4626     91179.29   -21741.872    1709.7146   -23451.587    79.556054    252.67569 
   25750    112.66468   -1215.5965    91207.751   -21773.366    1689.2351   -23462.601    79.634755    249.64906 
   25800    116.23206   -1325.2425    91227.313    -21784.92    1742.7224   -23527.642    79.621422    257.55385 
   25850    113.06692    -1288.316    91200.184   -21781.295    1695.2659   -23476.561    79.482902    250.54034 
   25900    110.99604    -1139.527    91202.924   -21791.926    1664.2164   -23456.142    79.589475    245.95159 
   25950    113.11987   -892.82251    91272.472   -21758.393    1696.0599   -23454.453    79.902039    250.65769 
   26000    114.25174   -1107.1873    91274.953   -21700.789    1713.0306    -23413.82    80.071595    253.16576 
   26050    114.23238   -1102.8503    91357.485   -21710.342    1712.7403   -23423.083    80.347613    253.12285 
   26100    113.10275   -1145.6369    91402.603   -21717.759    1695.8033   -23413.562    80.724435    250.61976 
   26150    113.77004   -1128.1821    91436.804   -21754.143    1705.8082   -23459.951     80.92523    252.09837 
   26200    112.17187   -1336.6186    91450.631   -21751.289    1681.8461   -23433.135    81.049213    248.55706 
   26250    111.19179    -1222.743    91472.366   -21762.615    1667.1512   -23429.767    81.190963    246.38533 
   26300    114.01579   -1351.6244    91455.189    -21737.61    1709.4929   -23447.103     81.47559    252.64292 
   26350    112.64888   -1447.3786    91440.426   -21746.399    1688.9982   -23435.397    81.630637    249.61404 
   26400    112.75166   -1093.2293    91423.412   -21793.716    1690.5392   -23484.256    81.822551    249.84179 
   26450    111.79661    -1396.589    91445.344   -21812.429    1676.2196   -23488.649    81.841463    247.72552 
   26500    113.06538   -1374.0631    91434.197   -21769.791    1695.2429   -23465.034    81.691758    250.53694 
   26550    115.41077   -1485.1626    91468.392   -21749.949    1730.4085   -23480.358    81.830722    255.73401 
   26600      116.758   -1248.3277     91459.99   -21728.312    1750.6081    -23478.92    81.628586    258.71926 
   26650    117.97626   -1417.4196    91495.892   -21667.437     1768.874   -23436.311    81.839279    261.41875 
   26700    118.49275   -1268.9303    91512.689   -21725.398     1776.618   -23502.016    82.014462    262.56322 
   26750    112.01605    -1821.509    91487.848   -21835.629    1679.5098   -23515.139    81.906992    248.21177 
   26800    112.31319    -1270.106    91324.121   -21818.316    1683.9649   -23502.281    81.989173     248.8702 
   26850    113.08755    -1304.832    91361.364   -21779.645    1695.5752    -23475.22    82.075675    250.58606 
   26900    115.66123   -1243.4897    91392.465   -21740.717    1734.1638   -23474.881    82.289016    256.28899 
   26950    114.03524   -1347.0108    91459.341    -21733.35    1709.7845   -23443.135    82.313809    252.68602 
   27000    115.33539   -1463.8684    91432.019   -21736.906    1729.2783   -23466.184    82.131462    255.56697 
   27050    111.51495    -1400.761    91424.921   -21704.319    1671.9966   -23376.316    82.246554    247.10141 
   27100    113.96381   -1399.3182    91475.216   -21692.277    1708.7136    -23400.99    82.377214    252.52775 
   27150    113.64827   -1260.6212     91438.01   -21716.676    1703.9824   -23420.659    82.507338    251.82854 
   27200     114.7318   -1350.7194    91463.211   -21703.995    1720.2283   -23424.223    82.501392    254.22949 
   27250    113.26393   -1456.9353    91326.384   -21735.758    1698.2199   -23433.978    82.849274    250.97691 
   27300    111.21164   -1356.5552    91370.435   -21764.985    1667.4489   -23432.434     83.01453    246.42932 
   27350    111.96145   -1377.9878    91391.596    -21793.96    1678.6912   -23472.652     82.77691     248.0908 
   27400    113.76249    -1712.901    91270.866    -21798.45    1705.6949   -23504.145     82.49048    252.08163 
   27450    115.27075   -1679.4863    91229.078   -21773.274     1728.309   -23501.583    82.776521    255.42373 
   27500    111.16363   -1435.4098    91129.969   -21751.151     1666.729    -23417.88    82.620997    246.32293 
   27550    114.73723   -1324.0156    91090.516   -21730.846    1720.3098   -23451.156    82.647157    254.24153 
   27600    113.50685   -1421.0203    91124.997   -21744.613     1701.862   -23446.475    82.668878    251.51517 
   27650    111.70146      -1372.1    91108.983   -21741.662     1674.793   -23416.455    82.577925    247.51469 
   27700    111.66427   -1241.7292    91162.842   -21739.231    1674.2354   -23413.466       82.755    247.43228 
   27750    115.52692   -1423.8349    91143.899   -21714.041      1732.15   -23446.191     82.95386    255.99138 
   27800    116.91254   -1281.9783     91077.94   -21693.927    1752.9251   -23446.852    83.134706     259.0617 
   27850    109.70251   -1430.9764    91074.384   -21720.455    1644.8219   -23365.277    83.691344    243.08531 
   27900    113.78305    -1371.088    91085.634    -21698.63    1706.0033   -23404.633     83.75703     252.1272 
   27950    116.47913   -1248.0575    91014.339   -21660.347    1746.4268   -23406.774    83.989551    258.10133 
   28000    116.36837   -1235.9451    90983.384   -21652.942    1744.7663   -23397.708    83.966514    257.85591 
   28050    116.53531   -1051.3756    91015.098   -21684.412    1747.2692   -23431.681    84.268727    258.22583 
   28100    110.79716   -1251.9538    91099.376   -21715.754    1661.2345   -23376.988    84.461581     245.5109 
   28150    111.78298   -1272.6378    91099.378   -21695.241    1676.0153   -23371.256    84.209607    247.69534 
   28200    111.84504   -1266.7432    91116.915   -21690.028    1676.9458   -23366.974    83.962205    247.83285 
   28250    116.12937   -1554.7499    91123.631   -21670.476    1741.1827   -23411.659    84.000716    257.32631 
   28300    114.39141   -1179.5992    91109.483   -21691.923    1715.1247   -23407.048    84.252163    253.47524 
   28350       115.77   -1218.6879    91125.973   -21703.303    1735.7945   -23439.097    84.596273       256.53 
   28400    112.50952     -1362.53    91089.385   -21719.957    1686.9086   -23406.866    84.768245    249.30523 
   28450    110.29874   -1010.4546    91083.739   -21738.403    1653.7613   -23392.164    85.197755    244.40646 
   28500     112.3939   -1266.4214    91118.802   -21701.233    1685.1751   -23386.408    85.491312    249.04904 
   28550    111.41522   -1136.7932    91094.923   -21700.005    1670.5012   -23370.506    85.379384    246.88041 
   28600    113.39119   -1366.7745    91012.594   -21730.265    1700.1279   -23430.393     85.44719    251.25888 
   28650    108.98037   -1464.9419    90955.025   -21773.167    1633.9944   -23407.162    85.467173    241.48514 
   28700    110.19681   -1264.2543    90967.113   -21756.752    1652.2331   -23408.985    85.183364     244.1806 
   28750    114.06763   -1136.1379    90981.597   -21733.548    1710.2701   -23443.818    85.491992    252.75778 
   28800     113.6398   -1542.4012    90976.586   -21701.246    1703.8555   -23405.101    85.660945    251.80979 
   28850    111.62548   -1006.4105    90987.798   -21682.592    1673.6539   -23356.246    85.795698    247.34634 
   28900    112.83377    -1119.852    91073.993   -21649.064    1691.7703   -23340.834    85.953377    250.02374 
   28950    113.25741   -1136.6398    91051.552   -21686.599    1698.1221   -23384.721     86.25866    250.96245 
   29000    108.00593    -1107.088    91042.721   -21739.724    1619.3842   -23359.108     86.25324    239.32592 
   29050    112.23303   -1197.7208    91003.119   -21765.402    1682.7631   -23448.165    86.095901    248.69257 
   29100    112.91665   -1015.4467    91055.694   -21706.411     1693.013   -23399.424    86.088463    250.20739 
   29150    112.20994   -1281.7605    91101.967   -21738.307    1682.4168   -23420.724    86.441685     248.6414 
   29200    108.29987   -1502.0663    91062.291   -21778.868    1623.7914   -23402.659     86.48282    239.97725 
   29250    109.88119   -1272.1706    91080.544   -21775.891    1647.5008   -23423.392    86.434137    243.48122 
   29300     111.9276   -1284.6893    91155.833   -21774.096    1678.1836    -23452.28    86.765477    248.01578 
   29350    109.93085   -1369.6687     91141.09   -21762.692    1648.2454   -23410.937    86.829324    243.59127 
   29400    110.52471   -1281.7533    91136.512   -21786.492    1657.1494   -23443.641    86.946885    244.90717 
   29450    111.90082   -1430.0463    91110.006   -21825.257    1677.7821   -23503.039    87.154456    247.95645 
   29500    107.51356   -1341.1563    91113.314   -21852.447    1612.0018   -23464.449    87.420539    238.23489 
   29550    111.42111    -1633.967    91065.956   -21843.389    1670.5896   -23513.979    87.902533    246.89348 
   29600     107.7904   -1243.0276    91072.432   -21844.183    1616.1526   -23460.335    87.702354    238.84834 
   29650    110.64338   -1166.7608    91139.206   -21809.559    1658.9288   -23468.488    87.751219    245.17014 
   29700    111.59147   -1340.0205    91198.105   -21822.582    1673.1438   -23495.726    88.082435    247.27096 
   29750    111.56069   -1196.0037    91173.227   -21797.482    1672.6824   -23470.164    88.043379    247.20276 
   29800     112.9603   -1227.9428    91255.024   -21814.838    1693.6674   -23508.505    88.301705     250.3041 
   29850    112.58925   -1608.5755    91294.024   -21825.588    1688.1041   -23513.692    88.519493    249.48191 
   29900    112.91745   -1181.0443    91291.388   -21799.648     1693.025   -23492.673      88.7522    250.20916 
   29950     113.3827   -1195.6551    91259.309   -21790.275    1700.0007   -23490.275     88.76417    251.24009 
   30000    111.51087   -1278.8157    91236.741    -21809.78    1671.9354   -23481.716    89.207288    247.09237 
   30050    113.64236   -1493.2153    91232.376   -21780.234    1703.8938   -23484.128    89.338124    251.81544 
   30100    111.89578   -1317.4939    91213.889   -21774.895    1677.7066   -23452.601    89.258066    247.94528 
   30150    110.75594   -1213.9131      91217.7   -21747.767    1660.6164   -23408.383    89.011714    245.41955 
   30200    112.75256   -1316.2461    91167.476   -21773.155    1690.5526   -23463.707     89.10049    249.84377 
   30250    112.11976   -1053.4662     91154.13   -21756.545    1681.0648   -23437.609    89.100897    248.44158 
   30300    112.77933   -1264.3825     91146.43   -21758.545    1690.9541   -23449.499    89.286276    249.90311 
   30350    113.51383   -1177.3357    91179.627    -21744.29    1701.9667   -23446.257    89.077887    251.53064 
   30400    116.05676    -1567.289    91186.001   -21699.469    1740.0941   -23439.564    89.217358    257.16542 
   30450    114.75927    -1094.749    91253.144   -21651.511    1720.6402   -23372.152    89.512069    254.29037 
   30500    116.43392   -1235.9377    91235.374   -21618.843     1745.749   -23364.592    89.519979    258.00115 
   30550    114.85707   -879.96414    91206.373   -21657.009    1722.1066   -23379.116    89.169153    254.50708 
   30600     115.7118   -1248.8229    91242.233   -21644.993     1734.922   -23379.915     89.41748    256.40105 
   30650    112.76351   -1068.7734    91275.872   -21637.282    1690.7168   -23327.999    89.806798    249.86804 
   30700    113.37712   -1314.3452    91284.487   -21633.832     1699.917   -23333.749    89.903808    251.22772 
   30750    115.58123   -1549.4396    91225.585    -21649.97    1732.9642   -23382.934    89.911775    256.11171 
   30800    115.86591   -1317.6915    91204.012   -21649.932    1737.2325   -23387.164    90.243197    256.74252 
   30850     116.3057   -1379.7086    91160.227   -21598.667    1743.8266   -23342.494    90.323522    257.71704 
   30900    117.16227   -1522.9924    91139.632    -21644.18    1756.6694   -23400.849    90.503221    259.61506 
   30950    115.02364   -1099.6543    91074.991   -21652.318    1724.6041   -23376.922    90.647931    254.87618 
   31000    116.29946   -1194.5636    91122.196   -21699.861     1743.733   -23443.594    91.235827    257.70321 
   31050    112.90494   -1320.0599     91077.14   -21723.831    1692.8373   -23416.668    91.210452    250.18143 
   31100    111.60472   -891.78303    91067.704   -21727.024    1673.3426   -23400.367    90.880352    247.30033 
   31150    113.74877   -1371.6063    91093.936    -21697.59    1705.4893    -23403.08    91.120798    252.05125 
   31200    112.37861   -1197.5207    91030.193   -21702.937    1684.9458   -23387.883    91.277797    249.01515 
   31250    112.31407   -1098.4149    91034.635   -21709.826    1683.9782   -23393.804    91.583078    248.87215 
   31300    112.54903   -1045.0292     91082.69   -21715.575     1687.501   -23403.076    92.116059    249.39278 
   31350    115.09447   -886.91584    91111.226   -21686.148    1725.6661   -23411.814    92.464779    255.03313 
   31400    113.85647   -1273.5842    91152.372   -21716.717    1707.1041   -23423.821    92.529984    252.28989 
   31450     114.0122    -1311.357    91194.498   -21733.875     1709.439   -23443.314    92.673607    252.63496 
   31500    112.31036   -1380.0878    91275.237   -21755.373    1683.9225   -23439.295    92.557065    248.86392 
   31550    112.88693   -1151.4844    91270.224   -21728.802    1692.5674    -23421.37    92.494863    250.14153 
   31600    111.68683   -1023.6964    91348.463   -21749.235    1674.5736   -23423.809    92.787847    247.48227 
   31650    112.70727   -1394.0315    91366.356   -21736.627    1689.8736     -23426.5    92.900603    249.74343 
   31700     112.7688    -1197.552    91355.416   -21699.118    1690.7961   -23389.915    93.343141    249.87975 
   31750    115.19132   -1451.1367    91386.991   -21662.169    1727.1181   -23389.287    93.433355    255.24773 
   31800     109.8143   -1223.0852    91395.595   -21713.447    1646.4979   -23359.944    93.490184      243.333 
   31850     113.6022   -1329.2854    91398.988   -21679.753    1703.2917   -23383.045    93.759558    251.72647 
   31900     112.9396   -1339.0458    91391.895   -21718.793    1693.3571    -23412.15    93.917753    250.25824 
   31950    113.26792   -1314.1162    91346.411   -21723.114    1698.2796   -23421.393    94.127205    250.98574 
   32000    114.53833   -1254.1652    91370.739   -21721.577    1717.3275   -23438.904    93.960613    253.80079 
   32050     111.2617   -1169.9097    91399.824   -21756.355    1668.1995   -23424.555    93.260783    246.54024 
   32100    111.52433   -1335.2086    91430.775   -21762.613    1672.1372    -23434.75    93.494368     247.1222 
   32150    112.10698   -1308.4108    91463.044   -21753.617    1680.8731    -23434.49    93.639229    248.41325 
   32200    110.47726   -1242.2892    91408.546   -21779.533     1656.438   -23435.971    93.903018    244.80204 
   32250    110.79024   -1044.4601    91443.899   -21783.357    1661.1306   -23444.488    94.237198    245.49555 
   32300    112.36337   -1286.8819    91496.686   -21809.787    1684.7174   -23494.504    94.567633    248.98139 
   32350    109.73091   -1123.4088     91534.81   -21797.598    1645.2476   -23442.846    94.843496    243.14823 
   32400    109.11017   -1159.8353    91557.284   -21756.337    1635.9405   -23392.277    95.247925    241.77275 
   32450    112.65749   -1257.8885    91521.496   -21748.099    1689.1272   -23437.227    95.289116    249.63312 
   32500    114.25511   -1421.1577    91594.987    -21733.19    1713.0811   -23446.271    95.483767    253.17322 
   32550    111.53714   -1352.7303    91596.456   -21717.901    1672.3293    -23390.23    95.485103    247.15058 
   32600    114.58692   -1385.4739    91588.281   -21669.111    1718.0561   -23387.167    95.308399    253.90847 
   32650    113.23205   -1069.1929    91627.943   -21668.388    1697.7419   -23366.129    95.273745    250.90627 
   32700    111.33186   -1433.2016    91647.259   -21697.221    1669.2513   -23366.472     95.27655     246.6957 
   32750    114.70992   -1419.3567    91680.693   -21707.616    1719.9003   -23427.516    95.513104    254.18102 
   32800    111.44509   -1334.3513    91683.314   -21713.526    1670.9491   -23384.475    95.576845    246.94661 
   32850    114.93053   -1733.9976    91636.599   -21679.488     1723.208   -23402.696    95.718902    254.66986 
   32900    113.34743   -1232.3676    91714.058   -21671.816    1699.4717   -23371.287     96.06316    251.16192 
   32950    113.17376   -1489.4234    91685.154   -21698.626    1696.8679   -23395.494    96.219106     250.7771 
   33000    112.25715   -1418.0425    91720.032   -21723.718    1683.1247   -23406.843    96.621342    248.74601 
   33050     114.8307   -1642.5116    91738.488   -21693.212    1721.7112   -23414.923    96.847353    254.44865 
   33100    110.15007   -1464.2912    91745.039   -21702.494    1651.5323   -23354.027    96.850114    244.07704 
   33150    113.10716   -1361.8114    91734.069   -21724.855    1695.8694   -23420.724    96.685464    250.62953 
   33200    110.82239   -1774.7885    91721.383   -21728.224    1661.6127   -23389.836    96.924013    245.56679 
   33250    112.94567   -1394.1854    91649.301   -21731.267     1693.448   -23424.715     97.14434    250.27168 
   33300    112.85375   -1404.9479    91626.074   -21765.145    1692.0699   -23457.215    97.193069    250.06801 
   33350    110.51999   -1203.9383    91618.538   -21750.201    1657.0787    -23407.28    97.530365    244.89673 
   33400    110.01549   -1023.9136    91605.497   -21782.467    1649.5144   -23431.982    97.693951    243.77881 
   33450    108.79774   -1424.4367    91641.771   -21734.241    1631.2562   -23365.497    98.075857    241.08046 
   33500    110.51299   -1087.8495    91644.904   -21741.897    1656.9737   -23398.871    98.014498    244.88121 
   33550    111.55799   -1495.0669      91586.5   -21748.973    1672.6419   -23421.614    98.490352    247.19678 
   33600    112.47381   -1341.2436    91489.184    -21771.07    1686.3732   -23457.443    98.846812    249.22611 
   33650    113.38124   -1395.8708    91414.156   -21738.603    1699.9787   -23438.582    98.882227    251.23684 
   33700     113.0806   -1330.8376    91392.051   -21757.867    1695.4712   -23453.338    98.821149    250.57068 
   33750    111.20183   -1051.5907    91316.381   -21752.151    1667.3018   -23419.453    99.183325    246.40757 
   33800    113.95703   -1332.9978    91328.123   -21789.781    1708.6119   -23498.393    99.208043    252.51272 
   33850    113.31585   -1588.3366    91252.395   -21793.823    1698.9983   -23492.822    99.487174    251.09195 
   33900    112.38643   -1411.5448    91225.551   -21778.452    1685.0631   -23463.515    99.670527    249.03248 
   33950    113.28628   -1425.0661    91205.359   -21783.287    1698.5549   -23481.841    100.09989    251.02642 
[...]
   92000    113.41811   -1084.2565    91043.811   -21709.835    1700.5316   -23410.366    286.57095    251.31855 
   92050    114.66806   -1358.8648    91016.929   -21669.443    1719.2726   -23388.716    287.02475    254.08825 
   92100    111.53323   -1347.5956    91039.916   -21670.248    1672.2707   -23342.519    287.25457    247.14192 
   92150    114.08949   -1408.7778    90984.129   -21684.506    1710.5978   -23395.103    286.78117    252.80622 
   92200    114.71069    -1378.732    90958.234   -21662.709    1719.9117    -23382.62    286.67564    254.18271 
   92250    111.78371   -1019.7867    91072.488   -21628.498    1676.0262   -23304.524    286.76729    247.69695 
   92300    113.03364   -1162.4722    91204.048   -21597.576     1694.767   -23292.343    286.80846    250.46661 
   92350     115.6274    -1200.109    91290.699   -21590.292    1733.6565   -23323.948    287.07396    256.21403 
   92400    112.97464   -1090.1763    91346.906   -21609.465    1693.8823   -23303.348      287.225    250.33587 
   92450    111.81337   -1018.4351    91412.326   -21616.411     1676.471   -23292.882    287.18729    247.76267 
   92500    113.87084   -1277.2437    91533.956   -21599.063    1707.3195   -23306.383    287.61386    252.32172 
   92550     115.7333   -1177.9095    91562.258   -21574.062    1735.2443   -23309.306    287.71601    256.44868 
   92600    116.14156    -1325.474    91563.568   -21583.309    1741.3655   -23324.674    288.38774    257.35333 
   92650     114.3078   -1298.0752    91541.437   -21560.196    1713.8711   -23274.067    288.85133    253.28998 
   92700    114.32921   -1173.8508    91550.301   -21595.055    1714.1922   -23309.247    289.07649    253.33742 
   92750    112.24762    -1642.619    91557.824   -21596.403    1682.9818   -23279.385    289.88962     248.7249 
   92800    113.30775   -1424.8577    91505.393   -21609.873    1698.8769    -23308.75    290.20602    251.07401 
   92850    115.98943   -1223.7319    91482.908   -21578.572    1739.0846   -23317.656     290.2906    257.01623 
   92900    112.15948   -1321.1853    91488.048   -21614.936    1681.6603   -23296.596    290.23058    248.52959 
   92950    113.95529   -1379.7019    91470.948   -21646.486    1708.5858   -23355.072    290.28445    252.50887 
   93000    113.30485   -1328.1413    91464.803   -21622.234    1698.8333   -23321.067    289.91228    251.06757 
   93050    111.51264   -1305.1059     91437.43   -21663.248    1671.9619    -23335.21    289.81497    247.09629 
   93100    114.82178   -1057.1894    91416.208   -21621.126    1721.5774   -23342.704    289.55989    254.42888 
   93150    115.57587   -1272.1405    91414.554   -21603.089    1732.8839   -23335.973    290.45169    256.09984 
   93200     113.8505   -981.69221    91491.094   -21589.557    1707.0146   -23296.572    290.14773    252.27666 
   93250    112.95381   -1361.3205    91468.997   -21625.373      1693.57   -23318.943    290.48594    250.28971 
   93300    115.84879   -1344.8446    91406.522   -21671.206    1736.9759   -23408.182    290.72852    256.70459 
   93350    111.71584   -1197.0425    91437.764   -21682.084    1675.0085   -23357.092    291.04977    247.54654 
   93400    114.38091   -1268.7495    91414.555    -21639.56    1714.9672   -23354.527    291.28354    253.45196 
   93450    112.74218   -1423.3103    91360.597   -21704.906    1690.3969   -23395.303    291.48259    249.82077 
   93500    114.77279   -1429.5766    91311.665   -21693.498    1720.8428   -23414.341    291.79807    254.32031 
   93550    110.57578   -1271.6089    91229.703    -21689.93    1657.9151   -23347.845    291.24876    245.02034 
   93600    112.10039   -1321.8094    91196.504   -21668.189    1680.7743   -23348.964    291.59931    248.39866 
   93650    112.11191   -1679.3053    91185.027   -21680.175    1680.9471   -23361.122     290.8253     248.4242 
   93700    113.12442   -1390.6808    91095.791   -21673.557     1696.128   -23369.685    290.83869    250.66776 
   93750    111.91825   -1261.4002    91064.656   -21654.509    1678.0435   -23332.552     291.0559    247.99507 
   93800     114.2183   -1534.4684    91046.591   -21694.556    1712.5291   -23407.085    290.88413    253.09165 
   93850    113.35284   -1274.4564    91083.517   -21715.031    1699.5529   -23414.584    291.03734    251.17391 
   93900    113.22988   -1507.0775    91141.157   -21670.901    1697.7094    -23368.61     290.4211    250.90146 
   93950    111.00532   -1370.6769    91107.053   -21688.878    1664.3555   -23353.234     290.4945    245.97214 
   94000    113.74018   -1237.2911    91042.955   -21708.501    1705.3606   -23413.862    290.56381    252.03221 
   94050    112.91223   -1525.1144    90990.233   -21714.191    1692.9466   -23407.138      291.064    250.19758 
   94100    111.35985   -1375.2879    91060.512   -21720.601    1669.6711   -23390.272    291.36975    246.75774 
   94150    111.88594   -1429.7492    91046.892   -21727.525     1677.559   -23405.084    291.96909    247.92348 
   94200     113.3158    -1551.014    91004.966   -21712.652    1698.9976    -23411.65    292.13865    251.09184 
   94250    109.42955   -1277.1421    91064.854   -21748.289    1640.7291   -23389.018    292.27695    242.48045 
   94300    110.33953   -1199.9215    91059.937   -21760.673    1654.3729   -23415.046    292.53726    244.49684 
   94350    111.23911    -1433.177    91045.734   -21762.032    1667.8607   -23429.893    293.39506    246.49018 
   94400    111.85009   -1266.4259    90983.751   -21736.232    1677.0215   -23413.254    293.43408    247.84403 
   94450    113.94847   -1549.9343    90914.993   -21726.147    1708.4834    -23434.63     293.5114    252.49374 
   94500    113.59384   -1119.4468    90960.941   -21709.387    1703.1663   -23412.553    293.74176    251.70793 
   94550    112.97399   -1323.2903     90931.11   -21741.494    1693.8727   -23435.366    293.34079    250.33444 
   94600    111.60301   -1393.7139    90942.326   -21737.146    1673.3169   -23410.463    293.59904    247.29654 
   94650    110.60685   -1123.5201    90916.951   -21754.699    1658.3809    -23413.08     293.6467    245.08918 
   94700    111.93778    -1275.375    90922.386   -21710.484    1678.3362    -23388.82    294.55448    248.03833 
   94750    114.06242   -1269.3772    90883.251   -21723.122     1710.192   -23433.314    294.95149    252.74625 
   94800     113.1193   -1041.5618    90984.885   -21729.864    1696.0513   -23425.915    295.23571    250.65641 
   94850     114.4291   -1151.4935    91130.634   -21709.842    1715.6899   -23425.532    295.05306    253.55876 
   94900    112.00835   -768.42232     91182.99   -21730.307    1679.3944   -23409.701    295.47717    248.19472 
   94950    112.57858   -1162.1751    91300.837   -21740.141    1687.9441   -23428.085    294.92248    249.45826 
   95000    113.05668   -1044.7854    91326.785   -21704.854    1695.1124   -23399.967    295.13287    250.51766 
   95050    112.06797   -746.47681    91441.468   -21723.151    1680.2883   -23403.439    295.56619    248.32683 
   95100    114.46974   -1485.6279    91469.462   -21670.236    1716.2992   -23386.535    295.70155    253.64881 
   95150    112.20628   -1541.7112    91364.698   -21677.963    1682.3621   -23360.325    295.88889    248.63331 
   95200    111.26097   -1337.6266    91315.247   -21714.116    1668.1885   -23382.305      296.227    246.53862 
   95250    111.91633   -1246.6736    91338.014    -21717.86    1678.0146   -23395.875    296.21953    247.99081 
   95300    112.18207   -1158.8218    91387.691   -21704.094    1681.9989   -23386.093    296.07799    248.57964 
   95350    110.57562   -1241.1201    91422.881   -21717.601    1657.9128   -23375.513     297.2489    245.01999 
   95400    111.62141   -931.41485    91404.541   -21681.061    1673.5927   -23354.654    297.49851     247.3373 
   95450    113.69716    -1101.316    91455.466   -21701.559    1704.7154   -23406.275    297.86445    251.93687 
   95500    111.41372   -1465.6157    91432.054   -21739.765    1670.4788   -23410.244     297.4295     246.8771 
   95550    111.27493   -1406.3533    91357.627   -21754.451    1668.3978   -23422.848    297.90723    246.56956 
   95600    108.67631    -1205.799    91299.269   -21812.384    1629.4354    -23441.82    297.86096    240.81137 
   95650    109.59873   -1116.0042    91313.036   -21813.247    1643.2658   -23456.513    298.13742    242.85535 
   95700    106.12765   -1292.1891    91326.365   -21839.175    1591.2223   -23430.398    298.14968    235.16392 
   95750    107.85958   -1409.4357    91278.022   -21868.122    1617.1899   -23485.311     298.5088    239.00163 
   95800    111.10186   -1310.1359    91255.747   -21808.424    1665.8029   -23474.227    297.72625    246.18606 
   95850    109.92829   -1327.0055    91246.303   -21819.458    1648.2071   -23467.665    297.66057     243.5856 
   95900    111.40238   -1259.6606    91220.307   -21808.793    1670.3088   -23479.102    297.71212    246.85198 
   95950    112.27528   -1255.5798    91210.176   -21805.583    1683.3966   -23488.979     297.3925    248.78619 
   96000    109.59938   -1502.6627    91170.458   -21785.037    1643.2755   -23428.313     297.5707    242.85677 
   96050    113.12828   -1173.0854    91180.539   -21796.631     1696.186   -23492.817    297.40879    250.67633 
   96100     112.3872   -1175.9843    91201.244    -21777.16    1685.0746   -23462.234    297.89582    249.03419 
   96150    113.32788   -1519.6195    91184.925    -21747.18    1699.1787   -23446.359    298.26115     251.1186 
   96200    116.61211   -1059.2819    91169.493   -21781.982    1748.4207   -23530.403    298.25827    258.39599 
   96250    114.97062   -1293.2955    91240.605   -21774.488    1723.8091   -23498.298    298.39544    254.75869 
   96300    114.85563   -1280.0931    91275.096   -21769.166     1722.085   -23491.251    298.72467     254.5039 
   96350    111.59845   -1386.7739    91305.366    -21805.45    1673.2485   -23478.698    298.98077    247.28642 
   96400    112.34202   -1050.9705    91312.185    -21836.87    1684.3973   -23521.267    299.08959    248.93409 
   96450    110.30432   -1228.1626    91300.232   -21798.109    1653.8451   -23451.954    299.08442    244.41883 
   96500    109.53727   -1118.8216    91283.864   -21747.145    1642.3442   -23389.489    298.82917    242.71914 
   96550    109.81204   -831.63114    91238.003   -21764.648     1646.464   -23411.112    299.59502    243.32799 
   96600      112.241   -1111.5087    91261.097   -21760.754    1682.8826   -23443.636    300.20208    248.71023 
   96650    113.93544   -1054.4828    91276.039   -21706.056    1708.2882   -23414.344    300.04579    252.46488 
   96700    114.85915   -1186.9619    91291.692   -21711.305    1722.1377   -23433.443     300.0661    254.51169 
   96750    113.72952   -1369.4378    91310.718   -21717.153    1705.2006   -23422.354    300.92014    252.00858 
   96800     115.0189   -1373.4781    91285.873   -21751.465    1724.5329   -23475.998    301.12574    254.86567 
   96850    109.25231   -1251.1201    91305.723   -21790.971    1638.0718   -23429.043    301.25303    242.08773 
   96900    112.09957   -1171.0217    91310.831   -21730.894     1680.762   -23411.656    301.39518    248.39684 
   96950    114.03625   -1166.1365    91397.703   -21696.609    1709.7996   -23406.409    301.35431    252.68825 
   97000    112.97821   -1434.3295    91405.415   -21681.516    1693.9359   -23375.452    301.23235    250.34379 
   97050    114.06154    -1268.947    91405.262   -21629.449    1710.1789   -23339.628    301.12893     252.7443 
   97100    112.21912   -1479.8632    91443.011   -21696.952    1682.5545   -23379.506    301.27376    248.66175 
   97150    112.18241   -1359.0769    91473.527   -21698.605    1682.0042   -23380.609    301.43809    248.58041 
   97200     110.9118   -1335.0417    91500.051   -21714.582    1662.9532   -23377.536    301.50271    245.76491 
   97250     112.9757   -1489.5053    91514.173   -21673.848    1693.8983   -23367.746    301.07877    250.33823 
   97300    111.44074   -1613.0905    91457.787   -21680.707    1670.8839    -23351.59    300.67325    246.93696 
   97350    109.55097     -1466.13    91421.332    -21726.96    1642.5496    -23369.51    300.76619     242.7495 
   97400    110.67688    -1638.493    91388.803   -21732.418     1659.431   -23391.849    300.52568    245.24437 
   97450    109.09808   -1356.7176      91361.5   -21775.067    1635.7593   -23410.826    300.89516    241.74597 
   97500     109.5146    -1429.726    91334.707   -21727.263    1642.0044   -23369.267    300.84271    242.66892 
   97550    112.98372   -1176.1337     91381.09    -21732.44    1694.0185   -23426.459    301.01499    250.35599 
   97600    111.13275   -1280.3598    91448.074   -21744.086     1666.266   -23410.352    301.29561     246.2545 
   97650    113.33143   -1163.2655    91515.352   -21712.884    1699.2319   -23412.116    301.77607    251.12647 
   97700    113.80596   -1328.7071    91581.555   -21656.367    1706.3468   -23362.714    302.35491    252.17796 
   97750    119.48857     -1528.44    91637.303     -21619.4    1791.5489   -23410.948    302.24947    264.76983 
   97800    117.74619   -1180.6644    91692.675   -21657.269    1765.4245   -23422.693    302.61265    260.90896 
   97850    118.64913   -1156.7779    91771.612   -21640.599    1778.9627   -23419.562    302.56877    262.90975 
   97900     113.4562   -1170.5503    91762.578   -21655.856    1701.1026   -23356.958    302.53853    251.40293 
   97950    115.44909   -1207.6553    91785.031    -21645.85     1730.983   -23376.833    302.82076    255.81891 
   98000    115.26226   -1155.6163    91845.279   -21636.504    1728.1817   -23364.686    302.61679    255.40492 
   98050    113.08955   -1044.3158     91822.19   -21686.362    1695.6052   -23381.967    302.94268    250.59049 
   98100    116.18823   -1119.9762    91884.252   -21684.601    1742.0653   -23426.666    302.80945    257.45674 
   98150    110.46125    -1489.081    91852.647   -21697.035    1656.1979   -23353.233    302.75172    244.76656 
   98200    113.88826   -1460.3154    91822.247   -21719.394    1707.5807   -23426.975    302.83991    252.36033 
   98250    114.86791   -1453.4439    91832.989   -21667.545     1722.269   -23389.814    303.41839    254.53109 
   98300    114.04543   -1366.5912    91777.577   -21650.256    1709.9372   -23360.193    303.80337    252.70859 
   98350    114.80824   -1578.9788    91750.358   -21628.814    1721.3744   -23350.188    303.50975    254.39887 
   98400    113.17536   -1277.1145    91684.497   -21627.649    1696.8918   -23324.541    304.17176    250.78063 
   98450    112.59634   -1275.7212    91657.913   -21672.841    1688.2103   -23361.051    304.48809    249.49761 
   98500    113.02669   -1338.4811    91611.303   -21707.422    1694.6629   -23402.085    304.44666    250.45122 
   98550    114.69418   -1247.2059    91609.794   -21675.305    1719.6642   -23394.969    304.29482    254.14613 
   98600    114.13004   -1439.0812     91592.94   -21715.907    1711.2058   -23427.113    304.49838    252.89607 
   98650    112.94566   -1169.7994    91653.511   -21705.142    1693.4479    -23398.59    305.17633    250.27166 
   98700    112.14542   -946.71878    91707.758   -21729.455    1681.4494   -23410.905    305.57243    248.49843 
   98750    115.15543   -1005.5403    91775.976   -21749.295      1726.58   -23475.875    305.09564     255.1682 
   98800     113.7839   -1281.3196    91864.165   -21730.084    1706.0161     -23436.1    304.79787    252.12909 
   98850    115.97965   -1276.1233    91857.486   -21712.062    1738.9379       -23451    305.01902    256.99454 
   98900    114.77484   -1371.1859    91900.044   -21701.567    1720.8736   -23422.441    305.14463    254.32486 
   98950    112.88826   -1459.0958     91995.68   -21748.407    1692.5873   -23440.995    305.60218    250.14447 
   99000    112.62352   -1218.9322    91947.862   -21701.681    1688.6178   -23390.299    306.40349    249.55784 
   99050    116.53581   -1343.4934    91965.324    -21703.58    1747.2767   -23450.857    306.40073    258.22693 
   99100     112.8735   -1380.7427    91994.097   -21729.616    1692.3659   -23421.982    306.17838    250.11176 
   99150    115.07388   -1212.6512    91990.804   -21733.566    1725.3573   -23458.923    306.84077     254.9875 
   99200    110.86951   -1436.7398    91990.326   -21704.055    1662.3192   -23366.374    306.88934    245.67121 
   99250    112.29746   -1527.5803     92015.52   -21695.568    1683.7291   -23379.297    307.16564    248.83534 
   99300    113.84028   -1419.7341    92031.993   -21736.116    1706.8614   -23442.978    307.34953    252.25402 
   99350    114.60405   -1578.2047    91996.092   -21742.051    1718.3129   -23460.364    308.18556    253.94642 
   99400     112.0134   -1510.2238    91949.936   -21758.329    1679.4701   -23437.799    307.84475    248.20591 
   99450    111.79549   -1554.0957    91958.671    -21732.55    1676.2029   -23408.753    308.30734    247.72305 
   99500    113.87921   -1231.9395    91924.298   -21729.286     1707.445   -23436.731    307.92231    252.34027 
   99550    110.15461   -1608.7471    91891.041   -21741.227    1651.6003   -23392.828    308.68711    244.08708 
   99600    116.29835   -1408.7394    91830.836   -21707.419    1743.7164   -23451.136    308.67909    257.70076 
   99650    116.19786   -1504.1047    91785.129   -21679.551    1742.2097   -23421.761    308.93672    257.47808 
   99700    111.23457   -1366.0164    91784.799   -21723.692    1667.7927   -23391.485    309.34454    246.48013 
   99750    112.49346   -1251.6198    91733.585   -21718.798    1686.6679   -23405.466    309.40487    249.26966 
   99800    111.61202   -1331.5071    91731.952   -21726.351    1673.4519   -23399.803     309.8518     247.3165 
   99850    110.75075   -1075.6944    91804.213   -21755.745    1660.5386   -23416.284    309.86705    245.40806 
   99900    110.92368   -1052.0215    91934.345   -21754.976    1663.1314   -23418.107    310.33008    245.79124 
   99950    114.12787   -1262.1548    91892.837   -21733.412    1711.1732   -23444.585    310.23313    252.89126 
  100000    109.83143    -1305.985    91872.999   -21736.169    1646.7547   -23382.924    309.81685    243.37096 
Loop time of 43.0049 on 80 procs for 100000 steps with 5031 atoms

Performance: 1004.536 ns/day, 0.024 hours/ns, 2325.314 timesteps/s
100.0% CPU use with 80 MPI tasks x no OpenMP threads

MPI task timing breakdown:
Section |  min time  |  avg time  |  max time  |%varavg| %total
---------------------------------------------------------------
Pair    | 5.9412     | 17.556     | 24.995     | 171.1 | 40.82
Neigh   | 0.48528    | 1.259      | 3.3939     |  95.8 |  2.93
Comm    | 10.343     | 17.198     | 28.827     | 163.9 | 39.99
Output  | 0.12085    | 0.12475    | 0.29306    |   5.4 |  0.29
Modify  | 4.1167     | 5.9744     | 7.6211     |  39.4 | 13.89
Other   |            | 0.8924     |            |       |  2.08

Nlocal:    62.8875 ave 144 max 30 min
Histogram: 55 5 0 0 0 0 0 0 5 15
Nghost:    669.663 ave 830 max 386 min
Histogram: 20 0 0 0 0 0 0 36 4 20
Neighs:    0 ave 0 max 0 min
Histogram: 80 0 0 0 0 0 0 0 0 0
FullNghs:  5760.45 ave 18204 max 1125 min
Histogram: 60 0 0 0 0 0 0 0 0 20

Total # of neighbors = 460836
Ave neighs/atom = 91.5993
Neighbor list builds = 5962
Dangerous builds = 0

write_data		${DIR}/data.eq-${NAME}-${TEMP}
write_data		run_4/data.eq-${NAME}-${TEMP}
write_data		run_4/data.eq-het_freeze_4-${TEMP}
write_data		run_4/data.eq-het_freeze_4-250
undump          1

reset_timestep  0

unfix           2
unfix           3
unfix           4


################################################
#######         Run Simulation         #########
################################################

log				${DIR}/log.run_${NAME}
log				run_4/log.run_${NAME}
log				run_4/log.run_het_freeze_4
