LAMMPS data file via write_data, version 29 Oct 2020, timestep = 100000

6472 atoms
2 atom types

0.0 49.22 xlo xhi
0.0 49.019635930410494 ylo yhi
0.8455039968784526 59.21649600312323 zlo zhi

Masses

1 18.015
2 12.01

Atoms # atomic

1962 1 3.9044931168652073 3.6108941136070967 2.5783228962873865 -2 0 0
2878 1 0.07124057452563193 2.5301818880911284 2.419014670783519 0 0 1
5362 1 8.370105070255324 1.723293083771531 2.0343156319769005 1 0 0
2885 1 11.500104613264417 2.898540016387037 4.410278830506636 2 0 1
1379 1 11.209148298941232 2.7319444030876316 1.6944617954011456 0 1 1
462 1 14.401711030818678 2.3820541870282295 4.376388352693651 1 2 0
5306 1 14.834501781289385 2.992914023365128 1.5675489802461708 1 2 0
5396 1 15.421934530623526 0.10363537576119598 1.70930360530198 -1 0 0
3339 1 17.926570835293898 2.4756292663296158 4.1143529542102275 -1 2 1
3658 1 18.994634240930168 0.05303789258407616 1.9979400448815003 3 0 0
1300 1 16.584402977555662 0.05844314783870175 4.374190200035272 -1 1 1
4645 1 20.795377319298055 2.935475724087914 4.443770238904612 0 0 1
5307 1 23.553290228102053 2.1636808939289747 3.639772948067954 0 3 0
2970 1 24.28393186599963 3.4991801625800623 1.3593265748799692 -2 0 1
3198 1 0.8165752419604165 6.234629838797004 3.795139639344614 0 2 1
6191 1 1.5852936857420028 4.7623584683400795 1.3650179869920918 1 0 1
1541 1 4.404394642040182 6.171614536754066 3.7215880223286297 2 1 0
1714 1 6.640048672150344 7.666788753476742 3.540235284227571 0 1 0
4717 1 12.076983234682666 8.137132494079339 2.0766352109357165 -1 -1 1
3194 1 9.705975042716714 7.059521635124639 4.3318718222221655 2 1 1
1926 1 8.279676362768885 5.717264174488008 1.7009062402304402 0 1 0
4570 1 8.845106032318347 4.107186640554822 4.038843464313995 2 0 1
5157 1 14.719832609806936 7.890905875640401 4.662309071336038 -1 -2 0
3397 1 15.2025333529066 7.578409171917462 1.3419719989192789 1 0 0
4752 1 20.284213166741758 4.3191184746307325 2.222167623395251 1 0 1
1479 1 17.33786651270604 4.5569092830073785 2.0701276432393376 1 -1 1
277 1 18.486784809720337 6.665327191816515 3.5022521625574665 -2 0 0
3233 1 19.56903452293076 7.85990446704748 1.166332401304146 1 3 1
5222 1 23.079938855951237 5.938201643200433 3.021954620577233 1 1 0
2012 1 3.070834256734982 9.900151392545173 4.382588631901378 -1 1 0
5444 1 1.8189043561469136 10.390161062127858 2.08082975072886 1 0 0
6350 1 5.772810677104573 10.990362193245813 4.1472915759465945 0 1 1
5275 1 7.86570235946072 11.277977440541587 2.1424044266836155 -1 -1 1
1329 1 4.2115633975083995 10.475240860590187 0.9956541586013401 -2 2 1
1392 1 10.731292885112937 10.862762485122358 1.997052021046893 -2 0 1
1830 1 12.66414341742504 11.216510284668793 3.783949995836537 1 1 0
1693 1 14.725758739991456 11.48017225530532 2.7092720602286677 1 -1 0
2983 1 16.78743365051816 9.619656131955203 2.7310682589715274 1 0 1
1384 1 18.942403167802127 12.244993673415815 2.899616568004625 -1 2 1
1846 1 21.438841046149324 8.721811371799326 3.2950263646580336 -1 -1 0
3280 1 21.90253536416522 11.494092635951574 3.486817040544996 -1 -1 1
6312 1 24.473855910283497 8.455886617252691 4.605168427387975 -1 0 1
1825 1 20.622693186700293 10.666149546168505 0.897029386983391 0 0 0
175 1 2.1930922346019472 13.402750957527406 3.2946145746956077 0 1 0
303 1 0.6108120527199136 15.969207881842944 4.0654197948528585 1 -1 0
1508 1 6.11320835544979 15.692473281860536 3.2135040876556866 -1 1 0
526 1 8.181121687674503 13.860333136992018 2.3302771167219305 0 1 1
1342 1 4.633320271933635 13.696060411497085 4.254703715685145 0 0 1
42 1 12.081416572917265 13.951398388902781 4.161026755497698 0 0 1
2136 1 12.073707461026519 16.05234818301677 1.5677067747877516 -2 0 0
6301 1 15.9791420861365 15.940826549612952 3.3674497270650794 4 1 1
1682 1 14.178671329240245 14.261330904097768 1.8395234287547233 -1 0 0
4837 1 18.23686109408376 14.909370821781579 1.579153744641422 -2 0 0
1811 1 19.615300038402385 14.546233070078559 4.632743986756722 1 -1 0
317 1 16.597905887448608 12.440653741515442 4.578473294367804 0 -1 0
6189 1 24.495390672894768 15.780830443100628 1.4089829904821187 2 1 1
95 1 22.44093836590955 15.296385610476152 4.088899668417762 -1 2 0
3302 1 24.560012633364675 12.50046497417452 2.897621937023786 1 0 0
30 1 1.9126197933149813 16.475391987343677 1.71103834404557 0 -1 1
163 1 5.904466185902668 19.16753370153514 0.9829007554271232 0 -3 0
1362 1 7.762993013580076 19.45227138803608 3.7201024368516613 0 -2 1
4506 1 4.566694366028609 16.4258396532508 1.2716928517491983 0 1 1
193 1 9.005517426579654 18.364347188512575 1.2800926226269294 0 0 0
3739 1 11.588174951348421 18.59286319232316 3.1934883179585793 1 0 0
6471 1 15.946928503726348 18.706446233012386 1.9126532270023069 0 1 1
2039 1 13.540979431173753 20.214176570528338 2.073381490741565 -2 0 0
1865 1 19.325809236634893 17.186634174836403 3.485996016662539 2 0 0
4574 1 22.178146786801697 17.573618602548926 3.1373590936333327 1 -1 1
168 1 24.14037836479998 20.416416621957232 1.0862719118753 1 -2 0
6128 1 24.44813920848041 19.547480101757806 3.966722528001296 1 0 1
1304 1 4.063353887874148 20.843711747331014 2.731855825023306 0 1 1
1991 1 1.518005790505036 21.620008164048603 3.178446343927037 1 -1 1
1394 1 1.9844831013010042 23.59049691788882 1.1953563265865284 1 0 1
6265 1 5.819618088135435 23.067677425074837 3.549014824272726 2 1 1
334 1 10.241699323166479 23.89482549016015 3.7238290348275798 0 0 0
5219 1 10.14565397821998 22.870763043825907 1.1053109170737563 1 0 0
52 1 15.029353149395183 22.47647779305171 4.18561663138682 -1 -1 0
2933 1 22.748775114544 22.96683536488106 4.461394430933572 0 0 1
291 1 2.166235679939718 3.0272876815285836 7.798789738727166 0 0 0
5161 1 5.117782741899404 1.2304450303394165 7.5499261489641345 2 1 0
6169 1 4.325969900568753 2.36771116357308 5.177839128464394 -1 0 1
491 1 7.567800999593736 2.91412106032457 8.019950282284777 0 0 1
4892 1 10.473791461784694 2.924971620897496 7.829384220544466 0 2 0
2972 1 9.379349807293593 1.0649977273084335 5.229764995486692 1 0 1
409 1 8.516908751499063 0.19497563264297477 8.106304495678922 2 0 0
3615 1 12.597350018820906 1.0718268932701893 8.424343483386252 1 0 0
3636 1 15.13125116131857 1.3899767749955898 7.0196886566051155 1 1 1
4942 1 18.17194001604312 3.6182304437705115 6.826904071891156 -1 3 0
2088 1 19.420429717211213 0.7558497944239344 7.074495090656548 -1 2 0
3688 1 23.794155442155375 2.7568722677690176 6.555069540722542 1 2 0
5059 1 23.819658110170305 0.3011757737780022 7.3615347699854485 -1 0 0
1575 1 2.452794084782926 7.695941192921236 5.6447194081655425 2 1 0
1405 1 3.5519686956240584 4.758375275237426 6.3759756402609105 0 -1 1
4950 1 0.35845818639054705 4.559870976809473 8.488494608472095 0 1 0
28 1 5.826330865685916 8.106549827665694 8.374091049613074 2 -2 0
2056 1 6.7239499868043655 4.291032592891717 5.7090452073303135 1 2 0
553 1 7.325705268088177 7.0728365378809945 6.479436029131647 -1 0 1
3578 1 11.67761200514848 5.3190491263559245 5.7240780913256835 2 -1 0
6323 1 9.572504335590734 7.623873070168047 7.8160520061756875 1 -1 1
571 1 14.953329036575317 5.233455695710341 5.411037143081085 0 -2 0
2930 1 14.37510453795515 5.226847638342721 8.261738693709185 1 1 1
4971 1 17.63640695520923 5.995414550260496 5.840636939881883 1 2 0
1762 1 21.05694097068201 4.145915743879099 7.0048142533747635 1 -1 0
3175 1 21.013917325676488 7.0895518468000835 7.624337795469357 -1 1 0
1940 1 0.3285910445121517 10.319738821635228 6.014459654923585 -2 0 0
3164 1 3.6407827370598627 9.950617954679908 7.66913980602204 -1 0 0
4716 1 12.156194998651568 8.535480759069308 5.236462804195348 1 0 1
3074 1 11.942376617808797 9.22162816251312 7.835222514574818 3 -1 0
5105 1 12.899269193773272 11.955668311604775 6.579134921403166 0 1 0
3456 1 15.179838597109281 11.249731228992355 7.612977925299792 1 0 0
323 1 19.098666908344715 11.655618242358289 6.140741241778213 1 -1 1
5221 1 16.77391811739694 9.535095367091284 5.711443459543091 1 0 0
2887 1 19.75272763764822 8.64483314075867 5.526165439898004 0 1 1
429 1 4.0939117235702245 12.256304020976472 6.711224373036999 1 0 0
4902 1 0.09095205836431125 14.859333452674749 7.011513162222333 3 0 0
5013 1 1.3146772355998986 12.477055679830896 7.547406153546458 0 -1 1
5044 1 3.00997430582153 15.228552128596471 6.253760734296754 -1 -2 1
6447 1 5.050347197568309 15.57475190305474 7.87575826958827 -1 -1 1
1799 1 9.141606017020024 12.56352160162199 7.159987908536902 1 0 0
1306 1 9.456763183622536 14.17281713049726 5.1025097139071836 -1 0 1
1646 1 11.535995219648749 13.844978308471566 8.284016096956814 -1 -1 0
4579 1 13.16272202835508 16.0875941784235 7.479720974936023 0 -1 1
6391 1 14.850818568843197 14.435650421577146 6.13901953996269 1 2 1
1334 1 18.189637666483176 14.844731265986512 7.014753086275397 0 0 1
4830 1 21.947383380205288 12.57462111921747 6.281505887834263 -1 -1 1
1493 1 24.373784293552095 14.0139494667026 6.970613780098478 0 0 1
124 1 2.858890664971108 17.623628876059577 5.211359894059417 2 -1 1
5062 1 0.7045277915737597 19.419154064523056 4.971522940411944 1 -1 1
4626 1 1.5329944753037494 18.11027008473373 8.167938902967553 1 -1 1
330 1 7.705623242654919 16.57235742096455 5.102411162574436 1 1 1
1459 1 6.611252463924484 17.990694880596866 7.259744586455619 2 -2 1
6146 1 5.116316491181162 19.65580415190685 5.356910007279772 1 0 1
1641 1 9.839775072651918 18.555952399617233 6.048003994095682 0 -1 0
1640 1 12.504609256469694 17.93696842518055 5.69937411102941 1 -1 0
497 1 18.72131309904917 19.489298942074605 5.591504898575452 1 0 0
3695 1 18.246825866311134 17.876791883612697 8.030097852878988 -1 0 1
1461 1 16.432454733486832 17.425080029378144 5.577365655196051 -2 -3 1
3701 1 23.03661208767647 17.544650868237287 6.629264805044029 1 1 1
320 1 21.539295887978746 20.074129682330035 5.045975697939149 -1 1 0
5171 1 20.913223504039184 17.09304263719828 8.609412751634697 0 -1 0
4539 1 1.7587586456947646 24.143636024959378 8.331329631527957 1 0 1
156 1 1.336698217860089 22.07406822072363 6.185459028794633 1 0 0
4807 1 4.050047290537166 22.04638933450397 6.940891615740758 1 1 0
1410 1 6.834106310418899 23.07902870080217 7.118756736740784 0 0 1
105 1 10.657484210234868 22.573756688767975 8.12312769842313 0 0 0
4848 1 8.665262400495134 21.02474472123484 6.5358211660539105 1 -1 0
3000 1 10.912594731393494 21.45145279262547 5.082901587075429 1 -2 1
4965 1 13.551609044138747 20.681895157071796 6.153440557093749 0 0 0
2966 1 14.329953258722824 23.338270900971395 8.012010115916112 0 1 1
340 1 19.80381807901245 23.999664038425365 4.845881723172796 0 -3 0
1769 1 17.921443361245025 22.06088749242614 5.695534503994984 0 0 0
325 1 17.585052691050265 22.320953778793935 8.195404369741883 0 -2 0
3707 1 20.15464652958782 24.26020917463427 7.971735105571471 1 -1 0
2879 1 23.93932459416457 21.948424033216533 7.436191757259821 -2 0 1
5303 1 1.7880777672258095 0.6296105718780806 12.006280316134868 1 1 0
1501 1 3.5405643588967153 1.9188612355457157 10.058583999213328 1 1 1
4866 1 6.878640167904788 3.249481638733928 11.94746674561701 1 1 0
300 1 6.763600728674479 0.47733559257132097 10.220756712214152 -1 1 0
276 1 16.072370671383144 3.294118187903631 9.196867829519226 0 1 0
3109 1 13.06010100822317 2.2687634249327515 11.206732013077382 1 -2 1
3612 1 17.300946363828125 1.1960894078717352 10.869169151911807 0 -1 0
493 1 19.984474222613702 1.788752945817641 9.983183266338209 2 0 0
3651 1 23.138544965014425 3.617692522668029 11.416192528320089 1 0 0
5034 1 1.939407128609768 6.589614243588808 10.314789222949596 1 1 0
6242 1 4.323456065674069 6.095918376743941 8.927386620842848 2 1 1
3597 1 7.736070997117402 5.468048423383007 9.697427027890708 2 -1 0
1732 1 7.089007161172185 7.190145186079976 12.476424689116774 1 0 1
273 1 4.487274677558876 4.468642034553123 11.66706441173457 0 0 0
3303 1 4.434721298670779 7.617468313635911 12.30667832693102 0 1 0
1407 1 10.112920446560963 4.3681952892711395 11.366958356065656 0 1 1
3420 1 10.453485867327137 7.1339451374140905 12.073320190671645 0 -1 1
1366 1 11.540145542737296 5.431553017813066 8.637528998695775 1 1 1
1959 1 13.36133209908123 7.581840490790299 9.651197950805111 0 0 0
6098 1 13.800073509663118 6.4566768883562435 12.075540500472425 0 1 1
6348 1 19.980534769833326 7.249739235370889 10.730328877655245 1 3 0
3537 1 17.954511777012158 6.809156057640294 8.666755523733764 1 1 0
6413 1 16.434130585130717 4.858342934944086 11.449187057806242 1 -1 0
4592 1 23.300361328071165 7.39008575472783 9.3926480909395 1 0 1
4875 1 20.77278934325218 4.4487791645188715 10.100531669169527 -1 -1 1
6255 1 1.4878413906570775 9.761666526955848 9.619854864699786 1 0 1
4598 1 7.225772099708417 9.225305623865589 10.3925311028652 1 0 1
305 1 4.128683292396769 9.963675340681332 10.66649293502373 1 0 0
1525 1 11.03919737109129 11.01950092851347 10.447994511332272 -1 0 1
3724 1 8.916421261540183 10.129642063153739 8.805942500257459 0 0 1
3120 1 9.516439055862877 10.179174315762166 12.50427549077607 1 0 1
3140 1 16.022817331477658 8.839991376570381 9.13949904206881 1 -1 1
6171 1 17.445772057431498 11.7393687994073 9.782215202948027 0 1 1
405 1 19.8612468558089 9.791252790565736 9.00033279884709 -1 1 0
1934 1 17.80038941305688 9.33427970141674 11.6743925160444 0 0 0
6353 1 21.974861231120112 11.68557489054577 8.803566748582817 -1 0 1
301 1 0.9591589607720862 12.66506300795553 10.333929098060448 2 -1 0
1745 1 0.939388697879763 15.7204015777409 9.541514471019257 -1 0 0
2848 1 3.1793755065049907 15.616370478931593 11.653949295571215 1 0 1
1700 1 3.301120507350096 12.653364578960694 12.090151370469885 1 0 0
1757 1 7.433250795210193 14.076108459146878 8.965598979249833 0 -1 0
4842 1 6.859334400009472 13.98923608481056 12.15097609556961 1 -1 1
3550 1 13.517880795781497 12.738781785731543 9.889594233248278 -1 0 0
166 1 14.126180513159422 14.900237999880941 11.91775499525419 0 0 0
6240 1 19.819499841637143 14.551705879053879 9.28512392956278 0 1 1
3290 1 17.317148784048037 14.519830441657927 10.902333438520934 1 -1 0
3166 1 24.028354889028932 15.095923260243598 12.270542509567735 1 0 1
6334 1 23.337154511139378 15.597142830879466 9.474717694940376 0 -2 1
287 1 21.76071670279318 13.276608181633069 11.051150724560365 0 0 0
3477 1 0.5638740677030406 17.044573502469508 12.327162202169394 2 -1 0
3333 1 1.278481234630308 19.279716832314463 10.69596275102847 2 1 1
480 1 4.1379579248842076 17.77912936110617 9.674290207051389 -1 -3 1
3451 1 5.605770652060487 20.351391342679065 9.732785724793967 0 2 0
364 1 7.774184015867926 16.818821185944362 12.437721387564261 -1 0 0
106 1 8.148547281968934 19.531359939904704 8.944402320321515 0 1 0
575 1 8.874174822924306 16.709569799754075 9.779994543842879 2 1 0
2929 1 11.28408179089521 18.613915436438642 10.332377829265239 1 0 1
4988 1 14.976143658748205 20.378963582780372 8.696194693028595 1 0 0
3006 1 13.996631868417637 17.68040161169281 10.65958115188785 0 1 1
3627 1 19.708969590995043 16.615021262533727 12.135630564558392 1 -1 1
1536 1 17.10757850343442 17.67230375475279 10.88728425186301 0 -2 1
2946 1 21.807508680169946 19.225778567045893 10.227311596711639 -2 -1 1
199 1 1.3340984515136136 23.693185560416236 11.255119156474416 1 -1 0
3328 1 3.284014258302765 21.485828285844548 11.616106183774754 2 -1 0
2918 1 6.8567823851995415 21.516215230060144 12.25539660262221 1 1 1
5446 1 4.376276238006488 23.553878019893876 9.652967125086304 1 1 0
4718 1 5.486505945132945 24.086049484092815 11.990161944551716 0 -1 1
522 1 9.777260041343686 21.463209748756864 12.063480626741258 1 -1 1
3616 1 12.045780514977437 21.448514282570827 10.316594383934218 1 0 0
5211 1 8.286094330009128 24.44737166600164 11.836785581814134 2 0 0
5183 1 13.378083026138832 23.162710207028244 12.292366466430748 0 2 0
278 1 14.748383399783956 24.275979268334343 10.340268165550247 0 1 0
517 1 17.88792640567885 24.087118075385515 10.660266964684755 0 1 1
1608 1 23.299932481400685 21.9501031840106 10.111730441481507 0 0 1
373 1 21.473868807943976 23.930897746904495 10.599462700332904 -1 0 0
1611 1 0.5027278438179815 2.837728968989451 13.146367608207884 0 -1 0
3218 1 7.730164681667834 2.1648916454750644 15.399384628971928 2 0 1
1323 1 5.1410936496118635 2.6363847273195624 15.039216624083574 -1 2 1
1642 1 4.660550601760015 1.338813246686448 13.033861190568533 2 0 1
2159 1 10.756890796452117 3.389562183148609 15.235664828618079 -1 0 0
3399 1 11.330938336933524 0.6755705205614864 16.136489044546078 0 0 0
2064 1 8.937035618519337 1.0224293776589648 13.152070446243991 0 1 0
6185 1 15.177065220224206 3.0003889186886483 14.078672975055404 0 2 1
1448 1 18.04856344730338 1.810902532568015 13.80028314445244 -1 1 0
3327 1 19.19839009515334 4.047250196552603 12.639330349156651 1 2 0
3452 1 22.38032046333937 0.0343902780884696 14.505219602166465 1 1 0
3260 1 21.606965117860412 1.8433718284099736 12.568891522222522 1 -1 0
5455 1 2.4905619548407434 7.910974384371423 14.900861795031414 2 1 1
1887 1 1.9410877308417882 4.255836490696428 15.6108059446764 1 1 0
4820 1 0.8673545654379553 5.726903973764055 12.933137544335803 0 1 1
3306 1 4.3887171912705805 5.309488768203522 14.43052866172461 2 0 1
1524 1 6.652894384580776 6.548236500938618 15.374171278259803 3 0 1
1352 1 11.230587340273836 6.675048952493947 15.058984412344302 0 0 1
4548 1 8.451169464464012 4.6718645924979665 14.026651944768973 0 0 1
3271 1 12.416447359897889 4.250680599103115 13.07941523281893 0 2 1
3274 1 15.504007732536433 7.833687577503453 13.342659831092497 1 0 1
4861 1 19.508256043849283 4.271445767108855 16.26438489966514 2 1 1
6320 1 18.619455176435586 7.032876731615376 13.928980533554626 2 0 1
2077 1 16.734884139762947 5.215433771475415 14.724342186662923 -1 -1 0
6174 1 21.875255421861322 7.583188753520669 14.286976688373622 2 0 1
188 1 21.236485974005305 4.75924166313836 14.04994423343559 2 2 0
1358 1 24.391540779756532 6.855452017276066 15.706042733804018 0 0 1
2028 1 5.6678320519460605 11.600753066801516 14.17831367311335 0 0 0
4547 1 5.390393737845212 9.068081846635792 14.755682202713343 -1 0 1
562 1 8.172373970131268 12.148174783786372 13.935112041907118 0 0 0
3230 1 12.182567354452855 10.926331026477959 14.481128590208307 0 0 1
1674 1 9.921653565010436 8.941432900562798 16.09866359032862 1 0 0
3305 1 14.299727740288828 9.33890945919096 15.353997700152169 1 1 0
5372 1 18.903771667227854 8.495336206874512 16.14684662319748 0 0 0
4823 1 16.96058330446595 10.762402549663765 16.143154961156817 0 1 0
5126 1 18.965498426109768 10.76076196745537 13.920130267713306 0 2 0
5262 1 23.380948841314368 9.720863884904064 12.690715253844186 -1 -1 0
1944 1 21.5021648956683 10.942737655138854 14.52419011484782 1 0 0
3383 1 0.5229719369496343 15.62096276904795 15.088719337263836 2 -3 1
16 1 1.6891372126573243 12.571927725159513 14.736245772218295 1 -3 1
1780 1 4.239751821027555 14.005565392199912 15.590995802025684 1 1 0
142 1 10.301874215287949 12.572323639145036 15.881258977558291 -1 0 0
6212 1 11.745435684608657 15.512931052595748 15.925002198547888 0 0 1
3764 1 13.225066249483584 13.4949819992952 14.08179548510899 1 0 1
2150 1 15.681813582810943 13.346040833519643 15.68341249154913 0 -1 1
2030 1 17.835385265540175 13.445923182182321 13.579761235178294 0 1 0
311 1 18.320608965906047 14.562741827903219 16.277818744395546 0 -1 0
1806 1 20.802708853082724 13.792500886488492 13.763755125283982 1 2 0
3744 1 23.43616684882299 13.669071638224723 14.514379664120884 0 0 0
1532 1 2.523070850262017 18.135835965726802 15.576768270330419 2 2 1
1283 1 7.236198010957145 17.111079527728474 15.562740769688157 -2 -1 1
2977 1 4.424610740874344 16.37956322767537 14.251680468292468 0 1 1
6102 1 5.583159011822706 18.994295517735537 12.72825421220281 0 -1 1
1465 1 10.046041187640915 18.405548646746357 12.820124725562959 0 0 0
3558 1 15.402414907698159 19.16586110379145 16.384145215284914 1 0 0
3123 1 14.307491099311303 19.684818324778774 13.21835901399777 0 -1 1
2960 1 15.495292711914587 17.11891855581719 14.76342471853566 0 -1 1
1331 1 12.57262592977809 16.838085386854573 13.776977523973896 1 1 1
4915 1 17.095946213125643 19.32802700227361 12.930257797051024 1 -1 1
4647 1 18.413672115993958 16.91976430994691 14.504101075263048 -2 -1 1
3687 1 21.650739552742287 16.45781861275809 15.325435553761206 0 1 0
82 1 21.082865399499582 19.06806183944383 12.990948844778524 0 -1 1
1368 1 23.77413835489001 17.691137813072416 13.687081866352619 -1 0 1
1548 1 22.018418896545572 20.31090490616076 16.095399016144853 -1 1 0
566 1 1.175677711193222 24.109578556422246 14.373868816542492 0 0 1
505 1 3.8703119197703684 23.235330518962353 15.861199928527592 1 0 0
179 1 2.201652927475748 20.966928278310824 14.360294324139842 2 1 0
6154 1 7.266637071362005 23.273788504465877 14.965688514948381 0 -1 0
3468 1 5.318088131074491 20.904580283242645 15.118918478320916 0 -2 0
2035 1 10.137896769928624 22.245748683091115 14.915386670843539 1 1 0
5316 1 10.903197058647864 24.281678522433 13.252735490091473 0 -1 0
4693 1 12.853872967700688 21.112974962592283 15.086039391399806 1 -2 1
5320 1 14.693727125838326 23.2338453465026 14.78532799410734 1 -1 0
3018 1 18.649262067860228 23.416680705826174 13.826797423360686 1 -2 0
6470 1 20.287623872906654 22.46399874589285 15.796392487212696 0 2 1
4623 1 16.858251845976454 21.58439332968844 14.771477700136682 1 -2 1
3316 1 22.299219728487046 23.949900738387267 14.732962848835683 0 0 0
3304 1 23.10747751008381 21.20173404005958 13.410645140462183 1 1 0
5167 1 2.321116093880975 0.557678053056923 17.739569210918166 0 0 0
229 1 7.0605456938874775 3.277325879627944 18.739700519185043 2 -1 0
1543 1 4.422186591306972 2.1464208672216754 18.60989416208433 1 0 1
1456 1 10.46186446865543 4.022762895859378 17.84748077390678 0 1 0
1510 1 12.233520796588039 3.6555893497113114 19.70231343360183 2 -1 0
342 1 9.389957741335715 1.275192761113295 17.827552435577875 2 2 0
4604 1 13.97352302030478 1.6489184362991363 16.49096501423643 2 1 1
2952 1 15.331880167433084 0.6015513457824989 18.67502214369153 -1 0 1
326 1 16.749809775687535 3.9708785518801952 18.294484263355727 0 1 0
1365 1 18.088727292936067 1.8835862737554292 16.819365814837738 -2 0 0
6369 1 20.259931964867647 1.295959928265491 18.292294989694525 1 0 0
510 1 22.94242370172186 0.3651601734085764 17.58090931049978 2 2 1
3659 1 0.9715422906084307 7.456001849024786 19.886309060573275 1 -1 0
1475 1 2.476112425829818 4.453631435160696 19.067650864916605 1 1 1
3625 1 2.8807229310235236 6.759315802102984 17.36327242212298 -1 0 0
5014 1 5.8266081432943855 6.091570912201464 18.327905834682465 1 1 0
3322 1 10.977937467511353 6.839985615493736 18.29125875842231 0 -2 1
267 1 8.859854648320173 8.117287094349859 19.754152404363275 -1 0 0
6424 1 13.590504545347628 7.513075473159158 18.90496813243257 0 -1 0
1777 1 14.158657539444897 4.3727379300234865 17.756900765966524 2 1 0
3055 1 16.360190340819358 6.734359768592248 20.246285624828435 1 0 1
4864 1 18.362506078657983 6.434679269468861 18.35764893330942 -1 2 1
4609 1 23.725984617786107 4.283999261809716 18.26958744722169 2 -1 1
5279 1 21.325040089055648 4.662432350563562 18.781459315451706 -1 1 1
3691 1 20.543024185356057 7.036205259448051 19.887636013082968 1 -1 0
3702 1 0.9451544570226247 9.67761979642613 18.002667358469388 1 1 1
5325 1 3.6200314095250268 10.73256801952266 19.71250167427532 1 1 0
4811 1 2.784215761654982 10.682315055352461 16.51953294193705 0 0 1
2124 1 7.162319226716321 11.013041026899266 19.265852475759406 2 1 0
3173 1 5.685079394679211 8.730856898140097 18.96075070732474 1 0 1
1672 1 5.297658130226978 11.814651426867613 17.24483929717062 -1 1 0
34 1 10.541635254509673 10.665338439650988 18.262437167229056 0 0 0
1302 1 13.582875185428357 10.174549220173754 18.170714716214086 1 0 1
2087 1 18.870861639980077 12.091502516488985 17.613791647173695 0 0 1
5304 1 20.766774210806304 9.683363451319213 18.73030688652334 -1 0 0
2958 1 23.95162873415103 12.07171769740692 17.273424071018493 0 -1 1
6137 1 22.986915117603225 9.359870437146117 17.033043400851177 0 0 1
1381 1 24.594951720849007 9.627554825204014 19.700168790273285 -1 1 1
1954 1 3.787923327345006 13.462484789940982 19.617551095841893 1 1 0
2018 1 1.9402570511483 14.423955492782483 17.403042147451828 0 -1 0
6263 1 0.18406227117099896 12.698768533470082 18.91265841068948 1 2 1
3370 1 6.938150312134916 14.482823744099914 16.866030986851833 0 2 0
5368 1 5.850039384509554 16.321640103304023 18.66878752761585 1 0 1
1779 1 11.18903720319115 13.264064922814592 19.336386592698467 0 0 0
4974 1 9.826948772535028 15.420771945524761 17.72031485442707 -1 0 0
3156 1 14.004996542867197 14.863042651204557 17.273734263977463 0 0 1
3172 1 13.907614094507602 12.627655419855781 19.068080452793875 1 1 1
4503 1 17.114686850520933 13.809821686263156 18.969384258998097 0 0 1
6254 1 19.397483069815276 15.712755048113573 19.97790784897185 -2 1 1
1882 1 22.976852528304356 13.448979596214318 19.810564227329742 1 1 0
1723 1 23.612018714825368 15.026425012600214 17.179737927729455 2 0 0
1325 1 1.3159552471934814 16.816902088513018 18.745207169179565 0 0 1
62 1 3.7047226324528117 18.186353700074683 18.011486669341682 -1 1 0
389 1 6.131898174002591 19.260855127809 17.142172116494187 0 -1 0
1609 1 8.287198971081795 18.06078991343199 19.480712200161552 0 -1 0
4580 1 16.15963370322136 16.66935444438934 17.69097915434281 0 1 1
5001 1 13.289172727822288 20.01468158789579 17.9121896729056 1 1 0
4766 1 13.216744067613465 17.109735785588327 19.068007959535198 1 0 1
1676 1 17.987317736429386 19.020788973146615 18.96809883020571 0 0 0
4792 1 19.427532111007036 18.252268982772943 16.73839469982883 1 0 1
1427 1 23.434734395628542 18.24613092084704 19.29082210510584 0 -1 1
134 1 21.067339856014268 16.644766010343904 18.03863709977163 0 -1 1
5302 1 1.7031992902797912 23.714787883099138 17.552701724367832 1 0 0
1903 1 0.5218406167180312 22.366489839025014 20.267449396481755 0 -1 0
4967 1 2.1595315692126236 20.83021785899752 18.460328875199323 0 1 0
2121 1 7.208970550699383 21.21617139228922 19.0312670959922 2 1 0
6438 1 7.904886181546506 23.813325864740165 17.78632779388207 -1 -1 0
3504 1 4.329752867422383 20.880230430579047 19.955848890946488 1 -1 0
5101 1 10.712099780658653 21.387643409542036 17.843913370070403 1 -1 1
1399 1 12.693074777672148 23.49643336833953 17.940215900658348 0 0 1
2945 1 14.721902932732233 21.997122945729913 19.447912304333915 -1 1 1
2870 1 17.392816683028148 21.958403323441825 18.89758326856205 -1 -1 1
5404 1 19.34903093206396 23.885700416814636 18.2589082606906 -1 -1 1
3666 1 23.87690595940965 20.84662745021504 17.95544052310776 -1 -2 0
1761 1 0.7934448846869536 2.627993722461133 22.94657507504123 0 0 0
6201 1 3.591169881402776 1.8837285487394737 21.687053824893564 1 1 1
1580 1 4.7301100917358685 3.1028529159132816 24.05946738445032 0 0 0
5385 1 6.755452396501907 1.6623170080312049 22.576743250937326 1 0 1
5051 1 10.13374630920808 3.09698818220935 22.506647844043815 2 1 0
3482 1 9.239050244621293 1.3622898816392195 23.992201390328805 -1 0 0
1790 1 12.000260462500842 1.5163040123821474 21.131352769410157 1 0 0
6122 1 15.060195856769626 1.6224142413110112 23.54981508362686 1 3 1
6313 1 15.366646901825234 3.00786580218786 20.5510931740404 0 0 1
6166 1 12.751285746778342 3.3774063365957483 23.53335889716243 0 0 1
4818 1 17.791712068582466 0.5045368027671426 22.72213818410847 0 1 1
3267 1 20.487103172624813 2.7298703589407265 20.724224551914528 1 1 0
1724 1 18.026375143531194 3.0546815768555335 21.863216861941474 0 1 1
3595 1 23.262481878530565 1.8229723243499962 23.237408266478457 0 1 0
536 1 22.521953393002 0.36337310774157644 20.803152025098992 2 -1 1
3319 1 2.4515564019914704 7.689027236028431 22.10105511701343 -1 0 1
2 1 0.8240015562020497 5.571728227179527 23.178608079727425 -1 0 1
6276 1 3.217888989189099 4.659290233868912 21.36183652226587 0 0 1
5039 1 5.804883800663182 7.614471793408976 21.54096783979046 0 0 1
2158 1 6.268606285238755 4.917157282020673 21.59349161053779 0 0 1
6415 1 11.423329793208238 8.013284395397616 23.241044777396606 1 2 0
3529 1 9.28501921140088 5.904694467177468 23.82380495383271 0 2 0
1968 1 9.17193615705128 5.310394160750335 21.00880998318703 1 1 0
3475 1 16.366381997639458 5.843044178130166 23.09901525595377 -2 0 0
5399 1 13.554666016006399 5.781578997378029 21.356279104274737 0 1 1
69 1 13.260315622142436 6.055835663792281 24.144049685987614 -1 1 0
6367 1 19.428324071545525 5.223968604736216 23.254079936675772 2 1 1
3758 1 20.233584283081427 8.099587961398527 22.64883804231516 -1 0 1
1539 1 21.895871234861904 4.301788750254987 23.552909820070735 0 0 0
3746 1 22.954336962233633 6.030653246848613 21.51416336273069 -2 0 1
1751 1 1.8394488450136057 12.012191323400241 23.6357184902798 1 1 0
246 1 3.8793681179984887 10.167400554788852 22.605260568230513 1 -1 0
2854 1 0.6921825626810161 9.501410897153855 23.90826604575202 1 -1 0
4944 1 6.839272177398974 10.625483149880473 23.323740285463842 1 0 0
224 1 9.200934216139217 9.79811132455001 21.91514838817883 1 0 0
433 1 10.917774978663111 12.132868760303376 21.778222173110528 0 1 1
2118 1 15.019603277570209 10.082614451368254 21.038439656496376 0 0 1
5196 1 15.453445982186176 10.82990370230203 23.986164205556165 0 -2 0
5071 1 17.44655071062974 8.530419773354788 23.37323409690436 1 -1 0
1812 1 19.592066714174805 10.689303692600964 23.94367866431208 -1 0 0
5081 1 17.752100449296922 9.151254434674167 20.401098890422443 2 1 0
186 1 19.4368520120402 11.173766065181903 21.138513132455834 1 1 0
1755 1 24.211198867061764 11.92088842669495 23.176688901560656 0 1 1
3111 1 23.579983266445026 8.594938644027893 23.036109803464598 -1 0 0
6410 1 22.498305833363016 10.862220225419147 21.201769305073988 -2 1 1
96 1 2.9243108828029483 14.721739560596422 22.6328912380477 0 1 0
572 1 0.28207362448882667 14.418130205135318 21.2876893817728 1 1 1
161 1 6.740382926190291 13.46495782424428 23.07380548962635 2 2 0
5015 1 5.489864219478935 15.449665792503197 21.284663601259997 0 0 1
1667 1 11.053727119603685 15.415916434404485 22.799479698843783 1 1 0
4561 1 8.239504406206612 15.40216922496691 23.978067811970927 1 0 1