LAMMPS data file via write_data, version 29 Oct 2020, timestep = 100676

4609 atoms
1 atom types

0.0 49.22 xlo xhi
0.0 49.019635930410494 ylo yhi
0.2580217891531653 59.80397821084867 zlo zhi

Masses

1 18.015

Atoms # atomic

2568 1 18.419244708732364 1.9948126543772586 19.429899804162687 0 0 0
2097 1 9.929678747875473 0.4113186830517643 2.346893304267588 0 1 1
3387 1 4.470454524204743 8.806047798980075 0.403312771234276 1 0 1
437 1 8.100879534230685 2.5584353216089473 1.932174414982702 0 0 0
3956 1 24.40004448904327 2.1546171991779755 15.932708824947042 0 1 0
380 1 15.065718741316259 1.6104954864601215 2.3087593614960777 0 0 0
79 1 17.612973577816934 1.2130566912474008 3.956668178232652 0 0 0
576 1 19.877089192367514 1.6203657610149922 2.048315734784305 0 0 0
1171 1 22.132469100923867 2.579742559437038 2.9491785931163204 0 0 0
578 1 24.49474490870655 17.9094593009771 12.235836186178904 0 0 0
2439 1 2.1029136324380904 5.173841583066865 2.3384524965839026 1 0 0
426 1 17.738809266056798 18.69298793174672 1.211744869207835 0 0 1
1234 1 6.675478727219651 5.823672294244365 2.618597624492937 0 1 0
3615 1 10.466133218509 4.111479434003763 2.845986830532716 1 1 0
1355 1 24.29934758547738 14.202753578061342 6.891775605215726 0 0 0
2057 1 16.353648076567517 6.5822524399869815 2.5761889233073387 0 1 1
779 1 19.121239863696108 4.743720848788795 2.7044434134012936 0 0 1
1902 1 13.427567877900652 9.932398095537733 0.88938355407551 0 1 1
102 1 4.169300354901234 7.152390583988053 2.74882322434613 0 0 0
3524 1 18.5770501533311 0.9790186945084521 6.339614383275362 0 1 0
330 1 8.302789772137952 8.094123091719185 1.6561364198917057 0 0 0
332 1 10.5494091014623 6.5100114843533285 1.4097504643830623 0 0 0
1488 1 12.204024590659712 8.098963372982094 2.827545340156985 0 1 0
1090 1 16.033642115820363 9.564242538858199 1.9023568953435053 0 0 1
938 1 21.232666137991483 8.104311072026064 2.194791256040048 0 0 1
350 1 10.596256290018799 13.783296707192244 18.233117943971525 0 0 0
935 1 23.26327915783926 7.205429094461775 3.7441717865326685 0 0 1
2512 1 1.932247692543453 12.576937736451436 1.1170827295573318 1 0 0
3804 1 9.28754064729311 12.202228705902257 1.9818991932466459 1 0 0
982 1 11.995029006808554 11.66453686562468 3.110893715695109 0 0 1
1343 1 15.342752985337066 23.61233759696705 15.400509828025204 0 0 0
1421 1 5.876582931317819 24.3980861024915 14.849066551648354 0 0 0
3628 1 19.647580295982632 9.999082970103782 3.928908419518874 1 0 0
238 1 20.429717800253567 11.609892880394263 1.609897886247294 0 0 0
681 1 3.4085551562197582 9.146332541490743 20.05328200016945 0 0 0
2023 1 2.997471139495415 0.8293559135460242 1.811805890759396 0 1 1
4269 1 5.252228637870723 14.550792399481287 1.3692551478750141 1 1 1
136 1 3.713253032094097 13.21056003366833 3.081680893053084 0 0 0
112 1 7.361700199089955 15.240114837593142 2.7379663089467643 0 0 0
2578 1 24.35274361492414 7.124577972425962 18.030655131270503 0 0 0
4223 1 16.687986195779004 12.568646239591432 1.921858023740654 0 0 1
4255 1 21.022369307494845 14.211996095801304 2.3527147362156744 0 1 1
2537 1 0.806816163657715 3.541623336484348 10.503978839565056 1 0 0
3130 1 3.9991349222679147 17.216046565648558 1.9865599972449892 1 0 1
345 1 9.898574605250953 14.76997476104651 2.1399520228362965 0 0 0
328 1 11.940885436053644 14.366539510664856 3.9682416084743783 0 0 0
1920 1 16.399052129552953 16.608184886025356 2.499281162109281 0 0 1
1259 1 20.140614197506856 18.186183423650245 4.402834401350421 0 0 0
246 1 5.874296802606933 19.73114156474348 1.1767777980329228 0 0 0
2384 1 6.8086216190629845 17.99186189948902 3.4556275398080705 1 0 0
987 1 9.373860427719496 19.20072742760445 2.525839826498853 0 0 1
284 1 11.560214497312485 22.163831087696504 1.5672779238029502 0 0 0
2452 1 5.830825627288422 4.034083183207015 0.29745153445729644 0 0 0
24 1 12.319434536080802 18.394302486850016 3.179642309960229 0 0 0
2445 1 15.080149698659609 15.46086299649063 0.4207508095005839 0 0 0
1637 1 18.803192958398512 20.479060058729925 2.595663287341299 0 0 0
901 1 22.79135514036093 18.473503144157803 1.0259468324765355 0 0 1
266 1 4.116401133916135 23.750381132576234 1.2083525179311456 0 0 0
2645 1 5.817871609167741 22.05350105352712 2.626448239051362 1 0 0
2508 1 0.8262539268075704 6.314867231021576 10.657855705516646 1 0 0
1367 1 21.16993312257772 21.824129694959744 1.513118547485691 0 0 0
1382 1 23.74466242890987 24.288107634400617 7.294125262944497 0 0 0
1161 1 20.47759537312367 23.739871078979117 4.796185169761291 0 0 0
3556 1 24.182293066135855 21.024558199630206 19.591209171726206 0 0 0
4307 1 21.147311247103165 24.235094562766143 0.40282355994428387 0 0 1
2039 1 13.791047858988996 23.845239390460268 1.4219884074219638 0 0 1
310 1 2.2574591066894496 21.206710702041583 19.667915361429113 0 0 0
3535 1 4.087770757164902 1.6825135361092896 4.897396600659452 1 1 0
1481 1 6.81635358625399 1.6280578024146628 4.444213504724883 0 1 0
2605 1 11.507373770034713 2.6432221627288173 4.853346538423602 0 0 0
979 1 9.491002406467569 1.5504123793979199 6.453655117914825 0 0 1
54 1 12.999182633768443 0.6090077578936078 3.838356283863345 0 0 0
270 1 21.12704919411226 1.6496454268454328 7.3473482795723415 0 0 0
523 1 6.251258972529707 22.74899946361466 19.90430702259709 0 0 0
1134 1 22.94485465078011 1.2770097487082634 5.1708366675386115 0 1 0
214 1 2.5240103013484756 6.118137623591112 6.598421701602582 0 0 0
2207 1 8.296314805387942 4.651053867468612 4.570725720468886 0 1 1
338 1 13.71415939469943 5.616899001620986 3.283598380689868 0 0 0
2204 1 9.585885905760938 6.958593973632132 5.839074324519034 0 1 1
133 1 16.543987278352215 4.070139973133683 4.163604390281602 0 0 0
1395 1 16.33830480478221 5.009637895112463 6.918179666455037 0 1 0
768 1 21.65253054082337 4.878954379012726 4.4953367787824865 0 0 1
3469 1 22.32349697027765 4.186509290471159 7.079116285847197 0 1 0
1078 1 13.826567573994334 3.7243336290410087 0.9457885307262901 0 0 1
2618 1 2.3288073409914043 10.278658204183875 3.4524304386876743 1 0 0
223 1 3.9470538360752307 8.320637568891044 5.248358692397144 0 0 0
2663 1 10.236515030324346 9.142636031642782 4.625441960721678 1 0 0
887 1 13.852059214705948 7.848015404572559 5.755151668438041 0 0 1
1310 1 17.844216658152938 7.140313485418342 6.844231636947061 0 1 0
792 1 23.792089875332383 14.052451123450968 1.3945288297846685 0 0 1
3296 1 19.747561357044297 6.169530799908867 0.6256017274278007 0 0 1
1054 1 5.10555045627171 10.426246628458564 6.873306942013843 0 0 1
3261 1 7.89354431834445 10.448998109223233 3.507407943593207 0 0 1
47 1 7.093031464904737 12.170842834412593 5.697519702537041 0 0 0
1159 1 9.786851043692344 10.958492852767234 6.787235842690953 0 1 0
260 1 13.823873879775599 10.430234045915117 4.8907841177530775 0 0 0
106 1 16.73425776963805 10.717055880948008 4.607592960937091 0 0 0
1040 1 18.223016158084228 7.663833675426421 4.199653886801634 0 0 1
2208 1 21.13086639730368 10.709998127389534 6.008184255519551 0 0 1
155 1 2.239385699838876 14.114254567139179 5.377086439076629 0 0 0
3336 1 7.365299133093972 14.783540345423708 5.418477811293886 1 0 1
41 1 11.39060445298455 13.299246265750762 6.430239732328262 0 0 0
438 1 17.68143838396312 14.662736713466344 3.545415346245775 0 0 0
805 1 20.222698281927954 13.020743506035256 6.71405252044235 0 0 1
53 1 23.68507954421433 11.816344537534523 5.4628510728010555 0 0 0
235 1 24.130439809535627 3.2591572760973753 12.049233508457531 0 0 0
2619 1 3.041016566725786 16.959915624470295 4.47106712596562 1 0 0
2616 1 3.390674798365726 19.5531626043525 5.904024806031369 1 0 0
1513 1 5.853094042282587 18.372196933162645 6.072424281641894 0 1 0
70 1 9.61138894650684 19.032226566272403 7.199190691148324 0 0 0
381 1 14.005976583755622 16.241829154642893 4.193063012729577 0 0 0
3946 1 14.070608705312987 18.168534822435884 6.622652716432373 0 0 0
123 1 18.271387792429138 16.43989857504382 6.97060236804917 0 0 0
374 1 20.53231214827238 15.444202192540159 4.978957078738318 0 0 0
372 1 22.518125534655297 16.847296227502504 6.572575821364982 0 0 0
55 1 1.9676160842112052 20.438046679555942 8.204562964725039 0 0 0
346 1 12.829791455104083 17.17791059478141 0.4156467898363555 0 0 0
36 1 7.53658252020445 22.39905355977586 5.142232792392125 0 0 0
2638 1 9.899293179225385 22.934444557685687 3.966193642166357 1 0 0
1456 1 13.743183953074546 20.724368777897702 5.469928296465276 0 0 0
1201 1 10.801230708091083 20.333530268309445 5.07630640001048 0 0 0
937 1 18.64775404324875 20.42049083622238 5.590972110200182 0 0 1
1912 1 22.77011581669653 19.387164949507284 3.8618684955763776 0 0 1
3380 1 4.20871247455729 22.07706360939783 4.923368145305484 1 0 1
93 1 22.852999345604264 10.16158936578123 1.3048108585102558 0 0 0
1811 1 13.877885187120558 20.736527389752844 2.6358477406897256 0 0 0
303 1 15.763879407108139 23.508909405431996 3.4289472279873583 0 0 0
2179 1 18.025536044224037 23.9378699440245 6.309977960874323 0 0 1
231 1 22.910767449847636 22.119962890118767 3.741712346607698 0 0 0
2324 1 20.983206723646173 0.23898622819985066 10.114401671122932 0 0 0
76 1 23.053309330908597 7.206112562617765 6.780930897190391 0 0 0
5 1 3.510294497321601 3.5198103272263754 7.117504363388308 0 0 0
4245 1 3.4762923675861512 2.4113635213391293 9.843004568468512 1 1 1
2184 1 10.147183043093644 2.1026644142894195 9.061242707491289 0 1 1
204 1 13.348555645735745 4.604639900762856 6.013310174530392 0 0 0
1299 1 13.888669795256433 2.0207984151291893 7.568432938020657 0 1 0
1684 1 16.804915070722178 2.2418279232613423 7.874026223383656 0 1 0
147 1 19.183823970544346 2.8396138107852544 9.612190476496508 0 0 0
2071 1 13.985772088669563 12.798572911224143 0.9805017531192727 0 0 1
113 1 7.3744523317798985 3.7620868559861567 9.460437918497263 0 0 0
657 1 6.353767375822423 4.285584790642408 6.650426770696096 0 0 0
139 1 11.544030759910816 5.093840792102383 9.959635095755335 0 0 0
1385 1 17.02938856874141 5.138326322047186 9.909571391547425 0 1 0
653 1 20.966520017617654 5.123664809265828 9.412009221783695 0 0 0
2499 1 5.665133038601783 6.7537566284932575 7.393471268937385 1 0 0
1900 1 6.775287623073213 10.324620636113806 9.31687054400175 0 1 1
1519 1 4.434063364431021 10.517661371119999 10.828987299657868 0 1 0
668 1 8.037126946340313 8.034021268193198 8.10265844641389 0 0 0
3034 1 11.790789775161961 6.331229375464597 7.308570275521303 1 0 0
1 1 13.757587051994946 8.39522969557579 8.774639122371 0 0 0
77 1 16.291124016473148 9.383401423227948 7.368355299666069 0 0 0
2722 1 19.176085393609753 7.606423172977005 9.397301006672036 0 0 0
180 1 2.409755529345763 10.975866275727324 7.347753828475872 0 0 0
2978 1 2.275471878066985 9.19225514713823 9.547253963777312 1 0 0
837 1 7.8848078119561595 12.949485341944213 8.66671639093783 0 0 1
233 1 11.03357290837105 9.521666610213963 8.78939522102527 0 0 0
630 1 12.656862096236425 11.977100052242081 9.557988723144547 0 0 0
652 1 16.365919460531153 12.030757512746147 8.71127796184146 0 0 0
277 1 21.304113574012533 9.014681470673978 8.23411400722575 0 0 0
365 1 23.0724323914932 10.367731100784596 10.214312965973612 0 0 0
2325 1 2.086132795433148 13.632503776523931 8.104970349218881 1 0 0
2312 1 5.009099423011213 15.70060688997847 6.139490997287274 1 0 0
26 1 4.189476928617534 15.223171900741763 8.866071424498719 0 0 0
224 1 9.68141094145275 15.610738733564892 7.301883330580067 0 0 0
406 1 6.426131470661167 14.604531519462663 10.415776184941972 0 0 0
2524 1 14.058360334665776 12.551597543052923 6.851999452628183 1 0 0
90 1 15.37028119605187 15.071512442035122 6.522877321798055 0 0 0
202 1 17.4299782327742 12.980840019334702 6.153330763326092 0 0 0
2142 1 20.64327813278591 13.797401991084811 9.089950996071348 0 0 1
939 1 20.562641179013653 11.604906097176576 10.641425833595026 0 0 1
928 1 22.865607189530422 15.314608576199069 9.522979080146918 0 0 1
128 1 1.754206785509687 18.815837907738313 10.765474085893029 0 0 0
153 1 10.634975769920848 17.35071655638697 9.234712986082744 0 0 0
288 1 14.796964422408792 16.486186698040154 11.035371531464454 0 0 0
162 1 18.591133829536776 15.365265719503695 9.63565607751372 0 0 0
702 1 22.006111428212108 18.899696128117466 8.345563090100262 0 0 0
348 1 7.214652593421259 19.778256863982502 7.9176963079626255 0 0 0
1269 1 10.78136343981917 20.899596044416974 9.176243256707709 0 0 0
2280 1 13.267374900657599 18.223824780782145 9.209465561773769 1 0 0
669 1 16.833657388250995 18.727012795194202 6.958465556477768 0 0 0
3657 1 16.853678454188184 21.206646727886373 9.24541676243173 0 0 0
449 1 20.097314008842822 17.68237696290393 10.199568178088489 0 0 0
809 1 20.958606762198798 21.145658233443438 6.948365221204745 0 0 1
318 1 2.6832601260664966 22.92467297579977 9.55721685269051 0 0 0
3161 1 5.457523299512015 22.522086959726884 10.495778831039903 1 0 1
2574 1 6.957775153304383 22.58094860247078 8.05608512693047 1 0 0
81 1 9.558255395868672 23.581947670656316 8.62331424652669 0 0 0
2597 1 13.408747225884987 21.72372667900403 8.55772023319992 1 0 0
1298 1 11.961056181855543 23.095167961743698 6.314358536322863 0 0 0
58 1 16.18376191319068 22.121903434465548 6.344363398677425 0 0 0
366 1 16.828560967309823 23.92374557938099 10.332238315702375 0 0 0
378 1 19.389606446229426 23.830422719457662 9.014039300981523 0 0 0
3909 1 22.10498497617521 22.83178422985329 9.289462343141759 0 0 0
726 1 7.783273237447184 0.8510247310489168 10.84388145369032 0 0 0
4031 1 9.637417273553101 3.1749732692945836 11.976418293845933 0 1 0
1992 1 12.736385299273524 2.1274345086022937 9.786139919289933 0 1 1
306 1 11.540256642504918 0.7714155352588152 12.720600980350774 0 0 0
2573 1 17.57855087318195 2.0639325248334623 11.693574596634841 0 0 0
349 1 19.75170172841798 2.9810507650156315 13.241686938698034 0 0 0
1468 1 22.003575105937884 1.3974513308738086 12.416023526824318 0 1 0
3840 1 1.5447874948727167 2.7681062058367596 13.19315747652526 1 1 0
2517 1 4.741199355379438 4.574699459193959 10.544243152803176 1 0 0
177 1 7.126183823506251 2.768508184191695 13.081650225249792 0 0 0
2212 1 8.943955082901867 6.051607855656142 10.117440411599263 0 1 1
336 1 13.499251826708537 5.642178335493845 12.075330955612705 0 0 0
2600 1 15.033522543974794 3.505141402696588 11.263731755687726 0 0 0
1404 1 22.42570472248293 5.490302509366948 11.778020848541036 0 1 0
2642 1 20.362351406777197 5.949307484176065 13.677162818310114 0 0 0
453 1 3.2023423601709586 15.04464862009287 18.920748099811203 0 0 0
2532 1 3.342049062530905 6.730782600935705 9.41713259520307 1 0 0
1155 1 4.566575415977122 7.7757270729328125 12.280112237748185 0 1 0
3862 1 4.831918338013635 9.337805068962918 15.105815614449053 1 1 0
832 1 8.589487107860188 7.16426809896473 12.624778653487901 0 0 1
1489 1 14.123089352643458 8.364401863182623 11.778193254936436 0 1 0
3042 1 18.1131572454847 9.851042324008121 9.997350479213114 0 0 0
1097 1 16.359573185020192 6.381605969408127 12.455725959507987 0 0 1
2520 1 20.20145114344464 8.875256200467609 13.053172417365118 0 0 0
865 1 23.040342439545284 8.369834118619002 12.090728859509781 0 0 1
207 1 8.596402637550666 0.02553035135808571 15.376553217886574 0 0 0
2402 1 5.20848508981629 12.69741603774584 12.543175502141082 1 0 0
2214 1 7.97716040421052 11.491487604718845 11.663249161448 0 1 1
65 1 9.88349981906002 9.6538374750413 13.014939794011358 0 0 0
368 1 10.672940694819482 13.74473981162457 9.710095434683925 0 0 0
105 1 14.909373715995374 11.128136032811573 11.155310241692847 0 0 0
2764 1 17.05875114974993 9.022582782691192 12.599960588393367 0 0 0
3052 1 1.1529328550431543 12.589584385127777 14.6807757869011 1 0 0
196 1 3.4972827806025855 14.572165426698703 14.296038460853932 0 0 0
2547 1 8.61929270350253 14.114358060706037 12.526544196919993 1 0 0
599 1 11.370000706547719 14.855401796206033 12.434347439402188 0 0 0
167 1 14.11350033282292 15.654814773133516 13.600163323093277 0 0 0
3039 1 16.64628796262244 12.93696442805748 12.780312423970217 0 0 0
435 1 19.43301199166335 12.274319897873308 13.02487782754457 0 0 0
2501 1 21.99722218096107 14.778224032790352 12.990045994150282 0 0 0
3727 1 4.131598194198448 17.368428038739825 10.541775591496457 1 1 0
1287 1 6.438428212748429 18.65863549403638 10.291247275172068 0 0 0
2465 1 8.388600475265424 16.734409496067602 11.122076688628313 1 0 0
2995 1 13.000462349506787 17.78322342109048 15.044271800357187 1 0 0
2624 1 16.264084273118645 14.256527022075725 10.418493140803543 0 0 0
198 1 16.37542437601801 18.20901111615584 12.465487017245842 0 0 0
287 1 21.686575781098345 17.318238308257744 12.349312771552135 0 0 0
308 1 14.979772309933594 21.82763053195076 17.39935055235603 0 0 0
1120 1 3.2039013870580964 20.272319533411633 13.249498502802473 0 0 0
4456 1 1.9280710595143349 0.20486148131570153 13.567032803271692 1 1 1
2981 1 5.95336316512877 20.59022479243268 12.42782446198998 1 0 0
2635 1 10.519950838400396 20.035097154374952 11.890767392387586 1 0 0
243 1 12.768078855829689 19.734646668590486 13.32195321875448 0 0 0
206 1 14.606399555538772 20.191832432687693 10.808275078110348 0 0 0
1150 1 18.348343480341267 19.742385584827307 11.095861221447384 0 0 0
2306 1 19.094082117251517 21.188211076048276 13.373093248256282 0 0 0
1537 1 5.126165130912757 14.132628866715779 16.62787100385419 0 0 0
43 1 9.860962732620475 22.7169198288272 13.031669098024814 0 0 0
126 1 7.456667613303988 22.246438791794642 14.055900026444728 0 0 0
322 1 14.153545645540493 23.573696217617993 11.161558730085318 0 0 0
3143 1 2.032219619812393 23.28835059507175 3.7324432637089036 1 0 1
1335 1 23.724700373848957 22.728725194318763 12.136055153300541 0 0 0
1350 1 0.3081315057628377 16.325581118216483 3.869334735143327 0 0 0
21 1 5.979035163003319 15.692994843426584 19.380369234310407 0 0 0
337 1 24.494786346982128 19.341762011665153 9.698497505999622 0 0 0
1911 1 23.689567476857157 3.9124987856900444 0.9605030230873935 0 1 1
69 1 12.291440757310781 1.0008902982359151 15.469451278390778 0 0 0
1841 1 13.555152048439687 3.367815169294222 15.815620974179916 0 1 0
225 1 16.19227415885407 0.18846085407932933 14.851061465100496 0 0 0
92 1 18.568443277175078 2.3558080586481167 15.612620372994526 0 0 0
2403 1 0.6916004571947381 6.443629769695619 18.021130443664156 1 0 0
2295 1 4.991243158146856 0.06120757355234387 9.962313146193447 1 0 0
2337 1 21.61609826133787 2.896630600979414 16.41537342550483 0 0 0
490 1 3.062394567860593 5.898502198914184 16.723979356639504 0 0 0
101 1 2.9720450792581965 4.98726561407949 14.103528283032196 0 0 0
2448 1 4.261256068138503 2.1203051646496887 15.109883530668998 1 0 0
2839 1 8.45883216041844 4.889521801297152 16.25815881083492 1 0 0
1262 1 9.860646079718649 5.201414355208873 13.816178279609423 0 1 0
1377 1 12.459613592761759 5.345067653347371 14.52142165570529 0 1 0
61 1 15.963701845553663 3.1756948292753435 14.226790930213536 0 0 0
33 1 17.571721862902457 5.637667157983625 14.642436699317908 0 0 0
305 1 24.437463974863224 6.487840280488784 15.000333460192998 0 0 0
3519 1 21.951703600905322 5.545695513054287 15.796718447217346 0 1 0
293 1 1.807300547015475 7.055313169422465 12.916150128072195 0 0 0
237 1 4.596957348318184 7.86996581700516 17.729950063505367 0 0 0
2871 1 5.444095045304848 5.392990451372656 13.010110250925496 1 0 0
558 1 7.062339107159023 7.375444822782911 15.31503282769999 0 0 0
477 1 12.609681757373984 7.696767969279543 16.037051346730898 0 0 0
376 1 17.09349948295691 7.7441506166916065 16.257562230048517 0 0 0
91 1 23.986659747565035 9.13983619867667 14.527186809509038 0 0 0
3016 1 2.6597234234457354 18.435183246176837 19.47703308659251 1 0 0
100 1 6.1808391913282446 11.654313260530012 14.79079430405291 0 0 0
379 1 8.740549552769656 11.018520310624773 15.184693651428558 0 0 0
2894 1 12.464481522654813 9.384100136693394 13.903752583158616 1 0 0
195 1 14.351152148406374 11.295889286620106 14.28529776732715 0 0 0
551 1 16.96064884698872 10.340647787323137 15.354703452131448 0 0 0
22 1 19.389348447030123 11.268159161108706 15.379155355586386 0 0 0
2539 1 21.799932039118882 9.66629002819778 15.838242134895962 0 0 0
2697 1 2.314320070093765 10.254008294897767 15.880754353833469 1 0 0
4125 1 0.4898204749283864 14.19753613559998 17.01953775271959 1 1 0
2293 1 9.689360985645855 13.586152621246672 15.590859952162285 1 0 0
1195 1 7.649807313124399 15.805317517969906 16.354847198550782 0 1 0
357 1 12.36729589620832 13.35925943509283 14.533473098682489 0 0 0
362 1 16.909715985717522 15.244920845404533 14.79024106808455 0 0 0
89 1 19.972731973552264 14.657675001813995 14.802870761209222 0 0 0
88 1 23.810865616521006 15.079004163540185 15.06553212349236 0 0 0
2417 1 1.7684730517264151 16.925004657901457 14.689029841136119 1 0 0
2482 1 4.269338152953375 17.74119115510385 13.546660843253287 1 0 0
2892 1 6.799862332997269 18.23224454086984 15.395821331084703 1 0 0
262 1 8.631187138691969 18.405706317247702 13.523064145441557 0 0 0
546 1 10.374923073760375 16.635548643257927 14.722898255122633 0 0 0
1117 1 15.036717660944722 17.406539281352472 17.008536538194154 0 0 0
1460 1 19.349653756233778 17.20820283634053 15.678325166935732 0 0 0
4185 1 0.8125600888346761 9.294524154777458 18.381932312387896 1 0 0
1860 1 1.855702143444107 19.747697702061373 15.7867650490822 0 0 0
4243 1 3.4065946364671063 21.47747791426196 17.357561818754906 1 0 1
2526 1 8.095294896837562 20.905976863902644 16.320320619220485 1 0 0
124 1 10.444564783710758 19.14652056736985 16.675396366485007 0 0 0
188 1 12.577678909178326 21.00232602738978 16.244422667365626 0 0 0
2497 1 16.848087098926623 18.580057203178562 15.134409500896194 0 0 0
1721 1 17.531122124187483 21.29766441202622 15.748557199322898 0 0 0
3794 1 20.87694915180424 19.058733071521477 14.414393719396386 0 0 0
3555 1 19.453114080567257 22.113856294891495 17.70686786149422 0 0 0
672 1 23.11341140887979 20.24334775801137 15.695945909710732 0 0 0
3001 1 1.8850882887010416 3.8756905088360685 19.67088131190398 1 0 0
2893 1 1.545359423750136 23.686751484449648 13.575732914818367 1 0 0
2671 1 3.1858852454063404 23.920516887822558 16.091632869739616 1 0 0
185 1 10.449820051997168 0.20050416440790217 17.51229985669901 0 0 0
1541 1 13.096417105381123 22.628803302270736 13.790327719608717 0 0 0
3256 1 0.4522592268801573 10.541287287698852 5.570974955810171 1 0 1
2549 1 17.005090940675604 23.496564515242675 13.246240656810937 0 0 0
175 1 21.351061399959566 22.959688908906386 13.717457813691485 0 0 0
1716 1 22.089368236416828 22.820466268677112 16.46698100234837 0 0 0
2 1 1.4748007946998893 1.4778488480565606 17.784289928112635 0 0 0
316 1 7.3793192080096945 2.393065549259822 15.63012442845162 0 0 0
272 1 6.153740530121381 2.0146104212487237 18.322163001706542 0 0 0
4334 1 20.256145455292128 17.096647520367913 1.480341343629371 0 0 1
1959 1 0.20877048539193643 4.33958814478139 4.173329375792208 0 1 1
4052 1 0.23428472595779018 22.51328935349588 18.710833026804405 1 0 0
2661 1 3.886727783612807 3.1239211156625726 17.684657990545954 1 0 0
531 1 10.278115238073992 5.090459262543035 18.326098582066127 0 0 0
151 1 12.703450152416073 3.916599953345834 18.49390004227233 0 0 0
217 1 14.985383050231444 5.363172787941978 18.924106614251112 0 0 0
475 1 17.613277710489818 4.4620738545267455 17.84664966684435 0 0 0
1532 1 21.08733089176945 2.922774598110205 19.106627186567206 0 1 0
3547 1 1.1662788833202777 21.62202660646031 11.557094066403543 1 0 0
2319 1 22.93526017590436 16.62298830674862 19.045476642999592 0 0 0
2746 1 6.067708133371559 5.3280812923143035 18.043419991925518 1 0 0
4192 1 8.315166009548756 8.80609275620073 17.11079616596828 1 1 0
1486 1 10.505030182873707 7.848118121878011 18.060910402181996 0 1 0
3106 1 14.953459410912314 7.854127762296636 17.755284917642904 0 0 1
385 1 18.942488592625278 7.11205514504516 18.376303830670007 0 0 0
150 1 21.489528308573817 7.454214862544083 17.39362335431443 0 0 0
2625 1 5.915279899398985 20.124848302349232 17.69108310905606 1 0 0
221 1 4.413737449253366 23.65336492028204 7.205212225423739 0 0 0
3459 1 0.9480585549150845 2.279971939621601 5.8921520813661825 1 0 1
701 1 4.472932673306366 11.457919576581313 17.80630159542922 0 0 0
2855 1 6.581124703255639 10.001115166866994 19.068824193841213 1 0 0
1859 1 14.948066892000107 12.148507009339292 17.285801962106614 0 0 0
1176 1 15.21027689047985 10.166731679704702 19.35937230154693 0 1 0
2916 1 19.817356868639507 13.165718106748109 17.488394876679365 0 0 0
2563 1 18.47893425888324 23.461014820349803 2.596226484189441 0 0 0
2562 1 23.065062065304907 11.503218531950433 17.80629867121575 0 0 0
2582 1 2.077664327895823 12.113946558076355 18.953693947637984 1 0 0
1308 1 8.547192781158017 23.280960480556963 17.90936330749477 0 0 0
2673 1 8.975803089782687 15.761991470752863 19.18934337441685 1 0 0
476 1 13.357655703954093 14.363765962014313 17.754080242638686 0 0 0
241 1 16.945876205684716 13.815392590415282 17.431995303473084 0 0 0
595 1 16.624058076454233 16.06196669751438 19.217181067751138 0 0 0
2991 1 22.605051624710274 14.221037177091558 17.42799079839775 0 0 0
516 1 1.263338167868383 16.948661496803584 17.387075251401075 0 0 0
1358 1 19.46706916475835 20.50390065728671 19.91786029460981 0 0 0
1866 1 11.332944381216691 23.083879971544096 17.6002516208813 0 0 0
431 1 9.839279465974442 18.409020686704057 19.245009838998104 0 0 0
205 1 15.912041114839997 19.53196511601207 19.078984330767764 0 0 0
1050 1 24.008863324296488 18.848010373426572 17.97864938450434 -1 0 1
2934 1 18.495563957852347 18.043526987234692 18.59761657832628 0 0 0
3029 1 0.7344714130909179 9.725169000154047 13.387386354299377 1 0 0
1249 1 23.688122204800372 21.65005704627884 6.493157358064695 0 0 0
45 1 15.643670688194522 20.51511285175036 0.530868306198301 0 0 0
1137 1 9.534279893435391 0.8267995644882941 20.048800707361018 0 1 0
257 1 18.895707991538217 11.913665548946648 20.105468519180206 0 0 0
3448 1 1.9698413388075777 18.185360544750683 0.2603159682609544 1 0 1
370 1 2.6180867934370955 2.9507714336468247 22.167512350588876 0 0 0
2706 1 24.429004705902514 20.988089972558296 26.455538686441063 0 0 0
579 1 7.592672238004153 19.652962509334248 20.284743812928692 0 0 0
584 1 2.6619298762609502 6.667880798846078 21.071815587240128 0 0 0
716 1 12.170262263069414 3.8191203364026123 22.469517021884503 0 0 0
831 1 22.237446297914598 7.43873444350828 39.601445137551224 0 0 0
4082 1 17.717757114294457 1.8397473969377176 22.037158042500188 0 1 0
4029 1 22.062270856711642 0.07477458364674786 23.356233856545526 0 1 0
3010 1 22.78019983818999 1.4795000890579333 21.064747663857148 0 0 0
874 1 5.152486829208637 4.1178098479551535 22.65805744585377 0 0 0
263 1 14.110057631580073 15.391166249872592 20.229359555816565 0 0 0
1890 1 9.844467528012316 5.559467516409573 22.741713347359717 0 1 0
218 1 16.027919075399147 5.579741834278082 21.420996788915563 0 0 0
1664 1 18.628466634806962 4.403460392514167 21.92878468775813 0 1 0
918 1 17.263803774012064 13.891289611682215 39.05944012047934 0 0 0
1591 1 2.069038003666521 7.792611997240637 23.747173899243137 0 0 0
369 1 5.612160226032659 6.195630018338681 21.001426761328744 0 0 0
1661 1 10.42890676639557 8.115136626774888 23.074628380672046 0 0 0
545 1 10.907883353805563 9.38799474183089 20.665866400059336 0 0 0
548 1 16.51564162278717 8.148205531292147 22.58304324934553 0 0 0
2100 1 11.41985757081888 20.906196065348688 38.47785541700665 0 0 0
609 1 21.473442440914674 6.342064934621341 23.27355525569273 0 0 0
107 1 22.04165895564622 9.811342262458846 21.555687045713306 0 0 0
2879 1 3.799814162355531 9.883024228410326 22.784389287031342 1 0 0
3502 1 7.130472552026155 11.802897867860365 21.273771094926083 0 1 0
2119 1 15.241151807184485 22.746876171684313 36.33841051771648 0 0 0
445 1 14.252083409460937 9.785433806308491 23.51383731229969 0 0 0
724 1 13.177930638764495 10.867143288364625 21.220727570081678 0 0 0
1780 1 2.9535005869316344 17.29943447914464 30.649784656476196 0 0 0
3221 1 0.8192869173574 7.197987055820445 36.520402136302195 1 0 0
1307 1 9.868470899565796 11.90909574907608 20.452822674834245 0 0 0
1726 1 2.827618323625834 14.235417424759046 24.379384624482057 0 1 0
647 1 5.870181715889272 14.11027158482027 21.554745818796228 0 0 0
95 1 5.29625696400072 18.028251467394217 20.431170911595824 0 0 0
1693 1 7.243764575718924 23.806616556445036 24.085584963057524 0 0 0
2778 1 13.016046816278367 13.707168167273952 22.207167941591134 1 0 0
44 1 15.771894640927517 14.980628825380364 23.16545633843939 0 0 0
2594 1 18.09211753044648 14.45863941806272 21.158019461231103 0 0 0
2726 1 22.311538581695302 13.642739518757622 22.10575058302325 0 0 0
1750 1 1.192897598937818 17.608907570570675 21.948979783053456 0 0 0
1525 1 15.409388326971602 22.592606181289995 39.40105442317564 0 0 0
689 1 14.983629364341622 1.3977015696239927 23.236261863188854 0 0 0
3913 1 8.492577010115708 1.1983198190422613 24.38451751036871 1 1 0
3284 1 8.963576984764371 15.617108567616905 22.187711324292728 1 0 0
2976 1 10.799389195878646 17.562505341028217 23.22266955084169 0 0 0
661 1 14.80021457332616 17.453826153302057 23.157100695954767 0 0 0
1613 1 20.38612663506901 15.52677287193518 22.299515800226594 0 0 0
674 1 24.118595910292168 15.638587533596182 21.409497582441706 0 0 0
1739 1 6.106249766573274 24.074896896071404 38.94067307536878 0 0 0
2711 1 5.207394506245006 18.221855936854887 23.15734033695627 1 0 0
2799 1 8.786741648359268 20.552853143267246 22.74977677216265 1 0 0
4165 1 16.691137454110862 19.45582593676399 23.370893660514312 0 0 0
707 1 16.816537590518205 21.142789788239714 21.256701383089233 0 0 0
2785 1 21.15143459452342 19.414588066918455 22.633081134506984 0 0 0
2775 1 23.681621056912604 17.998480900384973 23.140592337719692 0 0 0
1517 1 3.8353335162775357 22.01610014071168 23.787322533003824 0 0 0
1940 1 11.041851768114018 22.655362218734165 36.17040028514404 0 0 0
1789 1 13.283176813896276 0.6636869893149311 25.52139780786469 0 1 0
573 1 18.170293110216786 22.859136196221908 37.41089505302827 0 0 0
3500 1 0.9512422447614256 20.94277862938347 27.000013159840915 1 0 0
1602 1 18.343948362520884 23.885725048981197 21.336250771272315 0 0 0