LAMMPS data file via write_data, version 29 Oct 2020, timestep = 50000

6472 atoms
2 atom types

0.0 49.22 xlo xhi
0.0 49.019635930410494 ylo yhi
0.6526736763383667 59.409326323662825 zlo zhi

Masses

1 18.015
2 12.01

Atoms # atomic

6126 1 6.147736756983456 2.9064208673303282 2.8047090913890296 0 2 1
3419 1 16.67453395623605 0.795461914026291 6.1219559933374725 0 0 0
3465 1 3.7468613121941226 1.7747768172762843 1.3143089326374975 2 0 0
2185 1 2.176833911776952 7.845830984606619 2.9999027445713957 -1 1 1
1340 1 2.2195625527375342 3.5538105053705618 11.121848355489483 1 -1 1
4977 1 0.4772400999472419 5.373800079311295 17.486012019250936 1 0 0
459 1 22.192906125043127 2.402193632187173 6.178982371431243 0 1 1
1494 1 18.643930142046912 8.339817984391999 4.434937263414725 -1 -1 1
3709 1 7.403915467194702 21.398755708725556 5.8912139731615865 1 -2 0
239 1 10.340426246606146 10.573556144724305 7.725097149465185 0 0 0
6328 1 11.906914920458517 7.030638818275315 2.9268206526486757 1 0 1
5298 1 0.6965602461994019 3.152728832035174 5.199515575669055 1 0 0
3259 1 3.2158537432602414 1.6738985313752768 17.90112961455741 1 -1 1
1292 1 18.11278567240232 5.85345401577171 3.274477122669651 0 0 1
1459 1 11.954609464333803 11.323899923876665 2.319839255626812 1 -1 1
1899 1 11.63217144440504 12.560566228032902 14.368411299852585 1 2 0
1813 1 6.188217035183521 0.3767675079066237 12.664944797674227 0 1 1
1927 1 0.8489057901777028 20.459478945986422 10.591356943563124 1 0 0
1263 1 7.937763089276344 3.2575147611336743 9.714612154462598 0 -1 1
1888 1 10.908469704563926 15.251772291298325 6.92819833059982 1 -1 0
3270 1 18.612381172883644 2.478328482658653 8.479782653634889 -1 -1 0
1529 1 18.829571748102282 6.268114797762918 8.003632072719215 0 1 1
4663 1 1.0856292037881012 10.281097251257107 3.058106054978697 1 1 1
4568 1 16.130348997423727 16.020626622357977 0.8860414071984749 0 0 1
3502 1 4.616970329567754 16.270852921821408 8.615033953945225 1 0 0
5018 1 11.90090382276285 3.4743445755870948 7.536031508508201 0 -1 0
37 1 14.858207606793954 13.597617899956823 1.6812670297315364 1 1 1
1452 1 23.655047884693747 22.160453612053324 16.94672302160977 0 0 1
5214 1 7.852053190360524 11.726533501654341 3.528336769302774 1 0 0
4844 1 19.115267572838814 8.81500911912903 7.2364442544970915 0 0 1
6271 1 9.336692178019463 11.814894841285613 1.4467422027272745 1 1 1
4696 1 17.354104060036942 10.721282712588428 4.514038756928774 -1 0 1
3740 1 11.485796328707341 6.1494314795312315 8.182298485140983 0 -1 1
5230 1 18.82762246260591 4.791971786685801 10.650449707213172 0 1 0
2930 1 9.153730746457455 7.119936132619817 1.0008481706326928 1 0 1
3021 1 22.868511765250805 9.0356067024807 18.470648623277217 -1 1 1
4625 1 14.444521718955201 18.404501090165112 0.9338862606552591 -1 0 1
3533 1 9.74914891976329 19.52610197217574 6.151377285856536 0 0 0
305 1 16.43716449031929 18.546522803493197 4.77159351451367 1 0 0
4845 1 14.085843296807253 20.379557459799305 8.03801342343461 0 0 1
6160 1 23.100110159932537 21.250603069592533 7.805984327063231 0 1 1
4619 1 9.088883154139126 16.271279245504847 9.75183366707418 0 -1 1
3139 1 12.670727225728536 2.384492900997401 10.021041899979444 1 0 0
3604 1 13.851658139282284 8.75874177815825 5.122876329775464 2 0 0
493 1 22.655522165113048 1.0308421206451732 8.402209589915351 1 0 0
361 1 10.893754164039482 23.24390339183167 16.279079198871294 0 0 0
4797 1 11.573997345971106 14.16747671982102 1.1576879207668425 1 -1 1
3530 1 14.822173141741024 6.041129805615491 5.120986992190552 1 1 0
4791 1 3.0047694931373794 15.898331025324309 2.2392550568676404 0 0 1
1783 1 6.624899843615956 13.82058182789381 5.859465241397579 0 0 0
4780 1 11.429336320745582 15.993850406149157 4.30561450194295 2 0 1
5078 1 9.367852654276847 22.96752568785457 4.411925338891473 1 0 0
2146 1 5.269398856869169 19.55054751927803 13.791846259257106 0 1 1
6472 1 19.64669362653181 20.78934483806049 11.526707238857844 1 0 1
2200 1 14.886386630152101 18.64308510317539 10.27230224396884 0 1 0
3066 1 2.1849564462494886 16.266089271259627 6.630219642138071 0 0 0
5205 1 20.271300118308872 7.810089062978709 18.691266933491523 3 1 0
123 1 11.340144776358434 17.95019864624353 13.715849698481742 1 -1 1
2094 1 4.7097874657418215 0.7625675520742408 9.165602591501466 0 1 1
5015 1 18.156868463303386 8.244169714643208 10.416655349349565 1 1 1
1501 1 22.58605623904789 16.64734175496517 18.747005772118733 0 1 1
6458 1 22.272405390817887 15.75852511689062 3.1768428736346683 -1 -1 1
330 1 17.623368749890663 23.19466402684238 13.275449340114728 0 0 1
3441 1 9.460859792752672 18.615523829884502 17.87596612551835 0 0 1
3288 1 13.637352252120632 17.60118696846419 4.765930592217546 0 0 1
2019 1 16.468662027611746 10.341221214864047 19.456786481567303 0 0 1
6434 1 8.559923701358583 22.443295389544268 11.120934527588505 -1 -2 1
3210 1 3.3459388746815732 11.290975458933662 8.616438475533501 0 0 0
6102 1 19.62711598322637 12.423107910703642 4.213133034281663 0 1 1
3053 1 22.90265824495124 19.96810646477806 11.441580837452122 0 -1 1
3448 1 1.6876628820093371 18.40942973053531 8.53609510725396 1 1 1
570 1 3.8984290521852567 19.036110164239805 1.9771652915717834 0 1 1
4578 1 22.73410726137602 6.487924301128897 13.915155671318356 0 1 1
1301 1 6.737459923821843 24.34951552508825 4.596820069852582 0 1 1
3745 1 4.391815908435821 4.81434711761621 3.5681797926867507 0 0 0
5357 1 7.488701702607344 9.047977650378234 20.198255862048445 1 0 1
3338 1 19.64989045510574 16.644491319209795 2.0669350688525574 0 -1 1
3469 1 16.405997702545534 2.7818613348871093 15.149662430266602 0 1 0
1694 1 6.191729849928595 5.125293095426298 11.154292404722126 0 0 0
6211 1 9.137379263672031 7.7316417140407285 9.088288231289296 1 3 1
6392 1 18.34631960786315 14.437595639147624 2.6093685805055644 0 -2 1
5036 1 4.41831999324076 13.538683541949549 18.614899195131134 0 0 1
1480 1 23.77365418931829 14.684919198982474 10.23994758851232 0 -1 1
1684 1 3.9444653973613053 11.376268211236132 3.017166079700014 0 1 0
1973 1 10.39702802954337 12.576600403593705 10.732059173618568 0 1 0
1360 1 7.20563531838947 8.326933003822903 13.78561963728016 1 0 1
6451 1 0.7718594018196139 0.8235136482922386 2.5502503677433364 2 1 1
243 1 8.875637871596474 4.214070724140628 7.2123039227708965 2 1 1
1640 1 20.97221758646406 11.961860302039577 1.781060871233403 0 0 0
2198 1 12.631372713097573 8.744842209778188 7.597723603577092 0 0 1
200 1 7.437652793415152 6.79576339176165 7.1698031806824325 1 2 0
318 1 8.480097561320171 1.3905545591214485 6.696275402690715 0 0 0
5040 1 19.67008539920343 2.2575812657128003 5.827436064718196 2 1 0
4552 1 9.027133257284115 16.52576785266635 0.941879392608503 0 0 1
1442 1 8.584204935456047 11.900882123653124 16.598224978944714 1 1 1
1440 1 16.08519829331501 3.184398188230623 7.470954663592894 0 1 0
310 1 3.787059246207834 11.445246192400166 12.159827805722564 1 1 0
4854 1 6.911688326290302 17.345398265538872 19.436796420265757 2 0 1
266 1 4.706645267840234 3.4859677085091234 8.851896865106333 1 -1 0
3163 1 9.368118088586087 12.795583980407141 5.894877308750481 0 1 1
2203 1 1.5870157615886777 9.227564202742037 6.867948953987856 0 1 1
6334 1 13.908638710148281 3.2799643824367584 12.357452317612408 1 0 1
3088 1 6.7198266634592825 18.444417353917775 9.005720607215391 -1 0 0
2850 1 5.994796691049164 3.284405823333993 13.166952005703996 0 0 1
3091 1 12.657796773781365 11.686753133632322 9.005654026997535 1 0 1
541 1 17.065943025395356 17.03532424343336 7.454463697390983 0 0 1
1680 1 13.153687947871287 3.8617416493628913 5.171442935814235 0 0 0
4730 1 19.39889913553001 8.560950013134072 15.763187552193934 -1 0 0
3644 1 20.390189409696724 4.545175366342037 3.9845909833186655 1 1 0
6106 1 5.4454784189284995 24.146121929047315 1.8381997184313654 1 0 0
6125 1 14.465216603997664 11.759955358185689 4.16739566845321 0 1 1
4804 1 23.54539468412836 6.598975750226813 7.988119250976314 0 0 0
3151 1 1.1132769553058395 21.973529979246507 2.2092063676920772 1 -1 1
2038 1 4.072220065831176 6.460214503924553 8.824193173120895 1 0 0
275 1 2.3946629767663143 15.389032114056766 18.001582623866515 1 0 0
220 1 5.683253775158078 21.421124943519967 9.983732835756712 1 0 0
251 1 7.716865633156407 15.796519856293568 13.331991680971779 1 -1 0
6387 1 8.604493960619726 6.656794784854743 11.73891224766246 0 0 0
306 1 22.90598079991494 5.100684936181948 1.6248640303696318 0 0 0
4739 1 16.114070704189196 6.141706088264086 7.545979942758869 2 1 1
261 1 23.841864814606655 0.3785086658278566 15.33729846278427 0 1 0
5447 1 13.906548551968617 1.1100684621567645 4.296051787203779 0 0 1
1798 1 8.59324449917883 17.45315924335212 7.157766784461799 1 0 0
3245 1 14.598379681129405 20.844764226226303 16.39714673045315 1 0 1
1781 1 10.925278074789514 15.080378902865585 12.969533452784153 0 1 0
1436 1 11.454997977451953 14.801996492416265 10.109497427870837 2 -1 1
1992 1 7.6366590272011265 16.225711092206453 4.663660905663281 1 0 0
5077 1 13.496417362923255 16.45003666232924 8.723369493823308 1 1 0
4591 1 15.054741094047799 7.954345514012876 9.00485266290613 1 -1 0
476 1 20.17424352544015 13.789310879836032 8.793727409309264 1 -1 0
1530 1 9.865085765186585 20.470857956239225 9.073172937039834 -1 0 1
4722 1 21.658396155729864 3.7600709925578513 9.52470599997284 0 1 1
3478 1 21.628664718079037 20.339277610218524 14.129406926518792 0 1 0
1369 1 16.597214420764526 23.463568999038127 2.9411276440262024 -1 -1 1
3379 1 0.2554225198265988 0.24557981837117177 9.894163251527292 2 0 0
4694 1 7.7391667865816185 11.114394794202479 13.666574331213202 0 0 1
375 1 13.948038695059884 18.228604797048575 12.924087794344848 1 -1 0
250 1 24.45996717669637 17.15957899197303 1.1411663074182432 -1 -1 0
6273 1 11.201693450727166 0.25992759295543016 2.8068772148166152 0 1 1
6422 1 14.359146505007894 14.143871085488422 11.262824587308941 0 1 1
1523 1 1.6029768358202425 7.160072850022597 10.224926210658216 0 1 1
1312 1 19.344840432407278 24.286841553058203 1.5805339609678857 0 0 1
295 1 20.823711309178993 14.776141914989111 11.017603663387805 0 0 0
3320 1 18.722065000561127 9.650787063839601 1.1732128146516905 2 -1 0
1805 1 16.13343091218322 3.5922909940253223 4.406589762799014 0 0 0
1518 1 14.953525498864582 23.15880013582284 14.63656795789497 0 1 0
3110 1 1.4514495235088989 23.747954031375514 13.675344590325667 0 1 1
75 1 23.64543655291818 17.496094473862883 4.620136343218604 0 0 0
386 1 13.40852945786909 6.606819329139678 14.69209554013291 0 2 0
349 1 4.98530215008794 7.330931761486036 12.027775028543132 1 0 1
2987 1 17.283347774307913 5.1815230003384185 14.732006755108145 0 0 0
5072 1 9.10507291129032 3.705744438631052 13.042539318969473 0 0 0
355 1 17.038617259886728 20.680532230405696 11.946275216447043 0 1 0
1269 1 15.583223320625931 23.605966843013483 18.823029185814125 0 -1 1
4743 1 22.072270123261585 1.9362318124512263 16.831101936234123 0 1 1
382 1 6.729328299734872 9.512159842945772 3.904762117802483 -1 0 1
1549 1 1.2813446324987288 19.6430775408818 0.6952387316594045 -1 -1 1
158 1 9.791215855309487 21.925680279958783 18.646019213777667 -1 0 0
2967 1 8.680317046541013 7.126361638441306 16.401498426043133 -1 1 1
1466 1 2.4766988053223638 19.254374535417803 14.860132358547693 0 0 1
177 1 9.969224854112348 2.1084940233040603 11.029587771806574 1 1 0
6326 1 17.69517216661344 18.069536062238402 18.270972312951976 0 3 1
3228 1 17.6387553726227 19.35870351207883 9.258641215869035 0 1 0
6323 1 3.2866838994922856 2.1876330523069925 14.79698200777866 1 0 1
3036 1 18.60690575742843 15.752739030887044 16.93070134450956 1 1 1
111 1 10.523595546516404 10.557771184700798 12.623581580436776 0 0 0
1349 1 10.974299665867981 3.688739158205153 16.441979448043014 -1 0 1
3741 1 12.402140892989328 18.766566856787044 6.756136532110996 -1 -1 0
3235 1 3.0701093602005143 6.371424660943513 17.482712182713477 0 0 0
4614 1 6.047681293671006 10.188160614638502 11.276094576973017 -1 0 1
3065 1 16.7991360198402 6.218198548545945 12.153890715758218 0 2 1
137 1 7.5162257425234875 23.209764981601232 14.10778202838787 -1 1 0
1393 1 19.74192888133264 3.572041824509697 12.952394905742418 -1 2 1
3417 1 6.407779986228117 16.98594507918832 16.230702136722144 1 0 0
4603 1 14.639969769085354 15.550342486014467 6.634475799660109 -1 -1 1
210 1 5.081733279334213 19.211168061561366 18.736568603463464 0 -1 0
2973 1 17.02361156126086 23.026695122920284 16.527152352407285 -1 0 1
500 1 1.5723238671723785 13.392317799381523 8.739671809082196 0 -1 0
2999 1 1.9610264037572407 12.53904169460091 14.91962654876356 1 -1 1
232 1 14.49080938184909 12.721074153563034 14.296990167048216 0 0 0
3462 1 5.923366886683116 12.517500809727034 15.687715852643962 2 1 1
3585 1 23.513528365286696 9.898365339437742 5.033915573135358 1 0 0
1982 1 15.30963476258849 9.327875401848361 11.870854049156282 0 -1 0
3506 1 17.467675953486655 11.291812602791811 9.211229660998328 0 0 0
2118 1 16.532980941503386 2.732815353908839 1.1539292984573857 0 1 1
1645 1 24.381035124942724 9.061959238803018 11.67785395197241 0 -1 1
6288 1 2.158765004023697 4.8539329860013645 1.767368413608595 1 1 1
3342 1 15.278968367678491 0.7244235554280902 13.276014807468771 1 0 0
6225 1 17.18449382950323 8.473548143150019 17.26925082072418 2 2 1
1754 1 6.757812479968053 17.810724069824815 11.991022046808776 2 1 1
241 1 20.33583540009401 13.20697550540605 19.75440249807038 0 0 0
4956 1 4.8680624068805285 22.684581424883927 12.499482771240682 1 0 1
3546 1 14.886645448335017 15.68145139350939 13.734558273882218 1 0 0
1964 1 14.008369571512622 3.9468842913836597 16.4642636602075 0 0 0
3695 1 7.853646021607766 11.181036015978279 9.38027781262259 -1 0 1
3039 1 22.43846684494051 18.30232770314982 8.406175970994997 0 1 1
3156 1 9.608289803982812 16.82211638531183 15.694552097421646 0 -1 1
3295 1 22.30867114515336 6.732790677383482 4.294881117823874 1 1 0
3503 1 0.9389102836231863 20.972297971106535 6.03246800200647 0 0 0
3596 1 3.420124764509563 1.0250676358284094 11.64227102073641 0 1 0
6404 1 12.802699547428674 22.070296246706217 18.46092175576333 1 1 0
6301 1 19.272522819795597 5.067367485380844 18.63488879424386 3 1 1
3043 1 13.94237816788411 7.7509310511305545 17.622712699525263 0 0 1
4975 1 11.817132942839468 14.905744849016397 16.599695951834565 0 0 0
124 1 1.3519240992132724 9.91990083975058 11.103549499139456 1 0 1
3411 1 2.311272624116161 15.655881639625598 10.28829399694574 0 0 0
4870 1 3.2569497129160228 21.921943653091493 14.817784313377002 0 0 1
5113 1 4.750694660938268 13.77540049212338 11.451414780568278 2 1 0
3428 1 16.40354340633441 19.354083172979735 14.106201865871498 0 0 0
420 1 17.19704364769091 14.255149111710224 8.964382480023474 1 -1 0
49 1 18.14983684798162 14.471860910563313 12.111171715325145 0 2 0
3613 1 16.865511159518856 11.98484917816046 12.111640946377538 1 1 0
4721 1 16.494802212862837 10.066760959175715 7.252964318554672 0 0 1
3188 1 6.024757808992409 16.96181271701967 2.146258517856189 1 0 1
3728 1 11.590480620591949 2.4098065147402514 14.138592335291904 0 0 1
4983 1 1.3288365887679885 12.676060930301393 6.315471316396745 1 1 0
5180 1 3.4418972016194704 6.731489089544379 13.945082091318097 1 1 0
3688 1 7.903646212109623 22.30213063175422 16.566267102120396 1 1 0
4546 1 24.53447896105627 21.570063439833866 4.830875359536587 0 -1 1
6135 1 23.986779776439707 13.821232373106586 6.324347188026213 0 0 1
5207 1 0.2827994033010586 23.177049934118063 4.474042485418888 1 0 0
3247 1 8.752014965931927 20.09667167472955 12.608211125987907 1 1 1
5222 1 2.6717925655271575 22.54304866326573 10.71765047969336 2 1 0
3060 1 20.1913297659867 17.351385611638936 9.854223010971726 0 1 1
202 1 11.465338150534269 22.877683313456856 6.150556703092018 1 -2 0
1543 1 3.528532288213879 11.462925289069506 16.781104932844652 0 0 1
2157 1 21.154875651310103 17.012903949771122 15.14537184947291 1 1 0
5326 1 12.560488356240713 22.919581455170924 12.320054908038943 -2 0 0
4896 1 24.52192522781139 2.422679710460775 18.526270930251272 1 1 0
1842 1 12.32090409486417 21.05819221302047 14.896997100150314 1 0 0
301 1 14.131296185126233 16.56427226684951 16.530436864860174 1 0 0
1786 1 5.428918281933899 20.94175046928006 3.772989414523107 0 0 1
4601 1 14.72972786890369 12.289541373709191 18.36095050840544 0 -1 0
2957 1 17.654273445078864 18.648149087163876 1.952096153872777 0 -1 1
2870 1 19.929045945842507 7.1696030740067975 12.960502485962317 -1 0 1
1741 1 22.266568500760677 3.675743935348291 14.310744484335727 1 2 1
6229 1 14.297883389281314 5.893482503287895 11.351053930056157 1 1 1
3403 1 14.461632837236266 0.7122607030426917 8.42845023216285 0 0 0
3805 1 21.697959526153866 19.233910556408006 19.761514300075373 1 0 1
4544 1 9.958886385933683 3.0348052813880355 2.3878730810557673 1 0 1
1538 1 1.961287926352956 18.29040519335242 12.179994080548203 -1 0 0
268 1 9.661196574023691 20.089950815210216 15.38193389356027 0 0 0
5070 1 9.32223733531773 9.448287831358911 18.02738834073748 1 -1 0
2075 1 8.326569042102173 3.847990689604454 4.5076725532163335 0 0 0
6252 1 12.542226672152408 8.59787884531401 12.578169934034669 0 2 1
6410 1 15.847252851653277 6.097770469438027 17.334633530109354 -1 1 1
4827 1 22.58665672226297 19.385477224026836 16.679810890579915 0 1 1
2986 1 19.65764102587701 5.473567842475605 15.859212627409798 0 1 1
3082 1 18.039259198270344 2.338131869891196 17.42198570864142 2 1 0
1846 1 5.908816937201342 20.271792228272666 16.437382145163472 0 -1 0
5196 1 5.6440349870126445 11.030152512345703 7.394859128509007 0 -1 0
6124 1 13.467359907389154 21.484960519272402 4.674009766683991 1 0 1
5270 1 21.047870844737524 9.345549225133402 3.857181043055308 1 0 0
3062 1 11.86611495614821 12.50415541552084 17.28517060924808 0 1 0
6324 1 8.1756900495745 2.8944814017587692 15.786373056218455 2 0 1
5257 1 2.33248245061453 14.687658537942248 13.841428637873939 0 1 1
1350 1 15.64690958896685 10.631364845097247 15.862988553675462 -1 1 1
3431 1 23.486627752218272 9.241725758097921 9.024413504941258 0 0 0
3547 1 11.343633602277118 0.871509270931028 5.675580628218637 0 0 0
1670 1 12.125831813259202 4.465241561828677 2.7613469128176598 -1 0 0
1676 1 16.705249818774632 21.489948654000226 7.609867732201313 0 0 0
4938 1 20.52432102809039 14.150097099735403 14.020180184086328 -1 0 1
1692 1 19.933808811066488 21.81516190617492 8.782069164048169 0 0 1
3061 1 22.655472741891078 5.491370008384116 18.04805607607271 0 2 1
1761 1 18.254443184750297 12.412170946084464 18.32046425041309 -1 -1 0
2029 1 4.934606970642798 19.312912341496304 6.202172111490648 0 0 0
2846 1 13.518111356070458 24.16495839330769 3.836432351226726 -1 0 1
1901 1 6.892672958633022 13.82444120722155 9.184322616657546 1 1 0
6201 1 10.450636615462619 18.380131828368185 10.875350729172654 1 1 1
5102 1 15.985405656613999 14.93672195648018 17.755753692321125 0 1 1
5181 1 14.838039895909 12.720968677261487 7.069239147594814 0 1 0
3343 1 15.877857458436315 9.322866547640157 2.60417718846545 0 -1 0
5372 1 18.650738813976258 20.965020408292947 15.097208631893642 0 0 0
1732 1 19.38898212141729 17.56869614365136 4.662793895437126 0 0 1
5115 1 16.56456555234859 0.6542749809815772 19.029881366565643 2 1 0
4872 1 22.603969241071127 23.89690103278937 4.984345394629791 1 0 1
1441 1 10.158776664537129 6.414012210236339 4.978235426614888 -2 0 1
5083 1 12.182791354909662 16.98447347034308 18.98003936100944 0 0 0
3048 1 13.853493442421385 2.4708543045779736 1.3992706898592602 -1 1 1
3464 1 19.893181914876052 19.804503429298375 17.726596833907823 1 -1 0
1299 1 3.881988608951783 16.554601253416113 15.539168356974745 1 0 1
4951 1 0.7317498106414387 1.644495458802931 18.499676717538055 0 2 0
407 1 23.22840491008707 2.791550092875807 12.137179155624017 0 1 0
3290 1 2.516668099683682 18.281958362683667 19.147392937653553 1 0 0
1893 1 5.405811929802469 14.23659467280373 13.97964657795723 1 1 1
4974 1 17.9430799667412 16.775698989552854 14.149429621355035 0 0 0
51 1 14.729457118067591 18.656079382265027 18.50953937697472 1 -1 1
2069 1 19.613512147309077 22.35776382032379 17.97874497968666 -1 0 0
58 1 8.596931252961932 0.5665873406130723 13.805099763506247 0 1 0
1763 1 8.503511410930171 21.174554239045428 2.4803120121293283 0 0 0
4860 1 3.3155983685267048 8.79398442394402 16.12428906428049 1 1 1
1681 1 3.219015057706803 21.342121196986017 7.638684698704112 0 0 1
3433 1 12.475376962835261 18.97923369575468 2.6366494488934498 -1 -1 0
1755 1 23.398036150013837 14.054158068027803 1.748142958763243 0 1 1
3069 1 9.996997178563548 0.4213028969625969 19.429543888126265 0 2 0
258 1 4.662786707078514 22.782335938808107 17.085816257801103 1 0 0
4799 1 2.030743130501788 23.40026859733705 18.274553201913147 0 -1 0
3459 1 6.804168616829259 6.552925063330982 18.566251766512387 2 0 0
3332 1 20.476915168291274 22.890194455365435 12.98276232992243 0 0 0
3118 1 2.533163333599797 17.787068723739157 4.361709053966537 1 0 1
6248 1 1.31151173569636 5.623967119549342 12.676742725359498 0 0 1
6112 1 9.041642295461783 14.586236296666442 2.7056660406201956 0 1 1
28 1 3.813922019020544 23.714500410263266 6.211474254882344 1 -1 0
4851 1 5.8968338347493425 3.7067094867897086 17.893870109912584 0 1 0
5422 1 19.833577678819672 22.547760738984007 3.8939420897959223 0 -1 1
3225 1 20.520176905996138 17.947211182409962 12.49171702102165 0 0 1
3134 1 0.625940151167816 24.357513569842705 8.07247786734293 1 1 1
2997 1 20.87003541590502 8.352264020429052 0.9080518977969023 -1 1 1
5269 1 3.168628288597762 7.288907342165409 5.6235193128443335 1 -1 0
435 1 6.7130395412987145 6.780146693046596 2.197181091314552 0 0 1
5275 1 23.372800199424457 21.786362520787705 19.87351261669509 -1 0 1
3668 1 11.253744656595599 6.204232247901347 17.026908964466266 -1 2 0
1431 1 23.700336157081743 13.108259803150233 19.614174470190925 0 2 1
1348 1 21.310526759593724 3.035654490587551 19.47592509321551 0 0 1
4855 1 22.387422848834404 22.638894497183927 10.522829879449743 -1 0 0
2196 1 15.090185449628759 23.867779132407787 11.02172916615455 1 1 0
4610 1 17.11927276352062 21.232501135634237 4.8999519484424505 0 0 0
281 1 21.42042774490526 9.433589098210954 12.51854772247605 0 0 0
218 1 15.601411468613444 8.180015593945525 14.380158552613178 1 0 1
3127 1 18.880452321160835 11.781094238623112 15.407333389252761 0 1 1
4793 1 20.563697366742968 10.513578784195113 9.397527569980028 2 0 1
309 1 22.090417684599764 11.392595965823057 14.662870544799373 1 0 1
1624 1 24.253317836155038 11.298510671088057 2.456147349846699 -1 0 1
5073 1 9.126254458514634 8.64708127782055 5.449661194666367 0 0 0
6176 1 5.591229971669517 13.739450264720091 2.2126090510322385 0 0 1
3812 1 4.762147824135037 4.7999435807321555 15.455961016098875 0 2 1
1779 1 0.13132999359315706 19.250251138899024 3.4818854264502344 0 1 0
354 1 5.492657829499935 8.664564760724607 6.416865293226883 1 0 0
4687 1 24.442662299702153 23.67630142389666 1.3573386681246014 0 -1 0
6293 1 21.42837361309645 19.308078192301405 5.690146633335642 1 0 1
6163 1 6.4375757365872195 0.5147085095040004 4.434997448461319 0 0 1
2148 1 22.3857219287876 11.86149315047848 17.232277564865097 0 1 1
569 1 6.258722531349549 23.17206059044381 7.851338272777539 0 -1 1
1620 1 20.462811505845536 1.562528921329689 11.055906337530272 0 1 1
3194 1 11.128520536003055 6.212124600225155 11.319272160071467 1 1 1
5370 1 19.832910778242045 0.3677429771752135 17.154950094658187 2 1 0
1579 1 21.350142169149546 14.687694782328956 17.110854654592675 1 1 0
3556 1 3.175843213445371 4.570206912317895 6.510158379718601 2 0 0
6166 1 21.691314792225683 5.371589165892507 6.776028741175538 0 0 1
4886 1 6.843015918765089 14.495270333346737 17.447971562232098 0 1 0
1886 1 1.009054916897872 9.007534831546922 17.929211544289835 1 2 0
5239 1 24.13011913326218 14.88663107246456 15.483519785035599 1 0 0
3426 1 19.801038745175813 16.179121942596474 7.271959732617456 1 0 1
2149 1 11.90778110562003 10.108276326038563 19.781563270696942 0 0 1
3215 1 9.846146961978757 18.01028238977647 3.29794817968563 0 1 1
2891 1 23.559497266103826 7.289956760738244 16.284771081926827 -1 0 1
3538 1 21.753831969717535 24.2888750618308 16.369395116041957 0 -1 0
1751 1 22.328897502504997 21.25742984019926 3.0766410160838684 1 1 0
6123 1 3.527822734348136 22.80852231373584 3.456625516912245 0 1 1
5188 1 12.163081738388112 22.599587839688066 9.042267861606957 0 1 0
3378 1 21.482488587629643 14.455948069458712 5.594380027043502 1 1 0
4678 1 19.86448584468751 0.6877218723487454 2.051464116070895 0 1 1
290 1 0.7390032367990989 2.0201283175595544 14.310047664832224 1 0 0
3489 1 21.824363817451083 11.094159322460333 6.7368132324579495 0 0 0
3782 1 16.770683510620238 4.452871556984 19.841469800824292 0 2 1
4710 1 0.8823781572665168 14.567090290172674 4.345856134531484 1 0 1
410 1 16.092496745047026 0.18738795768823466 2.3304013078913624 0 0 0
1985 1 24.355475363190802 4.810268406842642 10.000389648276542 -1 0 0
387 1 0.11248070469676262 3.2289347436263736 2.484843554280183 1 1 0
3010 1 0.07741138345937233 19.29695489533955 15.546405158290003 0 0 1
1304 1 19.273288200099486 24.401002811964652 8.813685583737998 0 2 1
2023 1 10.643453929158529 24.418459101000092 11.085476966688677 -2 0 0
2956 1 3.6796328349269225 7.496520492175752 0.6625287459225655 0 1 1
492 1 12.764631908086354 7.517640564232214 20.19041339489575 0 0 1
4901 1 10.842892186971069 21.027737285085987 24.42959732260795 0 0 0
3032 1 8.876349119822738 24.15724021380171 39.16713720965978 0 1 0
5307 1 9.241007746896306 8.197507070566202 22.174832719698863 0 2 0
3697 1 21.711036518643162 21.10408537809322 23.529029637120054 1 0 1
5033 1 7.4936267890181085 9.136382652030461 24.150564763195515 1 0 0
236 1 11.636371364010294 1.906724955926326 24.02067973325777 1 1 0
5215 1 1.2228487416528617 7.719062749264803 22.013392318244218 1 0 0
3129 1 15.709148585109215 4.203806837446524 39.43138789784084 -1 1 0
2195 1 4.3492252782240515 1.7063505212235655 36.39916140420046 1 0 -1
4862 1 17.296371802955584 3.3721108020658517 24.02252954094074 0 2 1
5246 1 20.58757124094802 14.282167010007102 36.41405726891306 1 1 -1
5278 1 6.688187156688596 11.964578770266533 24.069840480130107 1 1 0
5227 1 22.605736432488758 9.287415607282915 37.01927928028724 1 1 -1
6443 1 20.672393441298986 0.00872773918518802 35.97287417850219 0 1 0
6117 1 19.242869952465757 0.546815498756485 23.773204146178948 -1 2 1
490 1 1.6742729603598705 13.60432891744733 22.954747435935417 0 2 0
4607 1 1.8668851878666688 7.636247976861813 38.513798375310394 1 0 0
5289 1 5.595493743307688 7.025522118260916 24.12641703582406 0 0 0
5120 1 22.10743859520156 0.582020361148761 23.475536808030757 1 0 0
3191 1 5.172282884783111 22.96282741554021 35.29323828696797 1 0 -1
6371 1 8.6038921523643 4.2549315179559395 21.974494975013982 0 0 1
6171 1 15.872218347135297 7.209562719538112 20.543840527099306 1 0 1
96 1 6.94462554336037 24.133334966622026 23.876842522439404 0 1 0
6433 1 0.39392026330929913 19.838182136953417 38.63298040356485 0 1 0
1317 1 6.833326491204757 6.732103220307451 36.63175912350397 0 0 -1
6119 1 8.238557193983137 8.499122904419783 38.18575155815638 -1 1 0
4506 1 3.9847211531205833 9.460314527695214 23.67593882725925 1 0 1
226 1 18.17404178949674 3.850609097101532 38.677283405058816 0 0 -1
3106 1 22.06321180248493 8.624620570402628 23.82719463568412 0 1 1
4766 1 19.835351842777655 24.239897854754073 23.445396993307945 0 0 1
3263 1 23.412681240728475 10.8857524648216 24.49207704150085 1 1 1
6103 1 12.111326756458066 2.562563015824961 36.01704048489903 0 1 0
3762 1 8.164498951291717 17.140131197183553 23.45013893670453 1 0 1
3035 1 11.730168954362323 23.393705034457096 37.05067774007556 0 -1 0
6406 1 13.460143772291529 18.95342576374992 38.22017847952945 -1 0 0
6122 1 6.735069542318397 19.671738049614714 24.05109828925561 1 2 1
5012 1 9.839879088381572 13.142043185974392 35.39304097050618 1 -1 -1
2092 1 20.089199173534727 11.085214495968806 24.26604455694149 0 0 1
1545 1 9.990133649475458 15.077016301010795 38.88169819372887 -1 0 0
3160 1 2.5119252358198945 21.983312502956302 37.79516541754141 -1 0 0
4690 1 18.542950874938985 8.315630574934247 20.867672936740423 1 2 1
329 1 10.128107369802601 15.775667577917051 24.46061346788391 0 0 0
3580 1 4.679719428986647 12.633516920289289 38.83636194604711 1 -1 -1
5301 1 5.597539756448743 10.72619896741598 21.610517440659212 1 0 0
546 1 9.075656225203822 11.60124571190761 38.4576398441683 0 0 0
1390 1 5.969674621503412 17.93050633717778 39.39109929013573 0 1 0
182 1 6.192680529305261 21.429212223446655 20.37040185627716 0 1 0
3425 1 3.0875783444352694 15.78211228755653 23.79944025217929 1 1 1
3031 1 17.67608565333497 0.5814148807747209 36.91070844425774 0 0 0
13 1 14.263227775776206 0.6052961741569883 23.200483701045435 0 0 0
465 1 8.981673431645607 2.0057695090074388 38.57141688785955 1 0 0
3655 1 10.945855820771218 17.48391717225396 39.79053177422015 1 1 0
1696 1 17.780762960168808 22.593111861957862 22.584029685333352 1 1 1
2856 1 18.660449602222943 22.296449971366663 38.70780410473238 -1 0 0
3070 1 10.376461806064174 10.832075865462004 22.715415161710208 0 0 1
5021 1 13.785065816197566 15.124031179981849 22.072364155108353 0 0 1
4815 1 16.91867695649637 10.695144607026373 24.034607510767373 0 1 1
3306 1 19.673527345245123 21.552841691875393 20.581014971580917 1 1 1
1983 1 21.09775451898216 23.513650855437206 21.252425496832764 0 1 0
1702 1 4.826943558375322 2.38808287747864 24.64411960050252 1 0 0
3800 1 3.884688569227115 18.85554886331427 23.798501896785165 -1 1 1
3037 1 1.726430948324101 4.793995807370184 22.088301130378056 0 0 1
2052 1 2.1648517182969425 21.505168527905823 24.489611358842335 1 1 0
3532 1 6.082791886354306 15.06574873819198 23.70870426443263 1 -1 0
5082 1 0.5486941383572194 3.324287002867607 38.181255287765175 0 2 -1
5410 1 6.7317152678068615 3.3779283893905414 36.473765754913956 0 1 0
3146 1 15.98489643497774 18.854149129445663 23.72076006664156 -1 1 1
149 1 17.477212170681025 18.460216534111872 21.04440895252327 1 1 0
4953 1 23.1717252729199 21.80406027063171 38.68515743069909 0 -1 -1