LAMMPS data file via write_data, version 29 Oct 2020, timestep = 50000

6750 atoms
2 atom types

0.0 49.22 xlo xhi
0.0 49.019635930410494 ylo yhi
-0.5182226229907805 60.58022262299081 zlo zhi

Masses

1 18.015
2 12.01

Atoms # atomic

3278 1 2.792761290159835 2.5568709139335146 1.0150179830470332 0 1 0
6634 1 0.7878918812250971 0.9914451010410447 2.4662227204019525 1 1 0
1380 1 5.16101444151911 2.483922852814374 2.7780770894729403 -1 1 1
1461 1 11.09208549194855 2.997053549507705 1.5547184941730845 0 1 0
3466 1 9.309111784738757 0.5042152166552382 2.9569392869256728 1 -1 0
227 1 8.291067385861085 2.134433425896607 0.8271254210698689 1 0 0
6527 1 11.655950338803152 0.47709803916384486 3.2679647207557743 1 1 1
369 1 14.254391284808966 3.2272494512987655 2.360104992577618 0 0 0
1491 1 14.629551105922193 0.9111153457624984 -0.1607772130239994 0 0 1
3868 1 19.898668251145438 0.3343292490613003 3.4145693654499225 0 0 1
3787 1 18.0574589814515 3.8847632323380155 0.04767758799325095 -1 1 0
1526 1 17.03542883867814 1.4270024960826972 3.383988121446662 0 -1 0
6615 1 17.3718817812751 1.2924914380829375 0.5727173573721691 0 0 1
1515 1 21.452278154074445 2.903898648338885 2.792208346172719 0 0 1
5040 1 21.208286651978014 3.252960600257756 -0.07727208654697676 1 1 1
440 1 24.494797027413515 2.585787263134232 3.473470431603812 -1 2 1
3955 1 1.7086589567595296 4.861184081059984 1.5914136493969329 0 0 1
3945 1 1.7932812083902891 7.845676731107317 2.1902370145154366 0 0 1
3801 1 8.014469199405413 4.148422042928797 2.9839010805109787 -1 0 0
1730 1 5.081590759979526 5.601285405695581 2.94439612343435 0 0 0
6609 1 7.755224761520092 6.973255392513113 3.2131860686442364 0 0 0
1443 1 4.259265070144527 6.742444083030933 0.552269179574342 0 1 1
5315 1 7.985065571364634 7.934293135319011 -0.4190940081962732 1 1 0
2113 1 10.862094325350315 6.013577224193438 2.637081811178626 1 1 0
5618 1 13.670146482991049 5.935570918329152 1.2065159216487717 1 2 0
1832 1 15.58091382900759 7.19468861065791 3.065545215067104 1 0 0
6550 1 17.888759577232882 7.053741443588305 1.4062162764229447 0 0 1
4881 1 18.729160081162807 4.286623596959998 2.7885495805297733 0 0 1
1710 1 19.78086213833925 7.231391614032173 3.4811415461787107 -1 0 1
4909 1 24.372365626143136 5.481538967873284 1.6307082435987512 0 1 1
470 1 22.596324220710425 7.668523217015017 -0.18006485803637418 0 0 0
2293 1 1.587849759540757 11.158605949974023 2.1791589103940043 1 0 0
1671 1 1.3054073551685454 8.51143578982065 -0.3893006664790255 1 0 1
3936 1 3.6095365766158567 11.204582785898925 0.39576758193292205 1 1 1
6605 1 5.820242455991733 9.314534021468019 0.9081464003255542 0 1 0
1556 1 6.263196614721547 9.595687239247226 3.469675054541085 0 0 1
285 1 12.156612900968272 10.319060524375956 1.8435190651911815 0 0 0
5316 1 9.819896588599963 8.288591046383393 1.6802107159714166 0 0 0
3017 1 13.719657784866826 8.580395603724973 -0.49750046834452816 0 1 1
1614 1 14.785395927683432 9.760691630896307 2.996815876537504 -1 1 1
1391 1 18.47089667437909 11.026078290518381 3.511070770714359 0 0 1
93 1 16.965707993083445 12.200350934547888 1.6992509728496659 1 1 0
1877 1 21.05444745757966 11.075101795463196 3.4513693122085827 1 -1 0
3581 1 21.414431382022947 12.11466420250581 0.9042309890358813 0 0 1
3237 1 24.185073630603476 11.570011096695467 0.7567551192615638 0 1 1
3802 1 22.64045295566527 8.580150156631085 2.319143464330968 1 1 1
450 1 1.3531547690999826 15.411229591850951 0.5717945327567131 1 1 0
3918 1 5.997182122595599 13.197235294178805 2.3792526295399967 1 0 0
1570 1 5.325048158993803 15.505728841070702 1.0047570495652745 -1 0 0
4982 1 11.255109855759827 12.280160831581851 0.48721667133825 -1 0 1
4908 1 9.77662218830317 15.682910341330235 0.1253064752785219 1 0 1
2117 1 8.848101912510018 13.358918649308169 1.0169288191903803 0 1 0
2140 1 15.15775447413633 13.437543334794594 3.0842046752131935 -1 0 0
1696 1 13.3248133813312 14.264581766915363 1.126150912828246 0 0 0
2015 1 18.56891100797442 14.119278211230549 0.13141294556815208 -1 -1 0
6518 1 21.883043960934078 14.922280589717193 -0.1836875629815759 0 0 1
5402 1 23.091834621955176 14.856212894114538 2.3433140164923607 0 0 0
6653 1 2.6107912073652257 19.06827982166207 0.9719192473302614 1 1 1
2060 1 1.847194788056034 17.54394187800556 2.609697166939702 0 1 0
4724 1 5.643145920985622 18.85198226492832 0.3926035671454364 1 0 1
3765 1 7.915812984331597 17.11737881962082 1.2477014816059138 1 -1 0
5520 1 12.063363614795318 16.834062253796432 0.6654538902220186 0 0 0
1687 1 10.931871739103398 18.76146670257877 2.7378184911845973 -1 0 1
6375 1 15.142004292632556 16.496730864110724 0.06367973534234339 0 1 1
3857 1 15.809580999559275 20.11562369278148 2.03012921544939 1 0 1
3076 1 19.49033458369937 20.411813593172347 1.4820107866320407 1 1 0
5459 1 20.50620316013904 17.3860535019914 1.786092330294509 0 0 0
5350 1 17.195741752112585 17.49483577489821 3.429367564611571 0 2 0
4800 1 17.478389447503922 16.678678528074084 0.7963473836342247 -1 -1 1
3500 1 23.192746915144173 17.561542340688725 1.7922546950346918 0 1 0
1316 1 3.927270804822009 22.641127559587922 -0.39797738988957276 -1 1 1
4979 1 0.19421773800273456 23.713088841717887 1.705016141749359 0 0 1
1903 1 2.4820125921402507 23.289126697311367 3.29268989450562 1 0 0
437 1 1.1576645555804932 21.413160004855275 -0.3919830238364901 1 0 0
3455 1 7.294407940627749 22.51649210821007 2.819527287435455 1 -1 1
6556 1 6.130686946843463 21.791261641893996 0.7023751427883425 1 0 1
2157 1 11.964688115307094 22.313535440578217 2.7299133437088834 0 1 1
3518 1 11.71280578356569 20.56750467136334 -0.005867479877382897 0 0 1
5482 1 9.386248569642607 24.27998480559959 0.015285055673946668 2 -1 0
3037 1 14.863725992069014 22.52511374908512 2.9895091969682293 0 -1 1
5593 1 14.575501589206924 20.530400445091235 -0.4632431566392463 1 0 1
5358 1 17.60515600779392 24.211804151882315 0.12307595654028225 1 0 0
3912 1 21.822265624731592 22.75074431603057 -0.16740671051748512 0 0 0
1664 1 23.69767836312128 24.275172793347313 2.108182461579012 -1 0 1
5587 1 22.65014642164557 21.295392574470327 1.9792222249206515 0 0 0
5247 1 2.046362594455351 0.3625395106894289 4.811685883717129 0 2 1
2147 1 2.4970322310280872 2.427760239771017 6.499676577277788 0 0 0
85 1 5.346822814600527 0.6907369401597905 4.922637521488872 2 0 0
186 1 5.650213244453975 2.7013477122903566 6.744920282720812 0 0 0
1495 1 8.593329567552859 1.0430952836258034 6.078892301167873 0 0 1
2184 1 10.779259067394397 2.3157532115931376 6.435201300796532 1 -1 0
4985 1 15.330946836643742 4.052892701829516 6.839211233210323 -1 1 1
3200 1 13.269854974691278 0.6286072734205184 5.721772094146173 0 2 1
6482 1 14.648447139291175 2.3819808434296235 4.954071453499738 0 0 1
1868 1 18.082110454255936 3.517115034373236 5.374005865289623 -1 1 0
1351 1 20.964975681447232 1.7408926695632587 5.961842368394524 -1 0 1
1755 1 2.3279619974950854 5.897585484755839 7.442814316417383 0 0 0
4789 1 2.4098768473673005 4.718757852059656 4.701890948183961 1 0 1
1329 1 5.325899445985397 5.871340988109338 5.9978226468240825 0 1 1
1909 1 9.79166807776067 4.878265211516452 5.645719006143711 1 1 0
4716 1 8.23265811044369 7.638190906389874 5.935829866358526 -1 0 1
5041 1 15.316682191073506 6.030751683343363 5.4067866120566 1 2 1
2040 1 12.313746355218017 6.586085040280976 4.76051446238811 -1 -1 0
3207 1 14.647012255947006 8.031165559012404 7.102474451332986 0 0 1
448 1 17.979971890303638 7.113807030532926 5.536194667611753 0 1 0
3277 1 22.084567570610105 5.704537307111267 3.7988255184003545 -1 1 1
1449 1 22.802893989588238 7.36382386801743 6.1371824376096065 0 -1 1
1802 1 21.13163785177047 4.535771053131869 6.7235609973265005 1 0 1
1678 1 2.480531828256198 10.455813836772334 5.265708351043042 1 0 1
5508 1 6.157074927229 9.422909823858099 7.035926460514747 0 0 0
193 1 4.35157771832532 8.785283738294423 4.806666490673092 -1 0 0
3697 1 6.429899646706996 12.067822917816123 4.704665333928067 0 -1 0
3193 1 9.888868696074944 9.843194597646097 4.3386504554472305 0 0 1
3543 1 9.904291410339011 11.858126608777825 6.040895221502558 0 1 0
5048 1 13.067306132456034 9.26254023540655 5.154773998064883 -1 0 1
3474 1 14.893003368451508 11.884504307586237 6.200395315306507 1 0 0
2223 1 16.94644404086663 9.733537722665197 6.078824624736951 0 1 0
403 1 20.369474094410098 9.12175480699914 6.293479944838818 -1 1 0
484 1 24.42869567767082 11.669686908203472 4.089772702577106 1 0 0
120 1 3.6797485385232513 12.573140931725973 4.197335307934953 1 0 0
3165 1 2.588809020005105 14.861259867332688 5.327671996804753 2 0 1
3580 1 7.905163796523201 15.046647754100173 7.469000588759328 0 1 0
5122 1 6.049152246363487 13.330069228593661 6.9750667471479835 1 0 0
3366 1 10.173349179084497 13.594427163050096 4.073379331976618 1 -1 1
2138 1 12.174990369477499 15.282619925930504 3.6542191167914266 0 1 0
5085 1 8.490726450159242 15.970839440595254 4.841513708565914 1 0 1
348 1 12.610046797922106 14.158679634671548 6.420409785979113 1 0 0
381 1 16.934267669136812 13.383125753143586 5.135985329646122 -1 -1 0
1689 1 19.764160757554848 14.210749294167377 5.736441880982485 1 0 0
6593 1 24.011577388610657 12.619453265623557 7.358410870008191 0 0 1
190 1 21.629300376732004 12.36136803611995 6.19565481578956 0 0 0
5251 1 22.154673101867008 15.387722464159479 4.620962576755353 0 1 1
5217 1 24.258873203790593 15.087060360555046 6.175750628563964 -1 0 1
5526 1 3.3183445529434663 19.313764534156004 4.779930485542628 0 1 0
378 1 0.7545163451878814 19.969296100651587 6.3381646969073575 -1 1 1
5356 1 4.036929555663812 16.976962837624626 4.334226632851423 0 2 0
4951 1 4.3195151713388205 16.549932736012394 7.320010481227504 1 1 0
1386 1 7.863513482084163 19.907232725688786 5.140559053079356 -1 0 1
3369 1 6.715440204259918 17.616748274153615 3.7912467043371585 2 1 0
1827 1 11.621361639974232 18.818802511096777 7.167424095530877 0 1 1
60 1 10.516254138447762 17.519658962714384 5.180593883296417 1 -1 1
194 1 14.203601307938834 17.12056429262706 7.277465839134209 1 0 1
3337 1 16.366845780214327 20.42257545979819 6.330401055117731 0 0 0
1448 1 13.852868889636662 20.42132776671245 5.718101139713311 0 0 1
5656 1 14.62209577558039 16.526278550607486 4.425240858793096 0 0 1
3020 1 13.851675806345103 19.126344938874784 3.5673692926885927 0 0 1
3826 1 20.179058115821782 17.938615320096694 4.707745534030364 -2 1 0
1733 1 21.660374970193754 18.96401578686537 7.605514232289188 0 1 1
4704 1 22.149049824932256 19.87739729420925 5.074847745211451 -1 1 1
1307 1 0.49840229693753924 22.587374260613785 5.193179016820418 -1 1 1
5589 1 3.52685110518976 22.724286175146492 6.364847300280194 1 -1 0
5579 1 5.433315543932362 21.37448950301754 4.627935419878549 1 0 1
1354 1 9.681722469842532 22.19628902145383 4.014874796447177 0 -2 0
4729 1 11.060147466715549 21.88560565766863 6.795424193851895 1 0 1
5575 1 14.084079545250713 23.41957789647487 5.712720553069756 1 0 0
3331 1 17.976727643713744 21.56429510202735 3.6717488001829324 0 0 1
3288 1 20.675768924863988 21.843865858716626 4.653346492523436 0 1 1
157 1 1.320316143635648 3.813381066733662 9.143636692940957 0 0 0
115 1 3.739980493697847 1.526151835063616 10.83801029970469 1 1 0
1900 1 0.6937391861019578 0.8822373673188428 10.733743717049377 -1 0 1
3749 1 4.479378774647867 3.7655913291025533 9.094816293144275 0 0 0
1706 1 6.835317860603543 0.9752169077084433 8.776060577004165 -1 0 1
98 1 9.000488352732978 3.0736496356586476 10.053847788256476 1 1 0
5051 1 11.612805984950148 2.7297115308966213 9.122078656256573 1 1 0
302 1 13.629373568486281 0.7743097180000115 9.791036753777046 1 0 0
3778 1 18.396627698267032 1.3972797057585933 7.74991343509334 0 -1 0
5528 1 18.401530834586314 0.31521948523499155 11.098395774514069 1 1 0
408 1 20.413492383972173 2.1338147994080803 9.95544591572356 0 1 0
4760 1 16.693360788955875 2.797041843952002 9.592832466372847 -1 0 1
3424 1 23.817301224081582 1.2992834112810634 7.788223203933521 0 0 1
299 1 22.53934724726007 3.38421294143796 8.821360409323407 0 0 0
6506 1 1.4621555129067656 7.64727098613836 9.838763466728045 1 1 1
3224 1 7.7903242947033275 4.710856865834724 8.134667355158285 0 1 1
4933 1 7.872531588923179 7.437674254274597 8.8604963728369 0 0 0
1864 1 5.044808080025245 6.215496424996893 8.606460588714487 0 1 0
3052 1 10.814494216830443 6.040969452565552 9.901339111906184 -1 1 1
591 1 11.465886882438506 7.459428720311704 7.7160325875404965 0 0 1
423 1 14.203995712746227 5.4180890606619245 9.250766673393558 0 0 1
392 1 16.173079219066253 6.108270499641266 11.201279201567994 0 0 0
6332 1 19.791141390398018 6.299545885362069 8.019224167396857 0 0 1
5351 1 18.281955226544962 4.621718161436431 10.056298591339663 1 1 0
231 1 24.399308916182232 7.616561733773242 9.155108500188696 0 0 1
5288 1 21.07145314534331 7.560179887719872 11.597313167885208 1 0 0
6532 1 22.309279637336278 6.006515924287495 9.989166962976904 0 0 1
3327 1 2.4998216330057406 11.502929760243735 11.347972806128794 1 1 0
3297 1 1.8861691769905555 10.951067850097099 7.751644212626108 2 0 1
6738 1 4.139077578897031 9.272447050087534 8.932356704737384 1 0 1
4775 1 7.797011605516286 11.374726496436145 7.852166324958338 0 2 1
3755 1 5.146538779416253 11.867327164489554 10.688793425772584 1 0 0
2089 1 11.302229280568428 10.227263951672288 7.687152590438844 1 1 0
330 1 9.762921907928261 9.486886641154408 10.23238481152935 0 1 0
5243 1 15.708533770702108 9.967532298321414 9.432396257394814 0 1 0
3753 1 13.186148077048534 11.636424184846732 9.093407691951459 2 1 0
173 1 13.437045772346636 8.33448263245794 9.911117411750876 0 -1 0
241 1 18.925670358917 10.629058710125697 8.459385324424098 0 0 0
3905 1 17.771458127313895 9.046751420372733 10.932693887023248 0 1 0
203 1 22.83130033864647 9.771283053201005 8.400731829447043 1 -1 0
1749 1 21.038032031347417 9.633877883397306 10.589640627671018 0 1 0
3015 1 24.17970726671764 12.126204111696774 10.51038629059993 -1 0 0
3109 1 0.44035185600944315 14.311311186604811 9.539311797707292 0 -1 1
5102 1 2.365471785960673 13.617408561169754 7.824144026180752 1 -1 0
6460 1 7.908172368009971 13.93349420276983 11.632309821624526 1 -1 0
1423 1 4.44934388903559 14.310014184329923 9.351157968960447 1 1 1
6636 1 11.689209743082003 13.142384725374969 10.518511886826323 1 1 1
3158 1 10.652920689471923 15.62420742190244 8.383492448464647 -1 1 1
1884 1 9.329556657881769 12.512351082445754 9.722997255313183 0 1 0
6347 1 14.86088204315745 14.754770260028378 10.701160238102721 1 1 1
3878 1 19.52263945303135 13.455604645529403 9.180990361904305 1 0 1
1335 1 16.83872932139195 12.907676951696638 9.593543498455356 0 0 1
4962 1 20.130320618869877 16.093188390253925 7.984722931001722 2 -1 1
6398 1 21.03755370236206 15.390042638363473 11.2881999340174 0 1 1
2239 1 0.3702267395076486 17.42609459393711 9.488945627446288 1 1 0
1330 1 3.6808610376112867 19.50974080219851 10.805614409334579 1 1 1
3585 1 2.7091938973292686 18.251479991544816 8.458632053010732 0 1 0
6713 1 7.870802509752616 19.97944119051693 8.205016384001944 0 0 1
1313 1 6.919245614615441 17.4927286761506 7.708541398458699 0 0 1
3135 1 7.701382536272148 16.525949536814394 10.604317806668703 1 1 1
3043 1 4.957312003829679 16.767301738098844 11.061238281911988 0 0 1
169 1 10.52870562971107 19.319746812985727 9.738747236000759 0 -1 0
5172 1 13.373615023871901 19.64432817600294 11.272756086712091 0 -1 0
5566 1 15.777802092755485 18.882539123069094 8.704833671197967 1 1 1
436 1 13.060330906182513 16.686645629835937 9.976956861133832 2 0 0
444 1 19.96612132061717 19.806344701289934 9.72234807469601 -1 0 0
510 1 18.13708292310513 17.90228119796936 9.641904661107391 1 0 0
5265 1 24.24605611702314 20.04714697478889 8.710719280979568 0 -1 1
3097 1 22.912120255407928 16.406433280767043 8.953602337447759 -1 1 1
5394 1 2.021260545293004 22.437717237367135 10.763271628377275 1 1 0
1401 1 1.897632934486194 21.65929717963374 8.291593296904749 0 0 1
6433 1 5.047971164886047 20.964242502801554 8.69814763552426 0 -1 1
397 1 7.077850493796476 23.187922678980353 8.729846150856947 1 1 0
1679 1 8.639133856505198 21.41909494464178 10.462670125571961 -1 0 1
5151 1 11.60490818784591 23.057070249196457 9.198917645033651 0 0 0
5092 1 16.24803534064631 22.778135785452033 8.242668159676333 0 1 0
5515 1 14.441594234823055 22.104636195462927 9.900455538492416 0 0 0
5297 1 17.096308487404176 24.46345043415504 11.39042702231723 0 0 0
5507 1 18.756796273468375 22.69359426703181 9.782333143782859 1 0 0
5466 1 20.45372811263608 22.691890336147917 7.660628486123045 -1 1 0
5188 1 24.51303466249844 23.390730431937804 8.461650329674054 0 -1 0
2073 1 21.1219217313829 23.873495211882844 10.775885923586465 0 0 0
5001 1 23.608368079656557 21.99721836698805 11.169637249273382 1 1 1
1852 1 3.0179662162901892 2.530702881484222 13.11921606241611 0 0 1
6480 1 0.04724582013483441 2.103674675507091 13.170740935508267 0 1 1
6454 1 7.647583894673606 1.3018195421876437 15.707874353647362 0 1 1
137 1 6.792372366546913 1.877609098638023 12.887246752545893 0 0 0
6721 1 8.913916573964245 3.417917601418871 12.748902560760683 1 0 1
2131 1 10.599069381247956 1.7066674345048276 15.458326236687226 1 1 0
3221 1 12.443787222260394 2.4986735381408076 13.929559342216058 1 1 1
5249 1 12.756489590241854 0.14848875154751787 12.472448441830187 0 0 0
5181 1 15.819815310269227 0.9943822719104924 12.468659666077492 0 0 0
3273 1 18.87422971640984 3.337834112400882 13.0919764584772 -1 0 1
3238 1 23.792308536628592 3.5968984471020535 14.099115400400034 0 2 1
3664 1 22.837224138891273 1.581221747257713 11.885334531920288 -1 1 0
2031 1 21.251908652379342 2.4981710378341027 14.582168021652459 0 0 0
6716 1 2.624527762425761 5.437766587209412 13.293075300484475 1 0 1
321 1 0.38930594017795767 5.417172787028801 11.70171556067874 1 1 0
3430 1 7.257761636712947 7.443917189298197 11.933231751854734 1 -1 0
6448 1 5.057528642978469 6.860425682176414 13.362565431153941 1 0 1
3943 1 10.803445355748305 6.5530896794757885 12.66554862397761 1 1 1
5022 1 8.564760832746938 6.004819621843321 13.68118185615917 0 0 1
1874 1 13.461585368722906 5.632316038542095 13.98119948424057 0 1 0
5013 1 15.002744149287585 7.699685134491846 15.440284636252587 0 1 1
4798 1 15.903433545056098 4.136404832209972 13.10499912831494 1 1 1
478 1 18.783893051610267 6.759859870088553 14.343614728221707 -1 1 0
2072 1 22.295202435350348 7.73942347154021 14.073930332369038 0 1 0
514 1 24.11857569453924 6.21227155332066 12.594814226577173 0 0 1
2206 1 3.0416579091238565 9.08999367023841 12.631878219042955 0 0 1
5478 1 0.7605432371177788 11.126178808022425 14.820682614312354 1 1 0
19 1 2.005992306321429 8.57710658730818 15.634086278331406 1 1 1
3094 1 8.125002313876976 10.078649307116503 12.42253891549249 1 1 1
2016 1 8.27529708881415 10.071469658672582 15.119892414337027 1 1 0
5228 1 10.821228650338362 11.015660153190527 15.754219544882027 0 0 0
6745 1 12.01481923501394 9.215208085308555 11.927084237198791 1 1 0
5441 1 15.204712999858794 11.675412304173053 11.968945694654508 1 1 0
2032 1 12.789362273632754 11.202585134027839 13.511767539086012 1 1 0
3469 1 16.957623319706993 8.919117653407612 13.48298779614657 -1 1 0
5368 1 18.13495168892048 10.392957424161434 15.72968798053287 0 1 1
6639 1 22.663974053353982 10.634289091986735 13.579859775561944 1 0 0
6551 1 21.388950057158933 12.15559445976398 12.084772428470204 0 1 1
4793 1 1.9079992678269448 14.669721145488495 14.689121559477435 0 1 1
3887 1 3.8522291046570847 13.199625764895027 14.359829466283342 0 0 0
4905 1 0.8510254387703132 13.327858433059486 12.223567829155055 -1 1 1
3514 1 5.643857116713376 14.897490723841575 15.316280426760432 1 1 1
3557 1 6.357629585294522 12.4769619410145 13.17223121922465 0 -1 0
2201 1 8.813537429265638 14.194196534622826 14.544946838024012 -1 0 1
2114 1 11.18321712790735 13.626154210679701 13.035661579692496 1 0 0
248 1 15.108675863893485 14.761034731793835 13.785491248797804 0 -1 0
3171 1 12.342531300279179 16.09373472670987 13.218653987155966 0 1 1
6434 1 17.347551736103384 15.714720393564589 12.085399187728669 1 1 1
11 1 18.7407137277459 13.72582610249386 12.637188929826337 0 1 0
1830 1 19.119014755241984 15.106508587390268 15.137114983250681 0 0 0
2252 1 17.01599874443007 12.362160386872734 14.126677556408811 -2 1 1
2101 1 21.927685132492442 14.295983157045088 14.550247549214795 0 1 0
3611 1 23.853579652734403 15.083601160134382 12.062941126272156 0 1 0
6378 1 23.923658368907255 12.566922495034953 15.320818675809164 0 1 1
3162 1 3.251208691026283 16.989118584021778 13.416795845813914 0 1 1
101 1 1.151216597819279 18.155916681976286 12.02806314991821 0 0 1
5162 1 4.542891034231856 19.171839011911498 15.337051858063054 1 0 1
3377 1 6.619820040323919 16.932808986882318 14.0417803009212 -1 0 1
2166 1 6.777529583474206 19.40103461521927 12.020837445899351 0 0 0
3885 1 9.751246900668281 19.790834644149047 14.032996711121486 0 0 1
5136 1 10.277152299567799 17.733013210799616 11.904824487243314 0 1 1
1606 1 9.193328938785786 17.00169910948528 15.6165096093732 0 0 1
3614 1 13.812556875871572 18.587703585723176 13.81247930862967 1 -1 0
284 1 18.80981068706215 18.933906159528156 15.360841677355836 -1 0 0
5411 1 18.637537655019514 18.229841495751504 12.629176259050874 1 1 0
5341 1 16.76956428150733 16.855491281314453 15.307414802585926 1 0 0
4717 1 23.348290029379115 17.210697193489416 14.786559122954868 -1 2 1
2087 1 21.351144786728014 17.715362263818925 12.771989103936392 -1 0 0
1474 1 23.981633870489205 20.363771548935944 13.617587635904645 0 1 0
5548 1 0.046800446981652324 24.249217611248596 14.150675110015511 0 -1 1
3631 1 0.03219283433024438 20.64198196231682 11.905669285374913 1 -1 1
2079 1 1.6326609418313027 22.189511473427487 14.27313402120309 -1 0 0
3188 1 7.36122101363948 20.796535110587353 14.174943072887782 1 0 0
6714 1 4.127394450105084 21.346091036106856 13.13081743472912 2 1 0
5149 1 5.4858506756907595 23.54047004979219 14.625464140350315 1 0 1
1621 1 12.107601264271604 21.396857843039914 13.35348608274834 1 -1 1
3586 1 9.620306045481119 23.459288650512487 14.686540374589285 1 -1 0
4996 1 10.55549838268905 23.098869929248103 12.036267405375684 -1 1 1
1580 1 13.925308083841916 23.936448522489098 13.522724840045349 0 0 0
3608 1 16.097519593113994 24.407469072816017 15.462095928841565 -1 -1 0
5377 1 14.794425622910314 21.00622939074854 15.755388045444828 1 0 0
3946 1 15.845865178678439 21.313604084937552 13.105379834741042 -1 -1 1
2278 1 19.96723573238109 23.48991391204004 14.024539819986874 0 0 0
1484 1 18.150458712320503 21.8878688935987 14.678002051497918 0 1 1
2034 1 21.94650436252488 21.784531930418638 15.08725658279175 0 1 0
4841 1 23.43238613612618 24.260213906470437 12.991628039036513 0 1 1
1998 1 21.19093010028048 20.553353600977662 12.15739703294964 0 0 0
3365 1 6.238197962918872 0.4820482739587605 18.66447194970445 0 0 1
252 1 4.206368793665272 2.2698276635927033 19.30147870155184 0 -1 0
5654 1 11.386705180030257 0.22658794006708968 18.089846967748738 1 1 1
232 1 10.371918310296481 3.4601190624124727 17.44940111191933 0 -1 0
6391 1 20.968324351859167 2.3906818793037257 17.54004073127584 0 1 1
4843 1 1.588193167617085 7.871495528597308 18.59644163595664 1 1 1
2153 1 1.6385145005475115 5.578211633237278 15.870636187497787 1 1 0
1915 1 3.655615606663984 4.485535472404537 17.368510715352663 0 2 1
3124 1 6.8883158950138315 4.11937817405825 17.45045306679676 1 0 1
6404 1 6.199173733126264 6.889953167146424 18.7021235473246 0 0 0
4813 1 5.315320016198964 6.527529706632496 15.79899968961594 1 1 1
3118 1 8.149272619949286 4.385892755607677 19.565185578043884 0 0 1
6737 1 8.521706970497936 7.197495476462271 16.126541063822252 1 0 0
3602 1 10.714891206059466 7.529153707013588 17.65311296706978 0 1 1
1723 1 12.420006157252503 5.316606721409097 16.83053231235818 -1 0 0
5432 1 14.315497756278651 4.896717076956749 18.69949704540786 1 1 0
379 1 17.5212540847274 7.546013221419055 16.452265302041816 1 1 0
3730 1 22.90402007831051 4.445316372380274 16.903866572430378 1 -1 0
2149 1 23.990508439768412 5.017014306146556 19.527772347600795 -1 1 0
1320 1 21.546943972027393 6.545441561352449 16.634281602094806 1 0 1
228 1 3.4821613391439463 11.153230118022181 19.37773682963641 0 0 1
3507 1 5.958169024505755 11.434737196262205 16.106696036544314 0 0 0
6383 1 4.244631939572539 9.401355834036089 16.878025733848215 0 0 1
6673 1 13.092701816531111 11.015721797919703 19.210369610985513 0 1 1
3088 1 12.951162294099557 8.887359928420144 16.880848344976588 0 1 0
57 1 17.548360106328772 11.876937868367545 18.350680401347457 0 0 1
3091 1 18.480854701519867 8.832673489798108 19.3847443226637 1 -1 1
2052 1 23.204784251991658 10.456044787927882 17.823326856167295 -1 0 0
1721 1 21.49570378739822 8.417579096670762 18.507816091582733 1 0 0
3354 1 21.004162644962996 11.818702912151076 16.569620834589486 1 0 0
6674 1 1.7432135066805103 13.035331548399862 17.913897479858388 1 0 1
1427 1 4.760927338920818 15.40040896606139 18.18527285318495 1 -1 1
5510 1 7.487529599726366 13.332344141787088 17.805670568100812 1 1 0
1691 1 10.041222601633443 13.441965715800897 16.846819963375566 0 0 1
1845 1 12.230637962235768 15.230585531323188 17.0887396041236 1 1 0
3533 1 14.081319911224208 13.807111506942519 16.402515744560265 -1 1 0
243 1 15.44845167135586 12.823694520577877 18.884468030742077 -1 1 0
5028 1 19.294987641082177 13.961567983080352 17.464445501408278 0 1 0
3628 1 19.28823548277357 15.373733944697186 19.71579340708681 0 1 0
1381 1 24.112639491508975 15.685940214564997 18.244520400208895 0 1 0
2152 1 2.332541808007717 16.61058739766594 17.203168736470456 1 0 0
5597 1 2.0176544790891473 19.735564209900907 15.955271639253159 1 -2 0
21 1 7.932936124741401 17.18307902613135 18.705986764815695 1 0 0
3756 1 5.412263080862886 18.01391219383008 18.147122000403197 1 -1 0
1870 1 12.035683370372249 18.057414628200412 15.897043936714738 0 0 0
4730 1 12.020008845667688 17.73507378249875 19.217867009989998 1 1 0
6386 1 9.656336991810505 19.55529196665278 19.260543468243416 1 -1 1
336 1 15.708001965268696 19.769080352030073 18.635259128854187 1 0 0
5090 1 15.334634566283649 16.895884856404944 17.866092509097854 0 0 0
3934 1 18.084467787742163 18.351407203960424 19.20749266784156 1 0 0
1370 1 19.733807993147824 19.72694275651079 18.032034263354564 0 1 1
175 1 21.469962880292258 18.25184913576747 19.27694433476155 0 0 0
2266 1 23.131260127321614 18.27384665918068 17.21871717472312 0 0 1
410 1 2.3000868643694745 22.44424753441144 16.972768872325762 2 -1 1
1935 1 5.109340067736093 22.85950239165139 17.541766128023664 -1 0 0
5318 1 6.408306611023951 20.573400670526595 17.16354707231301 -1 0 0
6725 1 9.033060367567902 23.92771709581268 19.243888767693356 0 0 1
3463 1 11.146014962856258 21.09922078091519 16.353557416770165 0 -1 0
6573 1 9.041988383543725 21.670083491208693 17.75354902311726 0 0 1
2159 1 14.150053262511266 23.008520577927076 17.498992848860215 1 1 0
1523 1 17.47016253029597 21.99314479142662 17.363534706815464 1 -1 1
1713 1 20.071405281965806 22.707327510706346 19.61791790295436 0 0 0
4897 1 17.163743508619163 23.539461565540957 19.6309253578443 0 -2 1
2215 1 22.367791243187945 24.12257723971661 19.159193879880984 0 0 0
295 1 22.909840046378175 24.094022952059316 16.425606042527196 0 0 0
3941 1 1.8321491410825967 1.9741873614776788 21.39660531668491 0 0 1
6335 1 6.035258789094156 3.1442467638477356 21.193843681376258 -1 1 1
3525 1 6.27965191785521 1.7102329920018338 23.661498646905052 1 1 0
1764 1 8.260053150488611 3.6244778411816343 23.633146349106713 1 0 0
84 1 11.568268177281379 0.27991685664527094 23.871806765530742 0 1 1
3633 1 10.693176823342133 2.7616552741225413 23.842565875160233 1 -1 0
1982 1 8.908531756057995 1.7824164598702683 20.889376291190587 2 1 0
2148 1 11.572654377190554 1.8181571709492719 20.919671723428312 1 0 0
4803 1 14.370097701683632 3.8859759420091837 23.650328381894443 1 0 1
3660 1 15.6487249255409 3.9991134755725737 21.222945187328833 2 0 0
3993 1 16.677137652312965 0.7259038802793344 23.045041940681305 1 0 0
5419 1 18.882923307184683 3.337527237258744 22.544009174010274 1 0 0
4939 1 19.726519209963133 1.1726474917209457 20.25301989656242 0 0 1
1610 1 16.772698156613362 1.5341535760366427 20.265709478738984 -1 1 1
61 1 21.464519246891804 3.987778338499708 22.528015613165916 2 1 1
3783 1 23.886193423772394 2.6223647419925284 21.060870376101345 -1 0 0
5413 1 2.4965214293702105 4.389798076828045 23.708057626211627 0 1 0
3234 1 0.6841044297002616 5.1805588164107 21.07934999633013 0 -1 1
1561 1 3.540658020486193 6.327558394894774 19.848704604262497 0 1 1
3948 1 7.283592293009771 6.1210922113267765 22.858849599769453 0 1 1
5565 1 4.446297129857542 5.59324696793692 22.103137319824416 0 1 1
4848 1 9.009068304816594 6.561452560701795 20.557955439578414 0 1 1
2018 1 12.021307000970163 6.44646272300437 21.64581113535565 -1 1 0
419 1 11.884467367832915 4.1294244784048 20.082263238222236 2 1 0
5451 1 14.553462694046539 6.68920788937507 20.7888042564405 0 1 0
3714 1 17.113529283004777 7.348605799534687 22.927381041766452 1 0 0
2084 1 17.971792523734056 5.877559988938657 20.955240471934427 1 1 0
1707 1 21.451551832557982 7.217238121053817 23.021587911095974 0 -1 1
225 1 23.903357818670823 7.081512628318394 23.881512744496437 1 1 0
3228 1 22.37100149162623 7.135467062945761 20.36350288153061 0 1 1
5267 1 1.8680479484051826 9.407360021009852 21.012148749129892 2 0 0
3142 1 3.3250279651464707 8.567797013484478 23.077184400626187 1 0 1
6479 1 7.021642365174902 8.956819101433025 20.671346269505545 0 1 1
6472 1 5.390972353427993 11.61396729566269 21.509199942751817 2 1 1
6663 1 6.4423174686193665 8.705382760770181 23.50782920496995 0 0 1
317 1 9.4642651317574 10.447142671346445 20.996410500768583 1 0 0
4855 1 11.631169414693552 8.989981297257891 20.591814879651853 1 1 1
2003 1 15.63372318025705 9.540573898575142 20.551386411324607 1 -1 0
6562 1 14.871247605906234 12.208325653106076 21.505249713036314 1 -1 0
2246 1 13.388720038391572 10.472058470037314 23.016680459775596 1 -1 0
1754 1 19.60303500919491 9.308250258483326 23.69024607707049 -1 1 0