
# read in water data
read_data data.liquid_ML_500 group water extra/atom/types 1
Reading data file ...
  orthogonal box = (0.0000000 0.0000000 0.25802179) to (49.220000 49.019636 59.803978)
  2 by 2 by 3 MPI processor grid
  reading atoms ...
  4609 atoms
  reading velocities ...
  4609 velocities
  read_data CPU = 0.010 seconds

# remove area for graphite
region substrate block 0 ${XDIM} 0 ${YDIM} ${Z_LO} ${Z_HI}
region substrate block 0 49.22 0 ${YDIM} ${Z_LO} ${Z_HI}
region substrate block 0 49.22 0 49.019635930410494 ${Z_LO} ${Z_HI}
region substrate block 0 49.22 0 49.019635930410494 25 ${Z_HI}
region substrate block 0 49.22 0 49.019635930410494 25 35.062
delete_atoms region substrate
Deleted 780 atoms, new total = 3829

# Insert substrate
read_data data.graphite add append shift 0.0 0.0 ${Z_LO} group graphite offset 1 0 0 0 0
read_data data.graphite add append shift 0.0 0.0 25 group graphite offset 1 0 0 0 0
Reading data file ...
  orthogonal box = (0.0000000 0.0000000 0.25802179) to (49.220000 49.019636 59.803978)
  2 by 2 by 3 MPI processor grid
  reading atoms ...
  2760 atoms
  reading velocities ...
  2760 velocities
  read_data CPU = 0.004 seconds


# Define potential
# CHECK ON THIS %%%%%%%%%%%%
#
pair_style sw
pair_coeff * * MLC.sw mW C
Reading sw potential file MLC.sw with DATE: 2019-02-27


# Delete water and ice atoms that are overlapping
#
delete_atoms overlap 2.5 water graphite
System init for delete_atoms ...
Neighbor list info ...
  update every 1 steps, delay 10 steps, check yes
  max neighbors/atom: 2000, page size: 100000
  master list distance cutoff = 7.76
  ghost atom cutoff = 7.76
  binsize = 3.88, bins = 13 13 16
  2 neighbor lists, perpetual/occasional/extra = 1 1 0
  (1) command delete_atoms, occasional, copy from (2)
      attributes: full, newton on
      pair build: copy
      stencil: none
      bin: none
  (2) pair sw, perpetual
      attributes: full, newton on
      pair build: full/bin/atomonly
      stencil: full/bin/3d
      bin: standard
Deleted 117 atoms, new total = 6472

# set timestep
#
timestep 10.0

# Define output
#
compute 1 all msd
thermo 50
thermo_style custom step temp press vol etotal ke pe c_1[4]

# Neighbor lists
#
neigh_modify delay 0 every 1 check yes


# Fix graphite atoms in place
# CHECK ON THIS %%%%%%%%%%%%%%%%%%%%
#
fix 1 graphite setforce 0.0 0.0 0.0
velocity graphite set 0.0 0.0 0.0

# Set fixes
#
fix 2 water momentum 10 linear 1 1 1 rescale
fix 3 all nph z ${PRES} ${PRES} ${PCOUPL}
fix 3 all nph z -500 ${PRES} ${PCOUPL}
fix 3 all nph z -500 -500 ${PCOUPL}
fix 3 all nph z -500 -500 10000.0
fix 4 all temp/csvr ${TEMP} ${TEMP} ${TCOUPL} 837492
fix 4 all temp/csvr 235 ${TEMP} ${TCOUPL} 837492
fix 4 all temp/csvr 235 235 ${TCOUPL} 837492
fix 4 all temp/csvr 235 235 5000.0 837492


# Run 0.5 ns equilibration of water
#
dump 1 all atom 1000 eq.all.${NAME}.dump
dump 1 all atom 1000 eq.all.graphite_ML_500atm.dump
run 50000
Neighbor list info ...
  update every 1 steps, delay 0 steps, check yes
  max neighbors/atom: 2000, page size: 100000
  master list distance cutoff = 7.76
  ghost atom cutoff = 7.76
  binsize = 3.88, bins = 13 13 16
  1 neighbor lists, perpetual/occasional/extra = 1 0 0
  (1) pair sw, perpetual
      attributes: full, newton on
      pair build: full/bin/atomonly
      stencil: full/bin/3d
      bin: standard
Per MPI rank memory allocation (min/avg/max) = 4.559 | 4.691 | 4.954 Mbytes
Step Temp Press Volume TotEng KinEng PotEng c_1[4] 
       0    132.07108    -844.3888     143669.3   -34758.499    2547.4956   -37305.995            0 
      50      146.045   -2017.2398    143503.17   -34561.798     2817.036   -37378.834   0.55197373 
     100    146.04533   -2058.8706    142761.11   -34427.194    2817.0423   -37244.237   0.95610583 
     150    150.56572    -1333.247    141675.86   -34274.839    2904.2353   -37179.074    1.2991628 
     200    154.58493   -935.25105     140830.4   -34128.011    2981.7613   -37109.773       1.6669 
     250    157.13361   -949.11314    140280.32   -33983.508    3030.9221    -37014.43     2.039646 
     300    161.13369   -860.95075    139837.36   -33831.494    3108.0791   -36939.573    2.3985745 
     350    163.18301   -826.82321    139425.99   -33654.911     3147.608   -36802.519    2.7661852 
     400    165.24657   -992.02232    139032.52   -33560.683    3187.4117   -36748.095    3.2068266 
     450    166.73114   -851.73653    138643.48   -33438.509    3216.0473   -36654.556    3.6324078 
     500    168.38604   -246.37776    138285.89   -33324.203    3247.9683   -36572.171    4.1531773 
     550    172.72183   -796.47474    138071.88   -33214.271    3331.6006   -36545.872    4.7269747 
     600    171.17308   -1000.4655    137860.57   -33093.885    3301.7271   -36395.613    5.2718096 
     650    173.36755   -1320.4194     137635.7   -32997.778    3344.0558   -36341.834    5.8793227 
     700    173.86791    -905.6527    137351.99   -32859.363    3353.7071    -36213.07    6.4665708 
     750    173.47131   -870.76461    137074.75   -32756.602    3346.0572    -36102.66     7.100936 
     800     177.3744     -1052.51    136805.71   -32645.787    3421.3433    -36067.13    7.8064976 
     850    179.56818   -900.70881    136554.49   -32564.501    3463.6586    -36028.16    8.8240992 
     900    179.34559   -938.06377     136337.3   -32463.288    3459.3651   -35922.653    9.5825558 
     950    179.48095   -386.94399    136142.09   -32378.327    3461.9761   -35840.303    10.373243 
    1000    183.50271   -554.40501    136007.28   -32249.885    3539.5511   -35789.436     11.22036 
    1050    183.20554   -447.56828    135954.46   -32167.249    3533.8191   -35701.068    12.241831 
    1100    187.44628   -331.21805    135909.65    -32058.83    3615.6179   -35674.448    13.382233 
    1150    188.69483   -579.93751    135917.89   -31974.685    3639.7009   -35614.386    14.452694 
    1200    190.44189   -663.68097    135956.18   -31903.927    3673.3996   -35577.327    15.513868 
    1250    188.45831   -539.51076    136036.02   -31824.383    3635.1389   -35459.522    16.394524 
    1300    191.16695   -961.50547    136140.92   -31767.845    3687.3853    -35455.23    17.434697 
    1350     194.4694   -628.18107    136178.39   -31659.797    3751.0856   -35410.882    18.593488 
    1400    198.37406   -846.17114    136211.52    -31572.52     3826.402   -35398.922    19.642289 
    1450    195.47307   -75.441484     136294.8   -31485.325    3770.4452    -35255.77     20.92269 
    1500     196.6791   -381.19526    136525.54   -31460.722    3793.7081    -35254.43    22.090275 
    1550    198.76298   -744.36286    136808.88    -31355.35    3833.9038   -35189.254    23.342198 
    1600    200.16691   -435.54832    137062.16   -31291.067    3860.9838    -35152.05    24.619725 
    1650    201.00255    -598.7606    137255.79   -31242.811    3877.1023   -35119.914    26.107761 
    1700    202.35685   -460.32528    137370.13   -31178.813    3903.2251   -35082.038    27.600819 
    1750    201.14736   -841.96047    137433.75   -31082.333    3879.8956   -34962.228    28.993607 
    1800    207.38958   -897.82856    137507.43   -31054.703    4000.3006   -35055.004    30.382608 
    1850    202.36582    -424.7973    137598.57    -30977.11    3903.3983   -34880.509    31.690887 
    1900    206.65273   -846.96624    137680.52    -30927.67    3986.0877   -34913.758    33.017714 
    1950     206.4938   -497.66807    137734.75   -30872.183    3983.0221   -34855.205    34.519515 
    2000    211.30306   -552.79595     137751.1    -30787.61     4075.787   -34863.397    35.945853 
    2050     213.2404    -573.2026    137787.73   -30744.958     4113.156   -34858.114    37.612483 
    2100     213.8856   -621.17446    137855.49   -30704.575    4125.6011   -34830.176    39.240992 
    2150     212.0848   -708.10053    137927.66   -30629.911    4090.8659   -34720.776    40.929285 
    2200    214.80138   -543.76785    138002.37   -30566.588    4143.2656   -34709.854    42.527207 
    2250    209.86845   -925.70743    138087.74    -30531.95    4048.1151   -34580.065     44.04392 
    2300    213.45154   -566.10631    138157.34   -30497.641    4117.2287   -34614.869    45.991647 
    2350    215.58574   -274.78183    138201.46   -30443.299    4158.3949   -34601.694    47.645972 
    2400    218.16911   -744.49661    138370.75   -30430.331    4208.2251   -34638.556    49.172448 
    2450    216.54781   -1057.8689    138646.26   -30443.447    4176.9521   -34620.399     50.83322 
    2500     212.4774   -765.27514    138848.58   -30442.946    4098.4388   -34541.385    52.563562 
    2550    220.77106   -358.09881    138934.56   -30362.278    4258.4136   -34620.691    54.428293 
    2600     220.3473   -577.84935    139000.95    -30364.03    4250.2399    -34614.27    56.187898 
    2650    220.52083   -730.84122    139059.71   -30351.184    4253.5869   -34604.771    57.796634 
    2700    218.29753   -715.99013    139071.92   -30309.036    4210.7021   -34519.738    59.439935 
    2750    220.77105   -493.30309    139095.38   -30266.035    4258.4135   -34524.448    60.956977 
    2800    216.86703     -512.227    139181.72   -30264.768    4183.1096   -34447.878     62.64558 
    2850    220.83812   -495.50843    139226.62   -30229.421    4259.7071   -34489.128    64.246946 
    2900    220.77254   -726.94236    139289.53   -30206.115    4258.4422   -34464.557    65.816263 
    2950    218.01555   -148.20049    139377.48   -30186.424    4205.2631   -34391.687    67.584563 
    3000    222.59892   -492.26036    139472.96   -30175.557    4293.6708   -34469.228    69.226973 
    3050    217.96761   -914.55761    139539.84    -30138.27    4204.3383   -34342.608     70.61908 
    3100    224.15007   -716.22672    139530.03   -30075.561    4323.5907   -34399.151    71.985647 
    3150    225.59014   -498.99893     139427.2   -30038.863     4351.368   -34390.231    73.624714 
    3200    226.90023   -752.29727    139312.72   -30008.304     4376.638   -34384.942    75.257244 
    3250    223.18298   -640.94648    139168.62   -29975.241    4304.9367   -34280.178    76.812027 
    3300    227.76188   -586.67949     139017.9   -29972.437    4393.2583   -34365.695    79.015256 
    3350    223.29575   -483.49563    138959.03   -29985.086     4307.112   -34292.198    80.966091 
    3400    225.83948   -106.94284    139023.47    -29988.37    4356.1774   -34344.548    82.932863 
    3450    223.54276   -474.01239     139194.7   -30013.267    4311.8765   -34325.143    84.348887 
    3500    223.66427   -362.04385    139415.43   -30005.436    4314.2203   -34319.657    86.010231 
    3550    224.14371   -512.42937    139669.16   -29978.764    4323.4681   -34302.232     87.65262 
    3600    224.79057   -856.79819    139890.98   -29956.507    4335.9452   -34292.453    89.134802 
    3650    224.92503   -845.12147    140003.65   -29927.298    4338.5389   -34265.837    90.745137 
    3700    226.29611   -586.55415     140038.5   -29886.668    4364.9854   -34251.653    91.569928 
    3750    228.10444   -894.71699    140077.01   -29801.749    4399.8659   -34201.615    93.284961 
    3800    228.28784   -249.59698    140088.64   -29793.496    4403.4034     -34196.9    94.681538 
    3850    229.59419   -1042.4449    140077.79   -29750.897    4428.6015   -34179.499     95.59487 
    3900    229.28023   -644.62951    140005.34   -29723.995    4422.5455   -34146.541    97.232645 
    3950    225.71832   -660.45154    139963.64   -29710.093    4353.8405   -34063.933    98.785001 
    4000    229.22748   -765.97134    139960.03   -29739.427     4421.528   -34160.955    101.12546 
    4050     224.4652   -733.19619    139995.27   -29728.266    4329.6693   -34057.935    103.15232 
    4100    229.65041   -700.55391    140027.74   -29716.639    4429.6858   -34146.325    104.96011 
    4150    230.13853    -206.7614    140043.15   -29734.647     4439.101   -34173.748    106.34151 
    4200    234.48383   -730.49934    140136.16   -29710.758    4522.9167   -34233.675    107.81605 
    4250    227.67902   -969.95534    140249.59   -29689.638      4391.66   -34081.298    109.19287 
    4300    227.84216   -657.73928    140327.56   -29672.108    4394.8068   -34066.915    111.18222 
    4350    230.33489   -510.04604    140391.84   -29666.422    4442.8886   -34109.311    112.85485 
    4400    230.80743   -418.40576    140480.63   -29657.117    4452.0033    -34109.12    114.90085 
    4450    231.17286   -634.58453    140593.31   -29631.266     4459.052   -34090.318    116.51094 
    4500    231.40212   -835.39832    140663.41    -29628.65    4463.4743   -34092.125    118.50245 
    4550    233.30855   -677.83282    140739.81   -29603.718     4500.247   -34103.965    120.01634 
    4600    230.92008   -503.27991    140759.48   -29589.817    4454.1764   -34043.994    122.09031 
    4650    231.83195   -708.80343    140742.49   -29553.387    4471.7652   -34025.153    124.31015 
    4700    233.98217   -711.76881    140734.23   -29562.252    4513.2404   -34075.493    126.62317 
    4750    228.55501   -524.73863     140750.3   -29574.567    4408.5569   -33983.124    128.60958 
    4800    235.89606   -1134.2346    140784.58     -29545.6    4550.1571   -34095.757    130.36127 
    4850    231.04688   -1116.8438    140794.22   -29531.715    4456.6221   -33988.337    132.38008 
    4900    234.70805   -1027.2627    140712.39   -29525.589    4527.2417   -34052.831    133.99944 
    4950    232.90219    -833.2285    140588.22   -29528.641    4492.4089    -34021.05    135.08345 
    5000    232.53285   -687.29035    140447.96   -29521.016    4485.2847     -34006.3    136.92935 
    5050    231.69819   -662.52679    140310.01   -29529.197    4469.1851   -33998.382    139.15899 
    5100    238.79446   -225.82325     140173.4    -29518.33    4606.0639   -34124.394    140.90098 
    5150    234.28565   -703.20692    140123.67   -29533.247    4519.0942   -34052.341    142.67968 
    5200    230.65359   -309.27068     140118.2   -29493.293     4449.036   -33942.329    143.98672 
    5250     236.0577   -248.40313    140177.26   -29474.749    4553.2749   -34028.023    145.56132 
    5300    231.45274   -602.19225     140237.4   -29438.942    4464.4506   -33903.392    147.15917 
    5350    234.94262   -623.08862    140323.77   -29436.073    4531.7664    -33967.84    149.00579 
    5400    236.58688   -314.30998    140462.89   -29435.959    4563.4821   -33999.441    150.45169 
    5450    234.95895   -940.98098    140651.54   -29418.879    4532.0814    -33950.96    152.36937 
    5500    236.63741   -460.31983    140766.45   -29427.854    4564.4568   -33992.311    154.20996 
    5550    238.05429    -956.3943    140846.14   -29437.173    4591.7867    -34028.96    156.28645 
    5600    236.48487   -415.68398    140897.81   -29414.939    4561.5145   -33976.454    158.24631 
    5650    238.03952   -736.84037     141002.8   -29401.565    4591.5019   -33993.067    160.18526 
    5700    237.30127   -394.19868    141153.89   -29370.337    4577.2618   -33947.599    161.86604 
    5750    238.37556   -522.44394    141346.95   -29375.289    4597.9838   -33973.273     163.7415 
    5800     235.3276   -1086.1542    141523.55   -29388.379    4539.1922   -33927.571    165.54462 
    5850     234.2781   -849.56491    141553.01    -29392.12    4518.9486   -33911.069    167.55373 
    5900    234.77908   -925.99015    141541.77   -29354.938    4528.6119    -33883.55    169.24409 
    5950    232.90308   -929.26841    141506.25   -29341.561     4492.426   -33833.986    170.91516 
    6000    234.16328    -798.0995    141411.24   -29363.226    4516.7338    -33879.96     172.4667 
    6050    233.39171   -502.20233    141290.42   -29398.353    4501.8511   -33900.204     174.4366 
    6100    235.69362   -208.79585    141136.41   -29390.221    4546.2522   -33936.473    176.12981 
    6150    234.15916   -688.90812    141003.62   -29370.464    4516.6544   -33887.118    177.73641 
    6200     232.3409   -702.45674    140892.65   -29352.675    4481.5822   -33834.257    179.71787 
    6250    235.96361   -459.27437    140757.36   -29323.481      4551.46   -33874.941    181.47307 
    6300    234.09273   -866.74867    140674.57   -29338.575     4515.373   -33853.948    182.70724 
    6350    237.08346   -736.06639    140635.49   -29363.209    4573.0606   -33936.269    184.92259 
    6400     239.6247   -522.79827    140678.74   -29316.247    4622.0781   -33938.325    186.62321 
    6450    238.32319   -845.24463    140728.34   -29313.078    4596.9736   -33910.051    189.05715 
    6500    240.37345   -524.70267    140740.46   -29306.175    4636.5207   -33942.695    191.53829 
    6550    235.22381   -660.56072    140860.98   -29305.538    4537.1902   -33842.728    193.33966 
    6600    232.16067     -82.0855    141000.72   -29350.938    4478.1058   -33829.044     195.5396 
    6650     235.8875   -844.65881    141086.16   -29383.458     4549.992   -33933.449    196.87259 
    6700    236.85507   -724.58391    141127.06   -29386.444    4568.6553     -33955.1    199.27186 
    6750    240.27295   -416.59725     141097.1    -29410.31    4634.5821   -34044.892    201.19032 
    6800    235.62223   -929.24249    141048.68    -29401.79    4544.8752   -33946.665    203.24574 
    6850    233.57077   -1009.5286    140967.26   -29424.474     4505.305   -33929.779    205.08328 
    6900     232.5162   -593.54788    140818.22   -29433.824    4484.9636   -33918.788    206.94993 
    6950    234.20422   -224.93435    140705.16    -29419.15    4517.5235   -33936.673    208.96186 
    7000    234.73719   -581.03192     140662.3   -29412.169    4527.8038   -33939.972    211.28296 
    7050    237.50105   -794.27943    140619.57   -29395.332    4581.1155   -33976.448    213.67469 
    7100    237.58965    -785.9539    140637.92    -29367.17    4582.8245   -33949.994    216.02517 
    7150    238.28821   -533.39893    140641.59   -29354.645    4596.2988   -33950.944    217.62751 
    7200    235.77144   -808.90296    140660.59   -29359.288    4547.7532   -33907.041    219.84043 
    7250    241.46063   -415.19892    140626.15   -29318.437    4657.4912   -33975.928     221.3424 
    7300    236.55834   -747.20163    140616.19   -29327.642    4562.9317   -33890.574    223.44673 
    7350    242.42709   -936.57818    140654.05   -29343.701    4676.1329   -34019.834    225.19529 
    7400    239.34883   -531.71375    140712.06   -29344.026    4616.7568   -33960.783    226.66927 
    7450     233.7144   -925.44465    140767.17   -29337.619    4508.0754   -33845.694     227.9375 
    7500    231.04388   -858.97045       140754   -29334.516    4456.5643   -33791.081       228.99 
    7550    239.87472    -419.1431    140735.98   -29385.358    4626.9008   -34012.259     230.3698 
    7600    234.94611   -797.28235    140706.19   -29388.587    4531.8336   -33920.421     231.7841 
    7650    239.39318   -745.18915    140666.98   -29376.448    4617.6123    -33994.06    233.50686 
    7700    237.29233   -779.68723    140646.91   -29378.996    4577.0895   -33956.085    235.04003 
    7750    233.93856   -961.33004    140678.53   -29384.519    4512.3992   -33896.918    236.76148 
    7800    238.28829   -718.63715    140700.36    -29428.19    4596.3005    -34024.49    238.17811 
    7850    232.08575   -335.92506    140771.36   -29390.451    4476.6606   -33867.112    240.07666 
    7900    238.09281   -413.28263    140902.52    -29379.57    4592.5298     -33972.1    241.95475 
    7950    235.85761   -201.43632    141061.14   -29381.092    4549.4154   -33930.507    243.69012 
    8000    237.61416   -708.85787    141262.35   -29376.135    4583.2972   -33959.432    245.33346 
    8050    238.48634   -807.64021    141474.22   -29393.622    4600.1205   -33993.742    247.89136 
    8100    230.81123   -818.13402     141647.7   -29405.049    4452.0767   -33857.126    250.34313 
    8150    232.70617   -831.81145    141717.19    -29429.81    4488.6279   -33918.438    252.34359 
    8200    234.36242   -776.08833    141711.41   -29402.861    4520.5749   -33923.436    253.28721 
    8250    232.42526   -772.68309    141714.86   -29396.797    4483.2095   -33880.007    255.20252 
    8300     235.3998   -554.66438    141675.83   -29394.248    4540.5848   -33934.833    258.32143 
    8350    235.45213   -330.80528    141594.64   -29427.754    4541.5942   -33969.349     259.6455 
    8400    234.67991   -324.47572    141470.13   -29428.451    4526.6989    -33955.15    262.09084 
    8450    234.26621   -896.48828    141287.81   -29418.544    4518.7192   -33937.263    264.59142 
    8500    234.29222   -879.21078    141049.43   -29401.514    4519.2209   -33920.735    266.92443 
    8550     237.0296   -790.31064    140837.58   -29376.393    4572.0217   -33948.415    268.58033 
    8600    234.64625    -347.1332    140641.72   -29373.956    4526.0497   -33900.006    270.74349 
    8650    234.41315   -297.69619    140529.25   -29350.334    4521.5535   -33871.887    272.72161 
    8700    236.35103   -825.97973    140527.72   -29328.563    4558.9329   -33887.496     274.5121 
    8750    234.60098   -353.91364    140556.24   -29302.708    4525.1765   -33827.884    276.75241 
    8800    238.70687    -953.4988    140629.79   -29282.589    4604.3743   -33886.963    278.10797 
    8850    238.26205   -608.89009    140661.75   -29261.671    4595.7943   -33857.465    279.17208 
    8900    239.49721   -778.74477    140748.88   -29267.433     4619.619   -33887.052    281.70568 
    8950    239.44589   -395.44821    140803.28   -29269.854    4618.6291   -33888.483    283.11314 
    9000    234.74632   -1108.5117    140914.35    -29261.92      4527.98     -33789.9    284.70517 
    9050      238.028    -554.8103    141032.78   -29274.379    4591.2797   -33865.659    286.48911 
    9100    244.29132   -757.58937    141118.91   -29263.746    4712.0917   -33975.837    289.35727 
    9150    239.11731   -905.20017    141208.88   -29263.479    4612.2913    -33875.77    291.19028 
    9200    235.97221   -792.91116    141232.55   -29232.918     4551.626   -33784.544    293.24497 
    9250    237.12108   -768.13991    141181.25   -29234.093    4573.7864    -33807.88     295.9651 
    9300    240.00227   -649.57223    141181.45   -29281.255    4629.3609   -33910.616    298.56068 
    9350    237.54903   -1189.0515    141233.94   -29286.758     4582.041   -33868.799    299.94167 
    9400    240.53427   -722.82109     141256.6   -29301.191    4639.6227   -33940.814    300.72984 
    9450    236.83632   -696.58617    141259.17   -29311.624    4568.2937   -33879.918    302.46221 
    9500    232.88554   -908.76469    141244.74   -29309.643    4492.0877   -33801.731    305.06381 
    9550    231.51446   -671.58194    141136.32   -29330.519    4465.6412    -33796.16    307.11969 
    9600    235.39355    -299.6043    140986.36   -29317.237    4540.4643   -33857.701    309.38555 
    9650    236.83958   -386.40003    140854.32   -29285.079    4568.3565   -33853.436    310.86607 
    9700    245.76552   -302.46961    140704.77   -29306.313    4740.5274    -34046.84    312.85367 
    9750    239.27177    -382.0956    140603.99   -29356.777    4615.2706   -33972.048    315.23129 
    9800    239.47952   -464.08947     140548.1    -29354.79    4619.2778   -33974.068    317.69801 
    9850    239.11789   -229.31831    140541.69   -29340.349    4612.3023   -33952.652    320.22818 
    9900    235.63113   -682.44578    140636.35   -29318.072    4545.0469   -33863.119    322.91091 
    9950    235.28396   -734.19319    140768.68   -29320.949    4538.3504     -33859.3    324.79538 
   10000    235.03205   -967.72154    140865.03   -29343.573    4533.4913   -33877.064    326.57291 
   10050    235.95938   -680.82635    140964.04   -29340.184    4551.3785   -33891.563    328.70182 
   10100    237.17058   -644.78378    141080.75   -29342.978     4574.741   -33917.719    331.36421 
   10150    238.28982    -744.9152    141169.28   -29336.958    4596.3299   -33933.288     333.0408 
   10200    239.50884   -245.15109    141275.21   -29342.536    4619.8434    -33962.38    335.19944 
   10250    237.91912   -350.20808    141440.64    -29297.05    4589.1795    -33886.23      337.398 
   10300    239.30655   -601.88477    141560.53   -29284.149    4615.9414   -33900.091    339.67603 
   10350    234.64626   -843.34933    141585.39   -29297.156    4526.0499   -33823.206    341.61681 
   10400    234.69522   -781.82257    141503.81   -29315.718    4526.9943   -33842.712    343.33024 
   10450    241.37826   -355.66794    141367.85   -29280.875    4655.9023   -33936.777    344.83159 
   10500    237.77155   -535.42616    141291.78   -29281.946    4586.3331   -33868.279    346.73545 
   10550    234.83838   -568.70814    141279.46   -29288.105    4529.7556   -33817.861    348.20034 
   10600    233.80622   -396.57205    141298.08   -29290.661    4509.8465   -33800.507    349.40091 
   10650    237.19779   -540.31907    141348.97   -29313.093     4575.266   -33888.359    351.30997 
   10700    233.20454   -853.94256    141397.05   -29326.906    4498.2409   -33825.146     354.3076 
   10750    233.86712   -754.43585    141455.37   -29312.839    4511.0212   -33823.861    355.28773 
   10800    235.17945   -825.91195    141558.13   -29305.125    4536.3344   -33841.459     357.6962 
   10850    240.26782   -673.51304    141698.66   -29324.709    4634.4832   -33959.193    359.55463 
   10900    235.56502   -815.23973    141820.68   -29318.789    4543.7717   -33862.561    361.79412 
   10950    237.27117    -1022.005    141889.01    -29343.67    4576.6814   -33920.352    363.94854 
   11000    234.81429   -513.96029    141845.47   -29356.549    4529.2909    -33885.84     364.7969 
   11050    234.29941   -845.74775    141754.54   -29368.977    4519.3595   -33888.337    365.67906 
   11100    238.06429   -1009.9623    141654.91   -29403.542    4591.9796   -33995.521    366.89325 
   11150    234.96799   -875.12835    141471.92    -29395.05    4532.2556   -33927.306     369.0193 
   11200        236.6   -664.42304    141213.89    -29395.29    4563.7352   -33959.025    370.41828 
   11250     233.1076   -500.20562     140950.4    -29385.33    4496.3711   -33881.701    371.73517 
   11300    232.97381   -628.60811    140733.34   -29411.364    4493.7903   -33905.154    373.06033 
   11350     237.9899   -329.61665    140592.76   -29413.495    4590.5448    -34004.04    375.16156 
   11400    238.38441   -345.03295    140523.09   -29421.155    4598.1545    -34019.31     375.5144 
   11450    237.89335   -603.18355    140609.39   -29407.018    4588.6824   -33995.701     376.0928 
   11500    234.29588   -683.22412    140811.84   -29354.109    4519.2914     -33873.4    378.69616 
   11550    232.04206   -769.88946    140973.34   -29344.526    4475.8179   -33820.344    380.39804 
   11600    233.65507   -642.73549    141019.39    -29384.41     4506.931   -33891.341    381.38422 
   11650    234.90008   -613.96575    141030.09   -29424.911    4530.9457   -33955.857    383.67971 
   11700     232.1517   -374.85588    141031.89   -29403.142    4477.9327   -33881.075    385.70002 
   11750    235.12741   -472.52195    141084.33   -29440.588    4535.3308   -33975.919    387.07414 
   11800    234.29929   -694.24513    141166.02   -29466.341    4519.3572   -33985.698    389.36029 
   11850    234.61433    -483.0932    141203.24   -29473.414     4525.434   -33998.848    390.90869 
   11900    237.50988   -432.32097    141200.84   -29446.257    4581.2857   -34027.542    392.67021 
   11950    238.11315   -434.03086    141141.43    -29466.97    4592.9221   -34059.893    394.02635 
   12000    234.87599    -629.8217    141085.45   -29461.103     4530.481   -33991.584    395.52211 
   12050    234.88934   -593.56343       141014   -29481.183    4530.7387   -34011.922    396.44078 
   12100    233.94876   -436.57673    140978.68    -29446.13    4512.5959   -33958.726    398.21946 
   12150    236.14567   -757.31573    140962.02    -29450.29    4554.9718   -34005.262    398.99479 
   12200    236.37401   -868.20268    140962.56   -29418.195    4559.3762   -33977.571    399.89901 
   12250    236.26342   -795.59953    141004.85   -29421.986     4557.243   -33979.229    402.45995 
   12300    238.17425   -938.10795    141034.83   -29379.176    4594.1007   -33973.277    404.09976 
   12350    235.73287   -649.24285     141042.4   -29405.371    4547.0094    -33952.38    406.42746 
   12400    235.49635   -539.85079    141044.81   -29378.983     4542.447    -33921.43    408.23373 
   12450    238.12721   -775.36759     141111.7   -29367.864    4593.1933   -33961.057     409.6058 
   12500    235.45786    -947.0852    141162.27   -29379.381    4541.7047   -33921.086    411.72274 
   12550    234.29032   -701.65173    141163.76   -29369.793    4519.1842   -33888.977    413.41382 
   12600    240.43299   -1055.1439    141071.24   -29387.277    4637.6692   -34024.946     415.3766 
   12650    234.00304     -188.485     140926.5   -29379.049     4513.643   -33892.692    417.47364 
   12700     235.3659   -422.25533    140808.03   -29398.309    4539.9308    -33938.24    419.42452 
   12750    236.89043   -941.28298    140773.91   -29392.049    4569.3373   -33961.386    421.74777 
   12800    237.93981   -665.54669     140777.9   -29406.536    4589.5786   -33996.115    423.27817 
   12850    236.32205   -405.87739    140789.32   -29424.332    4558.3739   -33982.706    424.89517 
   12900    235.22096   -949.94919    140778.73   -29429.629    4537.1352   -33966.764    425.98854 
   12950    230.37804   -391.06899     140791.7   -29419.689     4443.721    -33863.41    426.34765 
   13000    237.65426   -556.35127    140881.54   -29370.576    4584.0707   -33954.647    427.90618 
   13050    234.96911   -782.44689    141002.33   -29362.854    4532.2773   -33895.131    430.79731 
   13100    236.29731   -870.62912    141112.82   -29360.069    4557.8967   -33917.966    432.40842 
   13150    235.64192   -817.87095    141190.96   -29377.883     4545.255   -33923.138    435.17857 
   13200    233.56709   -1124.4136    141173.68   -29341.689    4505.2339   -33846.923    436.45325 
   13250    235.87438   -733.53156    141055.41   -29355.963    4549.7389   -33905.702    438.54301 
   13300    236.01505   -567.21462    140940.82   -29365.727    4552.4522   -33918.179    439.92742 
   13350    231.98617   -984.09046    140824.57   -29355.829    4474.7398   -33830.569    442.06228 
   13400    235.90326   -793.89845    140702.87   -29367.096     4550.296   -33917.392    443.62322 
   13450    238.97461   -317.21158    140570.33   -29348.586    4609.5386   -33958.124    445.22254 
   13500    238.95256   -578.52193    140467.66   -29369.542    4609.1134   -33978.655    445.83193 
   13550    236.72251   -538.34587    140428.55   -29355.151    4566.0983   -33921.249    446.59116 
   13600    234.30107   -786.68889    140464.93    -29368.47    4519.3916   -33887.862    447.72129 
   13650    235.43113    -710.7922    140516.89    -29393.48    4541.1892    -33934.67    449.09635 
   13700    234.15435   -654.48817    140613.55   -29416.869    4516.5615    -33933.43    450.43331 
   13750     236.0427   -410.39529    140690.28   -29393.006    4552.9856   -33945.992    451.96408 
   13800       234.85   -161.93439    140711.58   -29382.955    4529.9798   -33912.934    453.49155 
   13850    233.25715   -859.97319    140745.42   -29377.374    4499.2557   -33876.629    454.63982 
   13900    236.41045   -256.65265    140722.42   -29394.087     4560.079   -33954.166     455.4694 
   13950    235.25611   -597.91685    140677.46   -29392.637    4537.8132    -33930.45    457.12391 
   14000    233.39701   -611.46607     140649.7   -29411.222    4501.9534   -33913.176    458.79377 
   14050    238.36954   -386.30622    140669.03   -29413.886    4597.8676   -34011.754    460.55421 
   14100     234.4335    -687.9373    140764.98   -29397.097    4521.9461   -33919.043    461.75703 
   14150    239.59769   -489.83149    140875.04   -29411.654    4621.5572   -34033.211    463.54777 
   14200     233.0522   -993.16552    141010.53   -29425.202    4495.3025   -33920.505    465.62396 
   14250    236.59715   -508.20312    141094.25   -29463.661    4563.6802   -34027.341    467.72678 
   14300    234.57426   -462.90941    141161.51   -29456.031    4524.6611   -33980.692    469.07572 
   14350    232.68368   -727.85165     141223.5    -29463.67    4488.1941   -33951.864    469.90763 
   14400    230.71758   -630.28382    141274.83   -29464.664    4450.2704   -33914.934    470.85676 
   14450    233.15765    -830.3331    141309.55   -29453.373    4497.3363   -33950.709      472.212 
   14500     230.6854   -940.21239    141282.91   -29426.889    4449.6496   -33876.538    473.47885 
   14550    234.27604   -755.96491    141203.32   -29447.634    4518.9087   -33966.542    474.70888 
   14600    236.00665   0.67244595    141072.69   -29433.253    4552.2902   -33985.543    475.49306 
   14650    234.91207   -732.07319    140973.06   -29408.557    4531.1771   -33939.734    476.98501 
   14700     232.0531    -703.1035    140892.72   -29400.274    4476.0309   -33876.305     478.9377 
   14750    238.07839   -682.17207    140796.51   -29426.598    4592.2516    -34018.85    480.81845 
   14800    237.73381   -632.03992    140693.66   -29404.314     4585.605   -33989.919    482.52733 
   14850    233.60865   -230.39345     140612.4   -29416.906    4506.0357   -33922.941    483.40876 
   14900    233.55923   -511.06526    140596.94   -29433.223    4505.0825   -33938.305    484.12532 
   14950    235.46563   -501.27876    140562.19   -29448.627    4541.8546   -33990.482    485.68761 
   15000    233.95271   -392.02281    140597.66   -29481.161    4512.6721   -33993.833    487.66282 
   15050    233.67661   -329.50552    140692.08   -29494.162    4507.3464   -34001.509    488.99107 
   15100    231.53503    -460.3293    140809.31   -29508.994     4466.038   -33975.032    490.68215 
   15150    232.22242   -870.08464    140955.44   -29516.808    4479.2969   -33996.105    493.07931 
   15200    232.10785   -840.31995    141059.51   -29536.881     4477.087   -34013.968    495.07218 
   15250    230.08295   -808.17983    141121.96   -29530.393    4438.0291   -33968.422    496.90795 
   15300    230.95108   -875.09603    141174.69   -29518.208    4454.7741   -33972.982    499.32829 
   15350    231.91846   -582.08079    141204.05   -29531.341    4473.4339   -34004.775    499.93455 
   15400    230.14747   -779.25569    141225.63   -29566.577    4439.2735    -34005.85    501.66886 
   15450    227.27803   -272.40245    141224.01    -29625.45    4383.9254   -34009.375    502.99294 
   15500    224.01264   -1014.8582    141221.14   -29644.791    4320.9399    -33965.73    504.40449 
   15550     231.7602   -891.04654    141150.54    -29620.64    4470.3812   -34091.021    505.60384 
   15600    227.67066   -299.75705    141032.55   -29582.454    4391.4988   -33973.953    507.62586 
   15650    230.65438   -491.55121    140884.19   -29552.198    4449.0513   -34001.249    509.35347 
   15700    232.94725   -939.05547    140780.52   -29517.156     4493.278   -34010.434    512.03275 
   15750    234.67637   -741.71959    140643.83   -29511.516    4526.6307   -34038.147    513.56795 
   15800    232.09874   -1027.6538    140455.86   -29532.519    4476.9112    -34009.43     514.5317 
   15850     229.4709   -366.72456    140306.71   -29520.304    4426.2233   -33946.528    515.16803 
   15900    230.81558   -329.52794    140273.11   -29514.247    4452.1607   -33966.408     516.1883 
   15950    234.86557   -824.96225    140333.15   -29509.714    4530.2801   -34039.994    518.38197 
   16000    233.49629   -951.32444    140464.08   -29500.904    4503.8683   -34004.773    520.49784 
   16050    234.62402   -745.90761    140607.75   -29495.933    4525.6209   -34021.554    522.39732 
   16100    230.94526    -342.3461    140751.88   -29511.535     4454.662   -33966.197    525.35995 
   16150    235.92727   -585.08321    140902.39   -29476.033    4550.7592   -34026.792    527.93163 
   16200    230.50551   -555.09642    141059.75   -29433.523    4446.1796   -33879.702    530.66165 
   16250    236.96963   -305.87714    141231.97   -29436.516    4570.8651   -34007.381    533.75628 
   16300    234.40952   -1131.4094    141405.17   -29417.444    4521.4835   -33938.927    535.31652 
   16350    234.02743    -588.4891    141436.24   -29403.332    4514.1134   -33917.445    536.41588 
   16400    233.52909   -1011.7912    141364.34   -29425.213    4504.5011   -33929.714    538.16564 
   16450    234.78829   -790.50311    141128.32   -29405.954    4528.7895   -33934.744    538.61538 
   16500    234.81754   -319.12775    140914.86   -29432.573    4529.3538   -33961.926    539.16189 
   16550    234.97518   -753.91037    140782.33   -29458.142    4532.3943   -33990.536    540.93227 
   16600    234.72911   -1021.1188     140663.9   -29470.194     4527.648   -33997.842    541.79235 
   16650    234.58627    -505.2497       140524   -29470.147    4524.8927    -33995.04    542.55375 
   16700    230.67028   -824.20958    140408.08   -29428.284     4449.358   -33877.642    544.97883 
   16750    237.47713   -707.74222    140262.61   -29431.285     4580.654   -34011.939    546.32082 
   16800    236.82323   -612.54311    140106.52   -29412.554     4568.041   -33980.595     548.9105 
   16850    236.14914   -112.92977    139943.97   -29394.072    4555.0387    -33949.11    550.93192 
   16900    236.28746   -472.28476    139881.86   -29412.398    4557.7067   -33970.105    553.47807 
   16950    242.58472    -419.2118    139906.69   -29433.523    4679.1734   -34112.696    555.45271 
   17000    233.86645   -415.20712    139994.12    -29434.89    4511.0082   -33945.898    558.79586 
   17050    232.30732   -271.82794    140086.94   -29424.711    4480.9345   -33905.645    561.26805 
   17100    237.13567   -720.27623    140308.82   -29414.246    4574.0676   -33988.314    563.58738 
   17150    234.64252    -767.3934    140543.63   -29423.275    4525.9777   -33949.253    566.34567 
   17200    234.36097   -629.87921    140766.17   -29415.209     4520.547   -33935.756    568.14014 
   17250    231.22071    -707.0976    140960.08   -29454.686    4459.9751   -33914.661    569.87866 
   17300    233.58981   -295.93588    141128.93   -29472.113    4505.6722   -33977.786    572.75326 
   17350    231.99806   -530.75414    141236.73    -29478.16    4474.9692   -33953.129    573.36759 
   17400    233.46747   -418.96387    141314.24   -29469.965    4503.3125   -33973.278    575.75496 
   17450     230.1671   -776.02087    141370.97   -29488.225    4439.6521   -33927.877    577.38597 
   17500    233.41321   -747.97324    141369.08   -29506.909    4502.2659   -34009.175    578.94179 
   17550    231.06492    -563.7118    141271.65   -29507.676      4456.97   -33964.646    581.18631 
   17600    231.35037    -679.4649    141064.12   -29501.835    4462.4761   -33964.311     583.1012 
   17650    234.00984   -1459.1371    140936.35   -29512.595    4513.7741   -34026.369    584.58402 
   17700    229.01608   -163.79925    140844.23   -29518.952    4417.4503   -33936.402    585.27284 
   17750    229.23582   -561.03508    140811.63   -29554.332    4421.6889   -33976.021    585.90437 
   17800    234.24992   -281.52005    140808.27   -29550.278    4518.4049   -34068.683    587.73143 
   17850    234.70584   -713.06246    140834.72   -29571.396    4527.1991   -34098.595    589.23294 
   17900    235.29632   -402.77469    140837.39   -29568.893    4538.5888   -34107.481    589.88425 
   17950    233.26748   -862.27728    140867.62   -29558.484    4499.4549   -34057.939    591.04086 
   18000    228.93975   -861.57858    140870.65   -29576.126    4415.9781   -33992.104    592.57206 
   18050    226.59764   -978.78487       140817   -29594.331    4370.8015   -33965.132    594.94997 
   18100     229.9359    -592.4586    140699.51   -29584.135    4435.1926   -34019.327    596.35295 
   18150    232.93253   -839.99702    140575.97   -29600.293    4492.9941   -34093.287    597.59982 
   18200    229.71404   -565.83534    140462.79   -29619.193    4430.9132   -34050.106    598.55202 
   18250    234.33666   -725.05132    140360.71   -29636.466    4520.0781   -34156.544    600.07006 
   18300    230.70212   -443.83067    140276.59   -29631.145    4449.9721   -34081.117    601.61022 
   18350    231.26223   -708.97871    140241.52   -29597.842    4460.7759   -34058.618    604.00988 
   18400    229.23862    -527.3974    140233.27   -29627.383    4421.7429   -34049.126    605.29304 
   18450    229.12729   -649.67891    140255.67   -29617.277    4419.5956   -34036.873    606.00321 
   18500    231.40995   -543.85871    140252.22   -29583.415    4463.6253   -34047.041    606.54576 
   18550    230.36262   -393.57145     140233.2   -29578.143    4443.4236   -34021.567      608.328 
   18600    228.89093   -878.68614    140272.59    -29568.04    4415.0364   -33983.076    611.79424 
   18650    232.78124   -1002.1279    140348.06   -29537.237    4490.0759   -34027.313    613.60224 
   18700    233.98959   -870.78201    140389.41   -29515.445    4513.3835   -34028.828    614.65988 
   18750    230.13969    -725.4401     140394.7   -29473.062    4439.1234   -33912.185    618.24379 
   18800    237.70689   -557.55759    140357.83   -29466.854    4585.0858    -34051.94    620.22812 
   18850    236.94684   -771.88092    140269.29   -29477.749    4570.4254   -34048.175    620.86875 
   18900    231.64883   -632.41736     140167.3   -29525.305    4468.2331   -33993.538    622.45443 
   18950    234.29241   -691.46044    140101.03   -29540.041    4519.2246   -34059.265    624.53248 
   19000    234.61632   -730.19711    140085.48   -29527.231    4525.4724   -34052.703    627.08301 
   19050     235.3517    -1215.124    140111.52   -29537.804     4539.657   -34077.461    628.57655 
   19100    229.68138   -770.86604    140093.76    -29527.46    4430.2832   -33957.743    629.89918 
   19150    231.60344   -758.40282    140071.21   -29521.889    4467.3575   -33989.247    633.26928 
   19200    236.85611   -709.16769     140038.3   -29503.145    4568.6754   -34071.821    635.46459 
   19250    233.91758   -755.30532    140025.91   -29521.346    4511.9945   -34033.341    637.72828 
   19300    233.08964   -627.43692    140036.68   -29492.734    4496.0246   -33988.759    640.11235 
   19350     238.4895   -729.05587    140124.53   -29488.377    4600.1815   -34088.559    641.51002 
   19400    237.62115   -206.61581    140210.23   -29460.607    4583.4321   -34044.039    642.64106 
   19450    237.56101   -735.53111    140283.64   -29453.255    4582.2719   -34035.527    644.94241 
   19500    235.60234   -653.06718    140354.14   -29476.326    4544.4915   -34020.817    646.66949 
   19550    231.69567   -491.84447     140470.3   -29494.472    4469.1365   -33963.609    647.60506 
   19600     232.6555   -784.51785    140575.11   -29482.876    4487.6505   -33970.527    649.95512 
   19650    231.61055    -810.1868     140649.6   -29476.309    4467.4946   -33943.804    651.96733 
   19700    230.83969   -909.64697    140698.06   -29483.182    4452.6257   -33935.808    653.76667 
   19750    236.34229   -743.74966    140786.85   -29473.919    4558.7643   -34032.684     656.9826 
   19800    233.07259   -748.06161    140934.99   -29482.381    4495.6957   -33978.077    659.66832 
   19850    232.20575    8.7705416    141039.87   -29463.341    4478.9753   -33942.316    662.44002 
   19900    236.95806   -808.26136    141149.64   -29443.411    4570.6418   -34014.053    663.89352 
   19950    234.23109   -571.86571    141264.38   -29451.037    4518.0417   -33969.079    665.25969 
   20000    233.16284   -730.26796    141340.44   -29476.772    4497.4364   -33974.208     666.6945 
   20050    230.94908   -548.51055    141417.35   -29493.464    4454.7358     -33948.2    668.25043 
   20100    231.43808   -805.66572    141460.27   -29523.758    4464.1679   -33987.926    669.46078 
   20150    234.97602   -230.09274    141444.02   -29505.361    4532.4105   -34037.771    670.60933 
   20200      231.972   -425.71808     141416.4   -29519.716    4474.4665   -33994.182     672.1813 
   20250    232.22812   -920.65222    141326.83   -29527.294    4479.4068   -34006.701    674.23391 
   20300     233.0586   -493.44291    141213.55    -29507.69    4495.4258   -34003.116    674.25642 
   20350    228.15228   -605.54757    141101.93    -29469.16    4400.7887   -33869.949    674.98929 
   20400    229.79927   -169.47447    141042.06   -29489.318    4432.5572   -33921.875    676.56141 
   20450    233.58415   -360.37492    141000.69   -29494.901     4505.563   -34000.464    677.74368 
   20500    232.80779   -125.98147    140971.75   -29493.164    4490.5879   -33983.752    679.67162 
   20550     230.5084   -350.51868    140977.71   -29484.833    4446.2355   -33931.068    681.48662 
   20600    231.17236   -483.04907    141037.33   -29485.689    4459.0425   -33944.732    681.20446 
   20650    233.45734   -20.972785    141117.91   -29503.289     4503.117   -34006.406      683.036 
   20700    234.12392   -1222.1536    141209.61   -29491.718    4515.9747   -34007.693    685.36367 
   20750    231.41088   -640.58548    141180.95   -29472.506    4463.6433   -33936.149    686.48204 
   20800    233.49557   -242.31755    141104.99   -29479.106    4503.8545    -33982.96    687.45152 
   20850    234.25524   -326.75608    140997.69   -29461.317    4518.5077   -33979.825    686.29767 
   20900    234.47014    -698.7088    140961.17    -29457.61    4522.6529   -33980.263    687.83742 
   20950    230.27958   -480.03625    140964.66   -29483.223    4441.8218   -33925.045    689.33518 
   21000    235.99086    -536.6647    140933.36   -29483.912    4551.9856   -34035.898    690.69617 
   21050    232.39514   -510.81058    140919.78   -29493.579    4482.6284   -33976.208      691.427 
   21100    236.32421   -658.19677    140897.29   -29486.427    4558.4155   -34044.842    692.98735 
   21150     233.2679      -321.43    140863.73    -29471.69    4499.4629   -33971.153    695.22714 
   21200    233.21651   -697.89195    140875.94   -29467.362    4498.4718   -33965.834    697.83144 
   21250    231.30722   -423.39005    140902.94   -29467.646    4461.6438    -33929.29    699.08707 
   21300    234.80494   -632.25102    140972.78   -29453.119    4529.1107    -33982.23    700.78686 
   21350    230.65653   -753.37512    141052.02   -29459.463    4449.0927   -33908.556    702.62681 
   21400    238.27997   -966.75886    141123.81   -29448.938    4596.1399   -34045.078    705.05656 
   21450    233.96786   -642.82487    141186.42   -29423.288    4512.9643   -33936.252    705.24026 
   21500     229.4453   -995.09114    141167.26    -29427.23    4425.7296    -33852.96    706.85446 
   21550    235.05808   -927.28477    140991.58   -29408.431    4533.9935   -33942.425    707.56642 
   21600    238.89191   -914.57366    140787.73    -29395.08    4607.9436   -34003.024    708.93293 
   21650    237.75818   -455.87355    140551.77   -29382.058    4586.0752   -33968.133    710.12029 
   21700    233.78457   -469.43667    140384.66   -29379.353    4509.4289   -33888.782    712.68229 
   21750    237.13359   -476.71636    140237.88   -29370.552    4574.0276    -33944.58    713.47299 
   21800    236.16472   -451.28263    140216.65   -29354.727    4555.3393   -33910.067    714.50145 
   21850    240.55974   -547.63867    140249.58    -29381.46     4640.114   -34021.574     716.9447 
   21900    233.86866   -86.075609    140369.67   -29370.978    4511.0509   -33882.029     719.8548 
   21950    232.36837   -733.74931    140603.17   -29405.155    4482.1121   -33887.267    721.09105 
   22000    237.07951   -327.12307    140823.49   -29378.642    4572.9843   -33951.626    723.04318 
   22050    233.90984   -536.78949    141031.05   -29367.752    4511.8453   -33879.598    724.90899 
   22100    236.77498   -506.95733    141205.63   -29352.699    4567.1103   -33919.809    726.97256 
   22150    237.10896   -321.34307    141378.03   -29349.308    4573.5524    -33922.86    729.69496 
   22200    233.90861   -376.37149     141534.7   -29335.231    4511.8214   -33847.052    732.89805 
   22250    234.99264   -137.72259    141715.64   -29319.086    4532.7311   -33851.817    735.83653 
   22300    237.80643   -1034.4004    141889.69   -29275.357    4587.0058   -33862.363    738.44457 
   22350    233.58154   -947.99182    142000.94   -29286.836    4505.5126   -33792.348    739.32075 
   22400    232.16874    -1475.843    142022.66   -29295.735    4478.2615   -33773.996    741.02087 
   22450    237.01943   -662.45777    141933.08   -29292.974    4571.8255     -33864.8    742.69332 
   22500    235.61082   -847.85017    141874.21   -29279.852    4544.6551   -33824.507    744.66058 
   22550    236.94974    -354.7905    141845.62    -29300.66    4570.4813   -33871.141    746.37011 
   22600    232.83439   -378.38701     141843.2   -29282.058    4491.1011   -33773.159    747.35478 
   22650    237.52296   -340.55834    141768.99   -29292.769     4581.538   -33874.307    748.04871 
   22700    237.58106   -737.49613    141651.82   -29318.303    4582.6587   -33900.961    749.38605 
   22750    236.70119   -831.82429     141500.4   -29327.801    4565.6871   -33893.488    751.95999 
   22800    234.53364   -614.32102    141300.09   -29343.402    4523.8776    -33867.28    754.05632 
   22850    240.51155   -657.34334    141156.77   -29339.321    4639.1845   -33978.506    755.40105 
   22900    234.07569   -434.28869    141083.86   -29355.918    4515.0442   -33870.962    756.28967 
   22950    239.08524   -349.50528    141071.84   -29370.876    4611.6726   -33982.549    758.00472 
   23000    230.88493   -594.58352    141058.53    -29355.61    4453.4983   -33809.109    760.14275 
   23050     236.1309   -666.06254    141070.45   -29320.806     4554.687   -33875.493    762.55885 
   23100    235.71899   -763.05375    141083.51   -29323.243    4546.7416   -33869.984    765.63494 
   23150    239.39794    -712.0549    141047.97   -29319.873    4617.7042   -33937.577    768.26292 
   23200    233.99033   -344.84675    140992.04   -29317.747    4513.3978   -33831.145    769.36523 
   23250    236.77722   -780.89568    140974.48   -29332.523    4567.1536   -33899.677    771.90875 
   23300    234.00171   -491.44999    140961.55   -29334.544    4513.6174   -33848.162    772.97291 
   23350    238.10403   -653.17725    140955.23   -29351.989    4592.7462   -33944.735    774.70116 
   23400    235.23338    -223.5568    140987.95   -29340.262    4537.3748   -33877.636    777.38764 
   23450    236.20687   -272.53391    141115.85   -29370.007    4556.1523   -33926.159    778.59268 
   23500    233.06062   -826.93828    141299.07   -29382.781    4495.4648   -33878.245    780.98268 
   23550    232.77434   -285.72181    141456.47   -29366.511    4489.9427   -33856.454    782.81627 
   23600    231.61283    -861.5154    141606.85    -29348.34    4467.5386   -33815.879    785.25308 
   23650    236.87757   -671.16563    141663.74   -29310.047    4569.0893   -33879.136    786.94691 
   23700    237.83836   -380.70465    141658.51   -29307.954    4587.6217   -33895.575    787.83419 
   23750    235.07588   -240.28277    141623.96   -29292.753    4534.3367   -33827.089    789.24227 
   23800    237.32738   -969.92373    141534.57    -29273.07    4577.7655   -33850.835     791.0348 
   23850     238.7048   -712.83902    141395.53   -29292.625    4604.3344    -33896.96    792.34652 
   23900    234.92623   -640.37523    141283.47   -29311.518    4531.4501   -33842.968    793.46707 
   23950    237.46507    -1017.028    141235.95   -29335.636    4580.4215   -33916.058    795.08217 
   24000     232.9675   -574.76075    141162.91   -29337.566    4493.6685   -33831.235    795.87071 
   24050    235.79861   -494.00896    141057.47   -29319.947    4548.2774   -33868.224    798.24394 
   24100    239.68538   -445.51831    141041.84   -29301.583    4623.2486   -33924.831    800.75784 
   24150    236.77296    -304.7618    141100.73   -29318.551    4567.0714   -33885.622    803.77342 
   24200    236.39373   -892.88933    141155.44   -29317.348    4559.7565   -33877.104    805.14138 
   24250    238.24824    -751.1487    141150.29   -29312.981    4595.5278   -33908.509    806.34884 
   24300    235.88374   -475.74946    141172.18   -29336.683    4549.9195   -33886.603    806.93617 
   24350    237.18426    -1132.138    141255.86   -29330.967    4575.0049   -33905.972    808.77801 
   24400    233.38988   -912.52452    141305.59   -29348.357    4501.8158   -33850.172    810.22505 
   24450    239.48607   -721.97418    141297.58   -29357.923    4619.4041   -33977.327     813.0201 
   24500    240.20366   -741.85807    141251.47    -29356.21    4633.2455   -33989.456    814.33178 
   24550     237.6661   -557.15517    141165.37   -29364.561    4584.2991    -33948.86    816.03806 
   24600    234.41001    -738.8596    141158.55   -29338.247     4521.493    -33859.74    818.54271 
   24650    236.79197    53.414924    141117.27   -29321.222    4567.4381    -33888.66    819.22229 
   24700    238.01851   -257.24864    141160.82   -29290.917    4591.0967   -33882.014     820.8472 
   24750    235.36048   -453.51061    141183.34    -29256.36    4539.8264   -33796.186    823.79897 
   24800    239.61395     -933.798    141159.45   -29249.254    4621.8708   -33871.125     825.8894 
   24850    240.58718   -605.71005     141099.9   -29220.065    4640.6432   -33860.708    827.53223 
   24900     241.2641   -726.42912    140993.62   -29244.757    4653.7002   -33898.457    829.34843 
   24950    234.30298   -571.35509     140918.2   -29239.497    4519.4284   -33758.926    831.06038 
   25000    238.06857   -870.78601    140893.86   -29280.642    4592.0622   -33872.704    833.56695 
   25050    232.66406   -394.58215    140880.65   -29280.605    4487.8156    -33768.42    836.00411 
   25100    238.56647   -632.72051     140868.7    -29276.97    4601.6661   -33878.636    837.81471 
   25150    235.89496   -456.93745    140889.98   -29295.739    4550.1359   -33845.875    840.74757 
   25200    240.87681   -1001.4286    140942.37   -29341.673    4646.2298   -33987.903     843.1682 
   25250    234.50454   -585.45283    140973.08    -29357.35    4523.3162   -33880.667    843.46898 
   25300    236.60815   -1041.8537    141002.92       -29389    4563.8924   -33952.893    844.25479 
   25350    236.03962   -762.12861    141004.95   -29417.838    4552.9261   -33970.764    846.43127 
   25400    233.15721   -801.89343    140976.51   -29407.142     4497.328    -33904.47    848.24242 
   25450    235.92032   -728.99093    140932.42   -29401.634     4550.625   -33952.259    849.81336 
   25500    234.78757   -343.41727    140970.07   -29374.434    4528.7755    -33903.21    852.57225 
   25550    234.06521   -782.23308    141086.07   -29402.012    4514.8421   -33916.854     855.0588 
   25600     232.0567   -838.10355    141239.82   -29435.658    4476.1004   -33911.759    857.84274 
   25650    232.13002   -1058.4752    141363.95   -29423.009    4477.5145   -33900.524    859.70211 
   25700    235.08736   -697.38458    141388.78   -29396.547    4534.5582   -33931.105    861.44522 
   25750    232.41293   -473.00602     141342.7   -29375.125    4482.9715   -33858.097    861.04107 
   25800    234.38458   -396.01234    141306.65   -29389.352    4521.0024   -33910.355    861.60157 
   25850    236.23914    -336.3144    141281.97    -29351.63    4556.7746   -33908.404    862.33266 
   25900    234.85722   -589.67272     141228.3   -29371.184     4530.119   -33901.303    863.66528 
   25950    239.76686   -733.99751    141152.15    -29372.31    4624.8202    -33997.13    864.75386 
   26000    232.40634   -393.35521    141042.67   -29359.506    4482.8445   -33842.351     865.5149 
   26050    234.16439   -292.74984    140938.94   -29448.753    4516.7552   -33965.509    866.50264 
   26100    232.94519   -360.15742    140782.43   -29460.395    4493.2382   -33953.633    867.68504 
   26150     232.6816   -760.79567    140672.47   -29442.812     4488.154   -33930.966    868.54258 
   26200    231.52327   -488.81403    140605.79   -29436.242    4465.8111   -33902.053    870.09255 
   26250    232.40262   -521.77381    140542.03   -29474.242    4482.7727   -33957.014    871.80241 
   26300    236.28582   -667.74435    140474.68   -29479.136    4557.6751   -34036.811    872.05445 
   26350    230.86546   -707.68297    140446.22   -29475.246    4453.1227   -33928.369    872.77963 
   26400     232.3062   -295.93316    140437.48    -29463.96    4480.9128   -33944.873    875.12061 
   26450    236.90893   -829.99913    140435.47   -29458.294    4569.6941   -34027.988    876.63603 
   26500    233.04815    -515.6771       140478    -29475.88    4495.2242   -33971.104    879.07096 
   26550    234.29221   -485.32732    140572.42   -29488.728    4519.2206   -34007.949     881.0607 
   26600    232.46714   -473.68139    140659.89   -29470.841    4484.0173   -33954.859    882.41967 
   26650    237.96461   -752.93115     140687.3   -29460.523    4590.0569    -34050.58    883.14327 
   26700    234.77998   -649.10272    140658.95   -29436.965    4528.6292   -33965.595    886.38721 
   26750    235.65109   -362.80825    140599.82   -29455.764     4545.432   -34001.196    887.23807 
   26800    236.11072   -386.76037       140625   -29470.671    4554.2976   -34024.968    887.54094 
   26850    236.40072    -451.3215    140700.15   -29452.906    4559.8914   -34012.797    890.74513 
   26900    237.00974   -978.99847    140742.59   -29445.557    4571.6386   -34017.195     891.8883 
   26950    234.35448   -540.51651     140747.1    -29473.38    4520.4219   -33993.802    892.98222 
   27000    232.73377   -816.67419    140792.19   -29465.576    4489.1601   -33954.736    895.09094 
   27050    231.00059   -443.44078    140780.28   -29471.638    4455.7292   -33927.368    898.01649 
   27100    230.47266    -653.7559    140820.69   -29462.537     4445.546   -33908.083    900.15397 
   27150    231.22738   -1116.6288    140849.14   -29471.885    4460.1037   -33931.989    901.29746 
   27200    237.89017   -460.85741    140883.06   -29438.288    4588.6211   -34026.909    902.56742 
   27250    233.56137   -540.47327    140938.86   -29427.417    4505.1237   -33932.541    902.96598 
   27300    235.30054   -1167.0362    140932.56   -29446.807    4538.6702   -33985.477    904.46581 
   27350     233.1258   -629.23317    140855.53   -29420.104     4496.722   -33916.826    905.90336 
   27400    234.10492   -733.24786    140759.41   -29406.636     4515.608   -33922.244    907.34296 
   27450    233.13495   -695.17477    140655.61   -29421.323    4496.8986   -33918.222    907.56877 
   27500    235.65428   -916.76126    140551.89   -29407.017    4545.4934    -33952.51    907.84762 
   27550    234.42868   -434.66715    140426.75   -29405.006    4521.8531   -33926.859    908.39243 
   27600    236.83824   -868.93421    140280.32   -29427.971    4568.3306   -33996.301    908.87871 
   27650    235.02283    96.144271    140173.29   -29453.194    4533.3136   -33986.508    909.97667 
   27700    233.02927   -335.23906    140251.02   -29428.223      4494.86   -33923.083    910.91194 
   27750    235.88732   -483.17283    140441.51   -29430.729    4549.9886   -33980.718    912.82835 
   27800    236.22637   -766.22769    140740.96   -29412.209    4556.5283   -33968.737     915.2329 
   27850    231.21157   -589.23415    141019.85   -29407.172    4459.7987    -33866.97    917.11767 
   27900    233.07841   -825.33448    141187.93   -29418.971     4495.808   -33914.779    916.69496 
   27950    233.15769   -875.19409    141287.67   -29405.059    4497.3372   -33902.396    918.85712 
   28000    234.80617   -971.52374    141325.64   -29409.897    4529.1344   -33939.032    922.22291 
   28050    234.22448   -903.74384     141339.4   -29423.348    4517.9143   -33941.262    923.36442 
   28100    232.43614   -826.56215    141342.08   -29420.085    4483.4193   -33903.504    924.76308 
   28150    233.58058   -528.14784    141281.67   -29421.148    4505.4943   -33926.642    926.64254 
   28200    232.17424   -512.94141    141159.35   -29422.092    4478.3676    -33900.46    927.98468 
   28250    232.28592   -777.29716    141011.69   -29457.235    4480.5218   -33937.756    928.52935 
   28300    234.40065   -256.53914    140845.75   -29441.162    4521.3123   -33962.474    929.71378 
   28350    233.47716   -341.35319    140730.89    -29445.89    4503.4994   -33949.389    929.65738 
   28400    234.33742   -475.60161    140655.76    -29424.08    4520.0927   -33944.173    931.20977 
   28450    236.31539   -639.30896    140653.91   -29409.941    4558.2454   -33968.186    932.48484 
   28500    235.57248   -353.16917    140604.39   -29447.303    4543.9156   -33991.218    934.14415 
   28550    231.89449   -323.30173    140528.21   -29446.769    4472.9715   -33919.741    935.33757 
   28600    231.90393    -912.3675    140467.08   -29439.435    4473.1537   -33912.589    936.47818 
   28650    236.04342   -1121.6958     140408.7   -29458.426    4552.9996   -34011.426    936.49848 
   28700    236.63639     -366.444    140352.18   -29467.178    4564.4372   -34031.616    936.81493 
   28750    232.03877   -205.23389    140336.28   -29483.146    4475.7544   -33958.901    938.74369 
   28800    231.20021   -412.81423    140442.32   -29463.369    4459.5797   -33922.948    939.71782 
   28850    230.83403   -529.66705     140591.4   -29482.712    4452.5164   -33935.228    941.11083 
   28900    233.79219   -475.20357    140784.57    -29502.18    4509.5758   -34011.756    943.95069 
   28950    235.71392   -359.93142    140993.85   -29495.504    4546.6438   -34042.148    946.30559 
   29000    230.46781   -488.48371    141260.97   -29506.175    4445.4525   -33951.627    947.70651 
   29050    232.17512   -809.31118    141520.41    -29518.27    4478.3844   -33996.654    948.42817 
   29100    233.67198   -1062.9212    141670.08   -29522.959    4507.2571   -34030.216    948.70279 
   29150    234.21066   -1028.9251    141707.94   -29517.299    4517.6478   -34034.946    950.79579 
   29200    229.44331   -557.24434    141693.75   -29531.819    4425.6912   -33957.511    952.49681 
   29250    229.06801   -843.21014    141568.36   -29562.312    4418.4519   -33980.763    954.68255 
   29300    234.46062   -512.55394    141308.48   -29551.988    4522.4691   -34074.457    954.23158 
   29350    230.01231   -368.25775    141029.38   -29532.088    4436.6665   -33968.754    954.78709 
   29400    232.23436    2.8519227    140799.11   -29532.359    4479.5272   -34011.886    955.60981 
   29450    233.10216    -836.3274    140636.12   -29518.225     4496.266   -34014.491    958.08576 
   29500    234.66846    -397.4956    140456.63     -29504.5    4526.4781   -34030.978    959.43566 
   29550    235.67428   -456.68049     140339.1   -29495.587    4545.8791   -34041.466    960.74716 
   29600    235.47256   -572.23936    140275.75   -29491.115    4541.9883   -34033.103    962.23888 
   29650    233.98578   -366.64987     140288.3   -29471.322      4513.31   -33984.632    964.77453 
   29700     234.4402   -759.77936    140362.49    -29455.43    4522.0752   -33977.505    965.53625 
   29750    229.44986   -652.60586    140397.25   -29418.718    4425.8174   -33844.536    966.77968 
   29800    237.36903    -618.8855    140390.85   -29397.655    4578.5689   -33976.224    969.34537 
   29850    235.98691   -861.89833    140441.78    -29391.02    4551.9094    -33942.93    970.87849 
   29900    235.00174    -283.4855    140521.35   -29391.741    4532.9066   -33924.648    972.76717 
   29950    238.41214    -878.7292    140621.63   -29382.225    4598.6893   -33980.915    975.13362 
   30000    235.16738    14.550119    140730.02   -29386.528    4536.1017    -33922.63    978.66986 
   30050    234.23594   -998.15388    141019.58   -29372.812    4518.1352   -33890.947    980.40491 
   30100     235.4497   -658.56792    141310.89   -29381.799    4541.5473   -33923.346    982.90742 
   30150    230.99145    -969.5535    141523.88   -29363.521    4455.5529   -33819.074    986.64979 
   30200     234.5909   -929.50571    141636.59   -29393.348    4524.9821    -33918.33    989.47128 
   30250    230.76141   -669.22908    141766.19   -29427.841    4451.1156   -33878.957    991.26085 
   30300    230.48189   -684.68762    141868.04   -29425.691    4445.7241   -33871.416    993.03462 
   30350    229.64805   -810.07513    141928.08   -29426.896    4429.6403   -33856.537    994.24723 
   30400    230.49849   -802.87897    141861.74   -29468.731    4446.0444   -33914.775    994.95063 
   30450    230.17759   -968.45951    141722.81   -29449.539    4439.8546   -33889.394    995.97316 
   30500    230.54168   -443.91143    141537.28    -29452.51    4446.8773   -33899.387    998.61505 
   30550    237.85254   -1218.2362    141404.12   -29409.623    4587.8953   -33997.519    1000.1575 
   30600    238.90559   -804.73555    141197.39    -29380.48    4608.2074   -33988.687    1001.0643 
   30650    235.26121   -478.58367    141023.58   -29374.051    4537.9115   -33911.962    1001.7419 
   30700    239.41738   -459.25998    140826.33   -29362.317    4618.0792   -33980.396    1001.5288 
   30750    237.90968   -161.25389    140608.81   -29348.509    4588.9974   -33937.507    1004.2106 
   30800    237.56044   -435.69497    140490.61   -29366.938     4582.261   -33949.199    1005.9054 
   30850     238.2597   -283.97276    140399.26    -29325.22    4595.7488   -33920.968    1006.8765 
   30900    241.09638   -779.14822    140385.36   -29357.228    4650.4652   -34007.693    1007.9637 
   30950    236.19815   -423.31384    140432.67   -29373.528    4555.9841   -33929.512    1008.7532 
   31000    233.71519   -308.16449    140516.37   -29363.884    4508.0906   -33871.975     1010.457 
   31050    235.90222   -626.97998    140607.11   -29367.852     4550.276   -33918.128    1012.5213 
   31100    235.15181   -890.33706    140676.58   -29351.275    4535.8013   -33887.076    1013.5402 
   31150    237.88106   -561.55594    140763.05   -29364.025    4588.4455   -33952.471    1015.7924 
   31200    236.13163   -697.33757    140848.94   -29370.667    4554.7009   -33925.368    1017.9823 
   31250    235.45085   -777.53278    140898.17    -29348.55    4541.5696   -33890.119    1018.9845 
   31300    237.59493    -516.5626    140939.12   -29377.487    4582.9264   -33960.413    1019.8106 
   31350    234.03768   -300.49931    141001.39   -29354.868     4514.311   -33869.179    1021.2689 
   31400     234.5639   -576.38341    141103.89   -29368.739    4524.4612   -33893.201    1023.0646 
   31450    234.05689   -433.31735    141189.74   -29390.805    4514.6816   -33905.487     1024.916 
   31500    231.00371   -948.18685    141283.31   -29406.434    4455.7895   -33862.224    1026.2805 
   31550    235.92015    -621.8709    141257.72     -29440.9    4550.6217   -33991.521    1027.3912 
   31600    233.98659   -1080.3544    141192.02   -29409.693    4513.3256   -33923.019    1028.5019 
   31650    234.91062   -464.19409    141051.62   -29377.581    4531.1491    -33908.73    1029.9566 
   31700    237.41242   -633.87367    140924.24   -29336.487    4579.4059   -33915.893    1031.1808 
   31750    236.79084   -957.41569    140772.71    -29365.38    4567.4163   -33932.796    1032.1741 
   31800    232.57105   -600.34413    140636.43   -29371.586    4486.0216   -33857.607    1034.3048 
   31850    235.49778   -1181.4087     140502.2   -29370.823    4542.4747   -33913.297     1036.173 
   31900    238.42361   -474.39396    140356.89   -29363.626    4598.9106   -33962.536    1036.4805 
   31950    242.04829   -624.05619    140288.36   -29338.591    4668.8264   -34007.417    1037.7832 
   32000    239.34983   -679.59748     140300.4    -29368.22    4616.7763   -33984.997    1039.8503 
   32050    235.02387   -412.73984     140369.7   -29370.082    4533.3336   -33903.416    1041.3381 
   32100    233.81175   -828.66121    140451.88   -29390.612    4509.9532   -33900.565    1044.1726 
   32150    230.97921   -1049.4547    140490.41   -29406.382    4455.3168   -33861.699    1045.7303 
   32200    234.63277   -737.23311    140553.93   -29371.518    4525.7898   -33897.308    1047.0894 
   32250    234.19104   -426.41428    140650.44   -29358.121    4517.2693    -33875.39    1049.5985 
   32300    238.38827   -812.79714    140787.11   -29382.553    4598.2289   -33980.782    1050.0771 
   32350    236.72464   -905.29365    140903.02   -29404.697    4566.1394   -33970.837    1051.4973 
   32400    237.90937   -571.52251    140964.87   -29394.128    4588.9915   -33983.119    1053.3206 
   32450     235.9951   -997.86688    140990.31   -29373.046    4552.0674   -33925.113    1054.2457 
   32500    234.21441   -436.49175    140996.34   -29350.502      4517.72   -33868.222    1055.7121 
   32550    231.83697   -601.78516    141040.07   -29355.727    4471.8621   -33827.589    1058.3872 
   32600    234.47474   -890.04524    141091.77   -29381.164    4522.7415   -33903.906     1059.802 
   32650    237.51016   -429.63191    141097.63   -29363.198    4581.2912    -33944.49    1059.7122 
   32700    239.11184   -595.70729    141171.04     -29364.7    4612.1857   -33976.886    1061.3078 
   32750    236.92953   -1223.7949    141255.06   -29369.487    4570.0914   -33939.579    1063.4472 
   32800    238.20621   -660.96606    141309.82   -29354.787    4594.7171   -33949.504    1065.5361 
   32850    236.76196   -846.35753    141387.69   -29348.155    4566.8593   -33915.015    1065.9182 
   32900    234.81447   -965.34526    141480.65   -29336.068    4529.2945   -33865.363    1068.1225 
   32950    237.36542   -648.53174    141410.64   -29326.565    4578.4992   -33905.065    1068.5515 
   33000    233.81558   -820.06206    141272.23   -29333.491    4510.0271   -33843.518    1068.6621 
   33050     238.6599   -1048.4643    141062.56   -29356.847    4603.4683   -33960.315    1068.7017 
   33100    239.14583   -805.40117    140856.02    -29357.46    4612.8413   -33970.301    1070.5046 
   33150     240.6239   -614.95036    140670.16   -29328.622    4641.3516   -33969.973    1071.9161 
   33200    235.50891   -482.28507    140540.02   -29358.913    4542.6894   -33901.602    1072.7187 
   33250     239.5055   -417.00252    140440.22   -29316.688     4619.779   -33936.467    1075.0634 
   33300    238.74083   -229.53563    140377.22   -29327.351    4605.0294    -33932.38    1076.3712 
   33350    236.51973   -438.84363     140391.1   -29325.646    4562.1869   -33887.833    1076.9679 
   33400    240.02569   -868.91304    140518.23   -29313.438    4629.8127   -33943.251    1078.1499 
   33450    240.45799   -458.13818    140660.68    -29273.54    4638.1513   -33911.692     1081.945 
   33500    235.91778     -773.787    140792.07   -29226.551    4550.5761   -33777.127    1084.2429 
   33550    235.78524   -637.03274    140909.56   -29209.149    4548.0195   -33757.168    1087.8037 
   33600    240.25428   -927.07859    140998.66   -29213.386     4634.222   -33847.608    1089.4048 
   33650    240.91481   -541.12104    141057.41   -29228.294    4646.9628   -33875.257    1090.8171 
   33700    235.06856   -269.76168    141173.05   -29242.249    4534.1955   -33776.444    1092.6352 
   33750    240.32823   -814.14922    141327.03   -29258.187    4635.6483   -33893.835    1096.8618 
   33800    237.23398   -366.75266    141446.83   -29285.168    4575.9639   -33861.132    1099.0033 
   33850    237.60345    -714.1188    141593.93   -29310.765    4583.0907   -33893.856    1101.4725 
   33900    235.41934   -808.50489    141714.08   -29306.425    4540.9617   -33847.386    1104.4876 
   33950    238.11556   -870.17839    141804.32   -29298.009    4592.9686   -33890.978    1105.7054 
   34000    236.67922   -315.44768    141823.37   -29300.083    4565.2632   -33865.347    1107.4083 
   34050    236.88377    122.17004    141838.38   -29335.931    4569.2089    -33905.14    1109.0268 
   34100    233.07784   -566.95665    141931.87   -29316.217    4495.7969   -33812.014    1110.6332 
   34150    238.73766   -605.83105    141979.89   -29326.887    4604.9682   -33931.855    1111.7746 
   34200    235.75347   -1061.4274     141948.1   -29363.594    4547.4068   -33911.001    1114.7003 
   34250    233.81447    -979.7641    141825.52   -29397.812    4510.0056   -33907.818    1117.1797 
   34300    232.44074   -914.36292    141641.57   -29402.636     4483.508   -33886.144    1118.4377 
   34350    237.17425   -397.82577       141440   -29407.288    4574.8118   -33982.099    1119.2046 
   34400    236.69288   -1064.8992    141243.72   -29422.151    4565.5268   -33987.678    1121.2278 
   34450     236.6456    -1216.243    141012.98   -29423.917    4564.6147   -33988.531    1121.2984 
   34500    240.17781   -715.62175    140726.79   -29420.002    4632.7469   -34052.749     1119.512 
   34550    239.09446   -715.65131    140513.79   -29396.283    4611.8503   -34008.134    1121.6821 
   34600    234.56364    -203.1229    140323.81   -29393.856    4524.4563   -33918.312    1123.7761 
   34650    236.43369   -1062.8994    140162.46   -29385.628    4560.5274   -33946.155    1124.3344 
   34700    237.18877   -651.06974    139991.91   -29424.467    4575.0919   -33999.559    1125.1338 
   34750    240.31519   -406.43129    139901.15    -29449.83    4635.3969   -34085.227    1126.3995 
   34800    239.84589   -467.73175    139885.14   -29466.984    4626.3446   -34093.328    1128.1378 
   34850    238.29064    -855.1025    139946.21   -29479.594    4596.3458    -34075.94    1130.6699 
   34900    237.19101   -409.53762    140128.32   -29466.068    4575.1351   -34041.203    1132.0837 
   34950    229.73195   -529.56118    140398.77   -29492.666    4431.2586   -33923.925     1135.319 
   35000     237.4295   -654.01943    140691.41   -29479.186    4579.7353   -34058.921    1137.0889 
   35050    231.95957   -812.83325    141018.28   -29484.214    4474.2268   -33958.441     1139.628 
   35100    232.77001   -555.55449    141351.12   -29491.888    4489.8593   -33981.747    1142.5066 
   35150    235.47926   -437.41689    141669.13   -29482.379    4542.1175   -34024.496    1146.4964 
   35200    231.36384   -835.02328     141859.2   -29486.132     4462.736   -33948.868    1148.7383 
   35250    231.66981   -536.75492    141918.66    -29460.37    4468.6377   -33929.008    1151.8589 
   35300    234.49869   -620.38114     141887.4    -29418.91    4523.2035   -33942.114    1152.2877 
   35350    234.05533   -524.58823    141784.34   -29412.287    4514.6516   -33926.938      1152.47 
   35400    233.64458   -694.34877    141687.09   -29387.978    4506.7288   -33894.707    1153.8373 
   35450    233.23345    -407.4457     141555.2   -29435.999    4498.7984   -33934.797    1153.7279 
   35500    234.93556   -603.26385    141443.24   -29429.972    4531.6302   -33961.602    1154.4881 
   35550    232.85731   -511.39727    141340.69   -29416.986    4491.5431   -33908.529    1157.0535 
   35600     240.7198   -803.71846    141299.11   -29404.433    4643.2014   -34047.634    1159.4475 
   35650    238.19611   -328.29405    141278.53   -29408.557    4594.5224    -34003.08    1160.4615 
   35700     235.3338   -341.53927     141240.7   -29394.913    4539.3118   -33934.225    1162.0653 
   35750    233.09394     -416.047    141190.78   -29373.174    4496.1074   -33869.281    1164.4264 
   35800    233.60753   -766.78489    141065.05   -29396.243     4506.014   -33902.257    1165.6753 
   35850    232.86429   -964.61515    140874.33   -29385.583    4491.6778   -33877.261     1166.438 
   35900     237.5136   -921.44619    140678.36   -29377.244    4581.3576   -33958.602    1165.8916 
   35950    237.93172   -251.49409    140552.02    -29383.14    4589.4225   -33972.563    1167.8852 
   36000    237.47846   -446.91024    140522.74   -29404.554    4580.6796   -33985.233    1169.9615 
   36050     239.8358   -418.39002    140531.03   -29415.343    4626.1501   -34041.493    1170.9501 
   36100    237.90476   -652.25844    140569.52   -29396.824    4588.9026   -33985.727    1173.1234 
   36150    235.32975   -121.44215    140615.45   -29426.167    4539.2336   -33965.401    1174.6201 
   36200    232.34793   -329.54268    140734.15   -29418.218    4481.7178   -33899.935    1175.5981 
   36250    236.74621   -681.84854    140853.67   -29418.137    4566.5554   -33984.692    1176.7391 
   36300    234.60954   -884.62283    140939.96   -29449.372    4525.3416   -33974.714    1177.8365 
   36350    235.75496    -486.8901    140928.66   -29471.098    4547.4354   -34018.533    1179.2711 
   36400    237.26179   -413.49969    140926.65   -29452.933    4576.5003   -34029.433    1182.1505 
   36450    233.93235   -471.12898    140882.38   -29390.743    4512.2794   -33903.022    1184.5541 
   36500    233.27248   -585.41431    140818.91   -29376.145    4499.5513   -33875.696    1185.7076 
   36550    237.71693   -925.69035    140758.31   -29387.315    4585.2796   -33972.595    1186.5459 
   36600    236.18864   -809.16058    140656.27   -29433.025    4555.8006   -33988.825     1185.703 
   36650    237.42345   -421.52808    140542.51    -29442.48    4579.6185   -34022.099    1186.9775 
   36700    233.79488   -345.01274    140413.87   -29476.994    4509.6278   -33986.622    1188.1072 
   36750    236.66128   -508.94287    140284.04   -29460.639    4564.9172   -34025.557     1191.122 
   36800    236.66325   -609.66306    140169.27   -29447.467    4564.9553   -34012.422    1192.9449 
   36850    236.15266   -336.09895    140119.06   -29445.084    4555.1066    -34000.19    1193.5849 
   36900     238.1924   -563.02536    140159.07   -29441.044    4594.4508   -34035.495    1194.1117 
   36950    233.04491   -559.16349    140255.37   -29455.852    4495.1618   -33951.014    1196.0735 
   37000    233.33391   -943.71124    140376.66   -29466.635    4500.7362   -33967.371    1198.2376 
   37050    237.20923   -207.15028    140494.27   -29441.201    4575.4865   -34016.688    1201.0264 
   37100    237.43362   -543.01205    140665.46   -29416.461    4579.8149   -33996.275    1202.2937 
   37150     235.8763   -784.70683    140876.35   -29398.044     4549.776    -33947.82    1203.1909 
   37200    232.61509   -698.45893    141067.55   -29407.517    4486.8711   -33894.389    1205.8864 
   37250    232.94712   -840.56676    141231.92    -29430.49    4493.2755   -33923.766    1208.2053 
   37300    236.20956   -771.26254     141306.6   -29436.847    4556.2042   -33993.052    1210.0211 
   37350    236.37278   -1331.6967    141327.81   -29416.812    4559.3524   -33976.165    1211.6034 
   37400    236.91395   -896.89993    141278.51   -29382.781     4569.791   -33952.572    1214.1363 
   37450    234.49446   -774.71377    141157.46   -29375.888    4523.1218   -33899.009     1215.049 
   37500    239.15079   -791.90933     141028.6   -29381.243     4612.937    -33994.18    1216.6448 
   37550    233.83074   -370.89485    140929.33    -29419.58    4510.3195     -33929.9    1216.7847 
   37600    234.25758   -1120.5884    140926.59   -29441.373    4518.5527   -33959.926    1216.9132 
   37650    236.43037   -552.28241    140883.34   -29426.844    4560.4632   -33987.307    1219.1479 
   37700    236.20825   -506.74052     140816.1   -29442.449    4556.1788   -33998.627    1221.7221 
   37750    235.02635   -845.76245     140712.7   -29424.848    4533.3813    -33958.23    1222.6687 
   37800    234.28662   -730.35281    140673.48   -29383.882    4519.1128   -33902.995    1224.3656 
[...]
   40850     233.6988   -316.69395    140153.76   -29590.778    4507.7744   -34098.553    1315.8422 
   40900    229.63717   -690.05979    140065.47   -29569.056    4429.4304   -33998.486    1317.6668 
   40950    233.23676    47.313948    140048.94   -29548.994    4498.8624   -34047.857    1319.6367 
   41000    235.71176   -826.37767    140144.38   -29544.509    4546.6021   -34091.111    1320.7331 
   41050    233.12648   -650.10355    140269.85   -29554.545    4496.7351    -34051.28    1322.0451 
   41100    231.95904    -776.9805    140383.89    -29568.21    4474.2166   -34042.426    1325.1959 
   41150    227.96747   -536.40908    140499.14   -29570.237    4397.2238   -33967.461    1328.2604 
   41200    228.73632   -1038.3972    140642.51    -29537.21    4412.0542   -33949.264    1329.1801 
   41250    229.03345   -749.91942    140722.18   -29536.086    4417.7855   -33953.871    1331.4372 
   41300    231.93991   -408.90522    140756.75   -29507.046    4473.8476   -33980.893    1333.0814 
   41350    232.18656   -707.12233    140750.07   -29556.497    4478.6051   -34035.102    1334.2583 
   41400    233.14833    -428.5468    140698.74   -29515.433    4497.1566    -34012.59    1337.1637 
   41450    234.39714   -191.87815    140666.47   -29520.145    4521.2446    -34041.39    1340.1746 
   41500    235.16614   -938.52095    140669.63   -29516.341    4536.0778   -34052.419    1341.2641 
   41550     233.2342   -259.18356    140530.76   -29509.552     4498.813   -34008.365    1340.6577 
   41600    233.77167   -644.10842    140341.79   -29516.068    4509.1801   -34025.248    1340.3494 
   41650    234.11151   -748.39662    140150.43   -29515.464    4515.7353   -34031.199    1339.1664 
   41700    237.95063   -666.98847    139995.98   -29519.281    4589.7872   -34109.068     1341.887 
   41750    231.34817   -612.39425    139912.96   -29510.603    4462.4337   -33973.036    1344.6073 
   41800    232.34687   -518.76789    139916.81   -29544.221    4481.6973   -34025.918    1345.8313 
   41850    238.44156   -418.22115    140007.58   -29516.853    4599.2568    -34116.11    1348.4432 
   41900    236.26284   -1296.6792    140172.74   -29489.525    4557.2317   -34046.756    1351.3252 
   41950    229.89699   -335.71724    140241.41   -29478.559    4434.4421   -33913.002    1353.7778 
   42000    234.88217   -809.10124    140358.39   -29505.127    4530.6004   -34035.727    1357.0852 
   42050    235.17575   -476.10228    140503.73   -29482.733    4536.2632   -34018.996    1358.7817 
   42100    232.29879   -683.55833    140673.56   -29503.564      4480.77   -33984.334    1360.7934 
   42150    233.22727   -667.30399    140784.63   -29527.173    4498.6793   -34025.853    1362.5601 
   42200    235.53328   -582.26139    140886.35   -29509.167    4543.1594   -34052.326    1363.7436 
   42250    234.83173   -631.11751    141009.23   -29536.286    4529.6275   -34065.913    1366.5903 
   42300    232.36592   -558.25554    141176.83   -29582.866    4482.0648   -34064.931    1369.4177 
   42350    232.48009   -374.99886    141366.57   -29578.904    4484.2671   -34063.171    1369.9109 
   42400    229.00123   -1013.1043    141474.85   -29609.124     4417.164   -34026.288    1372.8959 
   42450    229.12952   -947.79733    141421.71   -29597.674    4419.6384   -34017.312    1375.2575 
   42500    230.42038    -724.6245    141309.78   -29580.508    4444.5377   -34025.046    1375.9266 
   42550    230.52781   -311.28824    141145.09   -29593.448    4446.6099   -34040.057     1376.839 
   42600    231.81757   -513.53993    140966.88   -29613.622    4471.4878    -34085.11    1378.0569 
   42650    231.32688   -680.08614    140778.57   -29600.323     4462.023   -34062.346    1379.7701 
   42700    233.63922   -785.13977    140592.54   -29625.388    4506.6252   -34132.013    1380.4992 
   42750    229.16638   -545.12447    140465.34   -29607.501    4420.3494    -34027.85    1381.3613 
   42800    231.65879   -520.86885    140332.98   -29598.055    4468.4251    -34066.48    1383.0637 
   42850    228.44895   -827.66616    140233.97   -29585.887     4406.511   -33992.398    1384.9792 
   42900    232.88213   -355.75106    140161.74   -29575.011     4492.022   -34067.033    1385.9743 
   42950    229.74194   -575.02238    140153.61   -29543.379    4431.4513    -33974.83    1386.6158 
   43000    242.19718   -683.31686    140193.29   -29555.396    4671.6982   -34227.095    1387.2176 
   43050    236.17063   -1184.4854    140242.46   -29552.595    4555.4531   -34108.048     1388.905 
   43100    229.35958   -302.98824    140231.35   -29578.624     4424.076     -34002.7    1390.5113 
   43150    233.85865   -542.39051    140241.42   -29556.666    4510.8579   -34067.524    1394.2724 
   43200    235.06087   -939.25451    140277.04   -29568.714    4534.0473   -34102.761    1396.0438 
   43250    231.16187   -639.89542    140276.64   -29568.485    4458.8401   -34027.325    1396.4552 
   43300    231.76144   -696.33068    140291.54   -29552.875    4470.4052    -34023.28    1397.2741 
   43350    232.62879    -611.9617    140325.59   -29575.222    4487.1353   -34062.358    1398.2241 
   43400    232.43754   -866.95445    140352.54   -29569.286    4483.4464   -34052.733    1401.1705 
   43450    232.73233   -595.14242    140322.31   -29568.264    4489.1325   -34057.396    1400.4828 
   43500    228.82671   -643.77168    140289.79   -29537.371    4413.7977   -33951.169    1403.8994 
   43550    232.18026   -463.70304    140279.75   -29525.125    4478.4836   -34003.609    1405.9782 
   43600    234.34197   -744.45836    140271.38   -29543.306    4520.1806   -34063.487     1407.192 
   43650    233.94746   -376.73972    140263.73   -29507.361    4512.5709   -34019.932    1408.6773 
   43700    237.11043   -771.95177    140317.73   -29463.828    4573.5808   -34037.409    1408.1022 
   43750    233.31521   -522.52026    140346.07   -29466.627    4500.3755   -33967.002    1409.4812 
   43800    230.52121   -699.24415    140383.85   -29495.463    4446.4825   -33941.945    1410.3136 
   43850    231.17231   -715.47985    140404.28   -29469.948    4459.0414   -33928.989    1411.9936 
   43900    238.15745   -371.48041    140431.19    -29489.19    4593.7766   -34082.967    1412.8828 
   43950    233.67176   -644.45122    140508.51   -29527.906     4507.253   -34035.159    1414.3402 
   44000    230.41324    -612.3123    140575.35   -29542.253       4444.4   -33986.653    1414.7575 
   44050     232.8828   -823.74194    140658.88   -29534.801    4492.0347   -34026.835    1416.1921 
   44100    235.35578   -870.62513    140704.04   -29531.604    4539.7357    -34071.34    1418.9559 
   44150    234.09905   -878.40359    140724.07    -29537.07    4515.4948   -34052.564    1420.0175 
   44200     231.7401   -583.91491    140727.81   -29575.829    4469.9936   -34045.822    1421.6947 
   44250    230.52594   -520.83583    140729.16   -29559.095    4446.5737   -34005.669    1423.3848 
   44300    230.86166   -418.07511       140713   -29530.639    4453.0495   -33983.689    1424.8668 
   44350    235.80696   -846.06533    140743.52   -29507.749    4548.4385   -34056.187     1425.323 
   44400    234.53646   -404.77439    140805.62    -29527.23     4523.932   -34051.162    1426.7172 
   44450    232.60433   -646.18571    140933.47   -29492.311    4486.6635   -33978.974    1430.8169 
   44500    231.86723   -308.97915     141084.7   -29485.722    4472.4457   -33958.167    1431.4174 
   44550    235.24946    -903.8111    141285.46   -29449.666     4537.685   -33987.351    1433.5547 
   44600    228.97947   -695.91129    141479.46   -29451.738    4416.7442   -33868.482    1435.0554 
   44650    233.56342    -575.4113     141657.4   -29434.225    4505.1632   -33939.388    1436.6726 
   44700    232.19596   -465.73576    141845.47   -29453.864    4478.7865    -33932.65    1439.6676 
   44750    234.91901   -865.79883    142005.37   -29413.866     4531.311   -33945.177    1442.3186 
   44800    233.92384   -796.20045    142048.96   -29400.874    4512.1152   -33912.989    1444.5089 
   44850    235.79663   -582.70924    142017.22   -29381.786    4548.2393   -33930.025    1447.3997 
   44900     234.0437   -624.41816    141950.82   -29376.221    4514.4272   -33890.649    1448.0475 
   44950    234.26121   -514.76179    141832.96   -29383.585    4518.6228   -33902.208    1450.7532 
   45000    233.61956   -850.21728    141665.19   -29451.607     4506.246   -33957.853    1451.8505 
   45050    233.71911   -852.15899    141400.84    -29456.42    4508.1663   -33964.586    1452.0679 
   45100    228.57288   -811.15842    141108.49   -29462.466    4408.9016   -33871.368    1452.6982 
   45150    234.12072   -119.61153    140791.99   -29478.407    4515.9129    -33994.32    1451.4021 
   45200    237.71469   -1045.2185    140516.07   -29472.677    4585.2363   -34057.913    1451.3223 
   45250     236.5757   -502.09824    140232.33   -29489.398    4563.2665   -34052.665     1449.872 
   45300     235.5083   -392.87114    139965.29   -29517.335    4542.6776   -34060.013    1450.9722 
   45350    234.70043   -604.04034     139810.3   -29555.324    4527.0949   -34082.419    1452.6658 
   45400    235.77406    -331.7752     139750.2   -29553.047    4547.8038   -34100.851    1452.7766 
   45450    232.87552   -602.69752    139758.31   -29526.784    4491.8943   -34018.678    1454.4733 
   45500    232.09407   -274.46296    139802.83    -29505.12    4476.8212   -33981.941    1456.6253 
   45550    234.58656   -980.81785    139883.63   -29515.589    4524.8983   -34040.488    1458.3825 
   45600    228.53837   -35.784011    139898.86   -29546.453    4408.2359   -33954.689    1460.7163 
   45650    232.18839   -45.170096    139964.28   -29555.098    4478.6405   -34033.739    1465.4032 
   45700    230.96165   -643.13314    140105.69   -29558.663    4454.9782   -34013.641    1467.1503 
   45750    233.85248   -487.85407    140217.82   -29515.278    4510.7389   -34026.017    1470.0396 
   45800    233.04089   -127.95281    140358.44   -29498.589    4495.0843   -33993.673      1473.09 
   45850    235.59882   -765.93663    140561.33   -29518.071    4544.4236   -34062.495     1478.237 
   45900    230.97582   -750.87467    140741.27   -29524.835    4455.2515   -33980.087    1480.4795 
   45950    228.61784   -536.71916    140851.23   -29501.087    4409.7688   -33910.855    1480.3509 
   46000    234.71998   -647.77258    140943.17    -29503.44    4527.4718   -34030.912    1482.1243 
   46050    231.17734   -551.28351    141087.21   -29507.191    4459.1385   -33966.329    1484.5083 
   46100    231.17754   -575.42309    141209.75   -29510.017    4459.1423   -33969.159    1487.8006 
   46150    229.99838   -839.26602    141289.25   -29505.116    4436.3977   -33941.514    1488.6832 
   46200    231.38187    -349.7265    141335.35   -29548.022    4463.0836   -34011.105    1491.4639 
   46250    228.40323   -677.15382    141338.63   -29526.803    4405.6292   -33932.432    1492.7425 
   46300    234.08766   -1052.2609    141305.02    -29522.39    4515.2752   -34037.665    1492.6203 
   46350    232.22691    -905.8159    141198.78   -29512.914    4479.3835   -33992.297    1493.5791 
   46400    230.26595   -661.80007    141050.91   -29507.744    4441.5589   -33949.303    1495.0744 
   46450    236.57965   -706.80561     140939.5   -29513.501    4563.3426   -34076.843    1495.5493 
   46500     232.0786   -526.29316    140875.11   -29543.899    4476.5227   -34020.422     1496.706 
   46550    230.23462   -361.92428    140768.26   -29512.812    4440.9546   -33953.767    1499.4491 
   46600    234.07602   -757.99849    140671.53   -29501.325    4515.0507   -34016.375    1500.3427 
   46650    237.43686   -271.70795    140579.62   -29495.767    4579.8773   -34075.645    1502.2562 
   46700    233.35614    -678.1935    140559.05   -29469.245    4501.1649    -33970.41    1504.9397 
   46750    236.16892   -478.21262    140601.58   -29475.781    4555.4203   -34031.202    1508.7487 
   46800    237.09855   -915.12064    140719.91   -29470.922    4573.3516   -34044.274    1509.5734 
   46850    233.71451    -561.2384    140784.84   -29472.369    4508.0776   -33980.447    1510.9356 
   46900    233.89573   -969.57834    140876.61   -29447.442    4511.5731   -33959.015    1513.7081 
   46950    234.43241   -724.53487    140932.11   -29434.054    4521.9249   -33955.979    1515.5689 
   47000    232.73778   -519.73843    140993.13   -29415.424    4489.2376   -33904.661    1516.5295 
   47050     236.1692    -260.3465    141047.27    -29383.24    4555.4255   -33938.666    1517.1224 
   47100     237.2228   -858.45458    141130.03   -29401.066    4575.7483   -33976.814    1518.1129 
   47150     239.2374    -928.0031    141204.64   -29402.751    4614.6076   -34017.358    1521.3428 
   47200    239.50015   -349.95612    141229.59   -29403.949    4619.6758   -34023.625     1522.271 
   47250     234.3481   -714.43187     141272.6   -29363.353    4520.2987   -33883.651     1523.611 
   47300    237.72131    -542.3688    141347.07   -29341.137     4585.364   -33926.501    1525.9936 
   47350    234.86613   -1090.0582    141458.76   -29322.738    4530.2909   -33853.029    1526.1811 
   47400    237.64893   -793.78661    141504.77   -29314.909    4583.9679   -33898.877    1528.2109 
   47450    234.31759   -849.32957    141558.83   -29300.126    4519.7103   -33819.836     1529.501 
   47500    238.77965   -676.18984    141614.67   -29292.385     4605.778   -33898.163    1530.8918 
   47550    233.64702   -986.37155    141641.61   -29300.566    4506.7758   -33807.342    1534.0167 
   47600      232.732   -67.912602    141647.66   -29281.074    4489.1261     -33770.2     1535.918 
   47650    235.71778   -812.43322    141736.38   -29265.277    4546.7182   -33811.995    1537.2624 
   47700    237.83391   -517.30823    141757.92   -29286.469    4587.5359   -33874.005    1537.1473 
   47750    238.23548   -809.26032    141751.89   -29264.298    4595.2818    -33859.58    1537.3769 
   47800    239.70628   -760.91901    141684.72   -29245.805    4623.6517   -33869.457    1537.8564 
   47850    236.80665   -779.33382    141593.94   -29217.627    4567.7213   -33785.348    1537.2367 
   47900     238.2175   -563.05611    141467.27   -29238.121     4594.935   -33833.056    1537.1519 
   47950    238.52785   -710.32523    141339.92   -29234.983    4600.9212   -33835.904    1537.0198 
   48000    239.28008   -1186.6748    141161.59   -29275.514    4615.4308   -33890.945    1538.4068 
   48050    239.34693   -418.19837    140864.88   -29269.786    4616.7202   -33886.506    1538.9337 
   48100    234.56469   -312.01713    140623.74   -29264.518    4524.4764   -33788.995    1540.4856 
   48150    237.10079   -629.86196     140471.5   -29299.948    4573.3948   -33873.343    1541.1143 
   48200    239.33925   -527.19875    140387.17    -29305.72    4616.5721   -33922.292    1539.6853 
   48250    240.31908   -773.10381    140405.27   -29299.425    4635.4719   -33934.896    1539.1939 
   48300    240.87012   -386.87718    140493.06    -29273.76    4646.1009    -33919.86    1539.7747 
   48350    240.32935   -760.10429    140625.39   -29285.611      4635.67   -33921.281    1541.6827 
   48400    236.75736   -675.01679    140775.68   -29302.622    4566.7706   -33869.392     1543.039 
   48450    236.97891   -878.88606    140859.79   -29334.334    4571.0439   -33905.378    1544.3886 
   48500    235.17308   -597.88026    140871.51   -29376.948    4536.2117   -33913.159    1545.6335 
   48550    230.78958   -913.12902    140869.93   -29388.937    4451.6591   -33840.597     1547.991 
   48600    237.15244   -718.89065    140829.51    -29380.53    4574.3911   -33954.921    1548.1877 
   48650    233.39398    -497.3744    140803.13   -29366.244     4501.895   -33868.139    1548.9199 
   48700    236.13738   -459.36655    140791.17    -29346.46    4554.8119   -33901.272    1550.0917 
   48750    233.09163    -360.0872    140809.81   -29303.718     4496.063   -33799.781    1550.9963 
   48800    238.20412    -891.6924    140874.57   -29305.987    4594.6768   -33900.664    1552.5957 
   48850    238.09257   -711.62221    140918.23   -29298.357    4592.5251   -33890.882    1554.4745 
   48900    233.46688   -724.62502    140958.88   -29309.524     4503.301   -33812.825    1556.2156 
   48950    237.55736     -478.988    141015.24   -29279.677    4582.2016   -33861.879    1557.9966 
   49000    236.06484   -378.68992    141081.22    -29276.07    4553.4126   -33829.482    1559.1881 
   49050    232.44495   -663.27113    141189.25   -29297.843    4483.5892   -33781.432    1559.8359 
   49100    240.03716   -612.36569    141273.83   -29299.807     4630.034   -33929.841     1562.216 
   49150    239.75565   -864.63406    141351.63   -29312.446    4624.6041    -33937.05    1564.3087 
   49200    239.21899   -511.75946    141389.16   -29311.481    4614.2525   -33925.734    1566.9608 
   49250    237.32508   -578.55495    141370.03   -29307.789    4577.7212    -33885.51    1568.2747 
   49300    238.92344   -782.99244    141310.54   -29302.528    4608.5516    -33911.08    1571.3029 
   49350    236.71256   -784.85866    141197.15   -29320.221    4565.9064   -33886.128    1571.5826 
   49400    234.53678    -431.5862    140973.04   -29300.662    4523.9381     -33824.6     1572.933 
   49450     236.4305   -707.50079    140711.27   -29318.194    4560.4658    -33878.66    1573.2608 
   49500    234.59065   -308.89828    140483.09    -29333.45    4524.9772   -33858.427    1571.6771 
   49550    241.01214   -399.38123    140374.61   -29354.547    4648.8403   -34003.387    1573.3058 
   49600    235.81975   -153.81377    140347.05   -29344.319    4548.6851   -33893.004    1576.2416 
   49650    234.58631   -308.65248    140439.35   -29324.042    4524.8935   -33848.936    1577.6892 
   49700    236.50326    -472.5495    140604.66   -29332.047    4561.8692   -33893.916    1578.6736 
   49750    233.84906   -579.75771    140777.14   -29312.062    4510.6728   -33822.735    1581.7193 
   49800     239.7741   -692.81749    140968.17     -29372.2      4624.96    -33997.16    1583.5231 
   49850     239.3706   -605.22363    141188.55   -29346.666    4617.1769   -33963.843    1585.4802 
   49900     235.2618   -561.03153    141437.67   -29344.682    4537.9229   -33882.605    1587.2383 
   49950    235.91644   -890.08324    141638.54   -29301.506    4550.5502   -33852.056    1589.0564 
   50000    232.43221   -726.71677    141764.91   -29325.809    4483.3435   -33809.152    1589.1865 
Loop time of 374.962 on 12 procs for 50000 steps with 6472 atoms

Performance: 115.212 ns/day, 0.208 hours/ns, 133.347 timesteps/s
96.7% CPU use with 12 MPI tasks x no OpenMP threads

MPI task timing breakdown:
Section |  min time  |  avg time  |  max time  |%varavg| %total
---------------------------------------------------------------
Pair    | 41.289     | 111.3      | 254.33     | 922.0 | 29.68
Neigh   | 9.1741     | 16.518     | 31.627     | 245.3 |  4.41
Comm    | 54.784     | 212.86     | 289.57     | 735.0 | 56.77
Output  | 0.21105    | 0.2283     | 0.25383    |   2.5 |  0.06
Modify  | 30.182     | 30.707     | 31.295     |   6.2 |  8.19
Other   |            | 3.347      |            |       |  0.89

Nlocal:        539.333 ave         914 max         358 min
Histogram: 8 0 0 0 0 0 0 0 1 3
Nghost:        1995.92 ave        2289 max        1834 min
Histogram: 6 2 0 0 0 0 0 0 2 2
Neighs:        0.00000 ave           0 max           0 min
Histogram: 12 0 0 0 0 0 0 0 0 0
FullNghs:      62657.0 ave      148489 max       21818 min
Histogram: 8 0 0 0 0 0 0 0 0 4

Total # of neighbors = 751884
Ave neighs/atom = 116.17491
Neighbor list builds = 8296
Dangerous builds = 0

# Create data file for import to other simulations
#
write_data data.${NAME}
write_data data.graphite_ML_500atm
System init for write_data ...


Total wall time: 0:06:15
