LAMMPS data file via write_data, version 16 Mar 2018, timestep = 100000

4990 atoms
2 atom types

0.0000000000000000e+00 4.9219999999999999e+01 xlo xhi
0.0000000000000000e+00 4.9019635930410494e+01 ylo yhi
2.0390635782796949e+00 3.7960936421721271e+01 zlo zhi

Masses

1 18.015
2 12.01

Atoms # atomic

4566 1 2.2537223218834885e+00 2.0414065297779858e+00 4.6385379235544288e+00 -1 0 1
3514 1 5.0833976194744768e+00 1.0509470641643281e+01 7.3427442857642946e+00 0 0 0
4286 1 5.1841618443418032e+00 2.1972992475658590e+00 4.7185674847995074e+00 1 2 1
2615 1 1.1126701000890572e+01 5.4551391388821524e-01 9.0743358125576492e+00 1 1 1
4224 1 1.1352917953884038e+01 8.2888278761949579e+00 1.0383053880210118e+01 0 1 0
1223 1 9.7530846469419590e+00 2.5785782952401646e+00 4.2872503419186367e+00 1 0 1
969 1 7.1728423689641225e+00 5.3220476554314455e+00 2.5569068910090409e+00 1 -1 0
3393 1 8.3574130617327447e-01 1.8319033922716466e+00 6.7802564049932181e+00 1 2 0
3730 1 3.1708800158953290e+00 1.0235540538395135e+01 4.9375057221026086e+00 0 2 0
2561 1 5.1691626273269238e+00 4.4034202057737062e+00 6.5684292762566683e+00 1 1 1
359 1 1.7255490887491312e+00 6.3098332358472371e+00 2.4493540545181829e+00 0 1 1
1718 1 5.5449261528674594e+00 6.7662489055463464e+00 4.7862067775951278e+00 0 1 0
29 1 8.9443861965377707e+00 9.0078492947942852e+00 3.9065844704825210e+00 -1 2 0
988 1 6.5274653492842560e-01 1.0904307356303695e+01 8.8157111412245328e+00 -1 0 0
2720 1 4.2547846353702674e+00 9.4903938606411540e+00 2.5592524595578636e+00 1 0 1
3416 1 3.0533919390339941e+00 9.3017733789448265e+00 8.5704944720664997e+00 1 1 -1
3451 1 1.1993167585009145e+01 1.1367569914804616e+01 2.1585823374022652e+00 -1 0 0
1707 1 6.2111772430543528e+00 2.9168423587345943e-01 8.6347841194781587e+00 0 0 1
358 1 6.4685982298664433e+00 1.0676066034086114e+01 4.1220462171592676e+00 1 1 0
1280 1 1.0104553476365709e+01 1.1572763578259236e+01 4.2080624344638142e+00 0 -1 0
4352 1 4.7124073682440626e+00 8.1288415940431253e+00 1.0708954446062991e+01 1 0 0
3450 1 5.0584534477830401e-01 1.0590693416577366e+01 4.4394867680530083e+00 0 0 0
4553 1 2.9451029479745525e+00 1.5325945080836916e+00 8.8577294496848289e+00 0 1 1
1719 1 8.9466235899893380e+00 5.3287355420521108e+00 5.1648653651327860e+00 0 0 0
395 1 8.9723023103779944e+00 2.7393753783351826e-01 5.5836512673737797e+00 0 2 1
115 1 3.2435629858028872e+00 4.5256085927729357e+00 8.6447006771219606e+00 0 -1 1
4365 1 1.1924536239103963e+01 5.5583193951610532e+00 9.6862335746024151e+00 1 0 1
985 1 1.1415201164946172e+01 2.2872788142144338e+00 6.5093769340885634e+00 -1 1 0
4258 1 8.2252441151491240e+00 2.5364223486611333e+00 9.2730660020121931e+00 0 1 2
1226 1 1.8564412013557539e+00 6.7454671187270083e+00 7.3488159219615277e+00 1 0 0
4225 1 7.0496543131259122e+00 2.3832750807806589e+00 2.6049948392337532e+00 -1 0 1
3001 1 7.6419796450252200e+00 4.9562093468900432e+00 7.4404322404634211e+00 0 0 1
4663 1 6.9011976440320222e+00 8.6772326415562269e+00 6.5905288396274901e+00 0 1 1
355 1 9.1863508128420861e+00 1.1654445588946460e+01 8.5711934601416147e+00 0 1 1
4669 1 1.0561378637683214e+01 7.9006805198060741e+00 5.5965973967168301e+00 1 0 1
495 1 9.5610024450679028e+00 8.9800686116645103e+00 8.1705504359343877e+00 2 0 1
536 1 1.0892899223698338e+00 3.6073135674011421e+00 2.6466916381115211e+00 1 1 0
2604 1 2.9339819980070678e+00 7.3866976025920437e+00 4.9064038219799349e+00 1 0 1
2220 1 7.2260517210131043e+00 7.0088524169216626e+00 9.1499722027567660e+00 1 0 1
2199 1 1.1252227436640355e+01 1.1897672118659647e+01 6.6319019548270521e+00 0 0 1
1394 1 1.1734486466299405e+01 5.0276285959971379e+00 6.9463365804285369e+00 0 1 0
497 1 6.3623202537974699e-01 3.4490979163605973e+00 9.5035338218968981e+00 1 1 1
3814 1 1.2279851444192808e+01 2.4851643908864043e+00 3.0869360708089575e+00 1 1 1
4610 1 1.0745996348383819e+01 6.1019351781087439e+00 2.6491332888319294e+00 0 -2 1
4326 1 3.5454630548959898e-01 8.6591113908012627e+00 2.3444853636651084e+00 1 0 0
3006 1 6.7732801864372316e+00 1.0224380259950523e+01 1.0861430523060152e+01 2 1 1
3412 1 1.0187588315640117e+01 3.7880704657103355e+00 1.0916785493085532e+01 0 1 0
4693 1 4.3724411832675507e+00 5.3739224268334391e+00 1.0954206797653631e+01 1 0 0
308 2 1.2304999999999998e+01 1.1366872099805333e+01 1.6990461051982045e+01 0 0 0
4590 1 8.0707152565019360e+00 6.2341346802796549e+00 1.1713815773572515e+01 1 1 0
1028 1 1.3175633616930889e+00 9.4147146207684096e-01 1.3962836655659208e+01 1 1 0
93 1 1.1855470934614647e+00 5.8162410601166803e+00 1.1107037582895609e+01 0 0 0
3350 1 7.1880248028980569e+00 2.9334421417623258e+00 1.4160634757198828e+01 0 0 1
286 2 1.1074500000000002e+01 9.2355835810918343e+00 1.6990461051982045e+01 0 0 0
3760 1 1.0302486877811162e+01 1.1742211117813810e+01 1.1422845923984802e+01 0 1 1
262 2 8.6134999999999984e+00 9.2355835810918343e+00 1.6990461051982045e+01 0 0 0
363 1 8.4486877275391237e+00 4.9335561302096403e-01 1.4239277929588244e+01 0 1 0
3798 1 9.6706107691825576e+00 4.3922178602794846e+00 1.3701577412785609e+01 1 0 1
1037 1 1.2588565227600104e+00 1.1516960706473419e+01 1.4386988219843531e+01 1 0 0
3883 1 1.3889437272951770e+00 5.7424548983845822e+00 1.4071738395465463e+01 1 1 0
3023 1 2.1230633836366848e+00 8.7174948458571979e+00 1.4364417431833594e+01 -1 0 1
2079 1 6.4736394816680125e+00 3.4874499814488984e+00 1.1441179410086860e+01 0 0 1
1352 1 1.7379939177613568e+00 9.0039868888104309e+00 1.1497378933638979e+01 0 2 1
16 1 4.0388157732119634e+00 4.6216698976168926e+00 1.3936501477005942e+01 0 1 1
1840 1 4.8710356150289122e+00 8.6690691631955765e+00 1.3584490906954219e+01 0 1 0
283 2 8.6134999999999984e+00 1.0656442593567498e+01 1.6990461051982045e+01 0 0 0
2055 1 6.5134017882773865e+00 6.2505928145352589e+00 1.4204095764935966e+01 1 1 1
1766 1 9.6505781282816105e+00 7.0927689125774434e+00 1.4847545029856949e+01 0 0 0
3357 1 5.4245934616831306e+00 9.7406222012343857e-01 1.1190241159802239e+01 0 0 1
2128 1 3.9796173065150207e+00 1.8533475526879575e+00 1.4442180740392629e+01 2 1 1
284 2 9.8440000000000012e+00 1.1366872099805333e+01 1.6990461051982045e+01 0 0 0
2698 1 2.6411378324821269e+00 7.5076871602767881e-02 1.1473224297493182e+01 0 1 1
882 1 6.1207078428937578e+00 1.0904283420245532e+01 1.3976790861733551e+01 1 0 0
2204 1 8.9333962776973408e+00 9.7069319103767366e+00 1.4301559785820523e+01 1 1 1
307 2 1.1074500000000002e+01 1.0656442593567498e+01 1.6990461051982045e+01 0 0 0
46 1 1.0627114610887336e+01 1.1728948711235871e+01 1.4303419258708635e+01 1 -1 -1
193 2 0.0000000000000000e+00 2.8417180249513345e+00 1.6990461051982045e+01 0 0 0
194 2 0.0000000000000000e+00 0.0000000000000000e+00 1.6990461051982045e+01 0 0 0
195 2 1.2305000000000001e+00 7.1042950623783474e-01 1.6990461051982045e+01 0 0 0
199 2 1.2305000000000001e+00 2.1312885187134998e+00 1.6990461051982045e+01 0 0 0
200 2 2.4610000000000003e+00 2.8417180249513345e+00 1.6990461051982045e+01 0 0 0
201 2 2.4610000000000003e+00 0.0000000000000000e+00 1.6990461051982045e+01 0 0 0
202 2 3.6915000000000004e+00 7.1042950623783474e-01 1.6990461051982045e+01 0 0 0
210 2 3.6914999999999996e+00 2.1312885187134998e+00 1.6990461051982045e+01 0 0 0
211 2 4.9220000000000006e+00 2.8417180249513332e+00 1.6990461051982045e+01 0 0 0
212 2 4.9220000000000006e+00 0.0000000000000000e+00 1.6990461051982045e+01 0 0 0
213 2 6.1524999999999999e+00 7.1042950623783407e-01 1.6990461051982045e+01 0 0 0
225 2 6.1524999999999999e+00 2.1312885187134989e+00 1.6990461051982045e+01 0 0 0
226 2 7.3829999999999991e+00 2.8417180249513345e+00 1.6990461051982045e+01 0 0 0
227 2 7.3829999999999991e+00 0.0000000000000000e+00 1.6990461051982045e+01 0 0 0
228 2 8.6134999999999984e+00 7.1042950623783407e-01 1.6990461051982045e+01 0 0 0
244 2 8.6134999999999984e+00 2.1312885187135002e+00 1.6990461051982045e+01 0 0 0
245 2 9.8440000000000012e+00 2.8417180249513332e+00 1.6990461051982045e+01 0 0 0
246 2 9.8440000000000012e+00 0.0000000000000000e+00 1.6990461051982045e+01 0 0 0
247 2 1.1074500000000002e+01 7.1042950623783330e-01 1.6990461051982045e+01 0 0 0
267 2 1.1074500000000002e+01 2.1312885187135002e+00 1.6990461051982045e+01 0 0 0
197 2 0.0000000000000000e+00 4.2625770374269996e+00 1.6990461051982045e+01 0 0 0
198 2 1.2305000000000001e+00 4.9730065436648339e+00 1.6990461051982045e+01 0 0 0
206 2 1.2305000000000001e+00 6.3938655561404980e+00 1.6990461051982045e+01 0 0 0
208 2 2.4610000000000003e+00 4.2625770374269996e+00 1.6990461051982045e+01 0 0 0
209 2 3.6914999999999996e+00 4.9730065436648339e+00 1.6990461051982045e+01 0 0 0
221 2 3.6914999999999996e+00 6.3938655561404980e+00 1.6990461051982045e+01 0 0 0
196 2 0.0000000000000000e+00 7.1042950623783341e+00 1.6990461051982045e+01 0 0 0
207 2 2.4610000000000003e+00 7.1042950623783341e+00 1.6990461051982045e+01 0 0 0
223 2 4.9220000000000006e+00 4.2625770374269978e+00 1.6990461051982045e+01 0 0 0
224 2 6.1524999999999999e+00 4.9730065436648339e+00 1.6990461051982045e+01 0 0 0
240 2 6.1524999999999999e+00 6.3938655561404980e+00 1.6990461051982045e+01 0 0 0
242 2 7.3829999999999991e+00 4.2625770374269996e+00 1.6990461051982045e+01 0 0 0
222 2 4.9220000000000006e+00 7.1042950623783341e+00 1.6990461051982045e+01 0 0 0
241 2 7.3830000000000009e+00 7.1042950623783341e+00 1.6990461051982045e+01 0 0 0
243 2 8.6135000000000002e+00 4.9730065436648339e+00 1.6990461051982045e+01 0 0 0
263 2 8.6135000000000002e+00 6.3938655561404980e+00 1.6990461051982045e+01 0 0 0
265 2 9.8440000000000012e+00 4.2625770374270004e+00 1.6990461051982045e+01 0 0 0
266 2 1.1074500000000002e+01 4.9730065436648339e+00 1.6990461051982045e+01 0 0 0
287 2 1.1074500000000002e+01 6.3938655561404980e+00 1.6990461051982045e+01 0 0 0
264 2 9.8440000000000012e+00 7.1042950623783341e+00 1.6990461051982045e+01 0 0 0
204 2 0.0000000000000000e+00 8.5251540748539991e+00 1.6990461051982045e+01 0 0 0
205 2 1.2305000000000001e+00 9.2355835810918343e+00 1.6990461051982045e+01 0 0 0
219 2 2.4610000000000003e+00 8.5251540748539991e+00 1.6990461051982045e+01 0 0 0
220 2 3.6915000000000004e+00 9.2355835810918343e+00 1.6990461051982045e+01 0 0 0
203 2 0.0000000000000000e+00 1.1366872099805333e+01 1.6990461051982045e+01 0 0 0
217 2 1.2305000000000001e+00 1.0656442593567498e+01 1.6990461051982045e+01 0 0 0
218 2 2.4610000000000003e+00 1.1366872099805333e+01 1.6990461051982045e+01 0 0 0
236 2 3.6914999999999996e+00 1.0656442593567499e+01 1.6990461051982045e+01 0 0 0
238 2 4.9220000000000006e+00 8.5251540748539991e+00 1.6990461051982045e+01 0 0 0
261 2 7.3830000000000009e+00 8.5251540748539991e+00 1.6990461051982045e+01 0 0 0
260 2 7.3829999999999991e+00 1.1366872099805333e+01 1.6990461051982045e+01 0 0 0
259 2 6.1524999999999999e+00 1.0656442593567499e+01 1.6990461051982045e+01 0 0 0
237 2 4.9220000000000006e+00 1.1366872099805333e+01 1.6990461051982045e+01 0 0 0
239 2 6.1524999999999999e+00 9.2355835810918343e+00 1.6990461051982045e+01 0 0 0
285 2 9.8440000000000012e+00 8.5251540748539956e+00 1.6990461051982045e+01 0 0 0
2554 1 9.0184392817991359e+00 8.8608828948663163e+00 1.1769491148981455e+01 1 2 1
148 1 1.3889166330872103e+00 1.1866734411710974e+01 1.1679782369470956e+01 1 0 0
2887 1 1.2026734291925044e+01 2.5078609923281756e+00 1.4442262549821663e+01 0 0 0
1288 1 1.2062572287408248e+01 1.7535337023207309e+00 1.1713458086996246e+01 0 1 0
549 2 0.0000000000000000e+00 1.4208590124756650e+00 2.0028075747032126e+01 0 0 0
550 2 0.0000000000000000e+00 0.0000000000000000e+00 2.0028075747032126e+01 0 0 0
554 2 1.2305000000000001e+00 2.1312885187134998e+00 2.0028075747032126e+01 0 0 0
555 2 2.4610000000000003e+00 1.4208590124756650e+00 2.0028075747032126e+01 0 0 0
556 2 2.4610000000000003e+00 0.0000000000000000e+00 2.0028075747032126e+01 0 0 0
564 2 3.6914999999999996e+00 2.1312885187134998e+00 2.0028075747032126e+01 0 0 0
710 2 0.0000000000000000e+00 2.8417180249513345e+00 2.3065690442082200e+01 0 0 0
711 2 0.0000000000000000e+00 0.0000000000000000e+00 2.3065690442082200e+01 0 0 0
712 2 1.2305000000000001e+00 7.1042950623783474e-01 2.3065690442082200e+01 0 0 0
716 2 1.2305000000000001e+00 2.1312885187134998e+00 2.3065690442082200e+01 0 0 0
717 2 2.4610000000000003e+00 2.8417180249513345e+00 2.3065690442082200e+01 0 0 0
718 2 2.4610000000000003e+00 0.0000000000000000e+00 2.3065690442082200e+01 0 0 0
719 2 3.6915000000000004e+00 7.1042950623783474e-01 2.3065690442082200e+01 0 0 0
727 2 3.6914999999999996e+00 2.1312885187134998e+00 2.3065690442082200e+01 0 0 0
553 2 1.2305000000000001e+00 3.5521475311891644e+00 2.0028075747032126e+01 0 0 0
563 2 3.6914999999999996e+00 3.5521475311891644e+00 2.0028075747032126e+01 0 0 0
565 2 4.9220000000000006e+00 1.4208590124756650e+00 2.0028075747032126e+01 0 0 0
566 2 4.9220000000000006e+00 0.0000000000000000e+00 2.0028075747032126e+01 0 0 0
578 2 6.1524999999999999e+00 2.1312885187134989e+00 2.0028075747032126e+01 0 0 0
579 2 7.3829999999999991e+00 1.4208590124756659e+00 2.0028075747032126e+01 0 0 0
580 2 7.3829999999999991e+00 0.0000000000000000e+00 2.0028075747032126e+01 0 0 0
728 2 4.9220000000000006e+00 2.8417180249513332e+00 2.3065690442082200e+01 0 0 0
729 2 4.9220000000000006e+00 0.0000000000000000e+00 2.3065690442082200e+01 0 0 0
730 2 6.1524999999999999e+00 7.1042950623783407e-01 2.3065690442082200e+01 0 0 0
742 2 6.1524999999999999e+00 2.1312885187134989e+00 2.3065690442082200e+01 0 0 0
743 2 7.3829999999999991e+00 2.8417180249513345e+00 2.3065690442082200e+01 0 0 0
744 2 7.3829999999999991e+00 0.0000000000000000e+00 2.3065690442082200e+01 0 0 0
577 2 6.1524999999999999e+00 3.5521475311891644e+00 2.0028075747032126e+01 0 0 0
596 2 8.6134999999999984e+00 2.1312885187135002e+00 2.0028075747032126e+01 0 0 0
597 2 9.8440000000000012e+00 1.4208590124756659e+00 2.0028075747032126e+01 0 0 0
598 2 9.8440000000000012e+00 0.0000000000000000e+00 2.0028075747032126e+01 0 0 0
618 2 1.1074500000000002e+01 2.1312885187135002e+00 2.0028075747032126e+01 0 0 0
745 2 8.6134999999999984e+00 7.1042950623783407e-01 2.3065690442082200e+01 0 0 0
761 2 8.6134999999999984e+00 2.1312885187135002e+00 2.3065690442082200e+01 0 0 0
762 2 9.8440000000000012e+00 2.8417180249513332e+00 2.3065690442082200e+01 0 0 0
763 2 9.8440000000000012e+00 0.0000000000000000e+00 2.3065690442082200e+01 0 0 0
764 2 1.1074500000000002e+01 7.1042950623783330e-01 2.3065690442082200e+01 0 0 0
784 2 1.1074500000000002e+01 2.1312885187135002e+00 2.3065690442082200e+01 0 0 0
595 2 8.6134999999999984e+00 3.5521475311891657e+00 2.0028075747032126e+01 0 0 0
617 2 1.1074500000000002e+01 3.5521475311891644e+00 2.0028075747032126e+01 0 0 0
551 2 0.0000000000000000e+00 5.6834360499026637e+00 2.0028075747032126e+01 0 0 0
552 2 0.0000000000000000e+00 4.2625770374269996e+00 2.0028075747032126e+01 0 0 0
560 2 1.2305000000000001e+00 6.3938655561404980e+00 2.0028075747032126e+01 0 0 0
561 2 2.4610000000000003e+00 5.6834360499026637e+00 2.0028075747032126e+01 0 0 0
562 2 2.4610000000000003e+00 4.2625770374269996e+00 2.0028075747032126e+01 0 0 0
574 2 3.6914999999999996e+00 6.3938655561404980e+00 2.0028075747032126e+01 0 0 0
714 2 0.0000000000000000e+00 4.2625770374269996e+00 2.3065690442082200e+01 0 0 0
715 2 1.2305000000000001e+00 4.9730065436648339e+00 2.3065690442082200e+01 0 0 0
723 2 1.2305000000000001e+00 6.3938655561404980e+00 2.3065690442082200e+01 0 0 0
725 2 2.4610000000000003e+00 4.2625770374269996e+00 2.3065690442082200e+01 0 0 0
726 2 3.6914999999999996e+00 4.9730065436648339e+00 2.3065690442082200e+01 0 0 0
738 2 3.6914999999999996e+00 6.3938655561404980e+00 2.3065690442082200e+01 0 0 0
559 2 1.2305000000000001e+00 7.8147245686161639e+00 2.0028075747032126e+01 0 0 0
573 2 3.6914999999999996e+00 7.8147245686161639e+00 2.0028075747032126e+01 0 0 0
713 2 0.0000000000000000e+00 7.1042950623783341e+00 2.3065690442082200e+01 0 0 0
724 2 2.4610000000000003e+00 7.1042950623783341e+00 2.3065690442082200e+01 0 0 0
575 2 4.9220000000000006e+00 5.6834360499026637e+00 2.0028075747032126e+01 0 0 0
576 2 4.9220000000000006e+00 4.2625770374269978e+00 2.0028075747032126e+01 0 0 0
592 2 6.1524999999999999e+00 6.3938655561404980e+00 2.0028075747032126e+01 0 0 0
593 2 7.3829999999999991e+00 5.6834360499026637e+00 2.0028075747032126e+01 0 0 0
594 2 7.3829999999999991e+00 4.2625770374269996e+00 2.0028075747032126e+01 0 0 0
740 2 4.9220000000000006e+00 4.2625770374269978e+00 2.3065690442082200e+01 0 0 0
741 2 6.1524999999999999e+00 4.9730065436648339e+00 2.3065690442082200e+01 0 0 0
757 2 6.1524999999999999e+00 6.3938655561404980e+00 2.3065690442082200e+01 0 0 0
759 2 7.3829999999999991e+00 4.2625770374269996e+00 2.3065690442082200e+01 0 0 0
591 2 6.1524999999999999e+00 7.8147245686161639e+00 2.0028075747032126e+01 0 0 0
739 2 4.9220000000000006e+00 7.1042950623783341e+00 2.3065690442082200e+01 0 0 0
758 2 7.3830000000000009e+00 7.1042950623783341e+00 2.3065690442082200e+01 0 0 0
614 2 8.6135000000000002e+00 6.3938655561404980e+00 2.0028075747032126e+01 0 0 0
615 2 9.8440000000000012e+00 5.6834360499026637e+00 2.0028075747032126e+01 0 0 0
616 2 9.8440000000000012e+00 4.2625770374270004e+00 2.0028075747032126e+01 0 0 0
637 2 1.1074500000000002e+01 6.3938655561404980e+00 2.0028075747032126e+01 0 0 0
760 2 8.6135000000000002e+00 4.9730065436648339e+00 2.3065690442082200e+01 0 0 0
780 2 8.6135000000000002e+00 6.3938655561404980e+00 2.3065690442082200e+01 0 0 0
782 2 9.8440000000000012e+00 4.2625770374270004e+00 2.3065690442082200e+01 0 0 0
783 2 1.1074500000000002e+01 4.9730065436648339e+00 2.3065690442082200e+01 0 0 0
804 2 1.1074500000000002e+01 6.3938655561404980e+00 2.3065690442082200e+01 0 0 0
613 2 8.6135000000000002e+00 7.8147245686161639e+00 2.0028075747032126e+01 0 0 0
636 2 1.1074500000000002e+01 7.8147245686161639e+00 2.0028075747032126e+01 0 0 0
781 2 9.8440000000000012e+00 7.1042950623783341e+00 2.3065690442082200e+01 0 0 0
557 2 0.0000000000000000e+00 9.9460130873296642e+00 2.0028075747032126e+01 0 0 0
558 2 0.0000000000000000e+00 8.5251540748539991e+00 2.0028075747032126e+01 0 0 0
571 2 2.4610000000000003e+00 9.9460130873296642e+00 2.0028075747032126e+01 0 0 0
572 2 2.4610000000000003e+00 8.5251540748539991e+00 2.0028075747032126e+01 0 0 0
721 2 0.0000000000000000e+00 8.5251540748539991e+00 2.3065690442082200e+01 0 0 0
722 2 1.2305000000000001e+00 9.2355835810918343e+00 2.3065690442082200e+01 0 0 0
736 2 2.4610000000000003e+00 8.5251540748539991e+00 2.3065690442082200e+01 0 0 0
737 2 3.6915000000000004e+00 9.2355835810918343e+00 2.3065690442082200e+01 0 0 0
569 2 1.2305000000000001e+00 1.2077301606043163e+01 2.0028075747032126e+01 0 0 0
570 2 1.2305000000000001e+00 1.0656442593567498e+01 2.0028075747032126e+01 0 0 0
587 2 3.6914999999999996e+00 1.2077301606043163e+01 2.0028075747032126e+01 0 0 0
588 2 3.6914999999999996e+00 1.0656442593567499e+01 2.0028075747032126e+01 0 0 0
720 2 0.0000000000000000e+00 1.1366872099805333e+01 2.3065690442082200e+01 0 0 0
734 2 1.2305000000000001e+00 1.0656442593567498e+01 2.3065690442082200e+01 0 0 0
735 2 2.4610000000000003e+00 1.1366872099805333e+01 2.3065690442082200e+01 0 0 0
753 2 3.6914999999999996e+00 1.0656442593567499e+01 2.3065690442082200e+01 0 0 0
589 2 4.9220000000000006e+00 9.9460130873296642e+00 2.0028075747032126e+01 0 0 0
590 2 4.9220000000000006e+00 8.5251540748539991e+00 2.0028075747032126e+01 0 0 0
611 2 7.3830000000000009e+00 9.9460130873296642e+00 2.0028075747032126e+01 0 0 0
612 2 7.3830000000000009e+00 8.5251540748539991e+00 2.0028075747032126e+01 0 0 0
755 2 4.9220000000000006e+00 8.5251540748539991e+00 2.3065690442082200e+01 0 0 0
756 2 6.1524999999999999e+00 9.2355835810918343e+00 2.3065690442082200e+01 0 0 0
778 2 7.3830000000000009e+00 8.5251540748539991e+00 2.3065690442082200e+01 0 0 0
609 2 6.1524999999999999e+00 1.2077301606043163e+01 2.0028075747032126e+01 0 0 0
610 2 6.1524999999999999e+00 1.0656442593567499e+01 2.0028075747032126e+01 0 0 0
754 2 4.9220000000000006e+00 1.1366872099805333e+01 2.3065690442082200e+01 0 0 0
776 2 6.1524999999999999e+00 1.0656442593567499e+01 2.3065690442082200e+01 0 0 0
777 2 7.3829999999999991e+00 1.1366872099805333e+01 2.3065690442082200e+01 0 0 0
634 2 9.8440000000000012e+00 9.9460130873296642e+00 2.0028075747032126e+01 0 0 0
635 2 9.8440000000000012e+00 8.5251540748539956e+00 2.0028075747032126e+01 0 0 0
779 2 8.6134999999999984e+00 9.2355835810918343e+00 2.3065690442082200e+01 0 0 0
802 2 9.8440000000000012e+00 8.5251540748539956e+00 2.3065690442082200e+01 0 0 0
803 2 1.1074500000000002e+01 9.2355835810918343e+00 2.3065690442082200e+01 0 0 0
632 2 8.6135000000000002e+00 1.2077301606043163e+01 2.0028075747032126e+01 0 0 0
633 2 8.6134999999999984e+00 1.0656442593567498e+01 2.0028075747032126e+01 0 0 0
655 2 1.1074500000000002e+01 1.2077301606043163e+01 2.0028075747032126e+01 0 0 0
656 2 1.1074500000000002e+01 1.0656442593567498e+01 2.0028075747032126e+01 0 0 0
800 2 8.6134999999999984e+00 1.0656442593567498e+01 2.3065690442082200e+01 0 0 0
801 2 9.8440000000000012e+00 1.1366872099805333e+01 2.3065690442082200e+01 0 0 0
824 2 1.1074500000000002e+01 1.0656442593567498e+01 2.3065690442082200e+01 0 0 0
825 2 1.2304999999999998e+01 1.1366872099805333e+01 2.3065690442082200e+01 0 0 0
3492 1 4.1063161412638021e+00 2.8225837626320582e+00 2.5558492715127858e+01 0 2 -1
398 1 1.3781416790331589e+00 2.0141706372518886e+00 2.6043437604783470e+01 0 0 -1
3391 1 1.2150034900006217e+01 5.9309707012156379e+00 2.5958352129333292e+01 1 0 -1
4191 1 7.5469501918464754e+00 1.1396771638461381e+01 2.5418301331586395e+01 0 -1 -1
1874 1 7.9230272003160209e+00 3.7414316496405814e-01 2.5674231322814848e+01 1 0 0
2197 1 1.3381192983270833e+00 8.4104659675896905e+00 2.6389147999710787e+01 1 0 0
2692 1 5.0791921706171843e+00 8.1266668565448441e+00 2.8665133740516172e+01 -1 -1 -1
1209 1 1.1958559859237061e+01 4.2025178970691517e+00 2.8564766611988059e+01 0 0 0
1260 1 1.1525688181174004e+01 3.1774395245339764e+00 2.5486114669773109e+01 0 -1 0
2914 1 3.7435454956623588e+00 5.0537992756643977e+00 2.8378602727887383e+01 1 0 0
1723 1 2.5738105954712651e+00 5.7580703828942639e+00 2.6021507930213254e+01 0 0 0
2 1 7.6485544760025697e+00 7.6770439050726385e+00 2.7887972839274461e+01 -1 -1 -1
374 1 6.0177081217171509e+00 4.7120704967570637e+00 2.5880145178373105e+01 0 0 0
4665 1 1.0897217016085675e+01 8.5066700503264361e+00 2.5894756685603383e+01 1 0 0
3524 1 8.3257140306845212e+00 3.2316150612830787e+00 2.5674936665352305e+01 0 1 -1
1725 1 5.2948943031049280e+00 5.3012353820693880e-01 2.6085875378633506e+01 0 0 -1
3754 1 1.8984139843341166e+00 1.0950860767680108e+01 2.5489388537094658e+01 0 1 0
3738 1 2.0156718872181609e+00 2.7837054273788207e+00 2.8869754873858071e+01 2 2 -1
2146 1 8.2186097759536842e+00 8.5912721956180835e+00 2.5431671089339353e+01 1 0 0
2909 1 6.9096742948434740e+00 5.0112820495407471e+00 2.8594458192427496e+01 1 1 -1
31 1 5.1244266677578354e+00 7.4789314022231501e+00 2.5777458901964401e+01 0 0 0
2621 1 2.4984215769021705e+00 1.1100901291447840e+01 2.8731503392620926e+01 1 -1 -1
2598 1 4.3322698348573265e+00 4.1317737137595462e-01 2.8655921776099980e+01 0 1 0
3482 1 5.2447820027099938e+00 1.0897623885447596e+01 2.8079545272890769e+01 0 1 0
482 1 4.8124335643332277e+00 1.1465706728547261e+01 2.5319229957116185e+01 0 1 0
971 1 1.1124220509860843e+01 8.6167808180298753e+00 2.8633381836545304e+01 0 0 0
2993 1 9.2155952773546588e+00 3.5235294042165162e+00 2.8177292770242136e+01 0 -1 0
2224 1 2.6397819598599881e-02 4.9735160165898691e+00 2.5748038506730381e+01 0 0 -1
4196 1 8.7563690791906108e+00 1.4555968908962313e-01 2.8492847953977861e+01 0 2 -1
506 1 2.1567327642802332e+00 8.3528347768535571e+00 2.8954244390190102e+01 1 0 1
3437 1 1.0517720155647138e+01 1.0829996186826095e+01 3.3470862144894468e+01 1 0 -1
2885 1 1.5799746120631339e+00 1.9984852197365388e+00 3.1448844579598013e+01 1 1 -1
1290 1 5.6040795011199220e+00 2.8438207256960224e+00 2.9849146004879529e+01 0 0 0
4331 1 8.0368848203323839e+00 2.0839448229415485e+00 3.3681021427800616e+01 -1 -1 -1
2975 1 1.2141696975912735e+01 1.1329905328309563e+01 2.9071294169915141e+01 0 1 0
3400 1 1.0475599000510924e+01 3.7555051606917065e+00 3.3615632391832847e+01 0 0 -1
1384 1 8.2209674802359469e+00 1.8226367127513659e+00 3.0810838625281495e+01 0 1 0
1863 1 4.4935322301526681e-01 8.1227021156617756e+00 3.4783863608758800e+01 0 0 0
2711 1 1.9942908440534741e+00 4.5579121415950121e+00 3.2930932347000805e+01 0 1 -1
27 1 5.8108242734257347e+00 7.6844897999538544e+00 3.7194817457805094e+01 1 1 0
4683 1 4.8075294577307170e+00 4.6776483055186651e+00 3.2139281947703800e+01 1 0 -1
2695 1 6.8389805938859309e+00 1.1176341363718434e+01 3.7237558424905316e+01 0 0 -1
991 1 8.4125888686175170e+00 8.7265619769488207e+00 3.6741694615251063e+01 1 -1 0
3857 1 5.1302629223780531e+00 1.0826225035641004e+01 3.3481889523848864e+01 1 1 0
10 1 9.9788678376644242e+00 6.4074351717047104e+00 3.2963043426312680e+01 0 0 -1
2595 1 1.1093614221093320e+01 1.3293976774685961e+00 3.2215436594633545e+01 0 0 -1
1880 1 1.3141863542595542e+00 1.0684518504400017e+01 3.3201821225832298e+01 -1 0 0
878 1 3.7022673751446407e+00 8.6195592213344554e+00 3.2707282040046650e+01 1 0 -1
5 1 1.0516059559397327e+01 4.3073953980207165e+00 3.6603377660642572e+01 0 1 -1
24 1 1.1397305942870942e+01 8.4454745002011418e+00 3.7307931822630380e+01 1 0 -2
1835 1 5.4000089163900444e+00 7.2100821161342878e+00 3.1150527103538874e+01 0 0 -1
3428 1 7.8260042541413917e+00 9.9006637134669635e+00 3.4244604034026139e+01 0 0 0
2981 1 7.2233332185507590e+00 1.2188279501487651e+01 2.9546781170966142e+01 0 0 0
1736 1 7.9546326116162467e+00 8.1666027914539558e+00 3.1987840644777311e+01 0 0 -1
2876 1 8.7322946539923851e+00 9.4704032974117709e+00 2.9728642458693294e+01 0 -1 -1
12 1 2.5047486350066741e+00 1.9495165876819633e+00 3.4879800753105904e+01 1 1 0
2883 1 3.9792554622622194e+00 5.7338140913393589e+00 3.6822033165171767e+01 0 1 0
2955 1 4.3843778528863897e+00 1.1530848888028276e+01 3.5975805112495152e+01 0 0 0
2571 1 4.1797749169704908e+00 1.3660964681388974e+00 3.2389547528928112e+01 1 -1 -1
4282 1 1.1002359703073115e+01 6.2186014453293135e+00 3.0227098205870721e+01 0 1 -1
1050 1 2.0245663439347346e+00 1.0084312598006996e+01 3.6511603363424172e+01 2 1 -1
4308 1 9.3139052400495626e+00 1.7350039151101728e+00 3.7173186203902596e+01 -1 0 -1
1243 1 4.8831454417955449e+00 3.0464350115095122e+00 3.6502176786888043e+01 0 0 -1
4209 1 2.7437995817017362e+00 6.7783805429883026e+00 3.4597435020006046e+01 0 0 -1
2176 1 6.1520865057199305e+00 4.1795947540050022e+00 3.4384980221083559e+01 2 0 0
478 1 8.1988560592107316e+00 5.8722290954176986e+00 3.5659697126561078e+01 0 0 0
1357 1 1.1587282516406098e+01 8.2101546667830743e+00 3.4471901146809905e+01 0 2 0
1763 1 5.8644405901628038e-01 2.0552546331842702e+01 7.6087078162817852e+00 2 0 0
4606 1 1.9482574784950863e+00 1.3509023225010292e+01 2.9045615517371135e+00 0 1 0
3792 1 7.8915162046549190e+00 1.3523726807325330e+01 3.5286535163956536e+00 0 0 1
1809 1 1.1810548389708794e+01 2.0063320656815829e+01 4.0811574887373894e+00 1 1 0
3512 1 9.7480309393995856e+00 1.5463443549407563e+01 4.2193956690585637e+00 0 1 0
2884 1 1.0975470561768525e+01 1.6188566049560741e+01 8.8851038021979747e+00 -1 0 1
66 1 1.2007686256066410e+01 1.7229037347250777e+01 6.4677047876675333e+00 0 0 1
1002 1 3.9895962187363883e+00 1.9291787157197597e+01 4.7263675728890346e+00 0 2 0
1749 1 2.6598336649262726e+00 2.1923577288592838e+01 9.1147579473321532e+00 1 1 1
2071 1 8.2928732223070991e+00 2.0171294878913773e+01 3.7888545933606035e+00 1 1 0
2696 1 4.3812331275103338e+00 1.6761838689006481e+01 3.7342171767973498e+00 -1 0 -1
22 1 5.3652747898780717e-02 1.9614822621823482e+01 5.0653569461866397e+00 2 -1 1
4594 1 2.8070521196852201e+00 1.3127654506220425e+01 5.6443082259187474e+00 1 0 2
1717 1 9.4390151407284950e+00 1.8106377025408804e+01 5.3934863201507524e+00 1 1 0
2610 1 1.2017932483484230e+01 1.5476756507664412e+01 2.3485220452224649e+00 0 0 0
102 1 5.8701070127209247e+00 2.1473623938905956e+01 4.1748762467829685e+00 0 0 0
4633 1 9.9944235593404684e+00 1.9078782170651522e+01 9.7686863832776858e+00 0 1 0
1241 1 6.1472452010738721e+00 2.2144094280433134e+01 6.6369720454049803e+00 0 0 1
107 1 1.1803090310432140e+01 2.0744723387377974e+01 8.7710941984501183e+00 0 1 0
927 1 2.0330349098864868e+00 2.0776652602611222e+01 3.4488359271410194e+00 1 0 0
3872 1 1.7300610478354355e+00 2.3699486488792118e+01 3.5477089672237074e+00 1 1 0
1787 1 8.2178635837282279e+00 2.3835972228580907e+01 6.9158383300311748e+00 -1 0 1
51 1 1.0014306403767193e+01 2.2356059637917802e+01 4.3381553430946376e+00 -1 0 0
3753 1 4.2696100444561678e+00 1.5983246518291123e+01 6.5297111870465159e+00 1 0 1
931 1 1.4968910627362388e+00 1.3651654059068768e+01 8.1793154490543643e+00 0 1 0
4593 1 3.3880349993741756e+00 1.3615658837157177e+01 1.0861002644378074e+01 0 0 0
3707 1 7.2468193865315005e+00 1.3611938857592175e+01 7.9025834533713368e+00 2 0 1
2550 1 5.6906893386816710e+00 1.3070590193414725e+01 5.7651002995559146e+00 0 1 0
4318 1 9.9524374466959138e+00 1.4246857739569098e+01 6.9757482469313228e+00 0 1 0
1825 1 1.4394909217602787e+00 1.6276946953409752e+01 7.1173514204515484e+00 1 0 0
4280 1 1.4735270509646228e+00 1.7885234197795615e+01 9.5246916963386568e+00 1 1 1
156 1 6.3446896211920221e+00 1.6208207183494757e+01 8.4166098215777527e+00 0 -1 0
2681 1 8.0473016648884510e+00 1.8350212785503722e+01 7.9114453627134784e+00 0 0 0
387 1 1.9305052217834155e+00 1.6296176830319023e+01 2.7375513588031239e+00 0 0 1
1368 1 3.3179212461490271e+00 1.8940210648657231e+01 7.6789606006545457e+00 0 2 1
1774 1 1.0829495213172184e+01 2.2844802190278486e+01 7.0551240472663386e+00 1 0 1
4236 1 5.6414375201685489e+00 1.2633299859222042e+01 9.8444351822270697e+00 1 1 0
904 1 5.8586313212870973e+00 2.0220573000635355e+01 8.2869610364267512e+00 0 -1 0
2934 1 5.7577578741307311e+00 1.6853954944104999e+01 1.1015512096148838e+01 0 1 1
1284 1 3.0573889916284442e+00 1.5910459600397374e+01 1.4478181120191051e+01 0 0 1
2653 1 4.0776938643074114e+00 1.3181941863638382e+01 1.3703327820434600e+01 -1 1 1