LAMMPS data file via write_data, version 16 Mar 2018, timestep = 8000000

4990 atoms
2 atom types

0.0000000000000000e+00 4.9219999999999999e+01 xlo xhi
0.0000000000000000e+00 4.9019635930410494e+01 ylo yhi
1.1360679702983063e+00 3.8863932029700095e+01 zlo zhi

Masses

1 18.015
2 12.01

Atoms # atomic

1262 1 5.2233938973038041e-01 2.0364697294170280e+00 2.8553041159913142e+00 -1 -3 0
3069 1 2.7483861031913390e+00 5.7638988657836943e-01 3.6665191630571350e+00 0 -4 1
3415 1 5.2422276687580114e+00 1.6608939893464132e+00 2.9574992268464317e+00 0 1 0
4549 1 5.5304239692693535e+00 4.0215035391845779e+00 3.8366284789835357e+00 0 4 1
2890 1 9.3354187807200208e+00 1.0165441778489512e+00 2.8942967029792417e+00 -2 -5 1
1712 1 9.6581660764076886e+00 3.3525187540476171e+00 4.1657504920639754e+00 -4 4 0
1784 1 1.1805291922250580e+00 4.6578762809768435e+00 3.7584261247173840e+00 -2 -3 0
3489 1 3.6709073311666662e+00 5.6046553497135454e+00 2.8473892750039789e+00 3 2 0
3054 1 7.9128220172915347e+00 5.2596371477166066e+00 3.2357912510356761e+00 4 2 0
3822 1 8.1398717962027334e+00 7.8959577041518338e+00 4.2259264233920044e+00 1 0 0
2630 1 1.0918239894241419e-01 1.1614446487982750e+01 1.0263304649061302e+01 1 -2 0
1822 1 2.0961969772995652e+00 1.0136919336741332e+01 2.8348545108076344e+00 0 -2 1
2616 1 3.7782866227150289e+00 8.3132179097632424e+00 4.0627646681983487e+00 -3 2 1
4305 1 6.2030788101611636e+00 9.2889680081831738e+00 3.1775297823799558e+00 1 1 1
2614 1 1.1467315522464135e+01 1.4051486472966173e+00 9.9428349541538434e+00 1 3 1
17 1 1.0339762845903298e+01 9.0837410210841334e+00 3.4291325652859386e+00 -5 3 0
83 1 1.0533705157820600e+01 1.1454338160930497e+01 3.7121186279814458e+00 -2 -2 0
1843 1 2.9192859065931596e+00 3.0320244385935617e+00 7.1486717270993774e+00 -2 0 0
1731 1 6.8860377765687115e+00 1.2028324756633056e+01 6.5022853912876819e+00 -3 1 1
4248 1 7.3143096869178832e+00 2.3274716100679251e+00 7.6315703921811231e+00 -2 -2 0
3522 1 5.3893893820236674e+00 4.0108960918533771e+00 6.6050713487576340e+00 -3 -1 0
2672 1 4.4153082342358659e-02 1.1670991868721483e+01 7.2674460800783613e+00 1 6 0
3532 1 9.8445339892189772e+00 3.1771447832536510e+00 6.6874989028325684e+00 3 2 1
2107 1 1.1857829536109580e+01 1.5211260635621953e+00 7.4447441722345262e+00 2 1 0
4645 1 7.3935908761454643e+00 2.2669257420925559e+00 1.0407401996875373e+01 5 -4 1
2995 1 1.1104645977969156e+00 4.7627500980561148e+00 6.4965571543890137e+00 2 -2 1
1342 1 1.1658573305191164e+00 7.1754543453875286e+00 7.3895593541890259e+00 1 -4 2
4583 1 6.6058136931755174e+00 1.2023784136253990e+01 3.4496749152706432e+00 -6 0 1
414 1 2.0977571766710019e+00 4.5826692182989831e-01 6.4657440557493038e+00 4 -1 0
3456 1 5.8136512287239288e+00 6.5976712158402817e+00 7.6259902318245825e+00 1 -1 1
143 1 8.1498427310932673e+00 8.0424297552055428e+00 6.8442126190059200e+00 2 3 0
1717 1 1.0220415667898457e+01 6.0817900855656175e+00 7.2423487453800623e+00 0 4 0
1792 1 1.2149525698365617e+01 5.0378613933582441e+00 3.3775058430340823e+00 -4 3 1
2678 1 8.5661552614341545e+00 1.0295451428647793e+01 1.0398927060383723e+01 0 4 0
164 1 2.9271065529864888e+00 2.8444067148854737e+00 1.0037575525135791e+01 -1 -3 -1
4322 1 3.7212931889115799e+00 8.0360438273701469e+00 6.8204757827146043e+00 -2 -2 0
2174 1 1.1156651752682830e+01 1.1583948969906389e+01 6.4945467553489724e+00 2 0 0
49 1 4.5307730861767030e+00 1.1046440296742906e+01 7.5060385620609829e+00 -4 -1 -1
4624 1 8.7903799760275305e+00 1.0511658439770084e+01 7.6827052881987310e+00 1 5 1
3021 1 4.0515589740345472e+00 1.0879614237221540e+01 1.0229656443353074e+01 -1 0 1
1725 1 1.2462257978265527e+00 7.3303220105511979e+00 1.0086469227996110e+01 0 -3 0
2119 1 1.0049397191210087e+01 6.0265700537343694e+00 1.0060125521515195e+01 4 -1 1
4575 1 3.0488897682591602e+00 2.6494689974115615e+00 1.4695416575556280e+01 -2 -2 1
1355 1 3.5917696828936547e+00 8.3971144721235564e+00 1.1099991149508572e+01 -4 3 1
4216 1 5.1687534622301916e+00 3.8900426229089842e+00 1.1372426142965988e+01 1 -5 0
308 2 1.2304999999999998e+01 1.1366872099805333e+01 1.6839154884619560e+01 0 0 0
4269 1 7.4922218184701279e+00 2.2072243756409677e+00 1.4462442001030382e+01 -2 -1 1
2578 1 5.4752007820475956e+00 3.9656136537142146e+00 1.4211828910990299e+01 1 -2 1
262 2 8.6134999999999984e+00 9.2355835810918343e+00 1.6839154884619560e+01 0 0 0
283 2 8.6134999999999984e+00 1.0656442593567498e+01 1.6839154884619560e+01 0 0 0
3020 1 1.1720533912720366e+01 1.2276129010006969e+00 1.4563220440311035e+01 3 1 1
4678 1 9.8478866853384996e+00 3.2439252794233457e+00 1.3800032811905593e+01 0 1 1
284 2 9.8440000000000012e+00 1.1366872099805333e+01 1.6839154884619560e+01 0 0 0
4615 1 1.5713474871585802e+00 4.8175883704547484e+00 1.3798219025479625e+01 2 4 1
4311 1 8.4573088191469792e-01 7.6122615703495109e+00 1.4232876693421401e+01 1 5 0
4210 1 2.4994384971116355e+00 1.7700566547642818e-01 1.1043561546238015e+01 0 -1 0
4361 1 9.7263109618462629e+00 3.1924794117603299e+00 1.1125023252354820e+01 1 3 0
307 2 1.1074500000000002e+01 1.0656442593567498e+01 1.6839154884619560e+01 0 0 0
2705 1 5.4470976155524227e+00 6.7369641438690513e+00 1.4409662999842190e+01 3 1 0
454 1 8.0245215233622069e+00 7.6113971052513492e+00 1.3947030284042889e+01 -2 -2 0
4664 1 9.7680631681401415e+00 5.7408275747108002e+00 1.4612720379392329e+01 1 4 2
4702 1 3.4490417805649525e+00 8.7736235625984769e+00 1.3720684462646755e+01 -2 3 1
1723 1 3.9467236914264068e+00 1.1440530470505619e+01 1.4487290867477533e+01 -1 1 1
286 2 1.1074500000000002e+01 9.2355835810918343e+00 1.6839154884619560e+01 0 0 0
14 1 1.2244331312184162e+00 4.9041524355167283e+00 1.1079276072204864e+01 5 2 0
4295 1 6.7768013064904524e+00 1.1926350087319522e+01 1.3939214435423402e+01 3 2 0
3444 1 1.0958918648386359e+01 1.1373970411692543e+01 1.1447907437510407e+01 4 1 0
1274 1 1.1130530435694411e+01 1.1437825382899115e+01 1.4198591865493631e+01 3 -1 1
1710 1 8.7202427306028074e+00 1.0242077999865749e+01 1.4445679476221764e+01 1 5 0
193 2 0.0000000000000000e+00 2.8417180249513345e+00 1.6839154884619560e+01 0 0 0
194 2 0.0000000000000000e+00 0.0000000000000000e+00 1.6839154884619560e+01 0 0 0
195 2 1.2305000000000001e+00 7.1042950623783474e-01 1.6839154884619560e+01 0 0 0
199 2 1.2305000000000001e+00 2.1312885187134998e+00 1.6839154884619560e+01 0 0 0
200 2 2.4610000000000003e+00 2.8417180249513345e+00 1.6839154884619560e+01 0 0 0
201 2 2.4610000000000003e+00 0.0000000000000000e+00 1.6839154884619560e+01 0 0 0
202 2 3.6915000000000004e+00 7.1042950623783474e-01 1.6839154884619560e+01 0 0 0
210 2 3.6914999999999996e+00 2.1312885187134998e+00 1.6839154884619560e+01 0 0 0
211 2 4.9220000000000006e+00 2.8417180249513332e+00 1.6839154884619560e+01 0 0 0
212 2 4.9220000000000006e+00 0.0000000000000000e+00 1.6839154884619560e+01 0 0 0
213 2 6.1524999999999999e+00 7.1042950623783407e-01 1.6839154884619560e+01 0 0 0
225 2 6.1524999999999999e+00 2.1312885187134989e+00 1.6839154884619560e+01 0 0 0
226 2 7.3829999999999991e+00 2.8417180249513345e+00 1.6839154884619560e+01 0 0 0
227 2 7.3829999999999991e+00 0.0000000000000000e+00 1.6839154884619560e+01 0 0 0
228 2 8.6134999999999984e+00 7.1042950623783407e-01 1.6839154884619560e+01 0 0 0
244 2 8.6134999999999984e+00 2.1312885187135002e+00 1.6839154884619560e+01 0 0 0
245 2 9.8440000000000012e+00 2.8417180249513332e+00 1.6839154884619560e+01 0 0 0
246 2 9.8440000000000012e+00 0.0000000000000000e+00 1.6839154884619560e+01 0 0 0
247 2 1.1074500000000002e+01 7.1042950623783330e-01 1.6839154884619560e+01 0 0 0
267 2 1.1074500000000002e+01 2.1312885187135002e+00 1.6839154884619560e+01 0 0 0
197 2 0.0000000000000000e+00 4.2625770374269996e+00 1.6839154884619560e+01 0 0 0
198 2 1.2305000000000001e+00 4.9730065436648339e+00 1.6839154884619560e+01 0 0 0
206 2 1.2305000000000001e+00 6.3938655561404980e+00 1.6839154884619560e+01 0 0 0
208 2 2.4610000000000003e+00 4.2625770374269996e+00 1.6839154884619560e+01 0 0 0
209 2 3.6914999999999996e+00 4.9730065436648339e+00 1.6839154884619560e+01 0 0 0
221 2 3.6914999999999996e+00 6.3938655561404980e+00 1.6839154884619560e+01 0 0 0
196 2 0.0000000000000000e+00 7.1042950623783341e+00 1.6839154884619560e+01 0 0 0
207 2 2.4610000000000003e+00 7.1042950623783341e+00 1.6839154884619560e+01 0 0 0
223 2 4.9220000000000006e+00 4.2625770374269978e+00 1.6839154884619560e+01 0 0 0
224 2 6.1524999999999999e+00 4.9730065436648339e+00 1.6839154884619560e+01 0 0 0
240 2 6.1524999999999999e+00 6.3938655561404980e+00 1.6839154884619560e+01 0 0 0
242 2 7.3829999999999991e+00 4.2625770374269996e+00 1.6839154884619560e+01 0 0 0
222 2 4.9220000000000006e+00 7.1042950623783341e+00 1.6839154884619560e+01 0 0 0
241 2 7.3830000000000009e+00 7.1042950623783341e+00 1.6839154884619560e+01 0 0 0
243 2 8.6135000000000002e+00 4.9730065436648339e+00 1.6839154884619560e+01 0 0 0
263 2 8.6135000000000002e+00 6.3938655561404980e+00 1.6839154884619560e+01 0 0 0
265 2 9.8440000000000012e+00 4.2625770374270004e+00 1.6839154884619560e+01 0 0 0
266 2 1.1074500000000002e+01 4.9730065436648339e+00 1.6839154884619560e+01 0 0 0
287 2 1.1074500000000002e+01 6.3938655561404980e+00 1.6839154884619560e+01 0 0 0
264 2 9.8440000000000012e+00 7.1042950623783341e+00 1.6839154884619560e+01 0 0 0
204 2 0.0000000000000000e+00 8.5251540748539991e+00 1.6839154884619560e+01 0 0 0
205 2 1.2305000000000001e+00 9.2355835810918343e+00 1.6839154884619560e+01 0 0 0
219 2 2.4610000000000003e+00 8.5251540748539991e+00 1.6839154884619560e+01 0 0 0
220 2 3.6915000000000004e+00 9.2355835810918343e+00 1.6839154884619560e+01 0 0 0
203 2 0.0000000000000000e+00 1.1366872099805333e+01 1.6839154884619560e+01 0 0 0
217 2 1.2305000000000001e+00 1.0656442593567498e+01 1.6839154884619560e+01 0 0 0
218 2 2.4610000000000003e+00 1.1366872099805333e+01 1.6839154884619560e+01 0 0 0
236 2 3.6914999999999996e+00 1.0656442593567499e+01 1.6839154884619560e+01 0 0 0
259 2 6.1524999999999999e+00 1.0656442593567499e+01 1.6839154884619560e+01 0 0 0
237 2 4.9220000000000006e+00 1.1366872099805333e+01 1.6839154884619560e+01 0 0 0
238 2 4.9220000000000006e+00 8.5251540748539991e+00 1.6839154884619560e+01 0 0 0
239 2 6.1524999999999999e+00 9.2355835810918343e+00 1.6839154884619560e+01 0 0 0
260 2 7.3829999999999991e+00 1.1366872099805333e+01 1.6839154884619560e+01 0 0 0
261 2 7.3830000000000009e+00 8.5251540748539991e+00 1.6839154884619560e+01 0 0 0
285 2 9.8440000000000012e+00 8.5251540748539956e+00 1.6839154884619560e+01 0 0 0
3385 1 6.5905433858036826e+00 1.1947752971798167e+01 1.1180674894602248e+01 0 3 0
1303 1 8.0302606917252479e+00 7.7088912450634961e+00 1.1281652960796773e+01 0 1 0
996 1 1.2191973208587822e+01 6.6665594925574645e+00 1.3543440150544734e+01 0 -2 -1
459 1 2.5224056019396746e+00 1.5517944796926741e-01 1.3606934558622443e+01 -1 2 1
3433 1 5.5873274731715394e+00 6.4994910914360045e+00 1.0709150757143570e+01 -1 -3 0
549 2 0.0000000000000000e+00 1.4208590124756650e+00 2.0029487270110252e+01 0 0 0
550 2 0.0000000000000000e+00 0.0000000000000000e+00 2.0029487270110252e+01 0 0 0
554 2 1.2305000000000001e+00 2.1312885187134998e+00 2.0029487270110252e+01 0 0 0
555 2 2.4610000000000003e+00 1.4208590124756650e+00 2.0029487270110252e+01 0 0 0
556 2 2.4610000000000003e+00 0.0000000000000000e+00 2.0029487270110252e+01 0 0 0
564 2 3.6914999999999996e+00 2.1312885187134998e+00 2.0029487270110252e+01 0 0 0
710 2 0.0000000000000000e+00 2.8417180249513345e+00 2.3219819655590420e+01 0 0 0
711 2 0.0000000000000000e+00 0.0000000000000000e+00 2.3219819655590420e+01 0 0 0
712 2 1.2305000000000001e+00 7.1042950623783474e-01 2.3219819655590420e+01 0 0 0
716 2 1.2305000000000001e+00 2.1312885187134998e+00 2.3219819655590420e+01 0 0 0
717 2 2.4610000000000003e+00 2.8417180249513345e+00 2.3219819655590420e+01 0 0 0
718 2 2.4610000000000003e+00 0.0000000000000000e+00 2.3219819655590420e+01 0 0 0
719 2 3.6915000000000004e+00 7.1042950623783474e-01 2.3219819655590420e+01 0 0 0
727 2 3.6914999999999996e+00 2.1312885187134998e+00 2.3219819655590420e+01 0 0 0
553 2 1.2305000000000001e+00 3.5521475311891644e+00 2.0029487270110252e+01 0 0 0
563 2 3.6914999999999996e+00 3.5521475311891644e+00 2.0029487270110252e+01 0 0 0
565 2 4.9220000000000006e+00 1.4208590124756650e+00 2.0029487270110252e+01 0 0 0
566 2 4.9220000000000006e+00 0.0000000000000000e+00 2.0029487270110252e+01 0 0 0
578 2 6.1524999999999999e+00 2.1312885187134989e+00 2.0029487270110252e+01 0 0 0
579 2 7.3829999999999991e+00 1.4208590124756659e+00 2.0029487270110252e+01 0 0 0
580 2 7.3829999999999991e+00 0.0000000000000000e+00 2.0029487270110252e+01 0 0 0
728 2 4.9220000000000006e+00 2.8417180249513332e+00 2.3219819655590420e+01 0 0 0
729 2 4.9220000000000006e+00 0.0000000000000000e+00 2.3219819655590420e+01 0 0 0
730 2 6.1524999999999999e+00 7.1042950623783407e-01 2.3219819655590420e+01 0 0 0
742 2 6.1524999999999999e+00 2.1312885187134989e+00 2.3219819655590420e+01 0 0 0
743 2 7.3829999999999991e+00 2.8417180249513345e+00 2.3219819655590420e+01 0 0 0
744 2 7.3829999999999991e+00 0.0000000000000000e+00 2.3219819655590420e+01 0 0 0
577 2 6.1524999999999999e+00 3.5521475311891644e+00 2.0029487270110252e+01 0 0 0
596 2 8.6134999999999984e+00 2.1312885187135002e+00 2.0029487270110252e+01 0 0 0
597 2 9.8440000000000012e+00 1.4208590124756659e+00 2.0029487270110252e+01 0 0 0
598 2 9.8440000000000012e+00 0.0000000000000000e+00 2.0029487270110252e+01 0 0 0
618 2 1.1074500000000002e+01 2.1312885187135002e+00 2.0029487270110252e+01 0 0 0
745 2 8.6134999999999984e+00 7.1042950623783407e-01 2.3219819655590420e+01 0 0 0
761 2 8.6134999999999984e+00 2.1312885187135002e+00 2.3219819655590420e+01 0 0 0
762 2 9.8440000000000012e+00 2.8417180249513332e+00 2.3219819655590420e+01 0 0 0
763 2 9.8440000000000012e+00 0.0000000000000000e+00 2.3219819655590420e+01 0 0 0
764 2 1.1074500000000002e+01 7.1042950623783330e-01 2.3219819655590420e+01 0 0 0
784 2 1.1074500000000002e+01 2.1312885187135002e+00 2.3219819655590420e+01 0 0 0
595 2 8.6134999999999984e+00 3.5521475311891657e+00 2.0029487270110252e+01 0 0 0
617 2 1.1074500000000002e+01 3.5521475311891644e+00 2.0029487270110252e+01 0 0 0
551 2 0.0000000000000000e+00 5.6834360499026637e+00 2.0029487270110252e+01 0 0 0
552 2 0.0000000000000000e+00 4.2625770374269996e+00 2.0029487270110252e+01 0 0 0
560 2 1.2305000000000001e+00 6.3938655561404980e+00 2.0029487270110252e+01 0 0 0
561 2 2.4610000000000003e+00 5.6834360499026637e+00 2.0029487270110252e+01 0 0 0
562 2 2.4610000000000003e+00 4.2625770374269996e+00 2.0029487270110252e+01 0 0 0
574 2 3.6914999999999996e+00 6.3938655561404980e+00 2.0029487270110252e+01 0 0 0
714 2 0.0000000000000000e+00 4.2625770374269996e+00 2.3219819655590420e+01 0 0 0
715 2 1.2305000000000001e+00 4.9730065436648339e+00 2.3219819655590420e+01 0 0 0
723 2 1.2305000000000001e+00 6.3938655561404980e+00 2.3219819655590420e+01 0 0 0
725 2 2.4610000000000003e+00 4.2625770374269996e+00 2.3219819655590420e+01 0 0 0
726 2 3.6914999999999996e+00 4.9730065436648339e+00 2.3219819655590420e+01 0 0 0
738 2 3.6914999999999996e+00 6.3938655561404980e+00 2.3219819655590420e+01 0 0 0
559 2 1.2305000000000001e+00 7.8147245686161639e+00 2.0029487270110252e+01 0 0 0
573 2 3.6914999999999996e+00 7.8147245686161639e+00 2.0029487270110252e+01 0 0 0
713 2 0.0000000000000000e+00 7.1042950623783341e+00 2.3219819655590420e+01 0 0 0
724 2 2.4610000000000003e+00 7.1042950623783341e+00 2.3219819655590420e+01 0 0 0
575 2 4.9220000000000006e+00 5.6834360499026637e+00 2.0029487270110252e+01 0 0 0
576 2 4.9220000000000006e+00 4.2625770374269978e+00 2.0029487270110252e+01 0 0 0
592 2 6.1524999999999999e+00 6.3938655561404980e+00 2.0029487270110252e+01 0 0 0
593 2 7.3829999999999991e+00 5.6834360499026637e+00 2.0029487270110252e+01 0 0 0
594 2 7.3829999999999991e+00 4.2625770374269996e+00 2.0029487270110252e+01 0 0 0
740 2 4.9220000000000006e+00 4.2625770374269978e+00 2.3219819655590420e+01 0 0 0
741 2 6.1524999999999999e+00 4.9730065436648339e+00 2.3219819655590420e+01 0 0 0
757 2 6.1524999999999999e+00 6.3938655561404980e+00 2.3219819655590420e+01 0 0 0
759 2 7.3829999999999991e+00 4.2625770374269996e+00 2.3219819655590420e+01 0 0 0
591 2 6.1524999999999999e+00 7.8147245686161639e+00 2.0029487270110252e+01 0 0 0
739 2 4.9220000000000006e+00 7.1042950623783341e+00 2.3219819655590420e+01 0 0 0
758 2 7.3830000000000009e+00 7.1042950623783341e+00 2.3219819655590420e+01 0 0 0
614 2 8.6135000000000002e+00 6.3938655561404980e+00 2.0029487270110252e+01 0 0 0
615 2 9.8440000000000012e+00 5.6834360499026637e+00 2.0029487270110252e+01 0 0 0
616 2 9.8440000000000012e+00 4.2625770374270004e+00 2.0029487270110252e+01 0 0 0
637 2 1.1074500000000002e+01 6.3938655561404980e+00 2.0029487270110252e+01 0 0 0
760 2 8.6135000000000002e+00 4.9730065436648339e+00 2.3219819655590420e+01 0 0 0
780 2 8.6135000000000002e+00 6.3938655561404980e+00 2.3219819655590420e+01 0 0 0
782 2 9.8440000000000012e+00 4.2625770374270004e+00 2.3219819655590420e+01 0 0 0
783 2 1.1074500000000002e+01 4.9730065436648339e+00 2.3219819655590420e+01 0 0 0
804 2 1.1074500000000002e+01 6.3938655561404980e+00 2.3219819655590420e+01 0 0 0
613 2 8.6135000000000002e+00 7.8147245686161639e+00 2.0029487270110252e+01 0 0 0
636 2 1.1074500000000002e+01 7.8147245686161639e+00 2.0029487270110252e+01 0 0 0
781 2 9.8440000000000012e+00 7.1042950623783341e+00 2.3219819655590420e+01 0 0 0
557 2 0.0000000000000000e+00 9.9460130873296642e+00 2.0029487270110252e+01 0 0 0
558 2 0.0000000000000000e+00 8.5251540748539991e+00 2.0029487270110252e+01 0 0 0
571 2 2.4610000000000003e+00 9.9460130873296642e+00 2.0029487270110252e+01 0 0 0
572 2 2.4610000000000003e+00 8.5251540748539991e+00 2.0029487270110252e+01 0 0 0
721 2 0.0000000000000000e+00 8.5251540748539991e+00 2.3219819655590420e+01 0 0 0
722 2 1.2305000000000001e+00 9.2355835810918343e+00 2.3219819655590420e+01 0 0 0
736 2 2.4610000000000003e+00 8.5251540748539991e+00 2.3219819655590420e+01 0 0 0
737 2 3.6915000000000004e+00 9.2355835810918343e+00 2.3219819655590420e+01 0 0 0
569 2 1.2305000000000001e+00 1.2077301606043163e+01 2.0029487270110252e+01 0 0 0
570 2 1.2305000000000001e+00 1.0656442593567498e+01 2.0029487270110252e+01 0 0 0
587 2 3.6914999999999996e+00 1.2077301606043163e+01 2.0029487270110252e+01 0 0 0
588 2 3.6914999999999996e+00 1.0656442593567499e+01 2.0029487270110252e+01 0 0 0
720 2 0.0000000000000000e+00 1.1366872099805333e+01 2.3219819655590420e+01 0 0 0
734 2 1.2305000000000001e+00 1.0656442593567498e+01 2.3219819655590420e+01 0 0 0
735 2 2.4610000000000003e+00 1.1366872099805333e+01 2.3219819655590420e+01 0 0 0
753 2 3.6914999999999996e+00 1.0656442593567499e+01 2.3219819655590420e+01 0 0 0
589 2 4.9220000000000006e+00 9.9460130873296642e+00 2.0029487270110252e+01 0 0 0
590 2 4.9220000000000006e+00 8.5251540748539991e+00 2.0029487270110252e+01 0 0 0
611 2 7.3830000000000009e+00 9.9460130873296642e+00 2.0029487270110252e+01 0 0 0
612 2 7.3830000000000009e+00 8.5251540748539991e+00 2.0029487270110252e+01 0 0 0
755 2 4.9220000000000006e+00 8.5251540748539991e+00 2.3219819655590420e+01 0 0 0
756 2 6.1524999999999999e+00 9.2355835810918343e+00 2.3219819655590420e+01 0 0 0
778 2 7.3830000000000009e+00 8.5251540748539991e+00 2.3219819655590420e+01 0 0 0
609 2 6.1524999999999999e+00 1.2077301606043163e+01 2.0029487270110252e+01 0 0 0
610 2 6.1524999999999999e+00 1.0656442593567499e+01 2.0029487270110252e+01 0 0 0
754 2 4.9220000000000006e+00 1.1366872099805333e+01 2.3219819655590420e+01 0 0 0
776 2 6.1524999999999999e+00 1.0656442593567499e+01 2.3219819655590420e+01 0 0 0
777 2 7.3829999999999991e+00 1.1366872099805333e+01 2.3219819655590420e+01 0 0 0
634 2 9.8440000000000012e+00 9.9460130873296642e+00 2.0029487270110252e+01 0 0 0
635 2 9.8440000000000012e+00 8.5251540748539956e+00 2.0029487270110252e+01 0 0 0
779 2 8.6134999999999984e+00 9.2355835810918343e+00 2.3219819655590420e+01 0 0 0
802 2 9.8440000000000012e+00 8.5251540748539956e+00 2.3219819655590420e+01 0 0 0
803 2 1.1074500000000002e+01 9.2355835810918343e+00 2.3219819655590420e+01 0 0 0
632 2 8.6135000000000002e+00 1.2077301606043163e+01 2.0029487270110252e+01 0 0 0
633 2 8.6134999999999984e+00 1.0656442593567498e+01 2.0029487270110252e+01 0 0 0
655 2 1.1074500000000002e+01 1.2077301606043163e+01 2.0029487270110252e+01 0 0 0
656 2 1.1074500000000002e+01 1.0656442593567498e+01 2.0029487270110252e+01 0 0 0
800 2 8.6134999999999984e+00 1.0656442593567498e+01 2.3219819655590420e+01 0 0 0
801 2 9.8440000000000012e+00 1.1366872099805333e+01 2.3219819655590420e+01 0 0 0
824 2 1.1074500000000002e+01 1.0656442593567498e+01 2.3219819655590420e+01 0 0 0
825 2 1.2304999999999998e+01 1.1366872099805333e+01 2.3219819655590420e+01 0 0 0
3519 1 2.6550445346968470e+00 1.3567394231627024e+00 2.6572776004172184e+01 3 -2 -1
439 1 3.4278313936151550e+00 3.8882482177064790e+00 2.5883569401600475e+01 2 -1 -1
4538 1 1.1611381881606333e+01 2.8657526378918163e-01 2.6834759489022421e+01 -3 0 0
2633 1 7.7848256183113893e+00 3.2109054567241873e+00 2.6340647729869083e+01 2 -1 -1
4560 1 7.1887501890674637e+00 7.6369468174678223e-01 2.7062965748007777e+01 -1 1 0
1248 1 5.1649058711324503e-01 8.4680072164809994e-02 2.5344221233629476e+01 -2 -2 0
4272 1 1.0383875745652084e+01 4.0446605133334304e+00 2.6548486466259519e+01 2 1 -1
3830 1 9.0726591268710148e+00 1.0173066939977137e+01 2.5640420388462360e+01 -3 2 -1
3015 1 1.3790773087379027e+00 5.2028180243017621e+00 2.6684227181427520e+01 1 5 0
3009 1 1.7990794024859997e+00 7.9353864226428446e+00 2.5638251722090910e+01 0 1 0
4683 1 4.1545110986684630e+00 8.7374131974551776e+00 2.6731982014513793e+01 3 2 -1
2664 1 1.2086385779188188e+01 2.4806698177964193e+00 2.5424159055691316e+01 3 3 0
4378 1 5.3503240743263767e+00 4.8037457958388652e+00 2.7340777453159781e+01 -3 5 -2
925 1 6.0927042903241029e+00 7.0391412030071798e+00 2.6097957599660678e+01 1 3 -1
2144 1 1.0378604706223690e+01 6.6381562297084793e+00 2.5666401013857829e+01 4 -2 -1
4343 1 8.4536497453161825e+00 8.0186598219268959e+00 2.6887347367250431e+01 0 1 -1
3800 1 6.9955401369552241e+00 1.1907810457636707e+01 2.6259887548559803e+01 4 1 0
3798 1 1.1303043969737267e+01 1.1515210257594473e+01 2.6811691936418743e+01 -2 -2 0
528 1 4.4338101124880867e+00 1.1207728228291632e+01 2.5553864154983980e+01 1 5 0
2609 1 6.9997276941944753e+00 1.2132368398045383e+01 2.8982708304604877e+01 2 -4 -2
2091 1 1.0994222767982762e+00 5.1415583142963577e+00 2.9357933727594403e+01 -2 -1 0
3404 1 2.6539242764937931e+00 1.1588560921363931e+00 2.9423461778600345e+01 -1 1 0
3818 1 3.7323046451287556e-01 2.5408010022772141e+00 3.0275828484207665e+01 2 3 0
1372 1 6.5822703441940877e-01 2.6169896318796120e+00 3.2770757595891823e+01 0 0 0
2067 1 2.4463908145759938e+00 7.8523676219912619e-01 3.3906948984484927e+01 1 -2 0
4618 1 4.9068765708257578e+00 1.8172717975371404e+00 3.0756551681724353e+01 -1 0 0
4528 1 4.9528001585919181e+00 1.8350632211844096e+00 3.3468614902210099e+01 -2 3 0
987 1 6.4213130712187176e+00 9.4965410598644748e+00 3.8051546829524220e+01 3 -2 0
2675 1 9.5016061045667684e+00 1.3801443998976310e+00 3.0410785711444461e+01 1 3 0
2199 1 9.3988009881340417e+00 1.0639302843786074e+00 3.3325683974702798e+01 3 -1 0
2906 1 9.9853653336138706e+00 3.7333141147232816e+00 3.4188963036131170e+01 0 1 0
350 1 1.1146748468007388e+01 1.1292240402146884e+01 2.9763993277186316e+01 0 1 0
2599 1 3.6521040514728109e+00 6.2450793630642156e+00 3.3305946776566593e+01 3 1 -1
3043 1 3.5433615233152329e+00 6.0953062369832978e+00 3.0397602702218091e+01 -1 3 0
4232 1 7.0401670063987885e+00 1.1984117989236939e-01 3.4222038658396357e+01 3 3 -1
2608 1 7.8877848488097930e+00 5.2917171878328295e+00 3.3391005879939918e+01 0 -4 -1
1341 1 8.0331645738456086e+00 5.5229046301382221e+00 3.0661666033569126e+01 -1 -3 -1
21 1 5.4939474634375474e+00 4.3514503226399484e+00 3.4464589667865738e+01 6 3 0
462 1 4.1444870928557842e+00 8.7053879012764206e+00 3.4061747103863731e+01 7 1 0
1392 1 1.1165915987566422e+01 1.1643194138905690e+01 3.4242996352563331e+01 0 4 -1
434 1 1.9435844205327837e+00 1.0010116504377390e+01 3.3150382983429822e+01 0 1 0
4367 1 1.7854434644907686e+00 1.0233304191681665e+01 3.0343833327783774e+01 4 -1 0
3002 1 6.5038737535764453e+00 9.3709461753804533e+00 3.3281782466469593e+01 1 -1 -1
2882 1 6.4320635725881985e+00 9.9248966213765506e+00 3.0500060809410471e+01 -1 2 0
3467 1 2.1070478570101971e+00 1.0245630792700677e+01 3.7744700057454857e+01 1 0 -1
1323 1 1.0872268041011663e+01 9.1088269463630311e+00 3.3519762042765421e+01 -4 -1 -1
472 1 1.0660152956221934e+01 8.8864508986337452e+00 3.1011266404000157e+01 -1 1 0
1209 1 1.1340826733809097e+01 1.1144730751987368e+01 3.6955556634558242e+01 -1 1 0
1245 1 2.5321291444208045e+00 5.4620072762772798e-01 3.6784029753905457e+01 5 1 0
1800 1 4.6839384069390427e-01 2.1116542496378989e+00 3.7734722979881155e+01 0 -2 -2
1347 1 1.0324785388023939e+01 8.7939394747368240e+00 3.8275790376892878e+01 1 -1 -1
3358 1 4.9050007649058891e+00 1.8785753279994077e+00 3.7965581419821035e+01 -1 1 -1
519 1 9.5047786752594057e+00 1.0301896789304661e+00 3.8003054725734849e+01 1 3 0
1715 1 9.9162140635218865e+00 3.8880673371273446e+00 3.7176326082672311e+01 1 -1 -1
4243 1 1.0646005572728672e+00 5.0563227961566684e+00 3.3912956697792531e+01 4 -2 -1
2987 1 3.1795746478930682e+00 5.8555304223135893e+00 3.7771036624603582e+01 0 0 0
3411 1 9.8686771009551766e-01 4.6249879422717726e+00 3.6703793181672623e+01 2 1 -1
2720 1 5.3390886101927242e+00 4.4730573435218632e+00 3.7243323511206455e+01 5 0 0
1377 1 7.7369822855999217e+00 5.0480390217512259e+00 3.8246275232635973e+01 1 4 -1
4527 1 4.1442040596873229e+00 8.7305895004479428e+00 2.9681779835742617e+01 -1 -2 -1
3774 1 8.5676300132883298e+00 7.6561487782922715e+00 3.4568670270316858e+01 0 2 -1
1870 1 8.2173292649671961e+00 7.6797290245444794e+00 3.7268007013048603e+01 0 -2 0
378 1 3.8371707906644557e+00 8.5116958733242338e+00 3.6967049287345525e+01 2 0 -1
1759 1 6.7638592041783054e+00 1.1922678168686542e+01 3.4050943657936301e+01 -1 0 0
2637 1 7.0383445963374536e+00 4.2626227139270756e-01 2.9737302025919305e+01 1 5 0
3363 1 1.2183706160828226e+01 4.7071912438577037e+00 3.0448122962041126e+01 4 1 -1
3045 1 1.1635435354576677e+01 8.3587423439353201e-02 2.9559336340871653e+01 -5 -1 0
1893 1 5.6665570227889379e+00 4.4392659388857618e+00 2.9992204631898566e+01 -2 1 -1
2899 1 1.2210839041571225e+01 4.7636447082547404e+00 3.8227814796261974e+01 4 1 -1
500 1 1.2098575719706856e+01 4.8711722260812724e+00 3.3204850528214848e+01 6 2 0
4684 1 8.1659665660359959e+00 8.1550571155114095e+00 2.9871695192818652e+01 -3 -3 0
4217 1 1.2129496897159184e+01 7.3157244949353091e+00 3.7133049224752661e+01 -2 0 0
515 1 6.7982332451875047e+00 1.1974256100670603e+01 3.6966047767743596e+01 1 1 -1
972 1 9.8968797766681558e+00 3.8312273383398963e+00 2.9490124296037589e+01 4 4 -1
4326 1 3.1466307982058445e-01 1.4413935676675521e+01 2.7516897802077125e+00 0 2 0
504 1 1.4157784624922554e+00 1.9521991460505710e+01 1.0067383377578951e+01 2 -5 1
440 1 4.6739690062111539e+00 1.3796636600343072e+01 2.9730064612354292e+00 -1 6 1
3817 1 5.2041297847893970e+00 1.6373659228647874e+01 4.0531942602978841e+00 -1 0 1
412 1 8.8800188015003254e+00 1.3277371015461082e+01 2.7312355109588937e+00 3 1 1
1732 1 9.4896686673048816e+00 1.5851610828259766e+01 3.8520124576253520e+00 -1 2 1
3807 1 3.4945173970573733e+00 1.8128889019541287e+01 3.1764985961289836e+00 -2 1 0
2543 1 1.1671896083737840e+00 1.6961964947525459e+01 3.8989635216677732e+00 5 3 0
3067 1 3.8965878917157095e+00 2.0579861166860518e+01 4.2602132566356525e+00 1 0 0
2887 1 7.5520011815510513e+00 1.7335694600061171e+01 2.5346220803194361e+00 -4 -1 0
3465 1 8.0869044181881922e+00 1.9788450974585043e+01 3.6651094597164113e+00 3 0 0
2044 1 6.5924853417485254e+00 2.4085065389531000e+01 3.3801634178790447e+00 2 -2 0
3062 1 1.1232906717636199e+01 2.3543723042003631e+01 6.3645792598594628e+00 4 2 0
2087 1 1.9092238991247481e+00 2.2208573965280049e+01 2.9825906175092403e+00 5 1 1
101 1 6.1237606133182911e+00 2.1390056262645903e+01 2.7659300919971503e+00 2 0 0
915 1 8.8165502597368590e+00 2.2422701763579667e+01 1.0147214017955418e+01 1 -5 1
4533 1 1.0317104154787296e+01 2.0807659670667345e+01 2.6175414098863743e+00 1 7 1
970 1 1.0860966306770994e+01 2.3177789093411040e+01 3.5957377593141664e+00 -1 0 0
2934 1 2.8785932893278123e+00 1.5253686571187650e+01 7.6044858972220561e+00 1 -4 1
184 1 2.4582115818871846e+00 1.2692032367818594e+01 6.6034175757425277e+00 1 -2 0
1836 1 1.2046877349209092e+01 1.6731537050491582e+01 2.8792248425371643e+00 -2 0 0
1299 1 2.2599926925916995e+00 1.2705377483085172e+01 3.7185815602347216e+00 4 -4 1
2183 1 7.3509044587845249e+00 1.4341374235034770e+01 7.4916380575979762e+00 2 0 1
81 1 5.3244100809496073e+00 1.6214941941777365e+01 6.8522745170385591e+00 2 -3 0
169 1 1.0365271432609777e+01 1.8338046446171781e+01 1.0018684491171713e+01 -1 0 1
2159 1 1.1827665006481373e+01 1.3957185978782533e+01 7.6854942034914018e+00 1 7 1
2950 1 9.5713907064830330e+00 1.5309851682912079e+01 6.6703490257584415e+00 1 0 1
3484 1 1.6060812933528179e+00 1.9400421516738486e+01 7.4519162243734600e+00 1 2 1
41 1 1.0631563545211464e+00 1.6743521102625447e+01 6.7204785449393034e+00 0 0 1
3548 1 4.0626460035832146e+00 2.0457606812716374e+01 7.1773161329817503e+00 0 0 1
2876 1 7.4100752447401508e+00 1.4423680505577838e+01 1.0220117899302082e+01 -2 0 0
23 1 5.9331550807076425e+00 1.8653246844636925e+01 7.6892118780284964e+00 2 -1 1
1776 1 8.2730764071269061e+00 1.9582981174395076e+01 6.3847448427860973e+00 -2 3 1
457 1 5.8286154592111368e+00 1.8981242941587389e+01 1.0299578396891929e+01 1 1 1
1749 1 8.6034029958302547e+00 2.2494387698004534e+01 7.3363177909414512e+00 0 -3 1
1754 1 1.0136450080830803e+01 1.7892535170068605e+01 7.4266691410019714e+00 -3 -1 1
4268 1 6.6998722917528104e+00 2.4433132636220932e+01 6.1300152440218652e+00 0 3 1
2152 1 4.3806774063536835e+00 2.3246762251739469e+01 7.3701576432851121e+00 -3 0 1