
# Create simulation box and atoms

read_data data.ML_graphite_1atm_240K
  orthogonal box = (0 0 2.18931) to (49.22 49.0196 37.8107)
  4 by 4 by 4 MPI processor grid
  reading atoms ...
  4990 atoms
  reading velocities ...
  4990 velocities
group water type 1
2230 atoms in group water
group graphite type 2
2760 atoms in group graphite

# Define potential

pair_style sw
pair_coeff * * MLC_e.sw mW C


# Fix graphite atoms in place

fix 5 graphite setforce 0.0 0.0 0.0
velocity graphite set 0.0 0.0 0.0


# Equilibration of molecular water

# Add velocity/set timestep

velocity	    water create ${TEMP} ${SEED} rot yes dist gaussian
velocity	    water create 240 ${SEED} rot yes dist gaussian
velocity	    water create 240 14081 rot yes dist gaussian
timestep	    5.0

# Define output

compute			1 water msd
compute			3 water temp
thermo	    	50
thermo_style	custom step temp press vol etotal ke pe c_1[4] c_3

# Neighbor lists

neigh_modify    delay 0 every 1 check yes

# Set fixes

fix             1 water momentum 10 linear 1 1 1 rescale
fix             2 water nve
fix             3 water temp/csvr ${TEMP} ${TEMP} 500.0 ${SEED}
fix             3 water temp/csvr 240 ${TEMP} 500.0 ${SEED}
fix             3 water temp/csvr 240 240 500.0 ${SEED}
fix             3 water temp/csvr 240 240 500.0 14081
fix             4 water press/berendsen z ${PRES} ${PRES} 1000.0 modulus 20000
fix             4 water press/berendsen z 1 ${PRES} 1000.0 modulus 20000
fix             4 water press/berendsen z 1 1 1000.0 modulus 20000

# Run 0.5 ns equilibration

dump		    1 all atom 2000 ${DIR}/eq.${NAME}-${TEMP}.dump
dump		    1 all atom 2000 run_9/eq.${NAME}-${TEMP}.dump
dump		    1 all atom 2000 run_9/eq.het_freeze_9-${TEMP}.dump
dump		    1 all atom 2000 run_9/eq.het_freeze_9-240.dump

reset_timestep  0

run	            100000
Neighbor list info ...
  update every 1 steps, delay 0 steps, check yes
  max neighbors/atom: 2000, page size: 100000
  master list distance cutoff = 6.67472
  ghost atom cutoff = 6.67472
  binsize = 3.33736, bins = 15 15 11
  1 neighbor lists, perpetual/occasional/extra = 1 0 0
  (1) pair sw, perpetual
      attributes: full, newton on
      pair build: full/bin/atomonly
      stencil: full/bin/3d
      bin: standard
Per MPI rank memory allocation (min/avg/max) = 4.094 | 4.225 | 4.497 Mbytes
Step Temp Press Volume TotEng KinEng PotEng c_1[4] c_3 
       0     107.2279   -141.85038    85945.351   -21384.105    1594.6141   -22978.719            0          240 
      50    107.51334   -612.74135    85923.535   -21369.539    1598.8589   -22968.398   0.51413116    240.63887 
     100    105.56712    -210.5593     85838.39   -21429.008    1569.9163   -22998.924   0.86758377    236.28281 
     150      106.645   -662.64165    85831.434   -21431.476    1585.9457   -23017.421    1.1418584    238.69534 
     200    108.29537   -336.65535    85826.204   -21405.607    1610.4887   -23016.096    1.4099072    242.38922 
     250    109.31051   -553.30723    85840.848   -21417.891    1625.5851   -23043.476    1.7295979    244.66133 
     300    109.14836   -322.70292      85832.7   -21424.143    1623.1737   -23047.317     2.010531    244.29841 
     350    108.36197   -405.51313    85793.875   -21415.572    1611.4791   -23027.051    2.3270359    242.53829 
     400    105.10855   -328.30719    85872.194   -21427.759    1563.0968   -22990.855    2.5725012    235.25643 
     450    108.71104   -669.85918    85800.084    -21442.58    1616.6703    -23059.25    2.7671591     243.3196 
     500    106.29131   -588.83498    85751.009   -21442.123    1580.6859   -23022.809    2.9884983    237.90371 
     550    106.36246   -231.98085    85788.691   -21427.073     1581.744   -23008.817    3.1300111    238.06295 
     600    105.73637   -51.931721    85874.927   -21404.177    1572.4333    -22976.61    3.3643352    236.66163 
     650     109.2044   -329.86573    86000.489   -21404.952    1624.0071   -23028.959     3.710091    244.42384 
     700    106.42329   -636.23118     86122.53   -21405.052    1582.6485     -22987.7    4.0125267    238.19909 
     750    105.01567   -448.06381    86080.941    -21415.88    1561.7155   -22977.595    4.2531509    235.04853 
     800      110.534   -436.30784    86084.346   -21352.643    1643.7799   -22996.423     4.521409    247.39978 
     850    109.47496   -493.50259     86142.22   -21372.867    1628.0307   -23000.897    4.8564559    245.02941 
     900     107.5746    47.630548    86210.467   -21394.802    1599.7699   -22994.572    5.0700466    240.77598 
     950    108.16636   -432.73387    86302.985   -21413.761    1608.5702   -23022.331    5.2389873    242.10049 
    1000    109.66758   -276.20772    86399.604   -21391.058    1630.8953   -23021.953    5.4267457    245.46055 
    1050    108.21228     -204.333     86399.67   -21387.788    1609.2531   -22997.041    5.7002863    242.20325 
    1100    107.60559   -217.15393    86399.386   -21357.459    1600.2309    -22957.69    5.9696265    240.84536 
    1150    106.01641   -457.08268    86378.951   -21389.562    1576.5978    -22966.16    6.2550248    237.28842 
    1200    108.26216    -503.5725    86333.631   -21425.232    1609.9949   -23035.227     6.425055    242.31491 
    1250     106.2852   -628.40931    86295.648   -21444.161     1580.595   -23024.756    6.6072876    237.89002 
    1300    103.70185    -552.8648    86235.711   -21452.001    1542.1773   -22994.178    6.8172675     232.1079 
    1350    103.82548   -238.92417    86209.092    -21447.79    1544.0158   -22991.806    7.1078125    232.38462 
    1400    107.39872   -493.00072    86203.398   -21450.115    1597.1544    -23047.27    7.3770269    240.38233 
    1450    104.51086   -638.85019    86144.916   -21462.667    1554.2084   -23016.875    7.6555459    233.91867 
    1500    104.66783   -175.84547    86138.532    -21464.62    1556.5426   -23021.163    7.8737415    234.26999 
    1550    103.65554   -339.65811    86119.748   -21438.371    1541.4886    -22979.86    8.2788821    232.00426 
    1600    108.10745    102.51443    86126.785   -21433.851    1607.6941   -23041.546    8.4930336    241.96862 
    1650    106.69684   -81.284695    86211.888   -21430.796    1586.7165   -23017.513    8.6784785    238.81136 
    1700    106.67257   -282.18797    86201.182   -21460.978    1586.3556   -23047.333     8.845787    238.75704 
    1750    105.87038   -137.79189    86302.809   -21453.385    1574.4261   -23027.811    9.0498539    236.96156 
    1800    104.89328   -336.98041    86283.755    -21464.28    1559.8953   -23024.175    9.2247583    234.77459 
    1850    106.71444   -509.77932    86344.611   -21437.292    1586.9784   -23024.271    9.5002465    238.85077 
    1900    109.50183   -354.02522    86360.011   -21386.203    1628.4303   -23014.633     9.713888    245.08956 
    1950    107.72865    -109.9575    86453.702   -21378.923    1602.0609   -22980.984    9.8076377    241.12078 
    2000    106.93461   -509.53977    86481.063   -21419.193    1590.2526   -23009.445    10.058872    239.34356 
    2050    108.17158   -281.11873    86470.488   -21444.601    1608.6478   -23053.249     10.25424    242.11216 
    2100    105.52162   -244.64693    86427.428   -21454.576    1569.2396   -23023.816     10.53079    236.18096 
    2150     107.1525    -285.7606    86384.424   -21448.883    1593.4928   -23042.376    10.916591    239.83122 
    2200    106.18159   -454.40802     86409.69   -21444.258    1579.0541   -23023.312    11.092734    237.65812 
    2250    108.71982   -728.90667    86426.419   -21434.546    1616.8008   -23051.346    11.315373    243.33924 
    2300     107.7651   -554.05668    86489.237    -21451.24     1602.603   -23053.843    11.599559    241.20238 
    2350    104.56263   -665.20223    86419.122   -21451.257    1554.9782   -23006.235    11.813625    234.03453 
    2400    104.71428    -449.1122    86443.582   -21462.175    1557.2334   -23019.408    12.207739    234.37395 
    2450    104.37924   -703.55116    86379.239   -21454.824     1552.251   -23007.075     12.44322    233.62407 
    2500    104.83035    -330.3084    86310.975   -21464.706    1558.9596   -23023.665    12.639097    234.63375 
    2550    103.44727   -395.26695    86377.375   -21492.916    1538.3914   -23031.308    12.901951     231.5381 
    2600    106.62898   -392.08313    86387.552   -21474.339    1585.7075   -23060.047    13.333512    238.65949 
    2650    106.74253   -705.99916    86455.531   -21458.465     1587.396   -23045.861     13.47397    238.91363 
    2700    105.53109    27.216799      86497.2   -21505.447    1569.3804   -23074.828     13.77929    236.20215 
    2750    107.15832   -658.47523    86551.054   -21487.929    1593.5794   -23081.508    14.029844    239.84427 
    2800    107.15717    -460.4776    86585.096   -21512.632    1593.5623   -23106.195    14.362592     239.8417 
    2850    105.09257   -662.48403     86620.88   -21514.248    1562.8591   -23077.107    14.446909    235.22065 
    2900    106.74604     -517.393    86603.327   -21471.699    1587.4482   -23059.147    14.589193    238.92149 
    2950    106.11444   -356.35908    86588.924   -21485.899    1578.0556   -23063.955    14.702431    237.50784 
    3000    105.76027   -298.30323    86540.987   -21492.089    1572.7886   -23064.878    14.784024    236.71511 
    3050    107.47417   -210.21575    86583.598   -21479.023    1598.2765   -23077.299    14.924389    240.55122 
    3100     103.4793   -279.83163    86587.064   -21515.491    1538.8677   -23054.359    15.189157    231.60979 
    3150    106.23029   -95.752361     86499.91   -21515.931    1579.7785   -23095.709    15.505992    237.76713 
    3200    104.79392   -167.92018    86530.853   -21503.309    1558.4178   -23061.727    15.752564    234.55221 
    3250    107.83525   -225.71647    86579.375   -21488.107    1603.6463   -23091.753    15.950575    241.35939 
    3300    105.25013   -376.20748    86648.987   -21473.226    1565.2022   -23038.429    16.071404    235.57331 
    3350    106.50741   -178.01886    86597.038   -21489.973    1583.8995   -23073.873    16.216683    238.38738 
    3400    106.48657    -448.3856    86541.459   -21489.529    1583.5896   -23073.118    16.295616    238.34074 
    3450    107.49819   -365.58536    86611.094   -21507.025    1598.6337   -23105.659    16.524154    240.60497 
    3500    105.07837   -532.64832     86658.83   -21541.113    1562.6479   -23103.761    16.900018    235.18886 
    3550    107.27384    -707.0372    86673.122   -21484.903    1595.2973     -23080.2    17.055895    240.10282 
    3600    103.77111   -593.83951    86665.355   -21493.271    1543.2073   -23036.478    17.081455    232.26293 
    3650    107.62722   -252.15115    86687.859   -21462.404    1600.5525   -23062.957    17.186059    240.89376 
    3700    107.91487   -476.76856    86674.836   -21490.597    1604.8302   -23095.428    17.352249    241.53759 
    3750    107.90635   -180.69075    86715.289   -21469.868    1604.7035   -23074.571    17.455698    241.51852 
    3800    107.28638   -210.12594    86772.287   -21475.461    1595.4838   -23070.945    17.648554    240.13089 
    3850    110.82004   -275.75148    86818.814   -21450.809    1648.0338   -23098.843    17.767681    248.04001 
    3900    109.81551   -11.710312    86913.426   -21465.909    1633.0952   -23099.004     18.01914    245.79165 
    3950    108.87817   -175.85728    87025.921   -21457.134    1619.1557    -23076.29    18.004895    243.69366 
    4000    107.04145   -570.36354    87041.511   -21464.425    1591.8414   -23056.267    18.176257    239.58268 
    4050     108.5119   -402.83354    87062.393   -21471.975    1613.7088   -23085.683    18.521482    242.87387 
    4100    106.83918   -441.88965    87078.045   -21459.361    1588.8334   -23048.194    18.710901    239.12996 
    4150    107.10527   -281.42809    87065.946   -21462.737    1592.7905   -23055.527    18.755308    239.72553 
    4200      106.974    -350.3062    87042.934   -21475.528    1590.8383   -23066.366       18.899    239.43171 
    4250    109.33525   -440.89358    87001.071   -21491.334     1625.953   -23117.287    19.082394    244.71671 
    4300    110.38741   -414.98049    86994.118   -21461.902    1641.6001   -23103.502     19.17638    247.07169 
    4350    109.67696   -365.08071     87096.64   -21455.146    1631.0348   -23086.181    19.311511    245.48154 
    4400    110.69554   -570.48221    87117.911    -21436.52    1646.1823   -23082.702    19.349462    247.76135 
    4450    109.84902   -316.79996    87035.049   -21472.298    1633.5935   -23105.891    19.530573    245.86665 
    4500    109.13215   -93.942956    87059.823   -21452.424    1622.9327   -23075.356    19.866886    244.26214 
    4550     106.0862   -376.51996    87176.014   -21477.777    1577.6356   -23055.412    20.040156    237.44462 
    4600    105.70766   -441.06192    87137.471   -21460.618    1572.0063   -23032.624    20.239254    236.59737 
    4650    103.82849   -611.01875    87142.384     -21498.4    1544.0606    -23042.46    20.357853    232.39135 
    4700    107.72053   -828.93063    87068.389    -21506.65    1601.9402   -23108.591    20.523315    241.10262 
    4750    107.66239   -656.33328    87095.781   -21510.347    1601.0756   -23111.422    20.798398    240.97249 
    4800    106.36061   -181.02788     87143.05   -21492.886    1581.7164   -23074.603    20.996767     238.0588 
    4850    109.48925   -642.25128    87101.757   -21480.244    1628.2433   -23108.487    20.997548    245.06141 
    4900    107.92383    -356.7578    87131.985   -21503.423    1604.9635   -23108.386    21.252237    241.55764 
    4950    106.81873   -233.48871    87132.432   -21484.836    1588.5292   -23073.365    21.446857    239.08418 
    5000    108.16123   -272.91333    87099.625   -21459.903     1608.494   -23068.397    21.693876      242.089 
    5050    107.08964   -306.40087    87122.746   -21454.645     1592.558   -23047.203    22.115174    239.69053 
    5100    109.02959   -293.62175     87174.29   -21422.797    1621.4076   -23044.204    22.377019    244.03259 
    5150    107.73079    -536.7986    87089.665   -21440.025    1602.0928   -23042.118    22.636417    241.12558 
    5200    105.50096   -330.05815    87020.254   -21410.782    1568.9323   -22979.714    22.867634    236.13472 
    5250    107.09427   -323.89478    87025.079   -21451.429    1592.6269   -23044.056    23.077286     239.7009 
    5300    109.23615   -797.52536    87017.594   -21388.128    1624.4794   -23012.607    23.198089    244.49491 
    5350    108.07138   -544.43138    86992.112   -21416.796    1607.1577   -23023.953    23.267019    241.88788 
    5400    107.91876   -507.88015    87017.068   -21392.718     1604.888   -22997.606    23.387707    241.54629 
    5450    106.28317    -592.3418     86940.33   -21388.654    1580.5648   -22969.219    23.520249    237.88548 
    5500    104.91367   -736.36475    86880.358   -21415.985    1560.1986   -22976.184    23.612454    234.82023 
    5550    105.89161   -475.38155    86858.393   -21398.937    1574.7418   -22973.679    23.775269    237.00907 
    5600    107.84953   -428.65437    86760.953   -21377.777    1603.8586   -22981.635    23.965991    241.39135 
    5650    109.17822   -312.55203    86760.893   -21370.174    1623.6178   -22993.792    24.252067    244.36524 
    5700    105.93933    -232.7586    86743.541   -21351.916    1575.4514   -22927.368    24.433503    237.11589 
    5750    106.35311   -564.16585    86697.007   -21397.233    1581.6049   -22978.838     24.53642    238.04203 
    5800    108.79232   -284.20069    86690.759    -21394.49     1617.879    -23012.37    24.601708    243.50152 
    5850    109.15217   -493.81939    86634.938   -21410.994    1623.2305   -23034.225    24.911408    244.30695 
    5900    108.74403   -189.92362    86644.923   -21400.737    1617.1609   -23017.898    25.091795    243.39344 
    5950    109.83365   -245.56824     86696.23   -21397.905    1633.3649    -23031.27    25.320852    245.83225 
    6000    105.84555   -651.98679    86647.975   -21388.225    1574.0568   -22962.282    25.316792    236.90598 
    6050    109.83471   -400.31711    86612.915    -21419.19    1633.3807   -23052.571    25.537412    245.83463 
    6100    107.22104   -616.71356    86598.095   -21419.881    1594.5122   -23014.393    25.835824    239.98465 
    6150    107.58064   -703.09979    86570.405   -21447.054    1599.8599   -23046.914    25.988228    240.78952 
    6200    109.10793   -247.27748    86582.571   -21407.798    1622.5725   -23030.371    25.909415    244.20792 
    6250    109.47891   -587.62769    86585.097   -21372.512    1628.0895   -23000.602    25.897994    245.03826 
    6300    108.90997   -251.78951     86544.51   -21353.823    1619.6286   -22973.452    25.989336    243.76484 
    6350    109.48071    -303.6847    86480.568   -21364.945    1628.1162   -22993.061    26.140296    245.04229 
    6400    107.39691   -384.19359    86478.094   -21427.704    1597.1275   -23024.832    26.522689    240.37828 
    6450    101.97415   -504.65435    86421.129   -21492.477    1516.4843   -23008.961     26.70678    228.24094 
    6500    105.75996   -299.92206    86414.238   -21436.731     1572.784   -23009.515    26.557687    236.71442 
    6550     107.4894   -315.03103    86405.644   -21438.703     1598.503   -23037.206    26.584689     240.5853 
    6600    105.76338   -199.69308    86442.864   -21409.892    1572.8348   -22982.727    26.948419    236.72206 
    6650    108.14503   -160.56319    86461.662   -21406.835     1608.253   -23015.088    27.162269    242.05273 
    6700    109.02822   -323.32918    86456.429   -21414.834    1621.3872   -23036.222    27.301956    244.02952 
    6750    107.44484   -509.01355    86395.284   -21421.023    1597.8403   -23018.863    27.480796    240.48556 
    6800    104.03377   -227.77772    86381.252   -21442.432    1547.1133   -22989.546    27.836584    232.85081 
    6850     107.7231   -531.07015    86388.589   -21418.744    1601.9784   -23020.723    28.044463    241.10837 
    6900    106.86482   -503.39797    86382.075   -21462.188    1589.2147   -23051.403    28.372619    239.18735 
    6950    108.02102   -400.48749    86433.953   -21482.314    1606.4089   -23088.723    28.675215    241.77518 
    7000    106.59554   -350.77958    86424.238   -21460.967    1585.2101   -23046.178    28.672416    238.58463 
    7050     106.2312   -570.34055    86396.629   -21494.629    1579.7919   -23074.421    28.813855    237.76915 
    7100    103.18097   -609.29729    86358.446   -21489.108    1534.4312   -23023.539    28.897232    230.94206 
    7150    108.24621   -593.11772    86344.432   -21438.535    1609.7577   -23048.292    29.119039     242.2792 
    7200     107.0334   -665.16009    86350.906    -21445.13    1591.7216   -23036.852    29.343169    239.56466 
    7250    104.86787   -572.88294    86348.082   -21452.569    1559.5176   -23012.086    29.410314    234.71773 
    7300    108.20168   -374.63649    86372.307   -21442.722    1609.0955   -23051.817    29.497619    242.17953 
    7350    107.63875     -493.913    86344.998   -21407.168     1600.724   -23007.892    29.760619    240.91957 
    7400    105.76895     -394.319    86336.813   -21445.597    1572.9176   -23018.515    29.936424    236.73453 
    7450    107.62986   -432.02401    86378.223   -21397.385    1600.5918   -22997.977    30.159447    240.89968 
    7500    107.04037    -657.9444    86416.763   -21403.113    1591.8253   -22994.938    30.502297    239.58026 
    7550    105.69933   -509.05748    86443.395   -21400.149    1571.8824   -22972.031    30.515015    236.57872 
    7600    107.04793   -524.41186    86487.263   -21383.404    1591.9377   -22975.342    30.677729    239.59717 
    7650    106.71394   -436.08857    86487.102   -21425.943    1586.9708   -23012.913    30.922512    238.84963 
    7700    107.15889   -335.71761    86535.442   -21430.252    1593.5878    -23023.84    31.223411    239.84553 
    7750    108.34715   -452.63644    86543.395   -21456.374    1611.2587   -23067.632    31.502459    242.50512 
    7800    105.70069   -475.82425    86552.194   -21472.621    1571.9026   -23044.524    31.525466    236.58177 
    7850    105.77262   -521.97513      86582.6   -21469.877    1572.9723   -23042.849    31.587836    236.74276 
    7900    107.04621   -301.66218    86608.507   -21470.617    1591.9121   -23062.529     31.83136    239.59332 
    7950      106.999   -781.74891    86647.005   -21453.675    1591.2101   -23044.885    31.882302    239.48767 
    8000     106.7528   -530.37105    86682.866    -21480.13    1587.5488   -23067.679    31.983495    238.93662 
    8050    105.94388   -245.40498    86695.434   -21463.186    1575.5191   -23038.705    32.424583    237.12607 
    8100    107.43135   -291.24317    86741.227   -21434.045    1597.6397   -23031.685    32.718914    240.45537 
    8150    106.57666   -586.62085    86744.779   -21471.163    1584.9294   -23056.093    32.851977    238.54238 
    8200     104.7262   -367.09996    86703.011   -21478.368    1557.4107   -23035.779    33.232465    234.40063 
    8250    109.87566   -157.66089    86641.952   -21437.569    1633.9897   -23071.559     33.33483    245.92628 
    8300    109.71489   -596.88168     86655.92    -21397.47    1631.5988   -23029.069    33.640745    245.56643 
    8350    107.84346   -728.67353     86640.06   -21417.519    1603.7683   -23021.287    33.925047    241.37777 
    8400    109.74121   -548.49709    86601.853   -21380.925    1631.9903   -23012.916    34.423607    245.62536 
    8450    107.83644   -360.35139    86551.267   -21430.538    1603.6639   -23034.201    34.800995    241.36205 
    8500     107.2448   -730.28256    86494.249   -21442.227    1594.8655   -23037.092    34.980105    240.03783 
    8550    105.92164   -194.41098    86602.177   -21438.316    1575.1884   -23013.505    34.993755     237.0763 
    8600    106.83412   -505.17058    86672.797   -21457.688    1588.7581   -23046.446    35.356336    239.11863 
    8650    106.46909   -110.53265    86714.288   -21478.589    1583.3297   -23061.918     35.50271    238.30162 
    8700    103.93427   -77.859698    86726.881   -21499.504    1545.6337   -23045.138    35.743828    232.62812 
    8750    109.01056   -504.67523    86759.319   -21425.112    1621.1245   -23046.236    35.927961    243.98999 
    8800    107.03598    -470.5438    86787.418   -21442.998      1591.76   -23034.758    35.956357    239.57044 
    8850    106.98443   -352.90282    86803.634   -21413.785    1590.9934   -23004.778    36.445736    239.45506 
    8900    108.31644   -369.52063    86803.533   -21416.486    1610.8021   -23027.288    36.690629     242.4364 
    8950    106.44905   -592.69027    86731.025   -21400.163    1583.0316   -22983.195    36.916144    238.25675 
    9000    105.28349   -338.01804    86675.764   -21402.351    1565.6983   -22968.049    37.231643    235.64797 
    9050    108.33115   -368.31205    86694.212   -21424.767    1611.0208   -23035.787    37.476167    242.46931 
    9100    108.28045   -456.87723    86656.347   -21410.454    1610.2669    -23020.72    37.408104    242.35584 
    9150    108.85528   -401.78708    86619.934   -21346.222    1618.8153   -22965.037    37.661992    243.64243 
    9200    109.80504   -644.72819    86615.105   -21371.592    1632.9394   -23004.532    37.768875     245.7682 
    9250    109.83666   -740.04583    86590.666   -21378.798    1633.4097   -23012.208     38.06301    245.83899 
    9300    107.42917   -559.19925    86619.438   -21431.386    1597.6073   -23028.993    38.211051    240.45048 
    9350    106.43864   -434.49281    86623.968   -21480.578    1582.8768   -23063.455    38.040282    238.23345 
    9400    107.16968   -443.46373    86554.897   -21503.356    1593.7483   -23097.105    38.056984    239.86968 
    9450    108.60533   -510.21929    86563.074   -21467.124    1615.0983   -23082.223    38.229884      243.083 
    9500    111.19087   -183.02386    86616.859   -21453.842    1653.5484   -23107.391    38.409315       248.87 
    9550    106.88134   -158.79717    86611.321   -21429.085    1589.4603   -23018.545    38.667479    239.22431 
    9600    108.37148   -500.82774    86556.259   -21430.449    1611.6205   -23042.069    39.048407    242.55958 
    9650    105.87358   -373.27885    86598.113   -21438.066    1574.4738    -23012.54    39.247534    236.96874 
    9700    109.20914   -609.50558    86611.004   -21432.182    1624.0777    -23056.26    39.388022    244.43446 
    9750    106.39122   -95.049911    86596.252   -21430.629    1582.1716     -23012.8    39.389118    238.12732 
    9800    105.91756   -244.38311    86682.276    -21409.71    1575.1278   -22984.837    39.518517    237.06717 
    9850     108.0365   -209.56725    86692.585   -21451.397     1606.639   -23058.036    39.637992    241.80982 
    9900    108.74951   -316.34065    86732.882   -21453.121    1617.2424   -23070.363    39.986061     243.4057 
    9950    105.83878   -776.85377    86676.413   -21522.891    1573.9562   -23096.847    40.444959    236.89084 
   10000    106.99026   -407.86718    86639.032   -21516.931    1591.0801   -23108.011    40.811248    239.46811 
   10050    106.53192   -364.42825    86661.658   -21497.712    1584.2641   -23081.976    40.996647    238.44224 
   10100    107.47064    -524.6082    86668.121   -21514.079     1598.224   -23112.303    41.149761     240.5433 
   10150    106.09682   -547.65677    86640.243   -21527.021    1577.7935   -23104.815    41.184107    237.46838 
   10200    105.43561   -318.69909    86585.986   -21525.278    1567.9606   -23093.239    41.080125    235.98846 
   10250    109.96621   -332.26501     86574.33   -21523.224    1635.3363    -23158.56    41.136023    246.12895 
   10300    103.69982   -141.02796     86632.47   -21514.052    1542.1472   -23056.199     41.34781    232.10337 
   10350    105.00614    -326.0939    86599.548    -21566.35    1561.5738   -23127.923     41.50353     235.0272 
   10400    106.99872   -199.28429     86591.86   -21589.164    1591.2059    -23180.37    41.601667    239.48704 
   10450    103.97308   -488.59017    86614.803   -21553.141    1546.2109   -23099.352    41.791064    232.71499 
   10500    106.40618   -230.16971    86584.283    -21563.31    1582.3941   -23145.704    41.851006    238.16081 
   10550    104.43046   -154.91078    86556.721   -21596.972    1553.0127   -23149.985    41.797238     233.7387 
   10600    105.51299   -253.11453    86542.954   -21582.659    1569.1113    -23151.77    41.908573    236.16165 
   10650    104.46626   -52.019387    86575.509   -21584.572     1553.545   -23138.117    42.315005    233.81882 
   10700    106.08566   -290.64593    86636.102   -21545.309    1577.6276   -23122.937    42.511155    237.44341 
   10750    106.19584   -309.54138    86574.673   -21583.879     1579.266   -23163.145    42.877453    237.69001 
   10800    105.30661   -348.72202     86596.33   -21566.561    1566.0421   -23132.603    43.141367    235.69972 
   10850    103.18975   -582.34475     86579.98   -21575.856    1534.5617   -23110.418    43.241337    230.96171 
   10900    105.66264   -195.80697    86556.793   -21585.525    1571.3367   -23156.862    43.269957    236.49659 
   10950    107.48738   -409.23745    86569.033   -21580.586    1598.4729   -23179.059    43.498741    240.58077 
   11000    106.02509    -351.2449    86513.694   -21583.559    1576.7269   -23160.286    43.610252    237.30785 
   11050    106.41926   -48.748156    86603.201   -21543.004    1582.5886   -23125.593    43.699048    238.19007 
   11100    107.64952   -97.766587    86663.172   -21517.335    1600.8842   -23118.219    43.744609    240.94368 
   11150    106.33843   -274.60243    86749.979   -21518.947    1581.3866   -23100.334    43.871209    238.00916 
   11200    107.23418   -461.16485     86778.27     -21515.4    1594.7076   -23110.108    43.884493    240.01406 
   11250    106.56957   -253.43926    86827.097   -21516.741    1584.8239   -23101.565    43.965018     238.5265 
   11300    108.25075    56.996177    86895.677   -21504.582    1609.8251   -23114.407     44.06869    242.28935 
   11350    106.53905   -325.47723    86945.978   -21536.675    1584.3701   -23121.045    44.217275     238.4582 
   11400    105.43366   -96.432916     86977.89   -21553.422    1567.9316   -23121.353    44.421092    235.98409 
   11450    103.81074   -373.35989    86955.606   -21524.136    1543.7966   -23067.933    44.552308    232.35163 
   11500    109.27167   -659.86159    86879.966   -21528.689    1625.0075   -23153.696    44.541284    244.57441 
   11550    106.88326   -474.53774    86873.696   -21562.447    1589.4889   -23151.936     44.88648    239.22861 
   11600    108.05791   -412.72395    86840.584   -21528.242    1606.9574     -23135.2    45.111126    241.85774 
   11650    106.41927   -325.68891    86837.841   -21536.577    1582.5888   -23119.166    45.203525    238.19011 
   11700     107.4372   -596.47274    86849.146   -21599.343    1597.7267    -23197.07    45.550836    240.46845 
   11750    103.76657   -131.90267    86727.658   -21615.418    1543.1398   -23158.558    45.704246    232.25278 
   11800    104.87368    -165.9957    86741.676   -21603.402     1559.604   -23163.006    45.812622    234.73074 
   11850     107.5077   -508.24638    86749.176   -21589.872    1598.7752   -23188.647    46.137646    240.62626 
   11900    107.21051   -376.68641     86822.35    -21583.83    1594.3555   -23178.186    46.175122    239.96107 
   11950    104.78906    -255.2802    86836.836   -21559.704    1558.3455   -23118.049    46.596742    234.54132 
   12000    102.51876   -255.53748    86870.714   -21564.445    1524.5833   -23089.029    46.809059     229.4599 
   12050    104.82981   -364.82399    86876.749   -21566.272    1558.9515   -23125.223    47.073558    234.63253 
   12100    106.32467   -349.91713    86893.185   -21538.083    1581.1819   -23119.265    47.194334    237.97836 
   12150     108.3801   -43.238415    86908.805   -21512.943    1611.7488   -23124.692    47.263371    242.57887 
   12200    110.74496   -676.37455    86882.597   -21499.485    1646.9172   -23146.402    47.452656    247.87196 
   12250    107.04774   -437.22165    86809.982   -21495.039    1591.9349   -23086.974    47.714916    239.59675 
   12300    109.31127   -200.44224     86860.12   -21505.709    1625.5965   -23131.305    47.929786    244.66304 
   12350    107.07275   -102.47878    86929.787   -21499.793    1592.3068     -23092.1    48.107696    239.65273 
   12400    110.50384   -658.15111    86952.729   -21481.135    1643.3315   -23124.467    48.142381    247.33229 
   12450    109.53933   -299.48633     86909.06    -21464.25    1628.9881   -23093.239    48.279644     245.1735 
   12500    106.85211   -430.23221    86881.283   -21472.353    1589.0257   -23061.379    48.328614     239.1589 
   12550    104.18815   -42.366064    86855.598   -21511.516    1549.4092   -23060.925    48.612664    233.19635 
   12600    103.91341   -366.57133    86908.659   -21539.739    1545.3235   -23085.063    48.981512    232.58144 
   12650    105.23138   -353.41706    86867.424   -21529.367    1564.9234    -23094.29    48.896365    235.53134 
   12700    108.16585   -162.45259    86878.874   -21480.951    1608.5626   -23089.513    48.922751    242.09933 
   12750    107.54587     -796.434    86862.224   -21489.488    1599.3427    -23088.83    49.045615    240.71168 
   12800    107.85765   -584.68481    86898.849   -21486.379    1603.9793   -23090.358    49.644163    241.40952 
   12850    108.49355    -360.9754    86853.605   -21470.831    1613.4359   -23084.267    49.801661     242.8328 
   12900    106.57514   -709.72206    86816.452   -21503.344    1584.9067    -23088.25    49.833922    238.53897 
   12950    105.10596    -465.3361    86745.357   -21552.212    1563.0582    -23115.27    50.111455    235.25062 
   13000    103.82033   -265.36504    86727.182    -21572.64    1543.9393   -23116.579    50.414744     232.3731 
   13050    104.18375   -368.50043      86685.2   -21595.296    1549.3437    -23144.64    50.717196     233.1865 
   13100    106.79261   -247.35193    86664.046   -21572.333    1588.1408   -23160.473    50.852948    239.02572 
   13150    106.00949   -288.34323    86693.843   -21560.727    1576.4948   -23137.222    51.126252    237.27292 
   13200    106.71363   -466.72512    86642.671   -21524.909    1586.9662   -23111.875    51.415556    238.84894 
   13250    106.52076   -182.44802    86632.304   -21526.924     1584.098   -23111.022    51.681504    238.41725 
   13300    106.95534   -552.63259    86656.271   -21540.462    1590.5608   -23131.022    51.834179    239.38995 
   13350    105.51024   -136.95797    86705.709   -21532.713    1569.0703   -23101.783    51.875866    236.15549 
   13400    107.19901   -79.666277    86711.526   -21529.847    1594.1845   -23124.031    52.003327    239.93533 
   13450    107.22939   -152.47549    86804.052   -21506.676    1594.6362   -23101.313    52.292243    240.00333 
   13500    107.93842    -265.0947    86830.615   -21498.128    1605.1804   -23103.308    52.492048    241.59029 
   13550    107.41888   -325.03488    86826.413   -21497.438    1597.4542   -23094.892    52.667053    240.42745 
   13600     107.6789   -359.53065    86845.108   -21512.934    1601.3211   -23114.255    52.814569    241.00945 
   13650    105.67545    -455.8702    86860.933   -21458.747    1571.5273   -23030.274    52.819311    236.52528 
   13700    108.35593   -681.24307    86897.944    -21443.81    1611.3893     -23055.2    53.029344    242.52477 
   13750    106.35378   -426.12965    86922.277   -21442.479    1581.6149   -23024.094    53.614924    238.04353 
   13800     108.6093   -573.58496    86894.752    -21480.75    1615.1573   -23095.907    53.863654    243.09189 
   13850    107.80011   -326.41592    86919.932   -21436.575    1603.1236   -23039.699    54.261219    241.28073 
   13900     109.9664   -337.24054    86878.455   -21437.798    1635.3391   -23073.137    54.574391    246.12938 
   13950    109.50197   -148.75158    86844.631   -21444.285    1628.4324   -23072.718    54.982736    245.08987 
   14000    106.82469    -346.5941    86836.913   -21480.251    1588.6178   -23068.869    55.163121    239.09751 
   14050    106.89281   -281.97185    86815.281   -21462.169    1589.6309     -23051.8    55.454538    239.24998 
   14100    107.42921   -315.69831    86896.266   -21480.828    1597.6078   -23078.436    55.744138    240.45057 
   14150    109.27797   -353.88659    86865.595    -21460.65    1625.1012   -23085.751    55.994871    244.58851 
   14200    109.24656   -406.54162    86843.218   -21448.854    1624.6341   -23073.488     56.15393    244.51821 
   14250     105.3465   -498.59784    86812.328   -21461.797    1566.6353   -23028.432    56.293981      235.789 
   14300    108.13737   -347.07041    86820.226   -21476.933     1608.139   -23085.072    56.502099    242.03559 
   14350    104.79147   -600.48244    86772.115    -21451.24    1558.3813   -23009.621    56.727758    234.54672 
   14400    106.60301   -426.10034    86671.823   -21436.182    1585.3212   -23021.503    56.787536    238.60136 
   14450    108.41551   -438.93184    86640.479   -21446.589    1612.2754   -23058.864    57.017618    242.65814 
   14500    108.31941    -614.0267    86659.556   -21406.769    1610.8462   -23017.616    57.076817    242.44304 
   14550    108.80733   -208.06906    86635.518   -21372.628    1618.1022    -22990.73    57.206891    243.53511 
   14600    111.75027   -527.31925    86666.058   -21416.437    1661.8674   -23078.304    57.320547    250.12207 
   14650    110.23208   -317.52378    86658.232   -21443.307    1639.2901   -23082.597    57.733657    246.72403 
   14700    109.14233   -578.91341    86626.355   -21446.387    1623.0841   -23069.471    57.950773    244.28492 
   14750    109.00124   -55.018382    86593.238   -21449.095    1620.9859   -23070.081     58.14969    243.96912 
   14800    105.49167   -792.38407    86546.722   -21483.472    1568.7941   -23052.267    58.414386    236.11392 
   14850    107.80171   -542.66596    86493.236   -21479.777    1603.1474   -23082.924    58.627049    241.28431 
   14900    106.56754   -93.358698    86505.075   -21478.921    1584.7937   -23063.715    58.806179    238.52196 
   14950    108.14499   -88.571833    86536.036   -21465.632    1608.2524   -23073.884    58.836778    242.05264 
   15000    106.13288   -647.17911    86580.972   -21520.155    1578.3297   -23098.484    59.076911    237.54909 
   15050    107.92893   -381.26906     86627.86    -21528.62    1605.0393   -23133.659    59.197684    241.56905 
   15100    106.10397   -536.94527    86587.061   -21514.969    1577.8998   -23092.869    59.376043    237.48439 
   15150    104.56335   -255.63337    86674.283   -21509.155     1554.989   -23064.144    59.577444    234.03615 
   15200    106.49883   -383.39776    86723.026   -21516.361    1583.7719   -23100.133    60.006071    238.36817 
   15250    105.38923   -207.44897    86768.067   -21490.202    1567.2708   -23057.472    60.026277    235.88465 
   15300    105.34436   -380.07389    86801.601   -21478.486    1566.6034    -23045.09    60.219288     235.7842 
   15350    106.50521   -536.09013    86778.607   -21496.662    1583.8668   -23080.529    60.254346    238.38246 
   15400    103.60555    -633.0281    86743.777   -21484.212    1540.7453   -23024.958    60.320111    231.89238 
   15450    106.84888   -796.63358     86637.82   -21526.472    1588.9776   -23115.449    60.397856    239.15167 
   15500    106.64383   -638.38904    86563.481   -21528.612    1585.9283    -23114.54    60.350007    238.69272 
   15550    104.95231   -269.71817    86572.529   -21545.789    1560.7732   -23106.562     60.39261    234.90671 
   15600     109.3638   -404.37432    86622.116   -21535.816    1626.3777   -23162.194    60.777348    244.78062 
   15650    109.56261   -294.42769     86654.48   -21497.336    1629.3341    -23126.67    60.693431    245.22559 
   15700    106.56644   -479.07231    86654.363     -21495.8    1584.7774   -23080.578    60.815333     238.5195 
   15750    110.57343   -782.03666    86684.288   -21452.501    1644.3663   -23096.867    61.079986    247.48803 
   15800    106.64146   -234.42355    86710.891   -21454.728     1585.893   -23040.621    61.416757     238.6874 
   15850    108.33337   -207.68268    86796.231   -21425.341    1611.0538   -23036.395    61.602743    242.47428 
   15900    107.19398    -213.2097    86748.119   -21454.693    1594.1097   -23048.803    61.770237    239.92408 
   15950    108.84093   -345.46773    86785.616   -21449.274     1618.602   -23067.876      61.9734    243.61033 
   16000    107.73976   -513.64065    86778.437   -21480.577    1602.2262   -23082.804    62.126155    241.14566 
   16050    107.20552    -582.2148     86779.38    -21458.53    1594.2813   -23052.811    61.987789     239.9499 
   16100    107.25238   -227.43172    86717.515   -21448.587    1594.9782   -23043.565    62.451797    240.05479 
   16150    108.59865   -423.95489     86750.53   -21456.699     1614.999   -23071.698    62.782717    243.06805 
   16200    106.89684    -670.7052    86787.165   -21496.312    1589.6909   -23086.003      62.9816    239.25902 
   16250    107.39153    -209.4581    86803.867   -21472.084    1597.0475   -23069.132    63.171006    240.36624 
   16300    109.19936   -456.39946    86894.191    -21487.12    1623.9322   -23111.053    63.566418    244.41257 
   16350    105.31452   -459.65495    86864.737   -21491.586    1566.1598   -23057.746    63.557684    235.71743 
   16400    107.92091   -417.20181    86879.395    -21470.48      1604.92     -23075.4    63.669686    241.55111 
   16450    108.53096   -386.67436    86870.591   -21486.309    1613.9922   -23100.302    63.947457    242.91653 
   16500    107.30644   -245.23635    86922.801   -21466.902    1595.7822   -23062.684    64.332789     240.1758 
   16550    109.42617    54.664338     86983.48   -21463.972    1627.3051   -23091.278    64.409867    244.92021 
   16600    110.41993   -854.79746    86944.389    -21480.99    1642.0837   -23123.074    64.691051    247.14448 
   16650    106.34168   -503.64955    86832.309   -21510.407    1581.4349   -23091.842    64.822804    238.01644 
   16700    108.42908   -308.36298    86804.312   -21475.669    1612.4771   -23088.146    64.956386     242.6885 
   16750    108.48776   -652.70727    86805.528   -21441.389    1613.3498   -23054.739    65.367392    242.81985 
   16800    108.65418   -384.54684    86790.106   -21459.291    1615.8247   -23075.115    65.422451    243.19232 
   16850    104.67544   -427.89493    86706.538   -21491.197    1556.6558   -23047.853    65.559867    234.28702 
   16900    106.45507   -573.91706    86631.111   -21512.882    1583.1211   -23096.003    65.767786    238.27022 
   16950    103.50373   -259.92786    86691.418   -21509.045     1539.231   -23048.276    65.889761    231.66447 
   17000    107.75406   -150.50818    86751.715   -21497.597    1602.4388   -23100.036    66.257353    241.17767 
   17050    105.98033   -236.51264    86790.087   -21478.157    1576.0612   -23054.218    66.146839    237.20766 
   17100    107.32509   -510.80225    86800.845   -21494.947    1596.0595   -23091.006    66.199937    240.21754 
   17150    105.65594   -248.16722    86816.157   -21518.893    1571.2371    -23090.13    66.366956    236.48159 
   17200    103.79474   -478.26281    86810.835   -21503.083    1543.5587   -23046.641    66.693352    232.31582 
   17250    108.18765    -464.0892    86784.894   -21461.116    1608.8868   -23070.003    67.021352    242.14813 
   17300    106.93999   -147.77189    86769.054   -21437.909    1590.3325   -23028.242    67.068002    239.35558 
   17350    110.17918   -426.82659    86828.354   -21395.296    1638.5034   -23033.799    67.458218    246.60562 
   17400    108.37254   -691.06128    86797.784   -21441.389    1611.6364   -23053.026    67.416733    242.56196 
   17450    104.35684   -748.28353    86718.013   -21446.018    1551.9179   -22997.936    67.454474    233.57393 
   17500    106.67528   -702.21478    86722.959   -21418.979    1586.3959   -23005.375     67.58391     238.7631 
   17550    106.59569   -151.78761    86725.163   -21452.923    1585.2124   -23038.136      67.8102    238.58498 
   17600    104.91587   -646.64748    86728.262   -21467.082    1560.2313   -23027.314    68.192291    234.82515 
   17650     108.1362   -746.44617    86731.576   -21459.913    1608.1217   -23068.035    68.241288    242.03298 
   17700    106.89458   -413.97159    86731.847   -21485.806    1589.6573   -23075.463    68.377466    239.25396 
   17750    106.26936   -186.22303    86729.766   -21468.717    1580.3594   -23049.076    68.678754    237.85457 
   17800     106.0125   -805.86661    86739.981   -21533.442    1576.5396   -23109.981    68.983681    237.27966 
   17850    105.12402   -439.78038    86784.025   -21484.769    1563.3268   -23048.096    69.166837    235.29105 
   17900    108.66384   -503.39886    86799.959   -21501.299    1615.9684   -23117.267    69.279566    243.21395 
   17950    107.18019   -355.76149    86691.501   -21492.886    1593.9046    -23086.79    69.827358    239.89321 
   18000    110.27338   -534.55859    86693.885   -21449.138    1639.9043   -23089.042    69.988473    246.81646 
   18050    105.68421   -498.65053    86645.977   -21449.462    1571.6575    -23021.12    70.228167    236.54487 
   18100    105.52977   -438.93638    86616.806   -21504.916    1569.3608   -23074.277    70.008292    236.19921 
   18150    104.67951   -627.43347    86565.095   -21472.333    1556.7163    -23029.05    70.084452    234.29612 
   18200    106.16857   -374.60152    86607.236   -21487.564    1578.8606   -23066.424    70.033844    237.62899 
   18250    105.71571   -347.72763    86624.731   -21536.801    1572.1259   -23108.927    70.049526    236.61537 
   18300    103.50988   -55.989273    86640.041   -21547.156    1539.3224   -23086.478    70.531009    231.67823 
   18350    101.95771   -255.84316    86637.894   -21524.378    1516.2398   -23040.618    70.870859    228.20414 
   18400    103.67847   -81.416795    86655.883    -21548.12    1541.8297    -23089.95    70.968295    232.05559 
   18450    99.761001    -302.5755    86608.921   -21512.769    1483.5719   -22996.341    71.139635    223.28741 
   18500    104.59168   -311.67246     86609.93   -21488.215    1555.4103   -23043.625    71.125526    234.09956 
   18550    106.25526   -232.13226     86606.07    -21483.18    1580.1498    -23063.33    71.384874    237.82302 
   18600     106.5878   -251.13953    86624.591   -21470.976    1585.0951   -23056.071    71.631291    238.56732 
   18650    104.56853   -272.88199    86637.478   -21477.688     1555.066   -23032.754    71.886684    234.04774 
   18700    105.95946    -263.8259    86628.639   -21471.143    1575.7509   -23046.894    72.170712    237.16095 
   18750    109.53934   -502.84019    86631.719   -21440.177    1628.9881   -23069.165    72.398955    245.17351 
   18800    104.43958   -201.69117    86619.196   -21455.886    1553.1483   -23009.035    72.627384    233.75911 
   18850    106.63195   -630.70009    86528.808   -21442.125    1585.7516   -23027.876    72.840406    238.66612 
   18900     107.8537   -186.87197    86445.519   -21402.867    1603.9205   -23006.788    72.912608    241.40067 
   18950    108.07744   -413.07052    86500.354   -21445.159    1607.2478   -23052.407    73.116773    241.90145 
   19000    107.60171   -319.74198    86497.753   -21454.628    1600.1731   -23054.802    73.497079    240.83666 
   19050    107.12938   -266.74715    86433.422   -21429.506     1593.149   -23022.655    73.624555    239.77949 
   19100    108.23422   -186.19217    86477.188   -21439.228    1609.5794   -23048.808    73.674662    242.25237 
   19150    107.93808   -442.90366     86440.08   -21466.421    1605.1753   -23071.596    73.527829    241.58953 
   19200    108.61808   -365.09036    86473.832   -21431.802    1615.2878   -23047.089    73.630185    243.11152 
   19250    108.69713   -383.92846    86508.715   -21435.096    1616.4634   -23051.559    73.495626    243.28846 
   19300    108.74787   -505.31727    86474.291   -21422.606     1617.218   -23039.824    73.704921    243.40204 
   19350    106.54241   -315.41121    86443.848    -21457.22      1584.42    -23041.64    73.802195    238.46571 
   19400     108.0642   -34.913742    86378.676   -21442.731     1607.051   -23049.782    73.923449    241.87183 
   19450    106.25955    125.14912    86391.117   -21472.117    1580.2135   -23052.331    74.039987    237.83261 
   19500    106.28593    27.056795    86487.193   -21467.504    1580.6058    -23048.11    74.502649    237.89165 
   19550    111.32425   -417.34373    86539.454   -21437.535     1655.532   -23093.067    74.898473    249.16854 
   19600    109.97907   -70.641693    86497.136    -21433.31    1635.5274   -23068.837    75.070451    246.15772 
   19650    107.10438   -181.84637    86496.179   -21430.073    1592.7773   -23022.851    75.257201    239.72354 
   19700    106.82026   -293.01633    86524.146    -21393.62     1588.552   -22982.172    75.620715     239.0876 
   19750    109.08528   -473.49048    86539.868   -21390.752    1622.2357   -23012.988    75.751057    244.15723 
   19800    106.73023   -378.41091    86474.725    -21441.66    1587.2132   -23028.873     76.12219    238.88611 
   19850    106.88773   -941.08443    86417.794   -21430.494    1589.5553   -23020.049    76.416724    239.23862 
   19900    108.63424   -396.32576    86343.539    -21454.48    1615.5281   -23070.008    76.643315     243.1477 
   19950     107.4618   -713.96055    86373.312   -21434.356    1598.0926   -23032.448    76.796539    240.52353 
   20000    107.72839   -308.87681    86391.419   -21450.923     1602.057    -23052.98    77.117863     241.1202 
   20050    107.75948   -172.72717    86409.488   -21466.723    1602.5194   -23069.243    77.590022    241.18979 
   20100    107.21473   -528.07087    86414.581   -21480.735    1594.4183   -23075.153    77.709525    239.97052 
   20150    106.27192   -230.94946    86513.475   -21499.223    1580.3976   -23079.621    78.014987    237.86031 
   20200     106.4131   -333.34062    86559.792   -21493.546     1582.497   -23076.043    78.093765    238.17629 
   20250    108.10229    -516.4358    86581.332   -21507.671    1607.6174   -23115.289    78.257794    241.95708 
   20300    103.99566   -422.13808     86595.17   -21520.366    1546.5467   -23066.913     78.39637    232.76552 
   20350    105.92808   -607.08754    86567.263   -21483.702    1575.2842   -23058.986       78.651    237.09072 
   20400    107.40987   -383.38235    86559.887   -21503.886    1597.3202   -23101.206    78.938593    240.40729 
   20450    104.17875   -294.88811     86546.17   -21522.331    1549.2695     -23071.6    79.272767    233.17533 
   20500    105.92331   -318.05546    86604.519   -21546.197    1575.2133    -23121.41    79.353586    237.08004 
   20550      105.327   -351.36574    86568.656   -21560.728    1566.3454   -23127.073    79.563991    235.74537 
   20600    106.76828   -34.123831    86570.425   -21508.807     1587.779   -23096.586    79.815439    238.97126 
   20650    107.79705   -228.43842    86616.687   -21498.253    1603.0782   -23101.331    79.973102    241.27389 
   20700     106.7561   -356.24901    86611.109   -21459.951    1587.5979   -23047.549    80.240755      238.944 
   20750    109.43167   -513.70399    86624.375    -21456.09     1627.387   -23083.477    80.667839    244.93253 
   20800    109.58284   -502.95409    86648.763   -21458.336     1629.635   -23087.971    80.860715    245.27087 
   20850    105.26431   -327.35455    86649.619   -21465.124    1565.4131   -23030.537    81.338572    235.60505 
   20900    104.88416   -381.67169    86683.968    -21514.91    1559.7598    -23074.67    81.444832    234.75419 
   20950    106.18661   -953.26876    86632.341   -21511.121    1579.1288   -23090.249    81.446806    237.66935 
   21000    107.33789   -363.50355    86568.751   -21536.225    1596.2498   -23132.475    81.077292    240.24618 
   21050    107.77557    -318.1819    86652.277   -21536.915    1602.7586   -23139.673    81.247061     241.2258 
   21100    107.30532   -486.45512    86626.627   -21499.285    1595.7655    -23095.05    80.986784    240.17329 
   21150    106.29916   -575.80036     86565.41   -21526.162    1580.8026   -23106.965    80.979161    237.92127 
   21200    104.82611    -449.5497    86507.479   -21475.061    1558.8965   -23033.958     81.10853    234.62426 
   21250    106.16877   -484.50102    86476.272   -21483.147    1578.8635   -23062.011    81.310881    237.62943 
   21300    106.15815   -586.47333    86506.523   -21500.509    1578.7056   -23079.215    81.397691    237.60567 
   21350    108.59882   -288.81719    86459.899   -21470.857    1615.0015   -23085.858    81.618488    243.06843 
   21400    107.50638   -791.72444    86512.406     -21493.1    1598.7555   -23091.856    81.759383    240.62331 
   21450    107.34615   -478.60668    86485.252   -21513.187    1596.3727    -23109.56    81.995688    240.26467 
   21500    105.59916   -247.50557    86492.562   -21498.827    1570.3926    -23069.22    82.380095     236.3545 
   21550    106.91086   -287.19707    86494.892   -21439.375    1589.8994   -23029.275    82.734386     239.2904 
   21600     105.1546   -454.86458    86472.302   -21437.077    1563.7816   -23000.859    83.115412    235.35949 
   21650    106.50267   -513.11628    86459.732   -21439.683     1583.829   -23023.512    83.111099    238.37677 
   21700    106.75203   -269.90158    86424.346   -21439.098    1587.5373   -23026.635    83.335843    238.93489 
   21750    108.30595   -211.41246    86431.941   -21421.582    1610.6461   -23032.228    83.300292    242.41292 
   21800    106.40616   -484.75415    86408.393   -21428.548    1582.3939   -23010.942    83.475297    238.16076 
   21850    107.62822   -185.98947    86415.652   -21419.049    1600.5674   -23019.616     83.09658    240.89601 
   21900    108.80472   -501.18931    86397.924   -21408.904    1618.0634   -23026.967    83.253952    243.52927 
   21950    104.11446    -490.8206    86370.277     -21426.5    1548.3134   -22974.813    83.530008    233.03143 
   22000     108.9737   -595.00124    86331.492   -21421.528    1620.5764   -23042.104    83.914689    243.90749 
   22050    108.38564   -337.34865    86286.388   -21345.681    1611.8312   -22957.512    84.471901    242.59128 
   22100    107.81187   -208.60858    86303.187   -21373.304    1603.2985   -22976.603    84.561663    241.30705 
   22150    110.97715   -406.43825    86329.517   -21356.504    1650.3702   -23006.874    84.610522    248.39166 
   22200    108.84861   -274.57965    86320.862   -21341.774    1618.7162   -22960.491    85.126072    243.62751 
   22250    107.47232   -713.36252     86342.76   -21359.457    1598.2489   -22957.706    85.390209    240.54706 
   22300    110.07409   -631.19162    86354.613    -21377.85    1636.9406    -23014.79    85.527306    246.37041 
   22350    106.90757   -895.69594    86392.075   -21404.128    1589.8504   -22993.978     85.64031    239.28303 
   22400    108.60048    -537.4613    86374.089   -21417.591     1615.026   -23032.618    85.881897    243.07213 
   22450    107.71603    -775.8387    86306.283   -21419.597    1601.8733    -23021.47    85.761379    241.09255 
   22500    108.96287   -459.72948     86307.23   -21422.483    1620.4152   -23042.898      85.6325    243.88324 
   22550    108.13198   -695.53799    86335.151   -21478.018     1608.059   -23086.077    85.539917    242.02354 
   22600     104.2418   -152.85477    86354.903   -21461.183    1550.2071    -23011.39    85.780082    233.31644 
   22650     108.4544   -425.02377    86329.563   -21452.364    1612.8538   -23065.217    86.267335    242.74518 
   22700    106.94563    -429.2344    86406.093   -21449.928    1590.4164   -23040.344    86.486399    239.36821 
   22750    105.29673   -469.66975    86311.063   -21508.634    1565.8951   -23074.529    86.598669     235.6776 
   22800    101.96885   -653.99042    86266.556   -21507.286    1516.4054   -23023.691    86.725664    228.22906 
   22850    107.66121   -490.38303    86230.908   -21471.376    1601.0579   -23072.434     86.90105    240.96983 
   22900    104.88175   -540.20718    86131.868   -21499.124    1559.7239   -23058.848    87.103155    234.74878 
   22950    106.31945   -369.63922     86076.21   -21525.757    1581.1043   -23106.862    87.324335    237.96668 
   23000    106.19992   -445.55585    86098.301   -21514.385    1579.3267   -23093.712    87.939136    237.69914 
   23050    105.70672   -35.222261    86191.401    -21520.29    1571.9923   -23092.282    88.115015    236.59527 
   23100    103.86227   -399.07762    86233.401   -21546.959    1544.5629   -23091.522    88.417325    232.46696 
   23150    106.72862   -287.62419    86246.555   -21514.922    1587.1893   -23102.111    88.150406    238.88251 
   23200    108.41291   -191.91902    86194.769   -21496.491    1612.2367   -23108.728    88.190525    242.65232 
   23250    106.85899   -326.79873    86165.457   -21486.655     1589.128   -23075.783    88.152802    239.17429 
   23300    104.39663   -483.12574    86162.635   -21490.488    1552.5096   -23042.997    88.532469    233.66299 
   23350    107.05431   -216.89197    86154.789   -21463.958    1592.0326   -23055.991    88.671111    239.61146 
   23400    109.28184   -189.99588    86221.795   -21424.315    1625.1587   -23049.473    88.992313    244.59716 
   23450    105.99092   -328.38722    86252.042   -21433.223    1576.2187   -23009.442    89.132795    237.23137 
   23500    106.18061   -156.72952    86241.808   -21404.449    1579.0396   -22983.489    89.427586    237.65592 
   23550    107.77791    84.444946    86330.633   -21403.638    1602.7935   -23006.432     90.00702    241.23105 
   23600    104.92584   -169.20291    86310.765   -21402.318    1560.3795   -22962.698    90.399665    234.84746 
   23650    108.68503    280.38683    86379.388   -21418.287    1616.2835    -23034.57    90.645448    243.26138 
   23700    107.91235   -517.40266     86450.69    -21394.63    1604.7928   -22999.423       90.821    241.53195 
   23750    106.01367   -361.46864    86476.073   -21397.563     1576.557    -22974.12    91.014948    237.28227 
   23800    108.83622   -414.76236    86523.802   -21351.975    1618.5318   -22970.507    91.126696    243.59977 
   23850    108.25175   -391.47402    86536.565   -21365.191      1609.84   -22975.031    91.288921     242.2916 
   23900      108.622   -297.13579    86460.326   -21372.125    1615.3461   -22987.471    91.622723     243.1203 
   23950    106.83567   -216.99005    86342.988   -21360.655    1588.7812   -22949.437    91.384739    239.12211 
   24000    109.31883    134.41938    86313.445   -21374.055    1625.7088   -22999.764    91.745084    244.67996 
   24050    108.67992   -466.86604    86271.983   -21382.148    1616.2075   -22998.355    91.876671    243.24994 
   24100    108.65014   -101.90539    86304.557   -21363.494    1615.7647   -22979.259    91.921792     243.1833 
   24150    105.43575   -144.87376    86329.263   -21410.454    1567.9625   -22978.416    91.993034    235.98876 
   24200    109.40115   -655.83712    86341.062   -21342.489    1626.9331   -22969.422    92.260956    244.86421 
   24250    109.77965   -381.14162    86237.176   -21362.555    1632.5619   -22995.117    92.508602    245.71138 
   24300    110.86629   -85.629709    86256.397   -21358.251    1648.7215   -23006.973     92.56115    248.14352 
   24350    111.84393   -503.39261    86323.276   -21350.189    1663.2604   -23013.449    93.049867    250.33171 
   24400    109.98297   -307.54875    86364.335    -21388.73    1635.5854   -23024.316    93.187511    246.16645 
   24450    110.34193   -547.86363    86396.499   -21349.667    1640.9236    -22990.59    93.314064    246.96989 
   24500     111.1234   -511.16059    86337.855   -21369.427    1652.5451   -23021.973    93.266357      248.719 
   24550    112.11161   -332.91958    86386.524   -21369.168     1667.241   -23036.409    93.634222    250.93083 
   24600    109.83191   -418.88747    86403.715   -21381.878     1633.339   -23015.217    93.600242    245.82835 
   24650     108.2876   -264.23951    86404.476   -21395.468    1610.3733   -23005.841    93.761762    242.37185 
   24700     110.4595   -220.51501    86396.654   -21406.174    1642.6721   -23048.846    93.775917    247.23304 
   24750    108.85035   -304.05147    86476.699   -21439.759     1618.742   -23058.501    93.927567     243.6314 
   24800    105.17646    145.21877     86590.18   -21465.001    1564.1066   -23029.108    94.064765    235.40842 
   24850    106.09802   -442.24866    86647.352     -21433.7    1577.8113   -23011.511    93.968813    237.47107 
   24900    106.77475   -402.94411     86574.93   -21472.878    1587.8753   -23060.753    94.048631    238.98576 
   24950    107.46515   -355.00698    86537.291   -21470.189    1598.1423   -23068.331    93.985456    240.53101 
   25000    108.58642   -181.20757    86534.601   -21469.851     1614.817   -23084.668    94.359133    243.04066 
   25050    105.49168    -650.0004    86564.439   -21464.426    1568.7943    -23033.22    94.649243    236.11394 
   25100    107.27935   -442.36184    86583.872   -21481.952    1595.3793   -23077.331    94.769668    240.11516 
   25150    103.87751    -650.7917    86617.248   -21480.482    1544.7896   -23025.271    94.927129    232.50108 
   25200    107.69226     21.73811    86668.897   -21446.203    1601.5197   -23047.723    94.901841    241.03934 
   25250    106.42287   -693.05211    86710.243   -21426.995    1582.6423   -23009.637     94.85326    238.19816 
   25300     106.8549   -318.43937    86712.299   -21427.329    1589.0672   -23016.396    95.480652    239.16515 
   25350    106.73943   -258.74575     86783.64   -21417.128      1587.35   -23004.478    95.564048     238.9067 
   25400    108.35236   -379.20853    86810.628   -21422.982    1611.3362   -23034.318    95.817912    242.51679 
   25450     108.6154   -207.29599    86856.455   -21419.289     1615.248   -23034.537    95.850408    243.10554 
   25500    106.15888   -378.54304    86900.539   -21445.054    1578.7165   -23023.771    96.348301     237.6073 
   25550    106.70846   -659.30203     86924.18   -21436.057    1586.8894   -23022.946    96.448066    238.83738 
   25600    106.93697    -500.6243    86878.748   -21440.832    1590.2876    -23031.12    96.592148    239.34883 
   25650    106.57032   -331.32295    86793.431   -21432.092    1584.8352   -23016.927    96.697407     238.5282 
   25700     107.3374   -489.06252    86650.618   -21413.688    1596.2426    -23009.93    96.990121    240.24509 
   25750    107.61709   -326.39658    86645.128    -21453.29    1600.4018   -23053.692    97.112258    240.87108 
   25800    107.28755   -283.82903    86636.828   -21466.731    1595.5012   -23062.232    97.087536    240.13351 
   25850    106.68811   -197.60695    86697.001   -21472.548    1586.5868   -23059.135    97.473104    238.79183 
   25900    106.27828   -43.834227    86702.454   -21461.464    1580.4921   -23041.956    97.502362    237.87454 
   25950    103.30931   -149.30825    86738.558   -21469.248    1536.3398   -23005.588    97.491591    231.22932 
   26000    106.17807   -141.28619    86797.425   -21475.027    1579.0018   -23054.029    97.803968    237.65024 
   26050    106.52971   -328.27706    86841.912    -21487.33    1584.2312   -23071.562     98.01111    238.43729 
   26100    106.45177   -433.77528    86817.318   -21491.633    1583.0721   -23074.705    98.359782    238.26284 
   26150    107.43031   -362.46351    86775.793   -21445.047    1597.6242   -23042.671    97.921089    240.45303 
   26200    106.64185   -278.78442    86759.303   -21482.734    1585.8989   -23068.633    98.171237    238.68829 
   26250    107.55515   -373.89076    86776.305   -21454.122    1599.4807   -23053.603    98.327571    240.73245 
   26300    106.59116   -976.57942    86744.925   -21434.142    1585.1451   -23019.287    98.466289    238.57484 
   26350    106.73995   -263.99723    86681.288   -21426.123    1587.3577   -23013.481    98.571043    238.90785 
   26400    107.19835   -224.96556    86713.712   -21432.493    1594.1746   -23026.668    98.933123    239.93385 
   26450     105.5126   -466.47127    86769.663    -21459.92    1569.1055   -23029.026    98.811507    236.16077 
   26500    105.20973   -448.40384    86782.422   -21497.014    1564.6014   -23061.616    98.777535    235.48288 
   26550    108.29636   -169.03477    86764.152   -21475.403    1610.5035   -23085.907    98.865366    242.39146 
   26600    108.08907   -138.89296    86793.968   -21437.525    1607.4208   -23044.946    99.611847    241.92749 
   26650    106.87186    -189.8293    86800.044   -21431.056    1589.3193   -23020.376    99.603489    239.20309 
   26700    106.36988   -227.09615    86712.096   -21455.776    1581.8542    -23037.63    99.973617    238.07955 
   26750    107.77689   -562.93799    86625.875   -21422.861    1602.7783   -23025.639    100.35208    241.22876 
   26800    109.18964    -353.1734    86598.254   -21449.798    1623.7877   -23073.586    100.82445    244.39081 
   26850    108.00434   -111.89983    86639.416   -21476.266    1606.1608   -23082.427    101.54131    241.73785 
   26900      104.412   -174.86075    86648.203   -21504.518    1552.7381   -23057.256    101.48548    233.69738 
   26950    106.57529   -177.83739    86638.395    -21509.58     1584.909   -23094.489    101.80629    238.53931 
   27000    109.20528   -369.71992    86651.382   -21498.178    1624.0202   -23122.198    101.96521     244.4258 
   27050    108.52532   -476.10441     86678.61   -21512.696    1613.9084   -23126.605    101.93765    242.90392 
   27100    105.43753   -437.13547    86686.349   -21527.347     1567.989   -23095.336    101.77535    235.99274 
   27150    105.44934    -179.0169    86641.648   -21544.776    1568.1646   -23112.941    102.03739    236.01918 
   27200    106.39116   -322.24704    86633.194   -21550.565    1582.1708   -23132.736    102.39768    238.12719 
   27250    106.00009   -155.55513    86616.423   -21535.408     1576.355   -23111.763    102.56286    237.25187 
   27300    108.24027   -54.337539    86680.133   -21506.965    1609.6693   -23116.634    102.90245    242.26591 
   27350    106.57659   -119.23757    86739.675   -21527.631    1584.9283   -23112.559    102.97327    238.54222 
   27400    105.15405    -485.4082    86749.262   -21502.188    1563.7733   -23065.961     103.0814    235.35825 
   27450    109.56389   -422.54712    86724.857   -21515.374    1629.3532   -23144.727    103.29468    245.22845 
   27500    110.74905   -212.43101    86809.548   -21509.522     1646.978     -23156.5    103.10948    247.88111 
   27550    107.03577   -342.49522    86836.777   -21523.698     1591.757   -23115.455    103.16109    239.56998 
   27600    104.35958   -219.04617    86796.097   -21543.325    1551.9585   -23095.284    103.26871    233.58005 
   27650    108.38467   -462.59313    86823.734   -21527.953    1611.8168    -23139.77     103.4466    242.58912 
   27700    108.59131   -166.38878    86807.389   -21482.246    1614.8898   -23097.135    103.35269    243.05162 
   27750    107.88137   -369.38138    86778.696   -21479.554     1604.332   -23083.886    103.63475    241.46261 
   27800    108.50227   -469.70402    86777.149    -21469.24    1613.5657   -23082.805    104.02837    242.85233 
   27850    105.47296   -289.22666    86771.739   -21507.025     1568.516   -23075.541    104.15079    236.07205 
   27900     104.8417   -501.65925    86703.475   -21468.372    1559.1284   -23027.501    104.16822    234.65916 
   27950    106.64412   -210.33276    86715.503   -21476.776    1585.9326   -23062.709     103.8436    238.69337 
   28000    104.15726   -264.20433    86712.602   -21477.265    1548.9498   -23026.215     104.0252    233.12721 
   28050    109.18151   -467.94426      86751.6   -21459.866    1623.6668   -23083.533    104.05477    244.37262 
   28100    108.85777   -151.40776    86746.844   -21428.683    1618.8523   -23047.536    104.14295      243.648 
   28150    107.04198   -845.19788    86722.803   -21458.013    1591.8493   -23049.862    104.20473    239.58387 
   28200    105.35845   -401.90091    86665.275    -21466.34    1566.8131   -23033.154    104.51762    235.81576 
   28250    109.81808   -355.58587     86698.35   -21469.727    1633.1334    -23102.86    104.66531     245.7974 
   28300    105.68328    -353.0331    86680.125   -21470.229    1571.6437   -23041.873     104.8172    236.54279 
   28350    110.34287   -111.83886    86778.593    -21436.53    1640.9377   -23077.468     104.9738      246.972 
   28400    110.67662   -352.58202    86776.452   -21454.463    1645.9009   -23100.363    105.27202    247.71899 
   28450    108.98318   -490.66714    86755.237   -21464.728    1620.7173   -23085.446    105.69736     243.9287 
   28500    109.24838   -505.44503    86787.141   -21465.557    1624.6612   -23090.218    105.99035    244.52228 
   28550    104.75784   -144.86837    86773.322   -21515.549    1557.8813   -23073.431    105.84399    234.47146 
   28600    106.12303   -215.51558    86815.838   -21531.593    1578.1833   -23109.776    106.23515    237.52706 
   28650    108.00169   -697.08245    86826.717   -21514.578    1606.1214   -23120.699      106.552    241.73191 
   28700      104.947   -79.897564    86782.091   -21494.065    1560.6942   -23054.759    106.64439    234.89482 
   28750    107.31568   -349.44145    86795.041   -21499.784    1595.9195   -23095.703    106.90742    240.19646 
   28800    108.28126   -126.80021    86842.559    -21468.23    1610.2789   -23078.509    107.34837    242.35765 
   28850    104.97388   -263.88951     86900.63   -21493.616    1561.0941    -23054.71     107.4725    234.95501 
   28900    108.24366   -375.85703     86927.71   -21509.798    1609.7198   -23119.518    107.59039     242.2735 
   28950    107.36756   -363.72167    86906.788   -21531.048    1596.6911   -23127.739    107.77652    240.31259 
   29000    107.07837   -499.78363    86969.681   -21484.196    1592.3904   -23076.586    108.07365    239.66531 
   29050    108.93678   -236.27113    87021.918    -21483.54    1620.0274   -23103.568    108.45409    243.82486 
   29100    109.85389   -273.93131      87053.1   -21476.798    1633.6659   -23110.464    108.96949    245.87755 
   29150    107.75484   -551.02571    87068.283   -21463.569    1602.4503   -23066.019    108.96494     241.1794 
   29200    106.41121   -541.12043    87060.828    -21458.03    1582.4689   -23040.498    108.85663    238.17206 
   29250    106.44253   -311.48978    87032.189   -21443.945    1582.9347   -23026.879    108.71298    238.24217 
   29300    105.42732   -403.98199    87050.344   -21480.835    1567.8372   -23048.672    108.83522     235.9699 
   29350     105.9551   -217.64125    87126.872   -21487.729     1575.686   -23063.415    108.97837    237.15119 
   29400    105.77289   -471.24702     87153.04    -21483.34    1572.9762   -23056.316    108.87111    236.74335 
   29450    108.94097   -414.86372    87153.603   -21464.287    1620.0897   -23084.376    108.79936    243.83424 
   29500    110.04422   -698.06202    87080.058   -21492.561    1636.4964   -23129.058      109.001    246.30355 
   29550    109.72568   -462.43083    87047.689   -21454.683    1631.7593   -23086.442    109.10919    245.59059 
   29600    107.99568   -268.73389    87061.343   -21472.981     1606.032   -23079.013    109.32603    241.71847 
   29650    108.80874   -383.93911     87079.68   -21443.581    1618.1231   -23061.704     109.5322    243.53826 
   29700    105.69325   -512.92399    87079.278   -21491.789    1571.7919   -23063.581    109.73687    236.56511 
   29750    106.36955    -488.6048    87091.094   -21469.962    1581.8493   -23051.811    109.79087    238.07881 
   29800    110.60678   -258.67387     87080.68   -21495.731    1644.8623   -23140.594    109.91769    247.56268 
   29850    106.94567   -728.66384    87105.482   -21457.459    1590.4171   -23047.876    109.86338    239.36831 
   29900    109.05412    -521.2759    87092.705   -21426.638    1621.7723   -23048.411    109.98796    244.08748 
   29950    110.93483   -565.38821     86996.55   -21407.614    1649.7408   -23057.354    110.11433    248.29693 
   30000    105.74431    -550.7927    86897.137   -21428.597    1572.5512   -23001.148    110.68335    236.67938 
   30050    108.67452   -489.30409    86879.686   -21440.144    1616.1271   -23056.271    111.19979    243.23785 
   30100    106.68846   -640.71114    86857.291   -21455.938    1586.5919    -23042.53    111.43007    238.79261 
   30150     109.0948   -258.81096    86912.535   -21410.821    1622.3773   -23033.198     111.4001    244.17854 
   30200     109.5968   -534.14446    86911.748   -21432.971    1629.8426   -23062.814    111.64554    245.30211 
   30250    110.56343   -479.31103    86911.286   -21468.906    1644.2177   -23113.124    111.47249    247.46566 
   30300    108.23126   -608.99472    86935.919   -21428.377    1609.5354   -23037.912    111.15109    242.24575 
   30350    106.57066   -769.51372    86883.022    -21452.62    1584.8401    -23037.46    111.33901    238.52894 
   30400    105.02001   -672.62077     86724.48   -21521.867      1561.78   -23083.647    111.33532    235.05824 
   30450    107.01429   -625.74818    86671.749   -21525.143    1591.4374   -23116.581    111.53706    239.52188 
   30500    108.03776   -484.64514    86645.497   -21485.235    1606.6577   -23091.893    111.69362    241.81263 
   30550    109.77304    -299.8708    86689.336   -21426.755    1632.4635   -23059.218    111.98089    245.69658 
   30600    107.23803   -384.18439    86717.675   -21451.411    1594.7647   -23046.175    111.95965    240.02266 
   30650    109.38441   -16.357447    86757.241   -21421.286    1626.6842    -23047.97    112.03856    244.82675 
   30700    107.56615   -416.54772    86737.357   -21440.611    1599.6443   -23040.255    112.22363    240.75707 
   30750    108.77788   -269.68857    86752.448   -21421.795    1617.6643   -23039.459     112.4016     243.4692 
   30800    107.63159   -577.14094    86817.189   -21402.953    1600.6175   -23003.571    112.92904    240.90354 
   30850    107.26166   -204.65799    86759.281   -21412.078    1595.1162   -23007.194    113.17185    240.07556 
   30900    112.27439   -336.46912    86728.494   -21410.176    1669.6618   -23079.838    113.27988    251.29517 
   30950    110.22831   -431.32898     86732.72   -21385.089     1639.234   -23024.323    113.41177    246.71558 
   31000     107.7149   -135.05028    86706.716   -21420.126    1601.8564   -23021.982    113.59737       241.09 
   31050    105.26078   -313.70323    86727.005   -21457.934    1565.3606   -23023.294     113.5777    235.59715 
   31100     109.4864   -593.40083      86708.5   -21432.289    1628.2008    -23060.49    113.70515    245.05501 
   31150    108.44318   -387.83129    86727.317   -21474.613    1612.6868   -23087.299    114.15016    242.72006 
   31200    108.47717   -357.00622    86659.201   -21456.079    1613.1924   -23069.271    114.19123    242.79615 
   31250    105.99189   -460.68989     86605.81   -21457.778    1576.2331   -23034.011    114.20705    237.23353 
   31300    106.67398   -334.13943    86615.257    -21450.77    1586.3766   -23037.146    114.61213    238.76019 
   31350    109.15376   -402.10075     86570.44   -21460.176    1623.2541   -23083.431    114.60592    244.31051 
   31400    109.53837   -368.36177    86491.657   -21442.362    1628.9737   -23071.336    114.48149    245.17134 
   31450    107.67166   -587.29524    86484.339   -21440.889    1601.2133   -23042.102    114.68258    240.99322 
   31500     109.3144   -450.47943     86462.68   -21439.946     1625.643   -23065.589    114.80321    244.67005 
   31550    105.66329   -240.85531    86453.447    -21445.17    1571.3463   -23016.517    115.15105    236.49804 
   31600    108.18398   -288.53583    86420.305   -21442.529    1608.8322   -23051.361    115.36257    242.13991 
   31650    110.19992   -583.32479    86337.911    -21426.75    1638.8118   -23065.562    115.54887    246.65204 
   31700    109.89735   -284.87367    86341.369   -21387.146    1634.3122   -23021.458    115.93439    245.97482 
   31750    107.59083   -401.88872    86301.613   -21422.782    1600.0114   -23022.794    116.14835    240.81232 
   31800    106.42378   -115.78654    86272.611   -21426.451    1582.6558   -23009.107    116.01702     238.2002 
   31850    109.11745   -90.386346    86309.947   -21381.655    1622.7142   -23004.369    116.54036    244.22924 
   31900     110.0786   -57.288797    86305.601   -21414.473    1637.0076    -23051.48    116.71117    246.38049 
   31950    105.18506    -228.3286     86321.27   -21455.067    1564.2345   -23019.302    117.00057    235.42766 
   32000    107.50775    -319.5552    86316.897   -21466.911    1598.7759   -23065.687    117.14563    240.62637 
   32050    107.90716   -480.08036    86311.289   -21418.702    1604.7156   -23023.418     117.1684    241.52033 
   32100    110.01141   -700.39544    86248.753     -21403.7    1636.0084   -23039.709     117.2294    246.23011 
   32150    107.17812   -34.980147    86280.848   -21427.519    1593.8738   -23021.393    117.19282    239.88858 
   32200    109.08121   -367.39943    86343.499   -21450.532    1622.1752   -23072.707    117.95551    244.14811 
   32250     108.8912   -483.74621     86411.68   -21477.772    1619.3495   -23097.122    117.79691    243.72284 
   32300    104.78021   -155.73569    86470.415   -21532.463    1558.2139   -23090.677    118.38978    234.52152 
   32350    108.03529   -226.50709    86499.748   -21523.752     1606.621   -23130.373    118.85327    241.80711 
   32400    109.91284   -489.65665    86534.535   -21475.022    1634.5425   -23109.564    119.08861    246.00948 
   32450     108.2389   -195.23128    86526.515   -21467.681     1609.649    -23077.33    119.04287    242.26284 
   32500    107.49156   -361.65265    86467.339   -21483.206    1598.5351   -23081.741    119.35549    240.59013 
   32550    108.22439   -390.05965    86400.639   -21465.005    1609.4331   -23074.438    119.46237    242.23035 
   32600    108.90172   -151.48579    86256.953   -21491.752    1619.5059   -23111.258     119.6467    243.74638 
   32650    107.22223   -510.12741    86209.953   -21484.543    1594.5298   -23079.073    120.24014    239.98731 
   32700    109.83026   -125.40323    86238.642   -21443.928    1633.3146   -23077.243     120.1725    245.82467 
   32750    106.08991   -290.46445     86262.41   -21444.452    1577.6907   -23022.143    120.43266    237.45292 
   32800    108.55481   -414.16216    86263.812   -21454.089     1614.347   -23068.436    120.90921    242.96992 
   32850    105.91174   -338.60437    86295.587   -21470.088    1575.0411   -23045.129    121.43303    237.05413 
   32900    109.92112   -123.53024    86417.629   -21482.435    1634.6657   -23117.101     121.6794    246.02802 
   32950    105.50974   -272.59909     86446.63   -21512.538    1569.0629   -23081.601    122.13881    236.15436 
   33000    104.46563   -547.93902    86376.736   -21513.101    1553.5357   -23066.637    122.20552    233.81742 
   33050    106.24195   -543.09566     86327.55   -21524.237    1579.9518   -23104.189    122.21237    237.79322 
   33100    110.05302   -399.79514    86366.859   -21498.378    1636.6272   -23135.005    122.27569    246.32324 
   33150    105.71777   -432.06869    86337.376   -21500.617    1572.1566   -23072.773    122.43882    236.61999 
   33200    108.02797   -379.90157    86415.195   -21532.778    1606.5122    -23139.29    122.52383    241.79074 
   33250     107.4611   -215.84123    86451.161   -21510.991    1598.0821   -23109.073    122.53695    240.52195 
   33300    106.46181   -433.61931    86510.127   -21528.228    1583.2214   -23111.449    122.73938    238.28531 
   33350    108.20359    -450.3561    86440.905   -21486.437    1609.1239   -23095.561    122.96201    242.18382 
   33400    106.95318    -491.4982    86549.519   -21534.789    1590.5287   -23125.318    123.13622    239.38511 
   33450     108.4848   -459.33815    86552.362   -21517.648    1613.3058   -23130.954    123.29798    242.81322 
   33500    104.09493   -623.43112    86586.131   -21502.429    1548.0229   -23050.452    123.36478    232.98771 
   33550    105.76843   -613.69019    86546.478   -21539.935      1572.91   -23112.845     123.7458    236.73338 
   33600    105.56296   -403.29816    86497.182   -21509.304    1569.8544   -23079.159    123.59069    236.27349 
   33650    105.30206   -355.83532    86551.856   -21528.725    1565.9744     -23094.7    123.65939    235.68953 
   33700    104.44016   -430.28985    86678.776    -21514.19    1553.1569   -23067.347    123.88078    233.76042 
   33750    106.99044    -634.0024    86691.061   -21497.478    1591.0829   -23088.561     124.1307    239.46852 
   33800    104.61776   -287.95053    86647.771   -21527.286    1555.7981   -23083.084    124.39695    234.15793 
   33850     104.4145   -527.25153    86633.573   -21567.094    1552.7754    -23119.87    124.91416    233.70299 
   33900     104.8803   -414.75313    86565.461   -21575.462    1559.7023   -23135.165    125.38406    234.74554 
   33950    105.43087    43.947047    86528.104   -21559.383      1567.89   -23127.273    125.56547    235.97784 
[...]
   92000    105.69604   -395.11918    86397.278   -21476.265    1571.8335   -23048.099    362.03422    236.57136 
   92050    107.79594   -181.70679     86439.69   -21456.792    1603.0616   -23059.853    361.49271    241.27139 
   92100    110.16835   -171.15554    86470.102   -21418.322    1638.3424   -23056.664    361.93604    246.58139 
   92150    110.45042   -309.94183      86415.1   -21410.108     1642.537   -23052.645    362.51753    247.21271 
   92200    106.40729    -384.7411    86386.653   -21439.572    1582.4107   -23021.982    362.20865    238.16329 
   92250    105.63766    -447.2496    86315.596   -21433.509    1570.9652   -23004.474    361.66696    236.44068 
   92300     108.1595   -268.03931    86245.845   -21425.753    1608.4682   -23034.221    362.05453    242.08513 
   92350    104.16632    -434.0296    86284.575   -21438.695    1549.0845    -22987.78     362.4316    233.14749 
   92400    108.22648    -440.8053    86199.274   -21411.224    1609.4642   -23020.688    362.66896    242.23503 
   92450    107.39161   -440.79094    86129.644   -21455.571    1597.0488    -23052.62    363.32299    240.36643 
   92500    105.56278   -595.65146    86046.104   -21442.548    1569.8516     -23012.4    363.61724    236.27308 
   92550    108.05247    -321.4149    86063.357   -21432.324    1606.8765     -23039.2    363.45048    241.84557 
   92600    106.24137   -130.86907    86069.615    -21397.96    1579.9432   -22977.903    363.23982    237.79192 
   92650    107.43952   -195.93448    86060.438   -21427.137    1597.7612   -23024.898    362.99651    240.47365 
   92700    106.22007      -293.42    86031.322   -21437.332    1579.6263   -23016.958    363.19312    237.74424 
   92750    108.21876   -491.35715    86083.183   -21384.655    1609.3494   -22994.005    364.31937    242.21776 
   92800    107.18377   -384.23949     86119.19    -21405.74    1593.9579   -22999.698    364.37131    239.90123 
   92850    108.75565   -626.10955    86120.961   -21449.929    1617.3336   -23067.262    364.93494    243.41944 
   92900    105.20046   -678.72162    86121.671   -21447.441    1564.4635   -23011.904    365.27851    235.46213 
   92950    106.83498   -306.97188    86058.972   -21461.586    1588.7709   -23050.356    365.44211    239.12056 
   93000    105.72535   -547.81201    85966.562   -21438.909    1572.2694   -23011.178    365.97063    236.63696 
   93050    106.63049    25.029269    85916.083   -21444.619    1585.7299   -23030.349    366.59783    238.66287 
   93100    106.97197    66.656445    86062.797   -21451.475    1590.8081   -23042.283    366.90566    239.42717 
   93150    105.14388   -29.758897     86125.12   -21466.663    1563.6221   -23030.285    367.42934     235.3355 
   93200    109.07082    8.0304079    86160.724   -21431.806    1622.0206   -23053.826    367.67943    244.12485 
   93250     105.0143   -509.66043    86169.354   -21416.645     1561.695    -22978.34    367.95743    235.04546 
   93300    108.60331   -524.03638    86120.144   -21425.462    1615.0682    -23040.53    368.14971    243.07847 
   93350    106.14817   -436.01761    86094.204   -21401.315    1578.5572   -22979.873    367.94417    237.58332 
   93400    109.21059   -455.06108    86113.972    -21388.69    1624.0992   -23012.789    367.84684     244.4377 
   93450    108.27927   -511.62142    86104.599    -21424.18    1610.2494   -23034.429    367.51565     242.3532 
   93500    107.16581   -505.27263    86089.589   -21406.176    1593.6907   -22999.867    367.41906    239.86102 
   93550    109.24361   -305.36434     86149.51   -21426.549    1624.5903   -23051.139    367.61522     244.5116 
   93600    104.70225   -342.15069    86187.957   -21418.444    1557.0545   -22975.499    367.92132    234.34702 
   93650     110.1154    -300.4324    86188.957    -21380.18    1637.5549   -23017.735    367.49778    246.46287 
   93700    110.47685   -515.63805    86212.655   -21358.641    1642.9301   -23001.571     368.0247    247.27187 
   93750    104.66576   -1069.7144    86084.151   -21407.352    1556.5118   -22963.863     367.8006    234.26535 
   93800    111.55223   -537.87991    86038.329   -21378.982    1658.9224   -23037.905    367.98563    249.67882 
   93850    107.44939   -385.00546    86056.929   -21401.144     1597.908   -22999.052    367.97026    240.49575 
   93900    108.15361   -175.11968    86112.134   -21413.336    1608.3807   -23021.716    368.33501    242.07195 
   93950    106.92347   -484.47078    86153.384   -21424.358    1590.0869   -23014.445    367.63538    239.31863 
   94000    107.02653   -367.61237    86211.482    -21381.75    1591.6195   -22973.369    367.76105    239.54928 
   94050    106.40393   -471.16085    86214.446   -21422.912    1582.3606   -23005.273    368.44365    238.15576 
   94100    105.37134   -303.58277    86249.913   -21426.907    1567.0047   -22993.912    368.19741    235.84459 
   94150    106.53618   -539.61219    86250.005   -21407.882    1584.3274   -22992.209    368.38246    238.45177 
   94200    109.66949   -577.03277    86238.416   -21442.597    1630.9236    -23073.52    368.28279    245.46481 
   94250      105.269   -439.98005    86219.529   -21451.217    1565.4828   -23016.699    368.77986    235.61553 
   94300    102.78714   -180.41096     86161.01   -21464.896    1528.5744    -22993.47    368.66602    230.06058 
   94350    105.51837   -397.74727    86117.983   -21447.256    1569.1913   -23016.447    368.89764    236.17369 
   94400    106.54958   -216.01822    86121.921   -21453.439    1584.5267   -23037.966    369.53832    238.48177 
   94450    107.93038   -213.69218    86166.733   -21462.398    1605.0609   -23067.459    369.73445    241.57231 
   94500    105.47061   -488.44809    86220.799   -21463.559     1568.481    -23032.04    369.50977    236.06678 
   94550    105.86215   -288.87616    86245.356   -21458.674    1574.3038   -23032.978     369.0243    236.94315 
   94600    108.20296   -503.64531    86255.883   -21441.225    1609.1145   -23050.339    369.00793     242.1824 
   94650    107.16891   -286.42637    86324.832   -21459.593    1593.7369    -23053.33    368.93897    239.86797 
   94700    107.15839   -3.1742895    86372.796    -21460.29    1593.5805   -23053.871    369.08962    239.84442 
   94750    108.05052   -377.99469    86448.734    -21440.92    1606.8476   -23047.768    368.88056    241.84121 
   94800    107.21849   -220.49124    86500.107   -21447.791    1594.4742   -23042.265     369.6267    239.97893 
   94850    105.75265   -452.10806     86541.89    -21479.86    1572.6752   -23052.535    370.35018    236.69805 
   94900    106.45557   -431.94652    86608.999   -21488.496    1583.1286   -23071.625    370.12192    238.27134 
   94950    104.97534   -414.71573    86631.773   -21478.216    1561.1156   -23039.332    370.15001    234.95825 
   95000    103.87288   -512.28327    86585.407   -21457.146    1544.7208   -23001.867    370.84146    232.49072 
   95050    106.12697   -450.26012    86507.459   -21416.388    1578.2419    -22994.63    370.73545    237.53587 
   95100    108.74494   -481.46288    86484.239   -21411.328    1617.1745   -23028.503    371.52553    243.39548 
   95150    106.98472   -238.96929    86446.741   -21443.108    1590.9977   -23034.105    371.73724    239.45571 
   95200    108.40953    -283.9341    86493.253   -21445.965    1612.1865   -23058.151    371.82942    242.64475 
   95250    105.80972   -252.63088    86536.286   -21423.737    1573.5239   -22997.261    372.02212    236.82578 
   95300    105.87126   -401.06494    86514.686    -21417.07    1574.4391   -22991.509    372.40369    236.96352 
   95350    109.88745   -350.85276    86595.302   -21344.415     1634.165    -22978.58    372.70971    245.95267 
   95400    109.40916   -405.05654    86647.624   -21326.464    1627.0523   -22953.517    373.13092    244.88215 
   95450     109.0069   -271.02819    86662.279   -21360.028      1621.07   -22981.098    373.02231    243.98179 
   95500    107.61248   -336.32802    86636.815   -21347.936    1600.3333   -22948.269    373.17587    240.86077 
   95550    108.83885   -482.01346    86662.821   -21400.659     1618.571    -23019.23    372.42387    243.60567 
   95600    107.55205   -401.77787    86692.597   -21423.385    1599.4346   -23022.819    371.92934    240.72551 
   95650    106.33635   -381.55151    86711.214   -21446.307    1581.3556   -23027.663    372.21122     238.0045 
   95700    109.38569   -486.63751    86696.484   -21438.544    1626.7031   -23065.248    372.22683    244.82961 
   95750    107.14603   -484.15954    86752.192   -21454.345    1593.3966   -23047.742    371.63915    239.81675 
   95800    103.40021   -543.99329    86766.487   -21510.804    1537.6916   -23048.495    371.38562    231.43277 
   95850    108.27541   -248.02477    86728.886   -21480.854     1610.192   -23091.046    372.23304    242.34457 
   95900     105.8785   -399.50266    86746.607   -21504.295    1574.5469   -23078.842    372.11653    236.97974 
   95950    105.44491   -150.79279    86766.277   -21507.597    1568.0989   -23075.696    372.02638    236.00927 
   96000    103.18038   -376.74654    86748.437   -21513.305    1534.4224   -23047.728    372.89253    230.94075 
   96050    106.57873   -313.24791    86690.696   -21528.796    1584.9602   -23113.757    372.37014    238.54702 
   96100    105.09135   -277.72346    86713.577   -21502.216    1562.8409   -23065.057    372.68886    235.21792 
   96150    108.63435   -253.00866     86722.89   -21455.429    1615.5298   -23070.959    372.40792    243.14794 
   96200    108.43909    -476.2197    86706.679   -21408.572     1612.626   -23021.198    372.04376     242.7109 
   96250    109.90751   -219.01684     86685.83   -21410.407    1634.4633    -23044.87    371.99004    245.99756 
   96300    110.60362   -355.66168    86688.529   -21407.125    1644.8153   -23051.941    372.88222    247.55561 
   96350     110.8833   -458.54394    86705.425   -21400.126    1648.9746   -23049.101    372.96864    248.18161 
   96400    110.26233   -572.76813    86677.368   -21417.461    1639.7399   -23057.201    373.11209    246.79172 
   96450    107.31492   -465.79191    86698.112   -21444.036    1595.9083   -23039.944    372.73385    240.19477 
   96500    107.60346   -300.92055    86668.872   -21480.764    1600.1991   -23080.963    372.85527    240.84058 
   96550      111.716   -146.09105     86774.84   -21462.917    1661.3578   -23124.275    373.38883    250.04536 
   96600    106.34048    -594.8797    86790.488   -21509.563    1581.4171    -23090.98    373.99416    238.01376 
   96650    105.17814      -343.11    86803.884   -21480.649    1564.1317   -23044.781    373.50416    235.41218 
   96700    105.93369   -260.50806    86768.976   -21443.829    1575.3676   -23019.196    373.33439    237.10326 
   96750     108.3341   -621.90966    86752.763   -21430.967    1611.0646   -23042.031    374.22786    242.47591 
   96800    109.36943   -539.97586    86790.582   -21408.493    1626.4613   -23034.954    374.80369    244.79321 
   96850    111.93938   -257.71389    86830.717   -21407.064    1664.6798   -23071.744    375.61779    250.54534 
   96900    109.16814   -211.54075    86939.337   -21419.221    1623.4679   -23042.689    375.85539    244.34269 
   96950    111.17223   -321.71261    86933.236   -21407.395    1653.2713   -23060.666    376.58452    248.82829 
   97000    107.86522   -347.97871    86901.525   -21380.762    1604.0918   -22984.854    377.10288    241.42645 
   97050    108.58273   -304.27197    86890.174   -21396.791    1614.7622   -23011.553    376.77846    243.03241 
   97100    110.06612   -520.18042    86846.616   -21410.722    1636.8221   -23047.544    377.48933    246.35257 
   97150    108.13423   -326.92035    86867.332   -21427.162    1608.0924   -23035.254    378.02833    242.02857 
   97200    109.12276   -164.64663    86953.807   -21365.546    1622.7931   -22988.339    378.91331    244.24111 
   97250    109.41312   -384.55004    86956.523   -21390.583    1627.1112   -23017.694    379.39346    244.89102 
   97300    106.91304   -483.43873    86868.365   -21399.617    1589.9318   -22989.548    379.61555    239.29527 
   97350    107.22844   -596.52828    86854.486   -21424.209    1594.6221   -23018.831     380.8945     240.0012 
   97400    106.80774    -653.4252    86797.806   -21421.084    1588.3659    -23009.45    381.44171    239.05959 
   97450    110.62518   -671.39466    86720.693   -21352.595     1645.136   -22997.731    381.38611    247.60388 
   97500    106.73743   -517.40032    86639.376    -21406.29    1587.3202    -22993.61    381.89542    238.90221 
   97550    108.39894   -170.31416    86591.124   -21412.765    1612.0289   -23024.794    381.80152    242.62104 
   97600    107.41242   -631.85717     86554.11   -21410.895    1597.3582   -23008.253    381.85915    240.41299 
   97650    107.14422   -34.943196    86604.349   -21436.033    1593.3697   -23029.403    381.98994     239.8127 
   97700    107.13352   -276.99321     86676.63   -21457.563    1593.2106   -23050.774    382.48097    239.78876 
   97750    102.71517   -228.14032    86705.697   -21505.853    1527.5041   -23033.357    382.93256     229.8995 
   97800    108.49543   -475.59119    86713.559   -21515.819    1613.4639   -23129.283    383.07795    242.83701 
   97850    105.82219   -391.16499    86678.592   -21482.811    1573.7095   -23056.521    382.97741    236.85371 
   97900    108.02363   -176.16093    86622.963   -21511.604    1606.4476   -23118.052    382.85917    241.78101 
   97950     109.8252   -355.35384    86598.699   -21502.282    1633.2393   -23135.522    383.27214    245.81334 
   98000     106.5811   -171.30413    86616.944   -21519.854    1584.9954   -23104.849    383.15944    238.55231 
   98050     109.3167   -89.088459     86629.51   -21513.943    1625.6772    -23139.62    383.58145     244.6752 
   98100    106.98322    -142.7264    86664.241   -21495.465    1590.9754    -23086.44    383.48562    239.45234 
   98150    108.92288   -200.82198    86695.195   -21477.885    1619.8206   -23097.706    382.99358    243.79374 
   98200    108.32233   -688.98116    86699.109   -21448.468    1610.8897   -23059.358     383.6267    242.44958 
   98250    110.60329   -633.03373     86663.28   -21437.089    1644.8104     -23081.9    383.99232    247.55486 
   98300    108.02236    -527.0612     86714.98   -21443.989    1606.4288   -23050.418    384.24923    241.77819 
   98350    106.59507   -696.18566    86699.128   -21437.071    1585.2031   -23022.274    384.10657    238.58358 
   98400    107.73158   -707.52715     86636.64   -21452.065    1602.1045   -23054.169     384.6135    241.12734 
   98450    106.41964   -622.78645    86518.926   -21486.072    1582.5942   -23068.666    384.10665    238.19092 
   98500    106.49931   -713.90121    86431.223   -21479.655    1583.7791   -23063.435    384.13983    238.36925 
   98550    107.95051   -152.51897    86441.725   -21483.586    1605.3603   -23088.946    384.43194    241.61737 
   98600    109.06066   -333.43515    86483.196   -21481.891    1621.8696    -23103.76      385.142    244.10213 
   98650     106.5862   -421.88808    86479.533   -21531.988    1585.0712   -23117.059    385.25269    238.56373 
   98700     102.8627   -696.32615     86442.09   -21536.049     1529.698   -23065.747    385.39587     230.2297 
   98750    105.83378   -570.39735    86444.488   -21567.915    1573.8819   -23141.797    385.05662    236.87965 
   98800    101.81456   -423.34097     86372.22   -21541.814    1514.1109   -23055.925    385.76218    227.88372 
   98850    106.53281   -542.44592    86362.425   -21527.148    1584.2773   -23111.425    385.81668    238.44424 
   98900    106.43459   -428.02567     86332.93   -21513.541    1582.8166   -23096.357    385.88654    238.22439 
   98950    106.47926   -466.71331    86393.481   -21510.488     1583.481   -23093.969    386.20445    238.32438 
   99000    107.25039   -380.75079    86433.856   -21506.533    1594.9485   -23101.481    386.62019    240.05033 
   99050    106.68573   -415.12137     86395.34   -21501.963    1586.5514   -23088.514    387.04345     238.7865 
   99100    109.61001   -451.52814    86427.012   -21509.358    1630.0391   -23139.397    386.92152    245.33169 
   99150    106.27351   -585.57192    86365.286   -21484.113    1580.4212   -23064.534    387.01787    237.86386 
   99200    106.46596   -112.50016    86426.003   -21479.015    1583.2832   -23062.299    386.76069    238.29461 
   99250     106.8934   -381.72102    86476.103   -21503.812    1589.6397   -23093.452    387.50865    239.25131 
   99300    105.08542   -804.15124     86464.64   -21476.162    1562.7527   -23038.915    387.54599    235.20464 
   99350    107.93676   -127.19706    86465.301   -21492.505    1605.1557   -23097.661     387.5835    241.58657 
   99400    104.84702   -496.78369    86499.115   -21531.433    1559.2074   -23090.641    388.16373    234.67105 
   99450    105.03958   -588.41423    86403.978    -21561.01     1562.071   -23123.081    387.74177    235.10205 
   99500    106.95184   -493.66985    86366.916   -21556.524    1590.5088   -23147.032     388.1218    239.38211 
   99550    105.06617    -683.8976    86343.338   -21543.896    1562.4665   -23106.363    388.96056    235.16156 
   99600     105.1175    218.83568    86297.452    -21511.66    1563.2298    -23074.89    389.46881    235.27645 
   99650    106.25687   -567.34817     86327.99   -21510.262    1580.1736   -23090.436    389.35102    237.82661 
   99700    106.77301   -180.38078    86355.455   -21426.497    1587.8494   -23014.347    390.16157    238.98186 
   99750    108.55622    32.594758    86469.181   -21436.317    1614.3679   -23050.685    389.73894    242.97307 
   99800    105.07512   -318.51756    86499.852   -21430.332    1562.5996   -22992.932    389.81246    235.18159 
   99850    106.13666   -34.931097     86593.41   -21457.307    1578.3859   -23035.693    389.92042    237.55755 
   99900    106.73495   -311.12368    86636.622   -21465.419    1587.2833   -23052.703    390.33021    238.89665 
   99950    106.89599   -537.85888    86676.153   -21473.103    1589.6781   -23062.781    390.09828     239.2571 
  100000    108.85559   -195.49659    86670.372    -21461.97    1618.8199    -23080.79     390.4684    243.64313 
Loop time of 82.3136 on 64 procs for 100000 steps with 4990 atoms

Performance: 524.822 ns/day, 0.046 hours/ns, 1214.866 timesteps/s
100.0% CPU use with 64 MPI tasks x no OpenMP threads

MPI task timing breakdown:
Section |  min time  |  avg time  |  max time  |%varavg| %total
---------------------------------------------------------------
Pair    | 12.171     | 33.821     | 58.947     | 365.6 | 41.09
Neigh   | 0.61772    | 1.6202     | 3.5291     |  85.2 |  1.97
Comm    | 14.128     | 38.792     | 62.625     | 327.4 | 47.13
Output  | 0.11873    | 0.12028    | 0.13345    |   0.5 |  0.15
Modify  | 4.6921     | 7.2462     | 13.118     | 113.6 |  8.80
Other   |            | 0.7134     |            |       |  0.87

Nlocal:    77.9688 ave 148 max 38 min
Histogram: 29 3 0 4 12 0 0 0 2 14
Nghost:    811.344 ave 1005 max 646 min
Histogram: 32 0 0 0 0 0 0 7 9 16
Neighs:    0 ave 0 max 0 min
Histogram: 64 0 0 0 0 0 0 0 0 0
FullNghs:  7470.44 ave 18272 max 1489 min
Histogram: 32 0 0 0 16 0 0 0 2 14

Total # of neighbors = 478108
Ave neighs/atom = 95.8132
Neighbor list builds = 5766
Dangerous builds = 0

write_data		${DIR}/data.eq-${NAME}-${TEMP}
write_data		run_9/data.eq-${NAME}-${TEMP}
write_data		run_9/data.eq-het_freeze_9-${TEMP}
write_data		run_9/data.eq-het_freeze_9-240
undump          1

reset_timestep  0

unfix           2
unfix           3
unfix           4


################################################
#######         Run Simulation         #########
################################################

log				${DIR}/log.run_${NAME}
log				run_9/log.run_${NAME}
log				run_9/log.run_het_freeze_9
