LAMMPS data file via write_data, version 16 Mar 2018, timestep = 6000000

6337 atoms
2 atom types

0.0000000000000000e+00 4.9219999999999999e+01 xlo xhi
0.0000000000000000e+00 4.9019635930410494e+01 ylo yhi
1.9412516535086013e+00 5.8120748346473846e+01 zlo zhi

Masses

1 18.015
2 12.01

Atoms # atomic

4676 1 2.2992645138195908e-01 1.2618560912415673e+00 2.8016332490169180e+00 0 -1 0
3588 1 8.1911106140513959e-02 1.7483287292826686e+00 5.3986937648394857e+00 0 1 0
4878 1 9.8776261985898928e-01 4.0504026326656213e+00 2.1602453133380175e+00 -1 0 1
1711 1 8.0867038418278856e+00 2.8080176265573518e+00 2.6388734098590936e+00 0 -1 0
4690 1 4.2719749309711048e+00 3.6204072960437600e-01 2.6230231622964308e+00 -1 -1 1
1472 1 8.4646841846420990e+00 3.1545822993387866e+00 5.3382904286605912e+00 1 0 0
3229 1 3.8228163119229417e+00 4.5911630582627030e+00 2.4271406182520208e+00 1 0 0
5297 1 3.7488451166097465e+00 4.5625319760553946e+00 5.3406890072735358e+00 1 2 1
1749 1 7.3718532081057049e+00 6.9403197370455070e+00 2.7855695921684180e+00 1 0 0
483 1 7.4696470815311145e+00 7.4515599354979578e+00 5.3721087714106712e+00 1 1 1
6244 1 1.1744609355686832e+01 6.0802209986827229e+00 5.0063062473671387e+00 1 -1 1
1644 1 1.1697927850639273e+01 6.0811368959206131e+00 2.3348224060345020e+00 -1 0 0
4852 1 3.1707800525469776e+00 8.9710570892045975e+00 2.8955520844985614e+00 0 -2 0
442 1 6.8569052887042865e+00 1.1493041131361910e+01 2.6182573766023949e+00 1 1 0
3174 1 1.1297706993778240e+01 1.0487065410196005e+01 2.7120295734985724e+00 0 -1 0
3459 1 8.4359219225836668e+00 9.4666313628710661e+00 2.0509119096776587e+00 -2 2 0
4897 1 5.8040702737777314e+00 2.7926989355665102e+00 6.3115858171340742e+00 -1 1 0
5983 1 4.7813335934417216e+00 3.7065641722312043e-01 5.4590160264290244e+00 2 -1 0
2823 1 1.0375757860300682e+01 1.1584696405390740e+00 6.2436173801382973e+00 -1 0 0
3341 1 1.2052204080540450e+00 4.2260774961064698e+00 6.6001861747625830e+00 -1 1 1
5263 1 4.7821793736378506e+00 6.9226532254483262e+00 6.6033063867325792e+00 -2 2 1
6099 1 9.3842495771213965e+00 5.7247530102095645e+00 6.1322893480128302e+00 1 2 1
3489 1 3.4761481865521837e+00 8.9756525277104995e+00 5.6545948449905907e+00 2 0 0
5032 1 8.0122747959113150e-01 8.8425677791475241e+00 6.4851505896503383e+00 2 2 0
4501 1 4.3420223940705913e+00 1.1310299005380177e+01 6.2763606515752448e+00 1 1 0
291 1 6.9793814822790079e+00 1.2012526830995778e+01 5.4711238489702954e+00 -1 -1 0
4864 1 8.3370385485920870e+00 9.8278976048711648e+00 6.1794394369080070e+00 1 0 0
1866 1 1.1002485562947872e+01 1.0276674978763635e+01 5.5123905462469267e+00 1 4 0
3573 1 8.4136327221003260e+00 9.4751441799202816e+00 8.7397554955309182e+00 0 -1 0
2832 1 3.1178609742244228e+00 2.0627801796538314e+00 1.0018383942650949e+01 1 -2 1
5982 1 7.7613808975521037e+00 4.2846914396664665e-01 9.9791776951883957e+00 0 0 1
2919 1 5.7920367991834665e+00 2.5488273122406833e+00 9.1590361337693356e+00 2 0 1
2155 1 1.0978701056486891e+01 3.7020147196321918e+00 9.9180090535831802e+00 -1 2 1
1551 1 1.0324887499882299e+01 1.0656169815229122e+00 8.9692725328540295e+00 1 3 1
221 1 2.1452411923497099e+00 6.5677812010591836e+00 1.0226746108413945e+01 2 0 0
2066 1 1.4579979857759431e+00 4.1257915162391550e+00 9.2786416828824425e+00 1 0 0
5096 1 4.8523481873031686e+00 6.9244236315157934e+00 9.2652933804600615e+00 2 -1 0
6039 1 6.8421909897349877e+00 5.1545747535670845e+00 9.8417833547807234e+00 -3 0 1
4805 1 6.8172017980040245e+00 5.2020908771887333e+00 1.2460265429726382e+01 1 2 1
2951 1 1.0491621026155192e+01 7.7061385409456964e+00 9.7968550145316797e+00 2 -1 0
1525 1 9.2159047097441427e+00 5.6134047168757046e+00 9.0199188295071124e+00 -1 -2 0
4476 1 4.0064872275486678e+00 1.1378247188185448e+01 9.0116884156587389e+00 -1 2 1
344 1 1.3781092359380833e+00 1.0976909625731430e+01 9.8256775149579791e+00 0 2 1
1572 1 3.3519623930084075e-01 8.4615060235744313e+00 9.0666361325356917e+00 -3 -1 1
4814 1 6.0104298366728850e+00 9.6239480973153455e+00 9.9935683864494358e+00 0 -2 0
1809 1 9.8539185478712490e+00 1.1622533547019065e+01 9.8949508589174933e+00 0 0 1
1911 1 3.5150143410961205e+00 2.1644320987802823e+00 1.2842632624035506e+01 3 0 1
271 1 1.8502734792654227e+00 3.8427969793603656e+00 1.4100331498722731e+01 1 2 0
5161 1 7.5493532038152056e+00 6.9442790408038790e-01 1.2542043749444451e+01 0 2 0
336 1 5.9445553805604243e+00 2.9231388340709548e+00 1.3669159949897708e+01 -1 3 0
3083 1 1.0976180766902266e+01 3.7761547006448168e+00 1.2720334378733336e+01 -2 1 1
1602 1 1.0096521848812094e+01 1.2511536205190508e+00 1.3699989968579505e+01 -1 0 1
1758 1 2.5135405596092601e+00 6.3609328725019392e+00 1.3001324162772518e+01 1 -1 0
3186 1 5.1469008637784235e+00 6.8521440049583795e+00 1.3826050398638820e+01 1 -2 1
155 1 9.3690534509833743e+00 5.6169275805490368e+00 1.3883670971642600e+01 -1 0 1
246 1 1.0474427011554013e+01 7.9297154308721494e+00 1.2860363250162548e+01 2 3 0
3124 1 7.5841189025232580e-01 8.6628433099503344e+00 1.3653874916990928e+01 -2 -1 1
4613 1 1.8675001682557462e+00 1.1139721269057604e+01 1.2611800700212999e+01 1 -1 1
2008 1 6.0945105356695564e+00 9.7213792830493055e+00 1.2837606264776678e+01 0 0 0
6061 1 4.3783254331092003e+00 1.1711356946813638e+01 1.3604519048258439e+01 1 0 1
397 1 9.8731915559681660e+00 1.2003550765459103e+01 1.2602591971687119e+01 0 -1 0
3187 1 8.8116828731558616e+00 9.7544450776025950e+00 1.3758861792794105e+01 1 -2 0
1864 1 3.5381196501578267e+00 1.8506042832415022e+00 1.7656584380468438e+01 0 1 0
3418 1 7.8837250284474383e+00 6.9876104476647993e-01 1.7269786406625862e+01 1 -1 0
6146 1 6.0719124850284327e+00 2.7383394352802211e+00 1.6431214842743032e+01 -1 -1 1
175 1 1.1267078260301888e+01 3.8394640659741435e+00 1.7301774353365513e+01 0 3 1
1799 1 1.0264818266512144e+01 1.2407339888647793e+00 1.6435328767976657e+01 -2 2 0
1621 1 2.7657357498651884e+00 6.8503990478423997e+00 1.7657731693820725e+01 2 -1 0
4850 1 2.1344221311378164e+00 4.1791130561837520e+00 1.6813089321985565e+01 0 2 0
1343 1 7.1185569166235858e+00 5.0849025140500421e+00 1.7531380849849526e+01 0 -2 1
2850 1 5.3236595987376463e+00 7.2541758452068841e+00 1.6588515743815584e+01 -1 2 1
3641 1 9.5449184086362795e+00 5.7886094577652374e+00 1.6531670106805649e+01 0 0 1
1739 1 1.0634880311999350e+01 8.1606411913834673e+00 1.7314209030473457e+01 -2 2 0
4460 1 1.8505937520487072e+00 1.1017307697942050e+01 1.7158488267926927e+01 0 1 1
5120 1 8.5720820380385843e-01 8.8120902662822349e+00 1.6594377177570308e+01 1 3 0
536 1 4.5749238237140455e+00 1.1460505671840940e+01 1.6182898309317679e+01 1 -1 1
4936 1 6.1027652720037873e+00 9.6349854159543380e+00 1.7330136111959746e+01 0 0 0
3336 1 8.8883006162477418e+00 1.0201273640457693e+01 1.6617102955259561e+01 0 0 0
487 1 3.4556703739589798e+00 1.9627854129223439e+00 2.0250620366711136e+01 2 -1 0
6288 1 7.6585422539088261e+00 7.6588974506713592e-01 2.0122086276617022e+01 -2 1 0
1453 1 5.9924539670133035e+00 2.6382971274408398e+00 2.1193527229803578e+01 -1 0 0
3587 1 1.0357901683870431e+01 1.3999960707365620e+00 2.0690210803157825e+01 -1 1 0
4869 1 1.0985293304059491e+01 3.9220775612657990e+00 2.0025848682132672e+01 4 2 1
3076 1 1.6453172285254030e+00 4.1212057161195830e+00 2.0679356075058109e+01 1 -1 1
340 1 2.4805331097988592e+00 6.9043802254081577e+00 2.0230071959911747e+01 -2 2 0
3463 1 6.8411429567344513e+00 4.9245824596846575e+00 2.0221301565226476e+01 2 -1 0
1935 1 5.0259938104645254e+00 7.0146763955932121e+00 2.1171975043692576e+01 0 1 0
332 1 1.0617242384923406e+01 7.9389091143587329e+00 2.0225227676084387e+01 2 2 1
5306 1 9.5238698954203631e+00 5.6424609603863933e+00 2.1125364253793279e+01 -1 -1 1
1243 1 6.4959720112499686e-01 8.7716502191725922e+00 2.1185769577387838e+01 3 -1 1
3294 1 1.7077698294349797e+00 1.0969668801244095e+01 1.9887436935739846e+01 3 0 0
1614 1 4.2669225132874775e+00 1.1379291648753860e+01 2.0576102632675632e+01 1 -1 1
314 1 6.0809306815802406e+00 9.4016842207812275e+00 2.0093442022071230e+01 2 -1 0
1625 1 8.7495270598190320e+00 1.0036793490415686e+01 2.1048445248268695e+01 0 -1 0
6041 1 2.9179068991654407e+00 1.7047351860962086e+00 2.4370118483945806e+01 0 -2 1
4926 1 1.5136752493213395e+00 4.0347205858702129e+00 2.3573231164880795e+01 -1 0 0
4444 1 5.5456900068061277e+00 2.3869174098259642e+00 2.3876433068608474e+01 2 2 1
298 1 7.4360507350683687e+00 4.5220703582925137e-01 2.4241024688002891e+01 -2 1 1
1764 1 1.1173910642661451e+01 3.3530087597909621e+00 2.4316754342408423e+01 1 0 1
3619 1 1.0078870844854601e+01 1.0357417921466054e+00 2.3664857249726595e+01 1 -1 1
535 1 2.7025374700822966e+00 6.4084499038896787e+00 2.4202498352408675e+01 3 1 1
1589 1 5.3730196192502246e+00 7.2756936193180444e+00 2.3997524985190420e+01 1 3 0
3747 1 7.1889283501335797e+00 4.9445106559380898e+00 2.4440879337622029e+01 3 1 1
323 1 9.5658298318908646e+00 5.4398737969611126e+00 2.3860436004730783e+01 0 0 0
3389 1 1.0691914882043184e+01 7.9957847044204637e+00 2.4595197975673994e+01 -1 0 1
1532 1 1.6442820069422812e+00 1.0921953353637617e+01 2.4321166109622855e+01 1 0 1
1405 1 8.4459558611832264e-01 8.5795316264739370e+00 2.3882644149796192e+01 1 0 0
415 1 4.3752765702941705e+00 1.1459188278498429e+01 2.3462271833913658e+01 2 -3 0
261 1 6.2550188863840663e+00 9.7398118662779680e+00 2.4074102927207733e+01 2 0 0
5203 1 9.0090045746930105e+00 1.0100743010736823e+01 2.3785170825402318e+01 -1 1 0
554 2 0.0000000000000000e+00 2.8417180249513345e+00 2.6795796314475350e+01 0 0 0
556 2 0.0000000000000000e+00 0.0000000000000000e+00 2.6795796314475350e+01 0 0 0
558 2 1.2305000000000001e+00 7.1042950623783474e-01 2.6795796314475350e+01 0 0 0
565 2 1.2305000000000001e+00 2.1312885187134998e+00 2.6795796314475350e+01 0 0 0
567 2 2.4610000000000003e+00 2.8417180249513345e+00 2.6795796314475350e+01 0 0 0
569 2 2.4610000000000003e+00 0.0000000000000000e+00 2.6795796314475350e+01 0 0 0
571 2 3.6915000000000004e+00 7.1042950623783474e-01 2.6795796314475350e+01 0 0 0
586 2 3.6914999999999996e+00 2.1312885187134998e+00 2.6795796314475350e+01 0 0 0
588 2 4.9220000000000006e+00 2.8417180249513332e+00 2.6795796314475350e+01 0 0 0
590 2 4.9220000000000006e+00 0.0000000000000000e+00 2.6795796314475350e+01 0 0 0
592 2 6.1524999999999999e+00 7.1042950623783407e-01 2.6795796314475350e+01 0 0 0
615 2 6.1524999999999999e+00 2.1312885187134989e+00 2.6795796314475350e+01 0 0 0
617 2 7.3829999999999991e+00 2.8417180249513345e+00 2.6795796314475350e+01 0 0 0
619 2 7.3829999999999991e+00 0.0000000000000000e+00 2.6795796314475350e+01 0 0 0
621 2 8.6134999999999984e+00 7.1042950623783407e-01 2.6795796314475350e+01 0 0 0
652 2 8.6134999999999984e+00 2.1312885187135002e+00 2.6795796314475350e+01 0 0 0
654 2 9.8440000000000012e+00 2.8417180249513332e+00 2.6795796314475350e+01 0 0 0
656 2 9.8440000000000012e+00 0.0000000000000000e+00 2.6795796314475350e+01 0 0 0
658 2 1.1074500000000002e+01 7.1042950623783330e-01 2.6795796314475350e+01 0 0 0
697 2 1.1074500000000002e+01 2.1312885187135002e+00 2.6795796314475350e+01 0 0 0
561 2 0.0000000000000000e+00 4.2625770374269996e+00 2.6795796314475350e+01 0 0 0
563 2 1.2305000000000001e+00 4.9730065436648339e+00 2.6795796314475350e+01 0 0 0
578 2 1.2305000000000001e+00 6.3938655561404980e+00 2.6795796314475350e+01 0 0 0
582 2 2.4610000000000003e+00 4.2625770374269996e+00 2.6795796314475350e+01 0 0 0
584 2 3.6914999999999996e+00 4.9730065436648339e+00 2.6795796314475350e+01 0 0 0
607 2 3.6914999999999996e+00 6.3938655561404980e+00 2.6795796314475350e+01 0 0 0
559 2 0.0000000000000000e+00 7.1042950623783341e+00 2.6795796314475350e+01 0 0 0
580 2 2.4610000000000003e+00 7.1042950623783341e+00 2.6795796314475350e+01 0 0 0
611 2 4.9220000000000006e+00 4.2625770374269978e+00 2.6795796314475350e+01 0 0 0
613 2 6.1524999999999999e+00 4.9730065436648339e+00 2.6795796314475350e+01 0 0 0
644 2 6.1524999999999999e+00 6.3938655561404980e+00 2.6795796314475350e+01 0 0 0
648 2 7.3829999999999991e+00 4.2625770374269996e+00 2.6795796314475350e+01 0 0 0
609 2 4.9220000000000006e+00 7.1042950623783341e+00 2.6795796314475350e+01 0 0 0
646 2 7.3830000000000009e+00 7.1042950623783341e+00 2.6795796314475350e+01 0 0 0
650 2 8.6135000000000002e+00 4.9730065436648339e+00 2.6795796314475350e+01 0 0 0
689 2 8.6135000000000002e+00 6.3938655561404980e+00 2.6795796314475350e+01 0 0 0
693 2 9.8440000000000012e+00 4.2625770374270004e+00 2.6795796314475350e+01 0 0 0
695 2 1.1074500000000002e+01 4.9730065436648339e+00 2.6795796314475350e+01 0 0 0
736 2 1.1074500000000002e+01 6.3938655561404980e+00 2.6795796314475350e+01 0 0 0
691 2 9.8440000000000012e+00 7.1042950623783341e+00 2.6795796314475350e+01 0 0 0
574 2 0.0000000000000000e+00 8.5251540748539991e+00 2.6795796314475350e+01 0 0 0
576 2 1.2305000000000001e+00 9.2355835810918343e+00 2.6795796314475350e+01 0 0 0
603 2 2.4610000000000003e+00 8.5251540748539991e+00 2.6795796314475350e+01 0 0 0
605 2 3.6915000000000004e+00 9.2355835810918343e+00 2.6795796314475350e+01 0 0 0
572 2 0.0000000000000000e+00 1.1366872099805333e+01 2.6795796314475350e+01 0 0 0
599 2 1.2305000000000001e+00 1.0656442593567498e+01 2.6795796314475350e+01 0 0 0
601 2 2.4610000000000003e+00 1.1366872099805333e+01 2.6795796314475350e+01 0 0 0
636 2 3.6914999999999996e+00 1.0656442593567499e+01 2.6795796314475350e+01 0 0 0
685 2 7.3830000000000009e+00 8.5251540748539991e+00 2.6795796314475350e+01 0 0 0
638 2 4.9220000000000006e+00 1.1366872099805333e+01 2.6795796314475350e+01 0 0 0
681 2 6.1524999999999999e+00 1.0656442593567499e+01 2.6795796314475350e+01 0 0 0
683 2 7.3829999999999991e+00 1.1366872099805333e+01 2.6795796314475350e+01 0 0 0
640 2 4.9220000000000006e+00 8.5251540748539991e+00 2.6795796314475350e+01 0 0 0
642 2 6.1524999999999999e+00 9.2355835810918343e+00 2.6795796314475350e+01 0 0 0
728 2 8.6134999999999984e+00 1.0656442593567498e+01 2.6795796314475350e+01 0 0 0
732 2 9.8440000000000012e+00 8.5251540748539956e+00 2.6795796314475350e+01 0 0 0
734 2 1.1074500000000002e+01 9.2355835810918343e+00 2.6795796314475350e+01 0 0 0
730 2 9.8440000000000012e+00 1.1366872099805333e+01 2.6795796314475350e+01 0 0 0
777 2 1.2304999999999998e+01 1.1366872099805333e+01 2.6795796314475350e+01 0 0 0
775 2 1.1074500000000002e+01 1.0656442593567498e+01 2.6795796314475350e+01 0 0 0
687 2 8.6134999999999984e+00 9.2355835810918343e+00 2.6795796314475350e+01 0 0 0
555 2 0.0000000000000000e+00 1.4208590124756650e+00 3.0030999999991266e+01 0 0 0
557 2 0.0000000000000000e+00 0.0000000000000000e+00 3.0030999999991266e+01 0 0 0
566 2 1.2305000000000001e+00 2.1312885187134998e+00 3.0030999999991266e+01 0 0 0
568 2 2.4610000000000003e+00 1.4208590124756650e+00 3.0030999999991266e+01 0 0 0
570 2 2.4610000000000003e+00 0.0000000000000000e+00 3.0030999999991266e+01 0 0 0
587 2 3.6914999999999996e+00 2.1312885187134998e+00 3.0030999999991266e+01 0 0 0
564 2 1.2305000000000001e+00 3.5521475311891644e+00 3.0030999999991266e+01 0 0 0
585 2 3.6914999999999996e+00 3.5521475311891644e+00 3.0030999999991266e+01 0 0 0
883 2 0.0000000000000000e+00 2.8417180249513345e+00 3.3266203685504536e+01 0 0 0
884 2 0.0000000000000000e+00 0.0000000000000000e+00 3.3266203685504536e+01 0 0 0
885 2 1.2305000000000001e+00 7.1042950623783474e-01 3.3266203685504536e+01 0 0 0
889 2 1.2305000000000001e+00 2.1312885187134998e+00 3.3266203685504536e+01 0 0 0
890 2 2.4610000000000003e+00 2.8417180249513345e+00 3.3266203685504536e+01 0 0 0
891 2 2.4610000000000003e+00 0.0000000000000000e+00 3.3266203685504536e+01 0 0 0
892 2 3.6915000000000004e+00 7.1042950623783474e-01 3.3266203685504536e+01 0 0 0
900 2 3.6914999999999996e+00 2.1312885187134998e+00 3.3266203685504536e+01 0 0 0
589 2 4.9220000000000006e+00 1.4208590124756650e+00 3.0030999999991266e+01 0 0 0
591 2 4.9220000000000006e+00 0.0000000000000000e+00 3.0030999999991266e+01 0 0 0
616 2 6.1524999999999999e+00 2.1312885187134989e+00 3.0030999999991266e+01 0 0 0
618 2 7.3829999999999991e+00 1.4208590124756659e+00 3.0030999999991266e+01 0 0 0
620 2 7.3829999999999991e+00 0.0000000000000000e+00 3.0030999999991266e+01 0 0 0
614 2 6.1524999999999999e+00 3.5521475311891644e+00 3.0030999999991266e+01 0 0 0
901 2 4.9220000000000006e+00 2.8417180249513332e+00 3.3266203685504536e+01 0 0 0
902 2 4.9220000000000006e+00 0.0000000000000000e+00 3.3266203685504536e+01 0 0 0
903 2 6.1524999999999999e+00 7.1042950623783407e-01 3.3266203685504536e+01 0 0 0
915 2 6.1524999999999999e+00 2.1312885187134989e+00 3.3266203685504536e+01 0 0 0
916 2 7.3829999999999991e+00 2.8417180249513345e+00 3.3266203685504536e+01 0 0 0
917 2 7.3829999999999991e+00 0.0000000000000000e+00 3.3266203685504536e+01 0 0 0
653 2 8.6134999999999984e+00 2.1312885187135002e+00 3.0030999999991266e+01 0 0 0
655 2 9.8440000000000012e+00 1.4208590124756659e+00 3.0030999999991266e+01 0 0 0
657 2 9.8440000000000012e+00 0.0000000000000000e+00 3.0030999999991266e+01 0 0 0
698 2 1.1074500000000002e+01 2.1312885187135002e+00 3.0030999999991266e+01 0 0 0
651 2 8.6134999999999984e+00 3.5521475311891657e+00 3.0030999999991266e+01 0 0 0
696 2 1.1074500000000002e+01 3.5521475311891644e+00 3.0030999999991266e+01 0 0 0
918 2 8.6134999999999984e+00 7.1042950623783407e-01 3.3266203685504536e+01 0 0 0
934 2 8.6134999999999984e+00 2.1312885187135002e+00 3.3266203685504536e+01 0 0 0
935 2 9.8440000000000012e+00 2.8417180249513332e+00 3.3266203685504536e+01 0 0 0
936 2 9.8440000000000012e+00 0.0000000000000000e+00 3.3266203685504536e+01 0 0 0
937 2 1.1074500000000002e+01 7.1042950623783330e-01 3.3266203685504536e+01 0 0 0
957 2 1.1074500000000002e+01 2.1312885187135002e+00 3.3266203685504536e+01 0 0 0
560 2 0.0000000000000000e+00 5.6834360499026637e+00 3.0030999999991266e+01 0 0 0
562 2 0.0000000000000000e+00 4.2625770374269996e+00 3.0030999999991266e+01 0 0 0
579 2 1.2305000000000001e+00 6.3938655561404980e+00 3.0030999999991266e+01 0 0 0
581 2 2.4610000000000003e+00 5.6834360499026637e+00 3.0030999999991266e+01 0 0 0
583 2 2.4610000000000003e+00 4.2625770374269996e+00 3.0030999999991266e+01 0 0 0
608 2 3.6914999999999996e+00 6.3938655561404980e+00 3.0030999999991266e+01 0 0 0
577 2 1.2305000000000001e+00 7.8147245686161639e+00 3.0030999999991266e+01 0 0 0
606 2 3.6914999999999996e+00 7.8147245686161639e+00 3.0030999999991266e+01 0 0 0
887 2 0.0000000000000000e+00 4.2625770374269996e+00 3.3266203685504536e+01 0 0 0
888 2 1.2305000000000001e+00 4.9730065436648339e+00 3.3266203685504536e+01 0 0 0
896 2 1.2305000000000001e+00 6.3938655561404980e+00 3.3266203685504536e+01 0 0 0
898 2 2.4610000000000003e+00 4.2625770374269996e+00 3.3266203685504536e+01 0 0 0
899 2 3.6914999999999996e+00 4.9730065436648339e+00 3.3266203685504536e+01 0 0 0
911 2 3.6914999999999996e+00 6.3938655561404980e+00 3.3266203685504536e+01 0 0 0
886 2 0.0000000000000000e+00 7.1042950623783341e+00 3.3266203685504536e+01 0 0 0
897 2 2.4610000000000003e+00 7.1042950623783341e+00 3.3266203685504536e+01 0 0 0
610 2 4.9220000000000006e+00 5.6834360499026637e+00 3.0030999999991266e+01 0 0 0
612 2 4.9220000000000006e+00 4.2625770374269978e+00 3.0030999999991266e+01 0 0 0
645 2 6.1524999999999999e+00 6.3938655561404980e+00 3.0030999999991266e+01 0 0 0
647 2 7.3829999999999991e+00 5.6834360499026637e+00 3.0030999999991266e+01 0 0 0
649 2 7.3829999999999991e+00 4.2625770374269996e+00 3.0030999999991266e+01 0 0 0
643 2 6.1524999999999999e+00 7.8147245686161639e+00 3.0030999999991266e+01 0 0 0
913 2 4.9220000000000006e+00 4.2625770374269978e+00 3.3266203685504536e+01 0 0 0
914 2 6.1524999999999999e+00 4.9730065436648339e+00 3.3266203685504536e+01 0 0 0
930 2 6.1524999999999999e+00 6.3938655561404980e+00 3.3266203685504536e+01 0 0 0
932 2 7.3829999999999991e+00 4.2625770374269996e+00 3.3266203685504536e+01 0 0 0
912 2 4.9220000000000006e+00 7.1042950623783341e+00 3.3266203685504536e+01 0 0 0
931 2 7.3830000000000009e+00 7.1042950623783341e+00 3.3266203685504536e+01 0 0 0
690 2 8.6135000000000002e+00 6.3938655561404980e+00 3.0030999999991266e+01 0 0 0
692 2 9.8440000000000012e+00 5.6834360499026637e+00 3.0030999999991266e+01 0 0 0
694 2 9.8440000000000012e+00 4.2625770374270004e+00 3.0030999999991266e+01 0 0 0
737 2 1.1074500000000002e+01 6.3938655561404980e+00 3.0030999999991266e+01 0 0 0
688 2 8.6135000000000002e+00 7.8147245686161639e+00 3.0030999999991266e+01 0 0 0
735 2 1.1074500000000002e+01 7.8147245686161639e+00 3.0030999999991266e+01 0 0 0
933 2 8.6135000000000002e+00 4.9730065436648339e+00 3.3266203685504536e+01 0 0 0
953 2 8.6135000000000002e+00 6.3938655561404980e+00 3.3266203685504536e+01 0 0 0
955 2 9.8440000000000012e+00 4.2625770374270004e+00 3.3266203685504536e+01 0 0 0
956 2 1.1074500000000002e+01 4.9730065436648339e+00 3.3266203685504536e+01 0 0 0
977 2 1.1074500000000002e+01 6.3938655561404980e+00 3.3266203685504536e+01 0 0 0
954 2 9.8440000000000012e+00 7.1042950623783341e+00 3.3266203685504536e+01 0 0 0
573 2 0.0000000000000000e+00 9.9460130873296642e+00 3.0030999999991266e+01 0 0 0
575 2 0.0000000000000000e+00 8.5251540748539991e+00 3.0030999999991266e+01 0 0 0
602 2 2.4610000000000003e+00 9.9460130873296642e+00 3.0030999999991266e+01 0 0 0
604 2 2.4610000000000003e+00 8.5251540748539991e+00 3.0030999999991266e+01 0 0 0
598 2 1.2305000000000001e+00 1.2077301606043163e+01 3.0030999999991266e+01 0 0 0
600 2 1.2305000000000001e+00 1.0656442593567498e+01 3.0030999999991266e+01 0 0 0
635 2 3.6914999999999996e+00 1.2077301606043163e+01 3.0030999999991266e+01 0 0 0
637 2 3.6914999999999996e+00 1.0656442593567499e+01 3.0030999999991266e+01 0 0 0
894 2 0.0000000000000000e+00 8.5251540748539991e+00 3.3266203685504536e+01 0 0 0
895 2 1.2305000000000001e+00 9.2355835810918343e+00 3.3266203685504536e+01 0 0 0
909 2 2.4610000000000003e+00 8.5251540748539991e+00 3.3266203685504536e+01 0 0 0
910 2 3.6915000000000004e+00 9.2355835810918343e+00 3.3266203685504536e+01 0 0 0
893 2 0.0000000000000000e+00 1.1366872099805333e+01 3.3266203685504536e+01 0 0 0
907 2 1.2305000000000001e+00 1.0656442593567498e+01 3.3266203685504536e+01 0 0 0
908 2 2.4610000000000003e+00 1.1366872099805333e+01 3.3266203685504536e+01 0 0 0
926 2 3.6914999999999996e+00 1.0656442593567499e+01 3.3266203685504536e+01 0 0 0
639 2 4.9220000000000006e+00 9.9460130873296642e+00 3.0030999999991266e+01 0 0 0
641 2 4.9220000000000006e+00 8.5251540748539991e+00 3.0030999999991266e+01 0 0 0
684 2 7.3830000000000009e+00 9.9460130873296642e+00 3.0030999999991266e+01 0 0 0
686 2 7.3830000000000009e+00 8.5251540748539991e+00 3.0030999999991266e+01 0 0 0
680 2 6.1524999999999999e+00 1.2077301606043163e+01 3.0030999999991266e+01 0 0 0
682 2 6.1524999999999999e+00 1.0656442593567499e+01 3.0030999999991266e+01 0 0 0
928 2 4.9220000000000006e+00 8.5251540748539991e+00 3.3266203685504536e+01 0 0 0
929 2 6.1524999999999999e+00 9.2355835810918343e+00 3.3266203685504536e+01 0 0 0
951 2 7.3830000000000009e+00 8.5251540748539991e+00 3.3266203685504536e+01 0 0 0
927 2 4.9220000000000006e+00 1.1366872099805333e+01 3.3266203685504536e+01 0 0 0
949 2 6.1524999999999999e+00 1.0656442593567499e+01 3.3266203685504536e+01 0 0 0
950 2 7.3829999999999991e+00 1.1366872099805333e+01 3.3266203685504536e+01 0 0 0
731 2 9.8440000000000012e+00 9.9460130873296642e+00 3.0030999999991266e+01 0 0 0
733 2 9.8440000000000012e+00 8.5251540748539956e+00 3.0030999999991266e+01 0 0 0
727 2 8.6135000000000002e+00 1.2077301606043163e+01 3.0030999999991266e+01 0 0 0
729 2 8.6134999999999984e+00 1.0656442593567498e+01 3.0030999999991266e+01 0 0 0
774 2 1.1074500000000002e+01 1.2077301606043163e+01 3.0030999999991266e+01 0 0 0
776 2 1.1074500000000002e+01 1.0656442593567498e+01 3.0030999999991266e+01 0 0 0
952 2 8.6134999999999984e+00 9.2355835810918343e+00 3.3266203685504536e+01 0 0 0
975 2 9.8440000000000012e+00 8.5251540748539956e+00 3.3266203685504536e+01 0 0 0
976 2 1.1074500000000002e+01 9.2355835810918343e+00 3.3266203685504536e+01 0 0 0
973 2 8.6134999999999984e+00 1.0656442593567498e+01 3.3266203685504536e+01 0 0 0
974 2 9.8440000000000012e+00 1.1366872099805333e+01 3.3266203685504536e+01 0 0 0
997 2 1.1074500000000002e+01 1.0656442593567498e+01 3.3266203685504536e+01 0 0 0
998 2 1.2304999999999998e+01 1.1366872099805333e+01 3.3266203685504536e+01 0 0 0
1346 1 1.8821661135826915e+00 7.7364749890188289e-01 3.6109920819144733e+01 -1 3 0
6266 1 2.8020489572829472e+00 3.4248759731602290e+00 3.6620685983343314e+01 -1 2 0
2852 1 5.4137415729854963e+00 3.6147379661235051e+00 3.5539395647067415e+01 -1 2 0
4810 1 6.5944834948306488e+00 1.2810502483791806e+00 3.6372797518110993e+01 -1 -1 -1
4628 1 9.4268556547821003e+00 1.7336999042463170e+00 3.5833936065060726e+01 1 2 0
1611 1 1.4080348767412507e+00 5.4374115309481788e+00 3.5833716390755214e+01 1 2 0
4783 1 2.2723831234634115e+00 7.8107925454186748e+00 3.6247165483006860e+01 0 1 -1
3414 1 6.1924377259654610e+00 6.1150108199230395e+00 3.6587664013744060e+01 0 2 -1
455 1 8.6768405175954975e+00 6.3436138816012040e+00 3.5746840011140819e+01 0 0 0
5279 1 1.0429637499732701e+01 4.2155460849761202e+00 3.6195418766211013e+01 2 1 0
5209 1 6.8661645266309868e-01 1.0006641156578372e+01 3.5481784054212042e+01 2 0 0
1460 1 4.7562956370761729e+00 8.3470820930186687e+00 3.5853787329815177e+01 -1 -2 0
5122 1 8.0513782300584715e+00 1.0733832569914879e+01 3.5829925374499616e+01 -1 0 -1
3182 1 5.5214266068939803e+00 1.0673118141059721e+01 3.6582824449138542e+01 1 1 -1
1983 1 9.8922204314462210e+00 8.9518462996453465e+00 3.5982837596608974e+01 0 2 -1
1947 1 2.5498285069167035e+00 3.9383389133021658e+00 3.9371598970719091e+01 -3 -1 -1
1794 1 1.0172527674780733e-01 3.3358226887660476e+00 4.0339694774690876e+01 0 1 0
2947 1 6.4584306251132864e+00 1.7930188831444096e+00 3.9123180683922065e+01 0 -2 -1
4831 1 4.1734878969241054e+00 1.8308099611418012e+00 4.0190266288075243e+01 1 0 -1
4902 1 7.7188390772864848e+00 4.0804445912575478e+00 3.9859549589522835e+01 1 2 0
1484 1 1.1793970600657513e+01 2.0550451108215229e+00 4.0135420282931108e+01 -1 1 -1
47 1 3.7350939021271770e+00 6.2925186481747044e+00 4.0265706559198250e+01 0 0 -1
4720 1 5.0946199109233703e-02 7.7052515844053886e+00 4.0361362635587057e+01 1 3 0
4785 1 6.1932957405064784e+00 6.1899675593855603e+00 3.9241762794686252e+01 0 3 -1
370 1 1.0323090374949970e+01 4.2706923472992742e+00 3.9139299491765144e+01 0 1 0
3720 1 1.1023461721427321e+01 6.6949368922892631e+00 4.0021900815835565e+01 -2 1 0
5088 1 2.3646776672342580e+00 8.3264430783747283e+00 3.9091396279027570e+01 2 2 -1
352 1 2.7905854454449410e+00 1.0789344303665668e+01 4.0547095042706403e+01 0 0 0
6123 1 7.1582150277928740e+00 8.6251741268873978e+00 4.0035880527357115e+01 -1 -2 0
1465 1 5.3096533390054530e+00 1.0679987062016398e+01 3.9182347465392532e+01 1 1 0
195 1 9.9793872258952057e+00 8.8971031777665708e+00 3.8759139969843844e+01 0 0 -1
1836 1 1.0187073681860745e+01 1.1456166376749209e+01 4.0009938366976165e+01 0 1 -1
1474 1 6.0246135164073622e-01 3.2502987274856756e+00 4.3164403422767741e+01 0 -2 0
6316 1 4.4258066942630627e+00 1.3941861476719495e+00 4.2945835175803104e+01 1 0 -1
2007 1 1.1336926528268476e+01 1.6909807127735716e+00 4.2858655405469136e+01 1 3 -1
4449 1 8.8161324027432855e+00 1.9381043748575149e+00 4.3911604730274675e+01 0 -1 0
2059 1 3.6713312715264683e+00 6.0447351270347509e+00 4.3036012546303375e+01 -1 0 -1
33 1 7.6037005624472593e+00 4.1792480264962881e+00 4.2665237618671583e+01 0 -2 -1
4821 1 1.1160694096900444e+01 6.6803747640535773e+00 4.2721557449948854e+01 0 0 -1
2990 1 8.6752413951719269e+00 6.5333190876625258e+00 4.3721123376812081e+01 0 1 0
5294 1 3.3348375616638100e+00 1.0628856953675557e+01 4.3400529392150887e+01 1 3 0
1435 1 2.3051028453981201e-02 8.2130954990518390e+00 4.3090902035086756e+01 -1 -2 0
2868 1 7.1023635871755051e+00 8.7945676988222683e+00 4.2877101506401985e+01 -2 2 0
6230 1 8.0925549391455629e+00 1.1109287216663208e+01 4.3867787393901715e+01 0 0 -1
1770 1 1.0541550389239690e+01 1.1372639602026226e+01 4.2981550058407436e+01 0 0 -1
6307 1 1.2089420165408479e+01 9.0850642878949976e+00 4.3624681407316480e+01 0 1 0
3363 1 2.4299881846987441e+00 1.4962778166847031e+00 4.7256839986528121e+01 1 0 -1
1893 1 2.1971606675675019e+00 1.5138644987637009e+00 4.4518669684687048e+01 2 -1 -1
2822 1 6.8627546201763634e+00 4.0074093262060413e-02 4.4392714300575371e+01 1 3 0
4921 1 5.3187685599624679e+00 3.7869833310085421e+00 4.4191672856183125e+01 3 1 -1
223 1 9.6284030071791200e+00 2.9718780735830364e+00 4.6382678095792237e+01 2 2 -1
4817 1 1.3993983780887649e+00 5.7252998156773884e+00 4.7179794367199470e+01 -2 1 0
3370 1 1.1757866408863513e+00 5.6898617794030066e+00 4.4314142677301369e+01 -2 1 -1
6271 1 5.5619979413420362e+00 4.1951173427139423e+00 4.6825551616669692e+01 0 1 -1
4920 1 8.1641775181650242e+00 6.9919764607858612e+00 4.6360342926569693e+01 -1 -1 -1
4776 1 1.0572847229939597e+01 7.0182659942012924e+00 4.7514187627418110e+01 3 2 -1
2980 1 1.1809001312091389e+01 4.7153323339141009e+00 4.6220614596611455e+01 2 2 0
1535 1 1.0011005224750742e+00 1.0588637597080202e+01 4.4186428034717558e+01 0 -1 -1
3693 1 6.9446207812119953e-01 1.0294101286157023e+01 4.6970503260611835e+01 -2 0 0
3191 1 4.5421358392943123e+00 8.3704249422434192e+00 4.6887153015336210e+01 -1 1 0
11 1 7.8767327364743336e+00 1.1517883396483104e+01 4.6627101956152529e+01 1 0 -1
6205 1 4.7856038403850221e+00 8.2881298547406743e+00 4.4238491601947139e+01 -2 1 0
6082 1 1.0498278163070534e+01 1.1239202427906866e+01 4.7113530180099900e+01 -1 -1 0
5140 1 1.1649646608425416e+01 9.0383290296423908e+00 4.6249700352316083e+01 0 0 -1
1841 1 6.6185930246494473e-01 3.3862202434174358e+00 4.8000720065203204e+01 -1 -2 -1
3624 1 1.1999002698879315e+00 3.5906823463864250e+00 5.0850465017507553e+01 0 1 -1
1273 1 5.3079059800067210e+00 2.0005627136331521e+00 5.0719590864810947e+01 1 -1 0
205 1 5.0267654480595363e+00 1.6263995140272516e+00 4.8148900217574436e+01 -2 0 -1
6104 1 9.8820590958571124e+00 9.1345094673187965e-01 5.0635374903988890e+01 -1 1 0
6119 1 9.3982402123528992e+00 6.9484019154348453e-01 4.7953138186357045e+01 0 1 -1
1802 1 4.4533238249772805e-01 8.0692328620200726e+00 5.0631963459908782e+01 2 1 -1