
# Create simulation box and atoms

read_data data.ML_graphite_m1000atm_245K
  orthogonal box = (0 0 2.62195) to (49.22 49.0196 57.4401)
  4 by 4 by 8 MPI processor grid
  reading atoms ...
  6337 atoms
  reading velocities ...
  6337 velocities
group water type 1
3577 atoms in group water
group graphite type 2
2760 atoms in group graphite

# Define potential

pair_style sw
pair_coeff * * MLC_e.sw mW C


# Fix graphite atoms in place

fix 5 graphite setforce 0.0 0.0 0.0
velocity graphite set 0.0 0.0 0.0


# Equilibration of molecular water

# Add velocity/set timestep

velocity	    water create ${TEMP} ${SEED} rot yes dist gaussian
velocity	    water create 248 ${SEED} rot yes dist gaussian
velocity	    water create 248 9366 rot yes dist gaussian
timestep	    5.0

# Define output

compute			1 water msd
compute			3 water temp
thermo	    	50
thermo_style	custom step temp press vol etotal ke pe c_1[4] c_3

# Neighbor lists

neigh_modify    delay 0 every 1 check yes

# Set fixes

fix             1 water momentum 10 linear 1 1 1 rescale
fix             2 water nve
fix             3 water temp/csvr ${TEMP} ${TEMP} 500.0 ${SEED}
fix             3 water temp/csvr 248 ${TEMP} 500.0 ${SEED}
fix             3 water temp/csvr 248 248 500.0 ${SEED}
fix             3 water temp/csvr 248 248 500.0 9366
fix             4 water press/berendsen z ${PRES} ${PRES} 1000.0 modulus 20000
fix             4 water press/berendsen z -1000 ${PRES} 1000.0 modulus 20000
fix             4 water press/berendsen z -1000 -1000 1000.0 modulus 20000

# Run 0.5 ns equilibration

dump		    1 all atom 2000 ${DIR}/eq.${NAME}-${TEMP}.dump
dump		    1 all atom 2000 run_19/eq.${NAME}-${TEMP}.dump
dump		    1 all atom 2000 run_19/eq.het_freeze_19-${TEMP}.dump
dump		    1 all atom 2000 run_19/eq.het_freeze_19-248.dump

reset_timestep  0

run	            100000
Neighbor list info ...
  update every 1 steps, delay 0 steps, check yes
  max neighbors/atom: 2000, page size: 100000
  master list distance cutoff = 6.67472
  ghost atom cutoff = 6.67472
  binsize = 3.33736, bins = 15 15 17
  1 neighbor lists, perpetual/occasional/extra = 1 0 0
  (1) pair sw, perpetual
      attributes: full, newton on
      pair build: full/bin/atomonly
      stencil: full/bin/3d
      bin: standard
Per MPI rank memory allocation (min/avg/max) = 4.068 | 4.178 | 4.492 Mbytes
Step Temp Press Volume TotEng KinEng PotEng c_1[4] c_3 
       0     139.9697   -1056.0851     132262.2   -34085.323    2643.5254   -36728.848            0          248 
      50    137.88345    -981.7641    132286.68    -34121.85    2604.1237   -36725.974   0.50606503    244.30357 
     100    139.30454   -1200.2396    132332.63   -34142.188     2630.963   -36773.151   0.79385653    246.82146 
     150     141.1918    -1092.862    132408.11   -34177.195    2666.6066   -36843.802    1.0102586    250.16534 
     200    138.59078   -1028.5198    132518.66   -34169.333    2617.4826   -36786.816    1.2114596    245.55682 
     250    139.90598   -977.26793    132499.38   -34144.301     2642.322   -36786.623    1.4164124     247.8871 
     300    139.86425   -1177.1862    132555.94   -34189.249    2641.5339   -36830.783    1.6230197    247.81317 
     350    142.77843     -1065.67    132587.11   -34118.492    2696.5723   -36815.065    1.7963367    252.97654 
     400    137.96687   -1238.7572    132599.56   -34145.781    2605.6992    -36751.48    1.9639724    244.45137 
     450    138.38466   -946.42479     132643.6   -34162.326    2613.5899   -36775.916    2.1348845    245.19162 
     500    140.73137   -820.57705    132692.46   -34162.109    2657.9107    -36820.02    2.3611843    249.34954 
     550    137.84673    -998.0425    132697.54   -34141.213    2603.4302   -36744.643     2.505693     244.2385 
     600    138.57037   -1116.8284     132715.1    -34170.38    2617.0971   -36787.477    2.6395984    245.52065 
     650    140.32015    -1087.222    132730.38   -34142.177    2650.1443   -36792.321    2.8004585    248.62094 
     700    139.36767   -925.62182    132734.86   -34136.414    2632.1552   -36768.569     2.980267    246.93331 
     750    143.12059    -982.0972    132754.84   -34105.271    2703.0346   -36808.306    3.0937166     253.5828 
     800    137.89752   -888.22126    132837.33   -34101.141    2604.3894   -36705.531    3.2624944    244.32848 
     850     141.1064   -1119.7601       132875   -34051.686    2664.9936    -36716.68    3.4278073    250.01402 
     900    141.36925   -1178.1018    132784.73   -34051.699     2669.958   -36721.657    3.6110948    250.47975 
     950    142.44603   -1035.5049    132781.54   -34070.054    2690.2945   -36760.348    3.7252201     252.3876 
    1000     139.8146   -1179.1474    132822.69    -34110.07    2640.5962   -36750.666    3.8291475    247.72519 
    1050    136.73371   -1411.6719    132736.07   -34129.304    2582.4093   -36711.713     3.928933    242.26644 
    1100    137.63586   -1315.2466     132738.3   -34163.158    2599.4477   -36762.605    4.1219778    243.86488 
    1150    138.21987    -1102.969    132788.36   -34123.817    2610.4774   -36734.295    4.2818891    244.89963 
    1200    137.65979   -1573.3852    132698.21   -34176.598    2599.8996   -36776.497    4.4045777    243.90728 
    1250    137.41635   -1460.0661    132604.28   -34121.128     2595.302    -36716.43    4.5351596    243.47596 
    1300    137.53062    -1285.431     132587.9   -34058.908      2597.46   -36656.369    4.7387926    243.67842 
    1350    137.91135   -870.80675    132600.77   -34042.722    2604.6507   -36647.372     4.929753      244.353 
    1400    141.54521   -1279.7808    132564.81   -34002.091    2673.2813   -36675.372    5.0897015    250.79152 
    1450    141.64951   -785.64213    132573.45   -34001.987     2675.251   -36677.238    5.2448215     250.9763 
    1500    143.07896   -1038.5081    132602.45   -33961.087    2702.2483   -36663.335    5.4314542    253.50904 
    1550    141.78347   -1006.5558    132651.97   -34015.402    2677.7812   -36693.183    5.6023197    251.21367 
    1600    136.77489   -1162.3267    132652.53   -34059.707    2583.1869   -36642.894    5.7460812     242.3394 
    1650    138.29905   -1070.6225    132729.36   -34055.918    2611.9728   -36667.891      5.90224    245.03992 
    1700    140.75885   -1111.9793    132818.86   -34049.343    2658.4297   -36707.772    6.1244332    249.39823 
    1750    139.52936   -1072.3655    132953.43    -34005.91    2635.2091    -36641.12     6.333372    247.21981 
    1800    141.15348   -898.54129    133088.34   -33989.707    2665.8829    -36655.59    6.4997243    250.09745 
    1850    138.65316   -1264.5847    133113.02   -34011.008    2618.6608   -36629.668    6.6898216    245.66735 
    1900    140.21102   -1381.0704    133192.39   -34031.113    2648.0831   -36679.196     6.825101    248.42758 
    1950    142.42141   -1211.7721    133169.33   -34012.737    2689.8295   -36702.566    7.0076537    252.34397 
    2000    140.28743   -1055.7409    133148.46    -34029.27    2649.5263   -36678.797      7.15679    248.56297 
    2050    138.26241   -985.92081    133227.04       -34036     2611.281   -36647.281    7.3884221    244.97502 
    2100    139.85872   -1381.4349    133244.21   -34004.582    2641.4295   -36646.012    7.5040316    247.80337 
    2150    142.83146   -1333.7737    133170.26   -33979.922     2697.574   -36677.496    7.5595322    253.07052 
    2200    139.75344   -1374.6778    133164.72   -34012.794     2639.441   -36652.235    7.7464706    247.61683 
    2250    139.14653   -1102.9885    133099.38   -34025.742    2627.9788   -36653.721    7.7848094    246.54151 
    2300    136.95207    -1132.444    133161.42   -34062.632    2586.5332   -36649.165    7.8980982    242.65333 
    2350    138.92611   -1459.3597    133154.28   -34039.914    2623.8158    -36663.73    8.0545286    246.15096 
    2400    139.45655   -1167.7187     133050.1   -33990.808     2633.834   -36624.642    8.1195174    247.09081 
    2450    142.73786   -1189.4108    133106.52   -33974.911    2695.8061   -36670.717    8.2124681    252.90467 
    2500    141.90232   -1289.2943    133166.68    -33949.43    2680.0258   -36629.456    8.4350117    251.42425 
    2550    142.58988   -1264.2949    133210.67   -33969.251    2693.0113   -36662.263    8.6280851    252.64247 
    2600    141.69304   -1338.8538    133141.22   -33962.795    2676.0733   -36638.868    8.8575585    251.05345 
    2650    137.49522   -1313.0937    133059.79    -33976.06    2596.7915   -36572.852    9.0119172     243.6157 
    2700    138.87725   -1260.1515    133025.94   -34062.941     2622.893   -36685.834    9.0410774    246.06439 
    2750    139.94526    -1117.442    133030.75   -34063.022     2643.064   -36706.086    9.2249421    247.95671 
    2800    139.75222   -1289.4717    133076.26   -34095.628     2639.418   -36735.046     9.294822    247.61466 
    2850    136.98271   -1397.7194    133089.85   -34085.798     2587.112    -36672.91    9.4822437    242.70763 
    2900    139.71024   -1583.5595    133068.55   -34068.075    2638.6252     -36706.7    9.6524253    247.54029 
    2950    137.36175   -1478.0696     133034.7   -34060.093    2594.2706   -36654.364    9.7169234    243.37921 
    3000    140.91162   -1176.9314    133020.16    -34017.66     2661.315   -36678.975    9.8437282    249.66891 
    3050    138.11032    -1189.401    132973.91   -34074.805    2608.4085   -36683.214    9.9125449    244.70554 
    3100    136.77356   -1113.8992    132875.86   -34119.159    2583.1619   -36702.321    10.133687    242.33704 
    3150    137.81515   -721.48921    132901.86   -34066.447    2602.8338   -36669.281    10.215018    244.18255 
    3200    140.83833   -1031.5948     132992.2   -34040.916    2659.9307   -36700.846    10.335311    249.53905 
    3250    141.40551   -1146.0673    133044.16   -34011.423    2670.6427   -36682.066    10.466179    250.54398 
    3300    141.38757   -1333.7793    133076.15   -33990.623     2670.304   -36660.927    10.641338    250.51221 
    3350    142.27722   -1059.9221     133072.1   -33981.191    2687.1063   -36668.297    10.900194     252.0885 
    3400    142.38656   -1305.6787     133202.8   -33981.579    2689.1713   -36670.751    11.094504    252.28222 
    3450    142.12578   -1083.0317    133189.65   -33990.683     2684.246    -36674.93    11.374815    251.82017 
    3500    139.51373   -1084.6374    133266.28   -33975.323    2634.9138   -36610.237    11.614091    247.19211 
    3550    139.81952   -1290.1897    133334.09   -33974.477    2640.6891   -36615.166    11.764045    247.73391 
    3600    140.56734   -1319.4602    133322.19   -33987.806    2654.8127   -36642.619    11.880148    249.05891 
    3650     141.4825   -1244.2633    133225.64   -33965.535    2672.0969   -36637.632    11.972914    250.68041 
    3700    138.70145   -1221.8956    133236.85   -34020.064    2619.5729   -36639.637    12.163975    245.75291 
    3750    138.64225   -1075.6168     133221.9   -34048.653    2618.4546   -36667.108    12.242532    245.64801 
    3800    136.73409   -1242.6375    133206.34   -34044.266    2582.4163   -36626.682    12.401657     242.2671 
    3850    139.32433   -1178.6717    133229.32   -34010.636    2631.3367   -36641.972    12.498402    246.85652 
    3900    140.18133   -1174.1895    133214.53   -34011.818    2647.5225    -36659.34    12.573912    248.37498 
    3950    141.50884   -1024.6098    133264.32   -34028.645    2672.5943   -36701.239    12.668307    250.72707 
    4000    138.95952   -1056.6522    133379.98   -34014.563    2624.4468    -36639.01    12.935309    246.21016 
    4050    139.02868   -1226.5571    133416.84   -34000.947     2625.753     -36626.7    13.119755     246.3327 
    4100    138.53995   -1257.4847    133443.71    -33979.77    2616.5226   -36596.292    13.225058    245.46675 
    4150    140.06974   -1256.1197    133534.39   -34012.974    2645.4149   -36658.389    13.335825    248.17726 
    4200    140.83794    -1294.032    133552.98    -34004.89    2659.9234   -36664.813    13.532826    249.53836 
    4250     143.3344   -1326.3262    133566.57   -33962.587    2707.0727   -36669.659    13.690412    253.96163 
    4300    139.98682    -998.0015    133665.51   -33987.721    2643.8489    -36631.57    13.928677    248.03034 
    4350    141.16621   -1230.1605     133712.7    -34032.12    2666.1232   -36698.244    14.126818    250.11999 
    4400     140.6978   -1336.5072    133670.01   -33998.338    2657.2767   -36655.615     14.17075    249.29006 
    4450    140.75502   -1436.4509    133589.75   -33940.123    2658.3573    -36598.48    14.351764    249.39144 
    4500    140.36983   -1131.9523     133575.8   -33901.107    2651.0826    -36552.19    14.491308    248.70897 
    4550    140.15709   -1195.8386    133597.66   -33921.632    2647.0646   -36568.697    14.629813    248.33203 
    4600    138.42668   -1264.6406    133583.38   -33982.499    2614.3834   -36596.883    14.803636    245.26607 
    4650    141.31324   -1296.4716    133555.68   -34020.342    2668.9001   -36689.242    14.918842     250.3805 
    4700    139.92542   -1519.2387    133586.25   -34063.312    2642.6891   -36706.001    15.042077    247.92154 
    4750     137.8769    -1580.186    133496.56   -34104.114    2604.0001   -36708.114     15.19175    244.29196 
    4800       141.08   -1275.4917    133396.25   -34080.646     2664.495   -36745.141    15.347981    249.96724 
    4850    137.55567   -1369.9439    133303.25   -34162.514    2597.9331   -36760.447    15.417973    243.72279 
    4900    137.56796   -1247.5925    133326.65   -34144.966    2598.1653   -36743.131     15.53596    243.74458 
    4950    136.72036   -1162.8701    133327.26   -34147.226    2582.1571   -36729.383    15.740374    242.24278 
    5000    137.96399   -1254.3839    133261.73   -34121.104    2605.6448   -36726.749    15.946183    244.44626 
    5050    139.62719   -1134.5252    133297.08   -34065.439    2637.0567   -36702.496    16.114904    247.39315 
    5100    140.89548   -1395.1035    133284.47   -34102.517    2661.0101   -36763.527    16.198194    249.64031 
    5150     134.8638   -1229.9884    133300.45   -34115.082    2547.0934   -36662.176    16.329737    238.95332 
    5200    138.97039   -1480.4835    133241.74   -34138.631     2624.652   -36763.283    16.403471    246.22941 
    5250    139.45382   -1099.9084    133213.71   -34120.319    2633.7824   -36754.102    16.466439    247.08597 
    5300    137.10583    -1376.074    133156.62   -34144.816    2589.4372   -36734.254    16.541479    242.92576 
    5350     140.1731   -1053.2304    133159.55   -34129.028    2647.3669   -36776.395    16.693188    248.36039 
    5400    141.33367    -1233.267    133311.46    -34098.89    2669.2859   -36768.176    16.679279     250.4167 
    5450    140.01167   -1009.3439    133370.82   -34113.245    2644.3181   -36757.563    16.775609    248.07436 
    5500    138.58822   -1482.8922    133387.15   -34162.593    2617.4343   -36780.028    16.911181    245.55228 
    5550    138.89759   -1474.4044    133352.32   -34174.839    2623.2772   -36798.117    16.938754    246.10043 
    5600    138.25848   -1064.5802    133446.69   -34163.017    2611.2066   -36774.224    17.191706    244.96804 
    5650    140.42681   -1336.4434    133512.17   -34162.305    2652.1587   -36814.464    17.335624    248.80992 
    5700    135.96488   -1286.5561    133448.96   -34133.396    2567.8888   -36701.285    17.447122    240.90422 
    5750    138.37462   -1281.6964    133443.39   -34066.517    2613.4002   -36679.917    17.580607    245.17383 
    5800    139.72647    -1048.648    133358.17   -34060.863    2638.9318   -36699.794    17.697136    247.56905 
    5850    139.39902   -1154.5004    133364.97   -34047.869    2632.7473   -36680.616    17.921693    246.98886 
    5900    143.56198   -1144.0296    133417.71   -33947.301    2711.3707   -36658.671    18.058676    254.36484 
    5950    140.83059   -1241.0872    133353.81    -33995.48    2659.7845   -36655.264    18.219719    249.52533 
    6000    140.52805   -1216.4807    133317.05   -34037.078    2654.0708   -36691.149     18.40618    248.98931 
    6050    137.37004   -1023.9293    133364.18    -34021.95    2594.4273   -36616.378    18.609043     243.3939 
    6100    141.55956   -1342.3821    133395.67   -33985.061    2673.5522   -36658.614    18.647109    250.81694 
    6150    142.05727   -1386.9162    133323.15   -34019.427    2682.9522    -36702.38    18.793046    251.69879 
    6200    138.77202   -1180.5362    133200.71   -34066.223    2620.9057   -36687.129    19.106469    245.87795 
    6250    140.29979   -1249.3933    133153.01   -34079.254    2649.7597   -36729.013    19.336729    248.58487 
    6300    141.43496    -1259.531    133224.12   -34027.557     2671.199   -36698.756    19.480781    250.59617 
    6350    138.58276   -1281.4619    133307.22   -34042.186    2617.3312   -36659.518    19.697544    245.54261 
    6400    138.20803   -1221.5433    133204.02   -34081.255    2610.2539   -36691.509    19.773966    244.87866 
    6450    141.53032   -1203.8888    133173.65   -34065.931         2673   -36738.931    19.910177    250.76513 
    6500    138.37009   -1400.8447    133146.43   -34041.734    2613.3145   -36655.048    20.017924    245.16579 
    6550    140.05942   -1186.0762    133155.87   -34035.729    2645.2199   -36680.949    20.112624    248.15897 
    6600    137.05363   -1156.3497    133189.65   -34079.025    2588.4514   -36667.476    20.179233    242.83327 
    6650    138.59077   -1420.2727    133170.66    -34076.32    2617.4824   -36693.803    20.297322     245.5568 
    6700    136.47069   -1240.4325    133162.94   -34128.645    2577.4417   -36706.087    20.403571    241.80041 
    6750    138.66468   -1248.3954    133195.18   -34080.206    2618.8783   -36699.084    20.386089    245.68775 
    6800     136.1261   -1228.7502    133143.21   -33979.093    2570.9336   -36550.026    20.543682    241.18986 
    6850    140.66092   -1598.0777    133030.72   -33994.488    2656.5801   -36651.068    20.567333    249.22471 
    6900    140.05658   -1475.7482    133004.31    -33985.59    2645.1663   -36630.757    20.802879    248.15394 
    6950    139.97299   -1334.4563    133008.48   -33971.568    2643.5877   -36615.156    21.075077    248.00584 
    7000    140.55559    -1200.148    133039.49   -33969.552    2654.5909   -36624.143     21.15459    249.03809 
    7050    141.15501   -1236.9542    133182.01   -33980.258    2665.9117   -36646.169    21.289244    250.10015 
    7100      140.295   -1135.9988    133246.13   -33970.092    2649.6693   -36619.761    21.414378    248.57638 
    7150    139.82285    -1259.809     133301.3   -34019.985     2640.752   -36660.737    21.629129    247.73981 
    7200    136.47011   -1179.2607    133376.45   -34045.503    2577.4308   -36622.934    21.780493    241.79939 
    7250    139.92769   -1368.8405     133396.9   -34060.077     2642.732   -36702.809    22.002176    247.92556 
    7300    140.24944   -1333.6987    133312.55   -34061.493    2648.8087   -36710.301    22.222103    248.49565 
    7350     139.4481   -1208.5832     133264.2    -33991.52    2633.6744   -36625.195    22.293512    247.07583 
    7400    140.25408   -1146.4915    133267.93   -33960.172    2648.8965   -36609.069    22.562128    248.50388 
    7450     142.6124   -1189.5836    133374.02   -33950.396    2693.4366   -36643.832    22.905807    252.68237 
    7500    139.46953   -1523.8241    133352.15   -33930.649    2634.0791   -36564.728     23.09193     247.1138 
    7550    142.04057    -1122.078    133362.86   -33983.242    2682.6369   -36665.879    23.186802    251.66921 
    7600    137.87649   -1348.3508    133300.13   -34042.628    2603.9923    -36646.62    23.226945    244.29124 
    7650    140.91128   -1076.7533    133254.12   -34047.969    2661.3085   -36709.278    23.369508    249.66831 
    7700    141.83137   -1182.4117    133275.24     -34075.6    2678.6858   -36754.286    23.490399    251.29854 
    7750    141.80749   -1367.1129    133212.96   -34027.862    2678.2348   -36706.096     23.60607    251.25623 
    7800    139.93586   -1359.7217    133093.31   -34076.758    2642.8864   -36719.645    23.799973    247.94005 
    7850    136.70878   -1303.4267    133081.71   -34097.557    2581.9384   -36679.495    23.973644    242.22227 
    7900    137.98616   -1154.0967    133099.09   -34103.143    2606.0635   -36709.207    24.166641    244.48554 
    7950    139.17666    -1211.726     133157.5   -34101.878    2628.5478   -36730.426     24.29825    246.59488 
    8000    141.46656   -1113.1843    133129.25   -34066.676    2671.7958   -36738.472    24.455092    250.65216 
    8050    140.61234    -1368.474    133066.87   -34061.624    2655.6627   -36717.287    24.665005    249.13864 
    8100    139.36663   -1176.2996    133070.99   -34028.457    2632.1356   -36660.593    24.868049    246.93148 
    8150    141.42569   -1429.2123     133072.6   -34056.983    2671.0239   -36728.007     25.10266    250.57974 
    8200     142.9156   -957.25583    133119.73   -34046.666    2699.1631   -36745.829    25.366576    253.21959 
    8250    140.46446   -1371.2906    133183.32   -34043.595    2652.8698   -36696.464    25.508533    248.87663 
    8300    141.11493    -885.0699    133237.72   -34025.058    2665.1547   -36690.213    25.607436    250.02913 
    8350    138.56707   -1150.2277     133205.5   -34031.381    2617.0348   -36648.415    25.882373     245.5148 
    8400    138.14999   -1398.9777    133141.79   -34005.577    2609.1577   -36614.734    25.999819    244.77582 
    8450     141.3193   -1157.8999    133089.54   -33993.438    2669.0146   -36662.452    26.034626    250.39124 
    8500    144.15967   -1213.3078    133077.14   -33981.408    2722.6591   -36704.067     26.03897    255.42385 
    8550    139.39256   -1357.0271    133140.84   -33999.746    2632.6254   -36632.371    26.034506    246.97742 
    8600    141.02558   -1414.8751    133015.03   -34019.372    2663.4672   -36682.839    26.191652    249.87082 
    8650    138.32151    -1242.102    132903.33   -34004.388     2612.397   -36616.785    26.373227    245.07971 
    8700    138.34525   -1311.0868    132921.68   -34016.403    2612.8454   -36629.248    26.495917    245.12178 
    8750    141.56446    -1210.305    132925.45   -34039.269    2673.6448   -36712.914     26.60993    250.82562 
    8800    139.17314   -1214.4554    132870.86   -34055.424    2628.4813   -36683.905    26.826996    246.58865 
    8850    139.92607   -1205.6997    132808.29   -34040.616    2642.7014   -36683.317    26.960107    247.92269 
    8900     140.4545     -1248.44    132792.96   -34037.535    2652.6817   -36690.217    27.170486    248.85899 
    8950    140.13095   -1159.4258    132812.43    -34025.42     2646.571   -36671.991    27.541088    248.28571 
    9000    138.86214   -1133.1048    132836.51   -34060.802    2622.6077   -36683.409    27.525984    246.03762 
    9050    139.63832   -1020.3962    132851.96     -34036.5    2637.2669   -36673.767    27.646521    247.41286 
    9100    139.09573   -1280.8248    132918.96   -34053.194    2627.0193   -36680.214    27.786065    246.45149 
    9150    140.66727   -1233.9234    132969.39    -34070.66    2656.7001    -36727.36    27.947991    249.23597 
    9200    140.69797   -1348.8433    133010.05   -34044.742    2657.2799   -36702.022     28.29278    249.29037 
    9250    139.49976   -1245.0221    133021.16   -34056.175      2634.65   -36690.825    28.483199    247.16736 
    9300    141.56343   -1059.8412    133015.92   -34070.639    2673.6253   -36744.264    28.455057    250.82379 
    9350    137.86301   -1315.7658    133057.07   -34089.681    2603.7376   -36693.419    28.659472    244.26734 
    9400    139.09734   -1276.7869    133048.51   -34065.464    2627.0497   -36692.513    28.786542    246.45434 
    9450    137.88574    -1344.287    133030.83   -34066.598    2604.1669   -36670.765    28.924678    244.30762 
    9500     141.0353   -1421.9171    132998.23   -34080.953    2663.6509   -36744.604    29.058154    249.88806 
    9550    140.78453   -1433.4561    132958.84   -34034.566    2658.9148   -36693.481    29.235175    249.44374 
    9600    138.69155   -1300.3747    132839.66   -34035.063    2619.3858   -36654.449    29.346064    245.73537 
    9650    139.18062   -1374.0705     132723.1   -34059.501    2628.6226   -36688.124    29.502772     246.6019 
    9700    137.75313    -1293.064    132741.75   -34023.558    2601.6625    -36625.22    29.554674    244.07267 
    9750    138.82699   -1309.9859    132631.41   -34026.943    2621.9437   -36648.887    29.810501    245.97533 
    9800    137.13539   -1313.6397    132602.89    -34059.15    2589.9956   -36649.146    30.101139    242.97814 
    9850    138.22317   -1412.9446    132555.47   -34091.002    2610.5398   -36701.542      30.1368    244.90548 
    9900    139.31757   -1050.3192    132582.41   -34013.879     2631.209   -36645.088     30.39628    246.84455 
    9950    140.45072   -1332.8469    132698.77   -34029.229    2652.6102   -36681.839     30.67997    248.85228 
   10000    137.67853   -1394.5072    132765.54   -33993.353    2600.2535   -36593.607     30.96099    243.94048 
   10050    139.66835   -1216.5888    132802.43   -33998.819     2637.834   -36636.653    31.119227    247.46606 
   10100    139.51058   -1321.0689    132789.81   -34010.117    2634.8544   -36644.971    31.248118    247.18653 
   10150    138.17099   -1104.1938    132865.52    -33989.02    2609.5543   -36598.574    31.478176    244.81302 
   10200    136.51793   -1171.0752     132878.2   -33975.336    2578.3339    -36553.67    31.577824    241.88411 
   10250    139.26129   -1516.4209    132794.92   -33984.264    2630.1461    -36614.41     31.71279    246.74483 
   10300    140.89814     -1375.66    132726.12   -33893.888    2661.0603   -36554.949    31.987058    249.64502 
   10350    141.10459   -1129.6927    132665.14   -33904.321    2664.9595   -36569.281    32.060874    250.01082 
   10400    140.14041   -1420.4303    132746.39   -33899.947    2646.7496   -36546.697    32.278935    248.30247 
   10450    140.74564   -1196.6443    132745.32   -33919.131    2658.1802   -36577.312    32.555031    249.37483 
   10500    141.78328     -1325.86    132752.27    -33904.18    2677.7776   -36581.957    32.774822    251.21333 
   10550    143.37372   -1367.6421    132732.97   -33904.861    2707.8152   -36612.676    33.007232    254.03129 
   10600    141.46316   -1317.9033    132837.79   -33864.782    2671.7315   -36536.514    33.202492    250.64613 
   10650    140.69578   -1246.2767    132795.98   -33884.005    2657.2385   -36541.244    33.336298    249.28648 
   10700    139.44006   -1504.3019    132715.83   -33898.197    2633.5225    -36531.72    33.638942    247.06158 
   10750    139.50434   -1490.5828     132604.4   -33862.533    2634.7365   -36497.269    33.707806    247.17547 
   10800    141.84622   -1403.8615    132519.79   -33866.335    2678.9662   -36545.301    33.866197    251.32485 
   10850      142.293   -1251.2592    132465.82   -33865.738    2687.4042   -36553.143    34.030064    252.11645 
   10900    139.02676   -1092.2602    132456.17   -33891.278    2625.7167   -36516.995     33.89627    246.32929 
   10950    140.90162   -1079.7075    132581.28   -33924.453    2661.1262   -36585.579    33.934646     249.6512 
   11000    142.29414    -1198.481    132585.67   -33918.697    2687.4258   -36606.123     33.98222    252.11847 
   11050    138.27742   -1439.9047    132601.76   -33956.311    2611.5644   -36567.875    34.132036    245.00161 
   11100    139.76897   -1155.7319     132540.6   -33915.601    2639.7345   -36555.335     34.12122    247.64436 
   11150    143.48807   -1084.0997     132508.1   -33922.883     2709.975   -36632.858    34.268514     254.2339 
   11200    141.10268   -1060.0705    132627.47   -33874.502    2664.9234   -36539.425    34.403812    250.00743 
   11250    142.24949   -1070.1223    132659.54   -33901.173    2686.5825   -36587.755    34.458672    252.03936 
   11300    144.29227   -1219.8782    132733.03   -33902.645    2725.1633   -36627.808    34.614898    255.65879 
   11350    143.25983   -1114.9393    132776.61   -33895.027    2705.6643   -36600.691     34.89404     253.8295 
   11400      139.869   -1262.3647    132712.11   -33900.579    2641.6237   -36542.202    35.188598    247.82159 
   11450    142.19793   -1292.0663    132588.27   -33946.871    2685.6088    -36632.48    35.274121    251.94802 
   11500    138.64243   -1176.8614    132448.94   -33919.993    2618.4581   -36538.451    35.377089    245.64833 
   11550    142.65853    -1386.026    132481.92   -33892.615    2694.3078   -36586.922    35.452361    252.76411 
   11600    143.79296   -1489.7754    132433.94   -33871.793    2715.7332   -36587.526    35.744366    254.77411 
   11650    141.59126    -1512.582    132381.52   -33881.771    2674.1509   -36555.922    36.003386     250.8731 
   11700       140.88   -1248.9157    132346.08   -33905.582    2660.7178     -36566.3      36.2891    249.61289 
   11750    139.83314   -1360.9953       132332   -33929.482    2640.9464   -36570.428    36.472723    247.75805 
   11800    140.71986   -1242.9735    132305.19   -33918.399    2657.6933   -36576.092    36.645641    249.32914 
   11850    141.68675   -1127.9372    132349.95   -33889.561    2675.9544   -36565.516    36.907822     251.0423 
   11900    143.71075   -1225.1122    132458.09   -33882.497    2714.1805   -36596.677    36.983605    254.62845 
   11950     141.0349   -1289.7016     132491.3   -33968.009    2663.6433   -36631.653    37.163584    249.88734 
   12000    140.60245   -1147.9522    132484.23   -33964.022    2655.4758   -36619.497    37.163298    249.12112 
   12050    140.57623   -1331.3484    132456.74   -33979.309    2654.9806    -36634.29    37.209524    249.07466 
   12100    137.20623   -1179.3078    132414.61   -34016.382    2591.3335   -36607.716    37.402059    243.10366 
   12150    141.09707   -1260.3865    132445.44   -34022.374    2664.8174   -36687.191    37.637753    249.99749 
   12200    140.85078   -1292.3548    132448.77   -34015.329    2660.1659   -36675.495    37.937907    249.56111 
   12250    137.67858   -1408.0235    132370.25   -34042.512    2600.2545   -36642.767    38.024044    243.94057 
   12300    140.90758   -1080.3326     132333.6   -34038.535    2661.2387   -36699.774    38.234628    249.66176 
   12350    141.19875    -1070.966    132454.07   -34060.899    2666.7378   -36727.636    38.390041    250.17764 
   12400    140.27017   -1188.7723    132517.87   -34019.642    2649.2003   -36668.842    38.622733    248.53239 
   12450    139.32165   -1214.4598    132461.65   -34031.842    2631.2861   -36663.128    38.882507    246.85178 
   12500    140.20222   -1268.6528    132467.79   -34040.545     2647.917   -36688.462    38.816883    248.41199 
   12550     139.8492   -1214.9998    132547.81   -34028.039    2641.2496   -36669.289    38.919555    247.78649 
   12600    143.30175   -1186.7023    132649.15   -34077.524    2706.4559    -36783.98    39.015674    253.90377 
   12650    139.88235   -1210.7818     132733.3   -34058.245    2641.8758   -36700.121    39.196656    247.84525 
   12700    142.49283   -1401.3583     132724.9   -34061.866    2691.1783   -36753.045     39.38256    252.47051 
   12750    141.66329   -1306.3575    132757.54   -34098.639    2675.5114   -36774.151    39.582661    251.00073 
   12800    139.87227   -1434.5355    132788.69   -34123.292    2641.6854   -36764.978    39.717898    247.82738 
   12850    138.69606   -1344.8333    132794.14   -34100.564     2619.471   -36720.035    39.746898    245.74335 
   12900    139.93989   -1504.5021    132797.89   -34102.447    2642.9626   -36745.409    39.957476    247.94719 
   12950    137.30456    -1245.105    132805.88    -34146.04    2593.1905    -36739.23     40.14429    243.27788 
   13000    139.35786   -1143.9078    132809.25   -34094.344      2631.97   -36726.314    40.282259    246.91594 
   13050    136.37186   -1373.0859    132744.35   -34121.075    2575.5753    -36696.65    40.309542    241.62532 
   13100    137.61779   -1209.5714    132751.32   -34073.821    2599.1063   -36672.928    40.574154    243.83286 
   13150    137.87746   -1214.6523    132855.47   -34043.903    2604.0107   -36647.914    40.683205    244.29296 
   13200    139.40328   -1573.2576    132879.41   -34008.826    2632.8279   -36641.654     41.03128    246.99642 
   13250    141.60839   -1305.8068    132888.75   -34011.565    2674.4746    -36686.04    41.264881    250.90346 
   13300    141.71222   -1041.3176     132864.1   -34009.417    2676.4354   -36685.853    41.431643    251.08742 
   13350    144.38802   -1323.5119    132858.14   -33932.524    2726.9718   -36659.496    41.481263    255.82844 
   13400    142.52766   -1219.0694    132794.78   -33908.258    2691.8363   -36600.094    41.431327    252.53224 
   13450    141.47152   -1305.6677    132801.67   -33943.889    2671.8895   -36615.778    41.726467    250.66095 
   13500    141.79866   -1179.7662    132781.19   -33936.838    2678.0679   -36614.906    41.833874    251.24057 
   13550    142.53783    -1404.833    132746.94   -33924.537    2692.0283   -36616.566    41.897171    252.55025 
   13600    141.66463   -1090.9579    132804.04   -33909.631    2675.5367   -36585.167     41.77398    251.00311 
   13650    140.96287   -896.48872    132837.06   -33903.694     2662.283   -36565.977    41.959135    249.75972 
   13700    141.47799   -1197.7758    132719.48   -34007.165    2672.0116   -36679.177    41.957618    250.67241 
   13750    140.42688   -1145.3046    132777.81     -33967.4    2652.1601    -36619.56     42.06302    248.81005 
   13800    143.00505   -1077.4662    132827.25   -34037.201    2700.8523   -36738.054    42.192641    253.37807 
   13850    140.41525   -1257.2342    132852.63   -34041.236    2651.9403   -36693.177    42.306568    248.78944 
   13900    138.28816   -1230.2249    132804.45   -34074.478    2611.7673   -36686.245    42.611487    245.02064 
   13950    138.84217   -917.95771    132849.38   -34036.845    2622.2305   -36659.076     42.66248    246.00223 
   14000     141.3033   -1089.2005    132932.41   -34006.358    2668.7124    -36675.07    42.731214     250.3629 
   14050    144.79608   -1312.2301    132907.16   -34014.129    2734.6785   -36748.808    42.971926    256.55144 
   14100    140.79016   -1151.9739    132981.39    -34049.84     2659.021   -36708.861    43.263032     249.4537 
   14150    139.64913   -1069.4748    132996.18   -34071.539    2637.4711    -36709.01    43.622404    247.43202 
   14200    141.66565   -1251.1429    133017.84   -34044.685    2675.5559   -36720.241    43.734647    251.00491 
   14250    140.22945   -1164.6087    133058.15   -34028.847    2648.4312   -36677.279    44.124261    248.46023 
   14300    141.57637   -1336.6946    133099.38   -34006.038    2673.8697   -36679.908    44.443182    250.84672 
   14350    141.46295   -1379.5984    133106.64   -33966.419    2671.7276   -36638.146    44.767183    250.64576 
   14400    139.91221   -1217.6876       133178   -33968.994    2642.4396   -36611.433    45.035462    247.89814 
   14450    140.99697   -1487.6582    133199.13   -33971.668    2662.9269   -36634.595    45.189626    249.82013 
   14500    139.61112   -1175.2709    133109.95   -33989.221    2636.7532   -36625.974    44.973991    247.36467 
   14550    143.63795   -1279.3633    133139.77   -33900.378    2712.8055   -36613.183    45.101005    254.49945 
   14600    142.62639   -1189.7597    133070.41    -33914.12    2693.7008   -36607.821    45.227273    252.70716 
   14650    142.20139   -1122.5592    133023.27    -33900.23     2685.674   -36585.904    45.202935    251.95413 
   14700    142.52475    -1210.536    132934.31   -33907.627    2691.7812   -36599.408    45.359058    252.52708 
   14750     144.4439    -1431.315    132860.82   -33913.077     2728.027   -36641.104    45.565159    255.92744 
   14800     140.2333   -1100.6888    132721.68   -33986.657     2648.504   -36635.161     45.55875    248.46706 
   14850    142.40972   -1379.4678    132751.63   -33948.426    2689.6086   -36638.034     45.79267    252.32325 
   14900    142.44105   -1193.1084    132765.42   -33962.754    2690.2004   -36652.955    45.801423    252.37877 
   14950    137.07134   -1230.9154    132747.13   -34013.526    2588.7858   -36602.312    45.864856    242.86465 
   15000     141.8873   -1347.7454    132667.51   -33977.422     2679.742   -36657.164    45.740191    251.39763 
   15050    140.72007   -1126.3659    132637.58   -33956.899    2657.6972   -36614.596    45.935394    249.32952 
   15100    142.32531   -1201.8799    132633.75   -33993.997    2688.0145   -36682.012    46.057766     252.1737 
   15150     141.1418   -1209.7517    132706.39   -33955.573    2665.6623   -36621.236    46.091673    250.07675 
   15200     140.2216   -1366.9736    132683.54   -34009.098    2648.2829   -36657.381    46.325736    248.44632 
   15250    139.69644   -1357.3265    132680.09   -34028.836    2638.3645   -36667.201    46.516727    247.51583 
   15300    138.61474   -1234.2854    132662.66   -34071.546    2617.9352   -36689.481    46.699161    245.59927 
   15350    138.02835   -1415.7201    132612.97    -34055.48    2606.8603    -36662.34    46.792978    244.56029 
   15400    138.69734    -1086.746    132576.71    -34030.78    2619.4951   -36650.275    46.959475    245.74562 
   15450    139.01033   -1302.7211    132532.32   -34045.889    2625.4064   -36671.295    47.327819    246.30017 
   15500    140.12315   -1406.7085    132454.64   -34027.346    2646.4236   -36673.769    47.469792    248.27189 
   15550    142.29633   -947.76023    132440.83   -34041.216    2687.4672   -36728.684    47.649402    252.12236 
   15600    138.54494   -1126.7745    132430.47    -34101.19    2616.6169   -36717.807    47.699035     245.4756 
   15650    137.97081   -1218.4451     132444.9   -34113.563    2605.7737   -36719.337    47.681689    244.45836 
   15700    140.57064   -1494.0588     132392.1    -34105.17    2654.8751   -36760.045     47.89319    249.06476 
   15750    140.39295    -1094.414    132362.31    -34144.95    2651.5191   -36796.469    47.872849    248.74992 
   15800    137.68612   -1181.7374    132304.64    -34070.73    2600.3969   -36671.127    47.852487    243.95394 
   15850    137.25621   -1293.1557    132329.09    -34085.03    2592.2773   -36677.307     48.10018     243.1922 
   15900    139.32289   -1344.0012    132295.68   -34116.839    2631.3096   -36748.149    48.217969    246.85398 
   15950    138.19208   -1180.6022       132345   -34076.622    2609.9525   -36686.575    48.218474    244.85039 
   16000    141.96359    -1102.555    132345.84     -33996.9    2681.1828   -36678.083    48.487172     251.5328 
   16050    138.38538   -1005.3857    132457.57   -34040.717    2613.6034   -36654.321     48.58367     245.1929 
   16100     139.0549   -1311.6005    132456.67   -34098.658    2626.2482   -36724.907    48.628516    246.37915 
   16150    139.37526   -1517.4801    132403.31   -34105.858    2632.2987   -36738.157    48.921743    246.94678 
   16200    139.71499   -1206.2873    132439.44   -34072.386    2638.7149   -36711.101    49.225908    247.54871 
   16250    138.47276   -1376.6991    132385.73   -34119.439    2615.2537   -36734.693    49.523052    245.34771 
   16300    135.06974   -1030.4849    132428.24   -34160.142    2550.9828   -36711.125    49.654929     239.3182 
   16350    137.19726   -1221.5171    132496.54   -34166.363    2591.1641   -36757.527    49.652441    243.08777 
   16400    137.83603   -1144.3308    132482.64   -34137.883    2603.2281   -36741.111    49.894118    244.21954 
   16450    137.83958   -1216.6365    132516.76   -34151.308    2603.2952   -36754.603    50.136331    244.22584 
   16500    135.54028   -1247.4754    132511.22   -34164.706    2559.8697   -36724.575    50.192352    240.15191 
   16550    140.01874   -939.83271    132517.71   -34139.521    2644.4516   -36783.973    50.493557    248.08689 
   16600    141.13314   -1224.6914    132610.14   -34098.306    2665.4987   -36763.804    50.458733     250.0614 
   16650    141.22918   -1199.5349    132690.49   -34027.794    2667.3125   -36695.106    50.524767    250.23156 
   16700    138.65292   -1007.8166    132783.26   -34037.397    2618.6563   -36656.053    50.695234    245.66692 
   16750    141.18967   -1001.2264    132807.37   -33975.268    2666.5664   -36641.834     50.84229    250.16157 
   16800    139.65947   -1085.3603    132857.99   -33944.411    2637.6663   -36582.077    50.993156    247.45033 
   16850    141.88448     -1095.05    132925.49   -33926.389    2679.6888   -36606.078     51.22128    251.39264 
   16900    143.21285   -1362.9807    132862.79   -33922.504    2704.7769   -36627.281    51.416842    253.74625 
   16950    138.29276    -1165.584    132732.17   -33998.244    2611.8541   -36610.098    51.436909    245.02878 
   17000    142.12013    -1061.097     132774.4   -33993.932    2684.1393   -36678.071    51.521662    251.81016 
   17050    137.61785   -1251.6243    132769.67   -34064.226    2599.1075   -36663.333    51.708447    243.83298 
   17100     140.3653   -1097.6088    132734.46   -34064.405     2650.997   -36715.402    51.940265    248.70094 
   17150    137.59045   -1030.9923    132719.43   -34045.381    2598.5901   -36643.971    52.188778    243.78443 
   17200    137.22885    -987.4568     132739.9   -34066.002    2591.7606   -36657.762    52.203111    243.14373 
   17250    136.10135   -916.12158    132800.44   -34084.456    2570.4663   -36654.922     52.17445    241.14602 
   17300     138.9292   -1054.1387     132856.5   -34053.502    2623.8742   -36677.376    52.257229    246.15644 
   17350     139.1634     -1092.93    132873.45   -34035.928    2628.2973   -36664.225    52.385967    246.57139 
   17400    139.87122   -784.48301    132926.06   -34043.066    2641.6656   -36684.732    52.399603    247.82553 
   17450    139.45749   -1355.8105    132979.71   -34051.691    2633.8516   -36685.543    52.503836    247.09246 
   17500    142.49885   -1154.5307    133020.32   -33984.967     2691.292   -36676.258    52.747014    252.48118 
   17550    137.86821   -1305.3662    132964.11   -34041.776    2603.8358   -36645.612    52.819757    244.27655 
   17600    140.19862   -971.12894    132950.86   -34023.201    2647.8489    -36671.05    53.095934    248.40561 
   17650    138.86791   -1343.5591     132870.4   -34013.328    2622.7167   -36636.045    53.272132    246.04784 
   17700    144.27252   -1218.2241    132864.32   -33989.332    2724.7903   -36714.122    53.330143    255.62379 
   17750    141.16637   -1344.7376    132784.47   -34003.246    2666.1264   -36669.373    53.380406    250.12029 
   17800    142.87665   -944.46339     132834.3   -33975.382    2698.4274   -36673.809     53.59945    253.15058 
   17850    142.18941   -1282.6196    132914.79   -33911.752    2685.4479     -36597.2    53.890798    251.93292 
   17900    141.85375   -1123.1593    132920.94   -33909.387    2679.1084   -36588.496    53.813102    251.33819 
   17950    143.53694   -1294.2316    132976.78   -33825.022    2710.8979    -36535.92    53.998524    254.32049 
   18000    142.15172   -918.02974    133027.35   -33838.998     2684.736   -36523.734    53.965962    251.86614 
   18050    141.21747   -1429.0016     133099.8   -33940.588    2667.0914   -36607.679    54.301151    250.21082 
   18100    143.20867    -1223.439     133083.8   -33906.219    2704.6979   -36610.917     54.57048    253.73884 
   18150    138.81993   -1266.2818    133114.63   -33916.912    2621.8104   -36538.723     54.92357    245.96282 
   18200    139.45763   -1140.4125    132996.88   -33888.699    2633.8543   -36522.553    54.945446    247.09271 
   18250    141.94316    -1272.521    132972.12   -33919.068    2680.7971   -36599.865    55.040589    251.49661 
   18300    142.46967   -895.37999    133031.08    -33873.06    2690.7409   -36563.801    55.053811    252.42948 
   18350    142.82433    -1280.299    132982.88   -33887.615    2697.4392   -36585.054    55.136176    253.05788 
   18400    143.50814   -1194.0633    132956.66   -33951.258    2710.3539   -36661.612    55.133221    254.26945 
   18450    141.97324   -1043.7184    132966.97   -33985.751    2681.3651   -36667.116     55.20263     251.5499 
   18500    139.22907   -1047.5659    133044.73   -33992.665    2629.5377   -36622.203    55.366788    246.68775 
   18550    143.07217   -1023.2081    133032.98   -34001.508    2702.1201   -36703.628    55.411323    253.49701 
   18600    139.92875   -1345.1226    133043.05   -34018.566     2642.752   -36661.318    55.799516    247.92744 
   18650    139.09811   -1134.0429    133007.07   -34018.816    2627.0642    -36645.88    56.201637    246.45571 
   18700    141.42483   -1141.2013    133030.18   -33992.942    2671.0078    -36663.95    56.375653    250.57823 
   18750    142.44055   -1325.3128    133035.05   -34003.844     2690.191   -36694.035     56.49173    252.37789 
   18800    138.76533    -1256.964    133018.89   -34009.647    2620.7793   -36630.427    56.550773    245.86609 
   18850    140.39054   -1386.3493    132983.47   -33977.727    2651.4737     -36629.2    56.521322    248.74566 
   18900    139.95393   -1395.8401    132889.55   -34014.205    2643.2277   -36657.433    56.563125    247.97207 
   18950    139.52496   -1284.1222    132824.61   -34037.681    2635.1259   -36672.807    56.743297    247.21201 
   19000    140.46135   -1170.7658    132737.49    -34024.29     2652.811   -36677.101    57.070529    248.87111 
   19050    142.66609   -1120.3853    132751.87   -34004.084    2694.4506   -36698.535      57.4289     252.7775 
   19100    142.37782   -977.59722    132768.79   -33976.835    2689.0063   -36665.842     57.92729    252.26674 
   19150    141.54388   -1056.3722    132831.42   -33949.895    2673.2561   -36623.152    58.187835    250.78916 
   19200    142.95265   -1276.1072    132877.91    -33984.89    2699.8626   -36684.752    58.331086    253.28523 
   19250    139.83866   -1106.9523    132960.37   -34029.505    2641.0507   -36670.555    58.447182    247.76784 
   19300    139.09603   -1282.9289    133021.21   -34047.068     2627.025   -36674.093    58.534381    246.45202 
   19350    140.89673   -1505.4574    132927.45   -34035.277    2661.0338    -36696.31    58.436178    249.64254 
   19400    140.26765   -1285.5111    132922.15   -34022.192    2649.1527   -36671.345    58.495506    248.52792 
   19450    138.62993   -1246.9678    132814.35   -34009.517    2618.2219   -36627.739    58.689519    245.62618 
   19500    140.00522   -1330.6358    132883.08   -34028.848    2644.1962   -36673.044    58.790408    248.06293 
   19550    138.04041   -1368.6379    132884.94   -34060.388    2607.0882   -36667.476    58.872378    244.58167 
   19600    138.07777   -1214.1495     132770.7   -34053.482    2607.7938   -36661.276     59.09644    244.64787 
   19650     136.1041   -1212.0635    132758.53   -34136.936    2570.5181   -36707.454     59.26907    241.15088 
   19700    140.86153   -1326.3356    132679.34   -34117.949     2660.369   -36778.318      59.3409    249.58017 
   19750    136.54853   -1444.2031    132577.98   -34081.981    2578.9118   -36660.893    59.624474    241.93833 
   19800    138.62109   -1279.0932    132557.58   -34079.362    2618.0551   -36697.417    59.658634    245.61052 
   19850    136.82574   -1214.4572    132586.92   -34032.393    2584.1474    -36616.54    59.814342     242.4295 
   19900    138.10698   -1180.3057    132511.05   -34057.862    2608.3453   -36666.207    59.842653    244.69961 
   19950    140.33589   -1331.1646    132468.71   -34028.696    2650.4416   -36679.138    59.947049    248.64883 
   20000    138.13963   -1148.3025    132554.25   -34086.834     2608.962   -36695.796    60.047673    244.75746 
   20050    136.09438   -1241.8652    132627.69   -34060.713    2570.3346   -36631.047    60.147481    241.13366 
   20100    136.98763   -1276.3601    132699.11   -34013.586    2587.2049   -36600.791    60.617037    242.71634 
   20150    141.69397   -1366.9194    132659.29   -34017.058    2676.0907   -36693.149    60.792403    251.05508 
   20200     138.9153   -1190.7099    132652.14   -34031.958    2623.6117   -36655.569    61.174808    246.13181 
   20250    136.66733   -1086.3141    132670.95   -34018.667    2581.1556   -36599.823    61.203475    242.14883 
   20300    139.11676   -945.56876    132720.67   -34013.097    2627.4165   -36640.513    61.581835    246.48876 
   20350    140.13779   -1289.0027    132756.15   -34003.574       2646.7   -36650.274     61.97708    248.29782 
   20400    139.95482   -1306.8022    132737.08   -34002.868    2643.2444   -36646.112    62.342683    247.97364 
   20450    137.50669   -1110.8322    132711.82   -33976.554     2597.008   -36573.562     62.61623    243.63601 
   20500    141.85491   -1384.9414    132671.81   -33897.836    2679.1303   -36576.966    62.697675    251.34024 
   20550    143.19693    -948.2865     132655.4   -33878.704    2704.4763    -36583.18     62.92662    253.71805 
   20600    143.07003   -1245.5948     132675.8   -33889.475    2702.0797   -36591.555    63.150874    253.49322 
   20650    142.06973   -1240.0936    132707.74   -33855.901    2683.1876   -36539.089    63.237024    251.72087 
   20700    143.74205   -905.47266    132762.23   -33834.228    2714.7716       -36549    63.456251     254.6839 
   20750    143.95738   -1263.0417    132796.21    -33772.33    2718.8384   -36491.168    63.614579    255.06542 
   20800    142.72131   -1181.6685    132741.92   -33802.862    2695.4935   -36498.355    63.772703    252.87534 
   20850    140.41931   -1269.4585    132734.33   -33836.536     2652.017   -36488.553    63.825284    248.79663 
   20900    141.93289   -1347.9521    132721.97   -33894.251    2680.6031   -36574.854    64.179662    251.47841 
   20950    138.76481   -1274.8457    132678.72   -33930.704    2620.7694   -36551.473    64.298626    245.86516 
   21000    137.86639   -1415.1028    132556.96   -33970.809    2603.8015    -36574.61    64.463578    244.27334 
   21050    138.81607   -958.65596    132533.02   -33955.321    2621.7376   -36577.059     64.70173      245.956 
   21100    137.89469   -1200.0171    132527.54   -33966.077     2604.336   -36570.413    64.877392    244.32348 
   21150     138.9328    -1388.913    132472.45   -33915.277    2623.9422   -36539.219    64.905954    246.16282 
   21200    139.87806   -1134.2211    132379.28   -33890.126    2641.7947   -36531.921    65.075095    247.83763 
   21250    138.64687    -1248.097       132343   -33957.764    2618.5421   -36576.306    65.050529    245.65621 
   21300    137.93546   -1271.3247    132354.07   -33953.307     2605.106   -36558.413     65.57089    244.39572 
   21350    138.67979   -1043.2319    132483.57   -33940.052    2619.1636   -36559.216    65.915736    245.71452 
   21400    136.98351   -1260.4192    132538.33   -33970.678    2587.1271   -36557.805    66.155188    242.70904 
   21450    139.18009    -1215.234    132676.52   -33961.209    2628.6125   -36589.822    66.225546    246.60096 
   21500     143.8451   -1195.2221     132765.9   -33937.703    2716.7179   -36654.421    66.683857    254.86649 
   21550    141.49109   -1145.8509    132804.66   -33944.775    2672.2591   -36617.034    66.816777    250.69562 
   21600    136.75226   -1327.7487    132838.79   -33961.131    2582.7596    -36543.89     66.80591    242.29931 
   21650    139.16449   -1307.4303    132840.31   -33980.905    2628.3179   -36609.223    66.912598    246.57332 
   21700    137.88407   -1427.9763    132769.31   -34014.937    2604.1354   -36619.072    67.027635    244.30466 
   21750    138.80203   -1319.2831    132709.72   -34005.358    2621.4724   -36626.831    67.123365    245.93111 
   21800    139.72819   -1110.6397    132719.77   -33943.415    2638.9643   -36582.379    67.085381     247.5721 
   21850    139.54818   -1110.0665    132709.45   -33967.608    2635.5646   -36603.172    67.450936    247.25316 
   21900    138.91834   -1165.8406    132755.57   -34031.449     2623.669   -36655.118    67.632232    246.13719 
   21950    138.54282   -1261.1866    132700.87   -34052.766    2616.5769   -36669.343    67.933539    245.47185 
   22000    140.71308   -990.76297    132797.95   -33999.129    2657.5652   -36656.694    68.085287    249.31713 
   22050    138.85244   -1175.1177    132909.65   -34009.643    2622.4245   -36632.067    68.138872    246.02043 
   22100    141.06074   -1178.9588    132928.44   -33994.498    2664.1314    -36658.63    68.134202    249.93313 
   22150    138.46242   -1256.4828    132836.89   -33972.802    2615.0583   -36587.861     68.09502    245.32938 
   22200    140.71115   -1346.2542    132733.77    -33942.44    2657.5288   -36599.968    68.216585    249.31371 
   22250    140.09342   -1231.0007    132719.19   -33925.128     2645.862    -36570.99    68.453488    248.21921 
   22300    141.82138   -1186.7177    132726.07   -33939.228     2678.497   -36617.725    68.548755    251.28083 
   22350    140.44278   -1355.1299     132726.3   -33988.519    2652.4602   -36640.979    68.776853    248.83821 
   22400    138.04935   -1405.8242    132592.83   -33990.733     2607.257    -36597.99    68.833032    244.59751 
   22450    141.61081   -1041.2751    132574.08   -33995.589    2674.5201   -36670.109     69.08773    250.90774 
   22500    141.15391   -1028.3433    132585.29   -33997.975     2665.891   -36663.866    69.286616    250.09821 
   22550    139.25511    -939.3839    132582.06    -34020.42    2630.0294   -36650.449    69.520869    246.73388 
   22600    139.47443   -1155.2835    132694.07   -34021.366    2634.1717   -36655.537    69.624053    247.12248 
   22650    138.87539   -1221.6905    132733.88   -34059.737    2622.8579   -36682.595    69.739093    246.06109 
   22700    140.14788   -1332.5897    132587.26   -34058.238    2646.8906   -36705.129    69.905924     248.3157 
   22750     137.3478    -1125.077    132504.47   -34078.138    2594.0072   -36672.146    70.078161    243.35449 
   22800    137.50813   -1202.4568    132432.92   -34052.147    2597.0353   -36649.182    70.268578    243.63857 
   22850     139.9284   -1101.2274    132454.64   -34045.686    2642.7454   -36688.432    70.209474    247.92683 
   22900     138.7545   -1261.3078    132338.05   -34026.862    2620.5746   -36647.437     70.14341    245.84689 
   22950    144.78294    -1225.878    132340.46   -33969.167    2734.4304   -36703.598    70.289965    256.52817 
   23000    139.51571    -1385.479    132312.77   -34019.605    2634.9513   -36654.556    70.396757    247.19562 
   23050     139.5818   -1175.0032    132340.19   -34007.645    2636.1994   -36643.845    70.730891    247.31272 
   23100    139.45424   -1169.0938    132393.58   -34058.614    2633.7903   -36692.404    70.803692    247.08671 
   23150    137.49515   -1248.7571    132349.67   -34048.407    2596.7901   -36645.197    70.818966    243.61557 
   23200     138.6406   -1229.9887    132259.43   -34074.221    2618.4236   -36692.645    71.097169    245.64509 
   23250    139.46575   -1364.6193    132261.35   -34039.197    2634.0077   -36673.205    71.354909    247.10711 
   23300    140.14511   -1110.9218    132266.46   -34098.949    2646.8384   -36745.787    71.688854    248.31081 
   23350    138.05939   -1155.4755    132323.11   -34069.884    2607.4466   -36677.331    71.388822    244.61529 
   23400    138.58133   -1229.4869    132302.24   -34062.581    2617.3042   -36679.885    71.197016    245.54008 
   23450    138.21152   -1409.3885    132334.87   -34078.865    2610.3199   -36689.185    71.327106    244.88485 
   23500    140.66667    -1040.494    132416.65   -34074.649    2656.6887   -36731.337    71.715828     249.2349 
   23550    137.45996   -1046.3058    132490.42   -34062.356    2596.1254   -36658.481    71.809525    243.55321 
   23600    137.31079   -1245.2013    132497.67   -34042.857    2593.3083   -36636.166    71.840712    243.28892 
   23650    140.94552   -1227.7029    132435.94   -34014.786    2661.9552   -36676.741    71.792251    249.72897 
   23700    139.41878   -1013.9002    132371.13   -34048.051    2633.1206   -36681.171    71.868813    247.02388 
   23750    137.80907   -1064.5524    132389.97   -34060.357    2602.7189   -36663.076    72.284529    244.17177 
   23800    140.07395   -1368.7498     132426.1   -34041.034    2645.4944   -36686.528      72.4652    248.18471 
   23850     137.7381   -1168.4935    132431.64   -34031.829    2601.3787   -36633.208    72.524603    244.04604 
   23900    137.89903   -1157.0057    132383.31    -34105.41     2604.418   -36709.828    72.540126    244.33117 
   23950    137.52829   -1399.2943    132310.03   -34077.344    2597.4161    -36674.76    72.610332    243.67429 
   24000    136.40487   -981.08457    132290.38   -34032.262    2576.1987    -36608.46    72.908677     241.6838 
   24050     142.1039   -939.90156    132237.36   -33995.591    2683.8329   -36679.424    73.216861    251.78141 
   24100    139.43783   -1261.9496    132248.85   -33945.808    2633.4803   -36579.288    73.555278    247.05763 
   24150    139.72927   -1236.8759    132218.26   -33951.268    2638.9847   -36590.253    73.621505    247.57401 
   24200    139.53892   -1122.1803    132230.85   -34014.429    2635.3896   -36649.819    73.916663    247.23674 
   24250     140.3293   -1192.4182    132256.68   -34026.488     2650.317   -36676.805    74.413927    248.63714 
   24300    139.43432   -1166.1793    132337.39   -33987.401     2633.414   -36620.815    74.564962    247.05141 
   24350    142.48051   -1326.0771     132326.7   -33989.383    2690.9457   -36680.329    74.561384    252.44869 
   24400    141.68151   -1379.5955    132251.52   -33974.371    2675.8554   -36650.227    74.886834    251.03301 
   24450    141.19624    -1316.131    132141.25   -33921.982    2666.6905   -36588.673    74.768922    250.17321 
   24500     142.6856   -1213.3763     132068.3   -33918.195    2694.8191   -36613.014    75.059916    252.81207 
   24550    145.48623   -1168.5564    131956.58    -33938.16     2747.713   -36685.873    75.011636    257.77427 
   24600    138.59288   -1255.2891    131932.16   -33947.868    2617.5224    -36565.39    75.035803    245.56054 
   24650    137.98234   -1057.7694    132010.16   -33936.841    2605.9913   -36542.832    75.230585    244.47877 
   24700    138.53608   -1141.2095    132060.36   -33949.788    2616.4496   -36566.238    75.431543     245.4599 
   24750    141.27915   -1414.7846    131957.18   -33924.786    2668.2563   -36593.043    75.479667    250.32011 
   24800    138.94804   -1128.9635    131910.86   -33963.667    2624.2299   -36587.897     75.68328    246.18981 
   24850    140.31638    -1255.784    131864.58   -33934.834     2650.073   -36584.907    75.784017    248.61425 
   24900    138.91706   -1115.8646    131814.51   -33896.657     2623.645   -36520.302    75.836182    246.13493 
   24950    140.56718   -1335.9193    131849.78   -33907.247    2654.8097   -36562.057    76.037967    249.05863 
   25000    141.01105   -1286.1669    131890.34   -33883.585    2663.1929   -36546.778    76.209172    249.84508 
   25050    139.30427   -980.93801    131860.47   -33870.434     2630.958   -36501.392    76.483642    246.82099 
   25100     138.8098   -1078.0223    131895.41   -33891.413    2621.6191   -36513.032     76.62794    245.94488 
   25150    138.06675   -1314.5538    131875.69   -33888.253    2607.5857   -36495.839    76.820393    244.62834 
   25200    137.83526   -1020.8358    131951.46   -33901.082    2603.2135   -36504.296    76.942033    244.21817 
   25250    139.71324   -927.73293    131991.56   -33925.016     2638.682   -36563.698    77.210369    247.54561 
   25300    141.17551   -822.07792    132086.56   -33890.663    2666.2989   -36556.961    77.596444    250.13647 
   25350    142.37375   -982.65566    132186.97   -33867.671    2688.9293   -36556.601    77.883727    252.25953 
   25400    142.00417   -1207.9568    132184.25   -33859.999    2681.9492   -36541.948    78.005118     251.6047 
   25450    144.55016   -969.44013    132259.62   -33872.571    2730.0339   -36602.605    77.982735    256.11571 
   25500    138.79311   -1145.6711    132242.28   -33870.833    2621.3039   -36492.137    78.120297    245.91531 
   25550    140.28437   -1391.6206    132166.48   -33886.618    2649.4684   -36536.086    78.434651    248.55754 
   25600    139.47532   -1396.0753    132095.67   -33911.368    2634.1884   -36545.556    78.516239    247.12405 
   25650    139.10462   -1226.4265    132070.58   -33890.291    2627.1872   -36517.478    78.505427    246.46724 
   25700    140.21596   -1210.5059     132027.4   -33909.897    2648.1765   -36558.074    78.471265    248.43633 
   25750    141.71859   -953.29262    132067.26   -33889.244    2676.5557   -36565.799    78.694227    251.09871 
   25800    143.85263   -1003.0608    132235.05   -33857.093    2716.8601   -36573.953    78.954986    254.87983 
   25850    141.92176    -1306.422    132288.04    -33858.98    2680.3929   -36539.373    79.431094    251.45869 
   25900    144.48803   -1059.6312    132337.53    -33843.27    2728.8605    -36572.13    79.681109    256.00564 
   25950    140.36001   -1192.0752    132406.98   -33895.929    2650.8971   -36546.826    80.026539    248.69157 
   26000    139.39712   -1148.3316    132401.68   -33884.143    2632.7114   -36516.854    80.068324     246.9855 
   26050    142.93291   -1314.5286    132369.03   -33833.232    2699.4899   -36532.722    80.174578    253.25026 
   26100     141.5372   -1097.9715     132395.6   -33867.142    2673.1299   -36540.271    80.176921    250.77732 
   26150    140.09746   -1020.5197    132547.38   -33888.625    2645.9384   -36534.564    80.425572    248.22637 
   26200    142.25251   -1114.0147    132573.27    -33866.92    2686.6395    -36553.56    80.547183    252.04471 
   26250    139.27428   -1122.4855    132609.67   -33874.141    2630.3915   -36504.533    80.556188    246.76785 
   26300    140.94443   -1426.3461    132524.56   -33832.266    2661.9346     -36494.2    80.623418    249.72704 
   26350    140.37283   -1243.6201    132527.83   -33823.412    2651.1391   -36474.551    80.804142    248.71427 
   26400    137.09013   -1306.4045    132549.61   -33879.559    2589.1408     -36468.7    81.283377    242.89795 
   26450    138.34878   -1102.2111    132558.23   -33919.375    2612.9121   -36532.287     81.38417    245.12804 
   26500    141.58157   -1452.1319    132449.17   -33881.781     2673.968   -36555.749    81.362588    250.85594 
   26550    140.49456   -1241.7844    132468.64   -33923.224    2653.4382   -36576.662    81.691409    248.92996 
   26600     141.6242    -1222.637    132525.31     -33892.1     2674.773   -36566.872    82.042445    250.93146 
   26650    140.07906   -1369.1289    132442.53   -33914.284     2645.591   -36559.875    82.305031    248.19378 
   26700    139.11553   -1133.3496    132425.27   -33903.941    2627.3933   -36531.335    82.544786    246.48658 
   26750    141.02807   -964.39399    132367.55   -33853.986    2663.5142     -36517.5    82.557936    249.87523 
   26800    141.99879   -1331.9062    132309.21   -33923.624    2681.8477   -36605.472    82.739822    251.59517 
   26850    136.29459   -1392.7502    132277.18   -33945.805    2574.1159   -36519.921    82.901632    241.48841 
   26900    140.54141   -1168.3887    132289.09    -33904.97    2654.3231   -36559.293    82.853889    249.01297 
   26950    138.53551    -1544.067    132299.88   -33931.976    2616.4388   -36548.415    83.093112    245.45889 
   27000    138.54167   -1310.2057     132260.6   -33987.026    2616.5551   -36603.581    83.069957     245.4698 
   27050    137.93933   -1391.4719    132215.17   -33983.112     2605.179   -36588.291    82.855823    244.40256 
   27100    140.90639   -1408.9473    132132.99   -33988.576    2661.2163   -36649.792    83.103954    249.65965 
   27150     137.3526   -1181.5983     132003.2   -34056.501    2594.0979   -36650.599    83.177715      243.363 
   27200    138.89873   -1625.9236    131890.88   -34042.403    2623.2986   -36665.701    82.999799    246.10244 
   27250    138.38388   -1150.3596    131806.54   -34015.997    2613.5751   -36629.572    83.145093    245.19023 
   27300    142.39203   -1107.2737    131884.79   -33996.594    2689.2746   -36685.869    83.471521    252.29192 
   27350     138.9706   -1429.0747    131917.57   -34005.944    2624.6561   -36630.601    83.654103    246.22979 
   27400    141.30384   -1253.2205    131881.95   -34029.179    2668.7226   -36697.901    83.736619    250.36385 
   27450    137.62073   -1412.3529    131867.62   -34022.742    2599.1618   -36621.904    83.901726    243.83807 
   27500    140.95731   -1209.6362    131927.38    -34065.29    2662.1778   -36727.468    83.915703    249.74986 
   27550    139.31909   -1214.9431    131963.18   -34042.562    2631.2378   -36673.799    84.135631    246.84724 
   27600    142.12543   -1375.1164    132044.42   -33999.741    2684.2396   -36683.981    84.420908    251.81956 
   27650    143.02125   -1248.7972    132067.63   -34003.904    2701.1584   -36705.062    84.385391    253.40678 
   27700      141.641    -1474.416    132026.63     -33968.6    2675.0904    -36643.69    84.370175    250.96124 
   27750    142.71116   -1320.1564    132000.41   -33935.369    2695.3019    -36630.67      84.2525    252.85736 
   27800    141.97855    -865.8539     132124.3   -33978.311    2681.4654   -36659.776    84.513501     251.5593 
   27850    140.36901   -1502.4798    132119.93   -34031.646    2651.0671   -36682.713    84.878474    248.70751 
   27900    139.99029   -1246.6552    132054.57     -34028.4    2643.9143   -36672.315    84.802672    248.03648 
   27950    139.46294   -1066.6716    131987.49       -34053    2633.9546   -36686.954    85.110016    247.10212 
   28000     137.9382   -1125.1135     131926.6    -34097.13    2605.1577   -36702.287    85.389304    244.40056 
   28050    138.98648   -1004.1334    131925.28   -34060.863     2624.956   -36685.819     85.60905    246.25792 
   28100    136.80464   -1286.1927    131887.24   -34114.576    2583.7488   -36698.324    85.955591    242.39211 
   28150    140.08185   -1329.6034     131960.5   -34050.193    2645.6435   -36695.836    85.976042    248.19871 
   28200    138.50035   -1527.4308    131924.86   -33993.833    2615.7748   -36609.608    86.158709     245.3966 
   28250    139.87849   -1239.9116    131917.07   -33967.673    2641.8029   -36609.475    86.143162     247.8384 
   28300    137.92804   -1074.2707    131943.54   -34032.776    2604.9659   -36637.741    86.301038    244.38257 
   28350    140.44099   -1088.0081    131928.31   -34006.873    2652.4265   -36659.299    86.453345    248.83505 
   28400    138.75052   -1016.5737    131971.06   -34018.918    2620.4995   -36639.417     86.41255    245.83984 
   28450    139.49044   -1030.8637    132052.35   -34044.972     2634.474   -36679.446    86.569156    247.15084 
   28500    139.26102   -925.63051    132092.75   -34050.318     2630.141   -36680.459     86.83611    246.74435 
   28550    138.34485   -1211.5074    132141.79   -34053.989    2612.8379   -36666.827    87.097579    245.12108 
   28600    135.69719   -1204.7341    132119.74   -34078.446    2562.8331   -36641.279    87.283637    240.42992 
   28650    142.51296   -1190.7863     132113.3   -34008.654    2691.5585   -36700.212    87.397171    252.50618 
   28700    141.35194   -1262.5384    132083.48   -33982.145     2669.631   -36651.776    87.574851    250.44907 
   28750    141.39627   -1301.0288    132085.67   -33972.925    2670.4683   -36643.393    87.899695    250.52762 
   28800    139.48541   -1163.9983    132124.07    -34012.23     2634.379   -36646.609    88.044144    247.14194 
   28850    138.93202   -1158.6603     132161.5   -34037.808    2623.9275   -36661.735    87.992578    246.16143 
   28900    138.51611    -1318.572     132121.3   -34037.539    2616.0724   -36653.611     88.01345    245.42452 
   28950    142.09337    -1239.583    131993.09   -34012.202     2683.634   -36695.836    88.339734    251.76275 
   29000    138.50739   -1287.8914    131812.34   -34037.398    2615.9077   -36653.306    88.510329    245.40907 
   29050     141.3321   -1118.3705    131804.17   -34016.428    2669.2564   -36685.685    89.004658    250.41393 
   29100    138.17561   -1065.8627    131858.76   -34024.336    2609.6416   -36633.977    89.007023    244.82121 
   29150    139.20123   -977.93119    131905.15   -34030.492    2629.0119   -36659.504    88.993551    246.63843 
   29200    138.38373   -902.56351    131938.78   -34047.118    2613.5722    -36660.69    89.179686    245.18996 
   29250    143.25669   -1046.7893    132020.43   -33977.251    2705.6049   -36682.856    89.224275    253.82393 
   29300    141.59071   -1334.9283    132030.88    -33968.54    2674.1405   -36642.681    89.271134    250.87213 
   29350    141.73233   -1197.8029    132020.99   -33946.615    2676.8152    -36623.43    89.191644    251.12305 
   29400    138.79845   -1274.6289    131998.92   -33963.113    2621.4048   -36584.517    89.208995    245.92477 
   29450    139.74836   -1357.9315    132037.82   -33997.812    2639.3451   -36637.157    89.396928    247.60783 
   29500    140.48876   -1261.5064    132096.34   -33964.192    2653.3287   -36617.521    89.644593    248.91969 
   29550    137.76333   -1272.7835    132089.49   -34038.124    2601.8552   -36639.979    90.071755    244.09074 
   29600    134.04319   -1271.6928    131938.05   -34049.775    2531.5949    -36581.37    89.990651    237.49934 
   29650    136.35649   -1340.3624    131801.88    -34057.37    2575.2848   -36632.655    89.994652    241.59807 
   29700     138.8446   -1179.6538    131800.43   -34035.796    2622.2763   -36658.072    89.826663    246.00654 
   29750     137.6539   -1369.4513     131792.3   -34055.384    2599.7883   -36655.172    89.769238    243.89684 
   29800    136.85593   -1149.6847    131792.56   -34062.287    2584.7176   -36647.005    89.843098    242.48299 
   29850    139.30209   -1244.6716    131860.72    -34047.86    2630.9167   -36678.777    90.281471    246.81712 
   29900    139.96231   -1160.1895    131887.82   -34012.051     2643.386   -36655.437    90.630764    247.98692 
   29950    142.03052   -928.07883    131921.01    -33971.12     2682.447   -36653.567    90.701782    251.65139 
   30000    140.52088   -1062.4892    132018.44   -33956.669    2653.9353   -36610.605    90.944031    248.97659 
   30050    143.84996   -1207.2455    132082.83   -34000.181    2716.8098   -36716.991    91.211635     254.8751 
   30100    137.62187   -1163.6065    132114.01    -34016.47    2599.1833   -36615.653     91.52201    243.84009 
   30150    140.47398    -1351.339    132139.31   -34026.914    2653.0495   -36679.964    91.850796    248.89349 
   30200    138.94013    -1180.992    132172.93    -34001.48    2624.0807   -36625.561    92.224612    246.17581 
   30250    140.29358   -1196.1445    132120.69   -33979.526    2649.6424   -36629.168    92.406757    248.57386 
   30300    139.83014   -1278.1354       132042   -34036.099    2640.8897   -36676.988    92.865006    247.75273 
   30350    138.77071   -1344.0736    131930.72   -34034.698    2620.8809   -36655.579    93.163698    245.87562 
   30400    136.13969   -1259.1377    131893.85   -34067.567    2571.1903   -36638.758    93.052356    241.21394 
   30450    138.62336   -1135.3962     131975.4   -34061.616    2618.0979   -36679.714    93.101697    245.61454 
   30500    139.84715   -1193.6064    131987.83   -33992.985    2641.2109   -36634.196    93.131526    247.78287 
   30550    140.12003   -1118.2801    131941.53   -33960.197    2646.3646   -36606.561    93.233413    248.26636 
   30600     138.6757    -1294.233    131947.38   -34043.448    2619.0865   -36662.535    93.616548    245.70728 
   30650    139.07814   -1151.8598    131933.06   -33992.072    2626.6872    -36618.76    93.742114    246.42033 
   30700    140.71591    -995.2182    132067.05   -33979.176    2657.6188   -36636.795    93.827155    249.32216 
   30750    138.44355   -1021.9189       132210   -34014.205    2614.7021   -36628.908    94.162467    245.29596 
   30800    140.65084   -1332.0235    132256.42   -33983.612    2656.3898   -36640.002    94.456928    249.20686 
   30850    137.93088   -985.09365    132276.14   -33996.207    2605.0195   -36601.226    94.882028     244.3876 
   30900    141.77001   -1016.6059    132298.64   -33965.995    2677.5269   -36643.522    95.308129    251.18982 
   30950    141.08938   -1104.9862    132334.86   -33892.074    2664.6722   -36556.746    95.530376    249.98386 
   31000    142.32349   -1359.5098    132340.65   -33883.109    2687.9801   -36571.089    95.771907    252.17047 
   31050    141.93868   -1228.5827    132326.81   -33923.307    2680.7125    -36604.02    95.798021    251.48867 
   31100     137.9951   -1086.2843    132399.99   -33941.429    2606.2324   -36547.661    95.963758    244.50139 
   31150    141.36932    -1267.917    132351.91   -33868.073    2669.9593   -36538.033    95.885356    250.47987 
   31200    142.07566   -1038.1878    132342.49   -33817.749    2683.2995   -36501.049    95.869007    251.73137 
   31250    140.97341    -1121.181    132326.89   -33870.616     2662.482   -36533.098    95.963843    249.77839 
   31300    144.27699   -1175.1772     132355.8   -33768.948    2724.8748   -36493.823    96.225635    255.63172 
   31350    144.57339   -1130.5482    132374.87   -33811.197    2730.4726   -36541.669    96.402295    256.15687 
   31400    143.01343   -1266.6856    132424.32   -33790.669    2701.0106    -36491.68    96.292631    253.39292 
   31450    139.37808   -1101.4747    132457.97   -33833.392    2632.3519   -36465.744    96.775879    246.95176 
   31500     142.4135    -1256.078    132478.65   -33847.802    2689.6801   -36537.482    97.140258    252.32996 
   31550    142.37134   -1027.6295    132502.33   -33845.515    2688.8838   -36534.399      97.4828    252.25526 
   31600    139.11295   -1312.2714    132429.01   -33846.736    2627.3446    -36474.08    97.758473    246.48201 
   31650    141.11486   -1274.4088    132406.76   -33864.722    2665.1535   -36529.876    97.708586    250.02901 
   31700     137.2158   -1689.4096    132252.62   -33878.546    2591.5142   -36470.061    97.972318    243.12061 
   31750     140.6217     -1293.29    132244.48   -33871.043    2655.8395   -36526.882    97.864979    249.15523 
   31800    144.24905   -1197.7835    132210.78   -33796.396     2724.347   -36520.744    98.202827    255.58221 
   31850    138.74882   -1036.1237    132304.11   -33845.924    2620.4674   -36466.391    98.661061    245.83683 
   31900    142.69318   -1114.3082    132375.57   -33820.542    2694.9623   -36515.504    98.911934    252.82551 
   31950    142.76944   -1250.9336    132346.98   -33788.665    2696.4025   -36485.068    98.931495    252.96062 
   32000    141.97881   -1580.4169    132315.08   -33800.024    2681.4703   -36481.494    99.226972    251.55977 
   32050    138.55326   -1087.6368    132272.89   -33848.432    2616.7739   -36465.206    99.409083    245.49033 
   32100    141.33818   -1039.4551    132270.01   -33831.566    2669.3711   -36500.937    99.630899    250.42469 
   32150    140.86435   -1154.3371    132316.81   -33817.609    2660.4222   -36478.031    99.888277    249.58515 
   32200    139.20583   -1502.9295    132308.04   -33845.603    2629.0987   -36474.702    100.31041    246.64657 
   32250    140.45062   -1462.2166    132323.32   -33916.135    2652.6083   -36568.743    100.59133     248.8521 
   32300    141.48558   -1454.3456    132313.91   -33909.762     2672.155   -36581.917    100.86392    250.68585 
   32350    142.35568   -1235.4939    132315.83    -33870.56    2688.5882   -36559.149     101.3027    252.22752 
   32400    139.31672    -1029.015    132324.58   -33893.509    2631.1931   -36524.702    101.49656    246.84305 
   32450      139.407     -1114.63    132392.76   -33840.897    2632.8981   -36473.796    101.74687    247.00301 
   32500    141.12406   -1076.3654    132387.12   -33819.337    2665.3273   -36484.665    101.72897    250.04532 
   32550    142.97141   -1379.5442     132381.3   -33793.166    2700.2171   -36493.383    101.73901    253.31848 
   32600    141.84322   -1184.0596     132385.9   -33806.786    2678.9097   -36485.696    101.67195    251.31954 
   32650    142.69553   -1287.0082    132400.07   -33765.155    2695.0066   -36460.161    101.96926    252.82966 
   32700    143.75824   -1328.3145    132376.23   -33827.243    2715.0774    -36542.32     102.2024    254.71259 
   32750    140.61312   -1253.9133    132339.66   -33836.497    2655.6773   -36492.174    102.20705    249.14002 
   32800    140.51582   -1166.3851    132297.67   -33853.311    2653.8397   -36507.151    102.40981    248.96763 
   32850    140.59524   -1009.9563    132338.17   -33853.644    2655.3397   -36508.984    102.80849    249.10835 
   32900    137.84658   -942.91452    132278.09   -33927.139    2603.4274   -36530.567    102.87967    244.23824 
   32950    141.68647   -1101.7006    132296.04   -33963.332    2675.9492   -36639.281    102.95539    251.04181 
   33000    141.57842   -1074.1139     132381.6   -33895.628    2673.9085   -36569.537    102.90508    250.85036 
   33050    139.64745   -1338.1059    132365.95   -33902.648    2637.4394   -36540.087    103.09069    247.42905 
   33100    141.02944   -1169.0539    132313.91   -33925.028    2663.5403   -36588.569    103.01804    249.87767 
   33150    139.80365   -1228.3413    132336.71   -33928.417    2640.3894   -36568.806    103.21037     247.7058 
   33200    140.70173    -1300.473     132285.9   -33951.959    2657.3509    -36609.31    103.57858    249.29702 
   33250    141.98283   -1570.8866     132265.4   -33965.637    2681.5464   -36647.183    103.64817     251.5669 
   33300    137.07613    -1361.008    132101.44   -33982.553    2588.8763   -36571.429    104.06731    242.87314 
   33350    140.10633   -1099.8529     132051.6   -33951.081    2646.1059   -36597.187    104.27337    248.24209 
   33400    137.50759     -1078.14    132086.33   -33937.111    2597.0251   -36534.136    104.45862    243.63761 
   33450     141.1811   -1078.4762    132091.91   -33940.429    2666.4044   -36606.833    104.92529    250.14637 
   33500    138.93668   -1379.2492    132221.52   -33962.674    2624.0155    -36586.69    105.42917    246.16969 
   33550    141.55681   -1298.4821    132179.86   -33937.073    2673.5002   -36610.573    105.68213    250.81206 
   33600     139.1979   -1149.8418    132152.77   -33960.156    2628.9489   -36589.105    105.71396    246.63251 
   33650    140.56744   -1305.1416    132221.33   -33970.156    2654.8147   -36624.971    105.87496     249.0591 
   33700    138.41041   -1179.4004    132139.88   -34029.598    2614.0761   -36643.674    105.86143    245.23724 
   33750    138.04106   -1102.9011    132153.23   -34007.818    2607.1004   -36614.918    106.00763    244.58281 
   33800    142.92569    -943.0348    132137.55   -34010.228    2699.3536   -36709.582    106.15336    253.23747 
   33850    142.00648   -1279.9804    132238.39   -33927.345     2681.993   -36609.338    106.65182     251.6088 
   33900    140.72928   -1158.4261    132255.76   -33932.152    2657.8713   -36590.023    106.79439    249.34585 
   33950    141.28553   -1187.2506    132328.31   -33942.615    2668.3768   -36610.992    107.16242    250.33141 
[...]
   92000    141.50886   -1611.6916    132165.84   -33952.097    2672.5946   -36624.692    289.08029     250.7271 
   92050    140.00064   -998.93593    132233.15   -33923.841    2644.1098   -36567.951    289.15754    248.05482 
   92100    140.67504   -1430.7069    132175.33   -33877.566    2656.8468   -36534.413    289.65808    249.24974 
   92150    138.49771   -1180.2966    132108.93   -33961.869    2615.7249   -36577.593    289.79405    245.39192 
   92200    141.13488   -1160.4872     132116.4   -33968.877    2665.5315   -36634.408     289.9979    250.06448 
   92250    139.86466   -1345.7259    132152.17   -33972.682    2641.5418   -36614.224    289.74244     247.8139 
   92300    139.15541   -1119.3376    132097.68   -33964.498    2628.1464   -36592.645    289.58218    246.55723 
   92350     140.1273   -1134.4632    132046.15   -34023.701    2646.5019   -36670.203    289.93607    248.27924 
   92400    137.58944   -1262.2448    132082.63   -34028.649     2598.571    -36627.22    290.09023    243.78264 
   92450    139.20927    -1117.383    132089.62   -34024.386    2629.1637    -36653.55     290.3375    246.65266 
   92500    141.05253   -985.92719    132200.55   -34027.369    2663.9763   -36691.345    290.37259    249.91858 
   92550    140.80834   -1119.7818    132234.67   -33976.119    2659.3644   -36635.483    290.88163    249.48592 
   92600     138.6981   -1157.1501    132285.59   -33951.891    2619.5095     -36571.4    291.45262    245.74697 
   92650    141.67137   -1258.1538     132220.1     -33960.2    2675.6639   -36635.864    291.48767    251.01504 
   92700    136.27582   -1137.7603    132142.11   -33972.724    2573.7614   -36546.485    291.47363    241.45515 
   92750    143.41009   -1129.7466    132031.42   -33936.941    2708.5021   -36645.443    291.38187    254.09573 
   92800     142.3064   -1033.3918    132112.23   -33959.579    2687.6574   -36647.237     291.6663     252.1402 
   92850    141.69333   -959.08983    132188.65   -33981.106    2676.0786   -36657.185    292.37245    251.05395 
   92900    141.40347   -1134.0102    132277.22   -34018.138    2670.6043   -36688.743    292.78745    250.54038 
   92950     140.4791   -1034.6886     132304.1   -34018.643    2653.1462   -36671.789    292.97559    248.90256 
   93000    140.05111   -1062.3633    132342.17   -34015.948     2645.063   -36661.011    293.12672    248.14425 
   93050    140.29096   -1087.8479    132440.73   -33968.182    2649.5929   -36617.774    293.30078    248.56921 
   93100    139.56805   -1437.9413    132476.87   -33983.407    2635.9398   -36619.347    293.67956    247.28836 
   93150    137.51695   -1190.7852     132462.2   -34039.144    2597.2017   -36636.346    293.67791    243.65418 
   93200    139.67741   -1090.2384    132476.95   -34079.903    2638.0052   -36717.908    294.02743    247.48212 
   93250     137.7517   -1170.8957    132602.78   -34059.398    2601.6355   -36661.033    294.26725    244.07013 
   93300    141.36704   -1372.1374    132636.55   -33994.032    2669.9163   -36663.948     294.6911    250.47583 
   93350    141.01833   -1183.3371    132591.67   -34007.995    2663.3303   -36671.325     294.9491    249.85797 
   93400    143.55005   -1194.7545    132585.35   -34018.584    2711.1454   -36729.729    294.91549    254.34371 
   93450    140.55291   -1196.3395    132523.31   -34026.591    2654.5402   -36681.131    294.83312    249.03334 
   93500    138.31054    -1522.006    132569.46   -34032.141      2612.19   -36644.331    295.32444    245.06029 
   93550    139.56223   -1115.8511    132575.44   -34022.716    2635.8298   -36658.546    295.09288    247.27804 
   93600    137.86369   -1276.0456    132599.24   -34054.791    2603.7505   -36658.542    295.38093    244.26855 
   93650    136.80876   -1519.1003    132666.34   -34080.077    2583.8268   -36663.904    295.64862    242.39942 
   93700    138.77934    -1422.595    132559.28   -34124.338    2621.0439   -36745.382    295.61177    245.89091 
   93750    136.86714   -1104.5261    132465.11   -34152.678    2584.9292   -36737.607    295.79837    242.50285 
   93800    137.31259   -1182.7322     132414.6   -34164.007    2593.3423   -36757.349    295.59481    243.29211 
   93850    138.99268   -1224.8161    132338.44   -34094.761     2625.073   -36719.834    295.91225     246.2689 
   93900    136.60322   -1277.1765    132342.27   -34090.326    2579.9448   -36670.271    296.03311    242.03524 
   93950    139.03428   -1221.0005    132347.32   -34022.446    2625.8588   -36648.305    295.96466    246.34262 
   94000    136.12885   -1163.3883    132307.87   -34066.399    2570.9855   -36637.384    296.46813    241.19474 
   94050    138.10069   -1458.1693    132334.97   -34079.285    2608.2265   -36687.512    296.32726    244.68846 
   94100    139.42649   -1339.0419    132215.69   -34113.286    2633.2662   -36746.552    296.01437    247.03754 
   94150    139.35132    -1089.262    132164.16   -34119.918    2631.8466   -36751.765    296.03439    246.90436 
   94200     140.2279   -1193.2875     132225.3   -34099.761    2648.4019   -36748.163    296.05361    248.45748 
   94250    137.80241   -1063.3774    132251.97   -34089.556    2602.5932   -36692.149    295.76574    244.15998 
   94300    140.77389   -934.43751    132205.68   -34059.144    2658.7137   -36717.858    295.81662    249.42487 
   94350    138.89634   -1041.5302    132204.48   -34021.872    2623.2535   -36645.125     296.0391     246.0982 
   94400    138.67065   -1127.6115    132229.95   -34077.856    2618.9911   -36696.847    296.21844    245.69833 
   94450    140.52982   -1083.1883    132213.63   -33993.386    2654.1041   -36647.491    296.17698    248.99243 
   94500    138.35476    -1094.012    132215.94   -33952.634    2613.0251   -36565.659    296.58105    245.13864 
   94550    139.46332   -1202.0103    132211.79   -33983.238    2633.9617     -36617.2    296.91066    247.10279 
   94600    140.71153   -1111.3968    132275.13   -33976.205    2657.5361   -36633.742    297.57378     249.3144 
   94650    138.61274   -1384.3186    132220.81    -33994.96    2617.8973   -36612.857    297.56913    245.59572 
   94700    138.26015   -1157.4165    132167.48   -34002.979    2611.2382   -36614.217    297.96235      244.971 
   94750    139.19719   -1161.8928    132224.84   -34046.577    2628.9356   -36675.512     298.1442    246.63126 
   94800    139.55064   -887.35146    132253.97   -34008.189    2635.6109     -36643.8    297.89138    247.25751 
   94850     136.5761   -1159.1081     132384.4   -34050.021    2579.4326   -36629.453    298.15952    241.98719 
   94900    141.00118   -984.61189    132355.76   -34011.664    2663.0065    -36674.67     298.2974     249.8276 
   94950    137.98416   -1246.6657    132317.42   -34010.853    2606.0257   -36616.879    298.56351      244.482 
   95000    139.78258   -988.77975    132371.17   -34033.385    2639.9915   -36673.376    298.72834    247.66846 
   95050    138.63422    -1251.828    132463.65   -34048.329    2618.3031   -36666.632    298.93078    245.63379 
   95100    139.83939   -1155.9094    132490.21    -34039.79    2641.0644   -36680.855    298.82767    247.76912 
   95150    141.33606   -1245.3981    132496.44   -34044.596    2669.3311   -36713.927    299.03009    250.42093 
   95200    140.34083   -1317.4038    132494.37   -34070.498    2650.5347   -36721.033    299.46535    248.65757 
   95250    140.92939    -1414.774    132442.78   -34056.543    2661.6506   -36718.194    299.41319     249.7004 
   95300    137.27383   -1126.6208    132410.71   -34049.386    2592.6101   -36641.997    299.59224    243.22342 
   95350    144.12896   -858.37475    132514.11   -34009.443    2722.0789   -36731.522    299.94501    255.36942 
   95400    136.58608   -1029.1287    132573.34   -34025.523     2579.621   -36605.144    299.89991    242.00486 
   95450    139.82222   -1100.0005       132564   -34018.219      2640.74   -36658.959    299.80939    247.73869 
   95500     138.3965   -1173.7178    132580.39   -34032.719    2613.8134   -36646.533    299.98447    245.21259 
   95550    141.40645   -1296.3029    132520.49   -33996.009    2670.6606    -36666.67    299.85618    250.54567 
   95600    140.91579     -1180.44    132465.77   -34020.575    2661.3938   -36681.968    299.98606    249.67631 
   95650    138.06301   -1269.6752    132422.98   -34061.139    2607.5149   -36668.654    300.64903    244.62171 
   95700    139.28936   -1034.4038    132429.19   -34018.789    2630.6763   -36649.465    300.42213    246.79457 
   95750    141.40699   -1175.8153    132410.25   -34071.792    2670.6707   -36742.463    300.75061    250.54661 
   95800    139.38315   -1004.0494    132431.07   -34079.082    2632.4478   -36711.529    300.95577    246.96076 
   95850    134.11564   -1235.8234    132456.91   -34175.693    2532.9633   -36708.656    301.14322    237.62771 
   95900    135.26713   -1329.5397    132452.69   -34178.369    2554.7108    -36733.08    301.71547    239.66793 
   95950    135.98523   -1470.6695    132316.46    -34205.46    2568.2732   -36773.733    302.45516    240.94028 
   96000    140.03981   -1232.8446    132247.26   -34148.622    2644.8495   -36793.472    302.63944    248.12422 
   96050    137.08711   -1361.5442    132216.48   -34107.196    2589.0837    -36696.28    303.23943     242.8926 
   96100    136.74066   -1061.1804    132211.16    -34145.72    2582.5404   -36728.261    303.52012    242.27875 
   96150    142.36682   -1066.9887    132202.63   -34056.854    2688.7986   -36745.653    303.35601    252.24726 
   96200     139.5539   -1021.3092    132196.98   -34055.616    2635.6725   -36691.289     303.7133    247.26329 
   96250    140.45776   -1084.6438    132148.61   -34084.695    2652.7433   -36737.438    303.73409    248.86476 
   96300    138.63869   -967.27526    132199.54    -34104.14    2618.3874   -36722.527    303.96697     245.6417 
   96350    138.67856   -1175.9328     132174.6    -34066.79    2619.1404   -36685.931     303.9686    245.71234 
   96400    139.06138   -1039.1101    132202.43   -34069.326    2626.3705   -36695.696    304.29512    246.39063 
   96450    140.15142   -846.53669    132261.13   -34050.409    2646.9575   -36697.366    304.51192    248.32198 
   96500    141.00972   -1408.0754    132266.88   -34054.672    2663.1678    -36717.84    305.00902    249.84273 
   96550    138.92137   -1296.2166    132177.82   -34046.601    2623.7264   -36670.327    304.98849    246.14257 
   96600    138.53739   -1071.8966    132238.81   -34041.451    2616.4744   -36657.925    305.70908    245.46223 
   96650    139.31767   -1122.2654    132234.59   -34025.478     2631.211   -36656.689    306.03133    246.84473 
   96700    139.07833   -1386.0253     132198.2    -33999.37    2626.6908   -36626.061    306.11735    246.42067 
   96750    139.39639   -1127.5382     132186.5   -34000.879    2632.6977   -36633.577    306.17105    246.98421 
   96800    139.75121   -1340.9338    132179.01    -33977.36     2639.399   -36616.759    306.34881    247.61288 
   96850    140.00126    -1307.397    132200.36    -33996.03    2644.1215   -36640.151    306.61155    248.05592 
   96900    140.53164   -1210.1885    132171.86   -34006.104    2654.1385   -36660.243    306.32004    248.99566 
   96950    136.70179   -1241.8977    132214.96   -34076.845    2581.8063   -36658.652    306.89034    242.20988 
   97000    137.78893   -1181.9124    132193.32   -34068.178    2602.3386   -36670.517    306.72495    244.13609 
   97050    139.22499   -1351.1861     132208.2   -34065.842    2629.4606   -36695.303    307.23083    246.68052 
   97100     141.6257   -1225.7861    132299.84   -34065.931    2674.8013   -36740.732    308.36515    250.93412 
   97150    139.03585   -1200.5513    132364.96   -34035.864    2625.8885   -36661.752    308.42395    246.34541 
   97200    140.91711   -771.30039    132476.35   -34024.878    2661.4186   -36686.296    308.98199    249.67864 
   97250    141.31473   -1343.9493    132543.68   -34052.606    2668.9283   -36721.534     309.0621    250.38315 
   97300    139.32857   -1485.3673    132570.38   -34038.414    2631.4169   -36669.831    308.94044    246.86405 
   97350    141.38995   -1431.8786    132567.05   -34040.427     2670.349   -36710.776    309.18035    250.51643 
   97400    144.11856   -1305.8771    132538.85   -34015.839    2721.8826   -36737.722    309.34948    255.35101 
   97450     141.7285   -928.11831    132628.72   -34045.072    2676.7429   -36721.814    309.43758    251.11627 
   97500    141.30067   -929.40402    132762.51   -34041.444    2668.6628   -36710.107    309.80211    250.35824 
   97550    137.50235   -993.46187    132925.45   -34111.527    2596.9261   -36708.454    310.06922    243.62833 
   97600    137.49753   -897.19976    133112.06   -34123.924     2596.835   -36720.759    310.11414    243.61978 
   97650    137.98825   -861.01731    133142.08   -34106.509    2606.1031   -36712.613    310.76091    244.48926 
   97700    137.91793   -1151.1702    133199.58   -34111.601    2604.7749   -36716.376    311.22204    244.36465 
   97750    135.31832   -1058.9354    133128.48   -34092.854    2555.6776   -36648.531    310.98755    239.75863 
   97800    138.60353   -1283.2005    133022.18   -34042.662    2617.7234   -36660.385    311.01679    245.57941 
   97850    140.24777   -1176.7174    133025.84    -34023.66    2648.7772   -36672.438    311.51796    248.49269 
   97900    138.68492   -1029.8746    133077.76   -33983.325    2619.2606   -36602.586    311.18079    245.72361 
   97950    141.90721   -1089.3475    133138.44   -33945.187    2680.1181   -36625.305    310.98388    251.43291 
   98000    143.96488   -1182.5962    133072.89   -33930.735    2718.9801   -36649.715    310.87494    255.07872 
   98050    139.24546   -1213.3538     133097.3   -33973.048    2629.8471   -36602.895    311.46096    246.71678 
   98100    140.07391   -1208.6272    133060.46   -33954.234    2645.4936   -36599.728    311.67534    248.18464 
   98150    141.50283   -1297.6667    133092.38   -33902.324    2672.4809   -36574.804    311.70104    250.71643 
   98200     142.7824   -1553.7707    132959.58   -33932.401    2696.6473   -36629.048    312.06066    252.98358 
   98250    139.45228   -1158.6247    132828.94   -33959.348    2633.7532   -36593.102     312.7297    247.08323 
   98300     139.3648   -1272.8385    132705.52   -33946.422    2632.1011   -36578.523     312.8283    246.92823 
   98350     140.9566   -1181.6274    132754.31   -33936.071    2662.1644   -36598.235    312.75518     249.7486 
   98400    142.12279   -1070.1145    132748.37   -33912.375    2684.1896   -36596.565     312.9952    251.81488 
   98450    139.67377   -902.25945    132773.99   -33915.432    2637.9364   -36553.368    313.00234    247.47567 
   98500    142.62968   -1051.8003    132825.29   -33944.659     2693.763   -36638.422    312.98933      252.713 
   98550    137.86401   -1607.8342    132861.07   -33987.794    2603.7566   -36591.551    313.16067    244.26912 
   98600    139.74434   -1316.8339    132906.63   -33969.968    2639.2693   -36609.237    313.74686    247.60071 
   98650    140.06062   -1329.3261    132781.42   -33992.891    2645.2427   -36638.134    314.19444     248.1611 
   98700     138.7432   -1070.0154     132713.6   -34022.844    2620.3613   -36643.205    314.34912    245.82688 
   98750    139.14621   -1379.3465    132614.34   -34064.666    2627.9726   -36692.639    314.71103    246.54093 
   98800    137.57872   -1132.0757    132703.29   -34058.425    2598.3684   -36656.793    315.08973    243.76363 
   98850    137.83014   -1086.4999    132621.17   -34037.474    2603.1169   -36640.591    315.17045    244.20911 
   98900    140.67991   -998.92618     132635.1   -34035.168    2656.9389   -36692.107    315.25098    249.25837 
   98950     139.0101   -941.49971    132736.91   -33975.348     2625.402    -36600.75    315.48692    246.29977 
   99000    139.52974   -1081.1781     132792.5   -33962.146    2635.2162   -36597.363    315.42925    247.22047 
   99050     140.9263   -1408.1439    132787.27   -33942.577    2661.5922   -36604.169    315.82311    249.69491 
   99100    140.38575   -1034.1569     132732.1   -33960.421    2651.3832   -36611.804    315.96436    248.73717 
   99150    144.20618   -1164.0737    132781.96    -33868.06    2723.5375   -36591.598    316.22954    255.50626 
   99200    139.71285   -1031.8114    132792.83   -33872.044    2638.6746   -36510.719    315.75125    247.54492 
   99250    139.84362   -1144.0729    132784.79   -33844.002    2641.1442   -36485.147    316.24327    247.77661 
   99300    140.95058   -1234.0157    132794.41   -33852.755    2662.0508   -36514.806     316.2067    249.73794 
   99350    141.98892   -1015.7433    132897.12   -33854.299    2681.6614    -36535.96    316.14157    251.57769 
   99400     140.0939   -1224.2217    132916.03   -33856.957    2645.8713   -36502.828    316.37875    248.22007 
   99450    141.29759   -1089.6427    132869.52    -33844.81    2668.6046   -36513.414     316.3331    250.35278 
   99500    138.23914   -1054.2289    132893.22   -33913.328    2610.8414    -36524.17    316.51327    244.93378 
   99550    142.91003   -1147.7913    132936.26   -33917.664    2699.0578   -36616.721    316.95888    253.20972 
   99600    138.38647   -1299.1916    132849.84   -33888.382    2613.6239   -36502.006    316.76948    245.19482 
   99650    143.34894   -1336.5045    132738.92   -33873.817    2707.3472   -36581.164     316.8772    253.98738 
   99700    141.94136   -1472.5562    132713.51   -33897.858    2680.7631   -36578.622     316.9424    251.49342 
   99750    142.58573    -1612.511    132617.21   -33867.161    2692.9329   -36560.094    317.42166    252.63512 
   99800    138.74975   -1494.2382    132466.65   -33943.044     2620.485   -36563.529    317.88093    245.83848 
   99850     136.7502   -1325.2885    132440.69   -33921.147    2582.7207   -36503.868     318.0745    242.29566 
   99900    137.36521     -1239.57    132417.39   -33949.478     2594.336   -36543.814    317.98677    243.38534 
   99950    140.24302   -1171.4093    132449.78   -33908.783    2648.6875    -36557.47    318.09082    248.48427 
  100000    140.31166   -1655.9575    132456.48   -33915.508    2649.9839   -36565.492    318.15246    248.60589 
Loop time of 49.3227 on 128 procs for 100000 steps with 6337 atoms

Performance: 875.865 ns/day, 0.027 hours/ns, 2027.464 timesteps/s
96.5% CPU use with 128 MPI tasks x no OpenMP threads

MPI task timing breakdown:
Section |  min time  |  avg time  |  max time  |%varavg| %total
---------------------------------------------------------------
Pair    | 5.054      | 12.247     | 33.375     | 304.0 | 24.83
Neigh   | 0.43224    | 0.94393    | 2.9257     |  83.2 |  1.91
Comm    | 5.3486     | 14.569     | 37.39      | 301.6 | 29.54
Output  | 0.1643     | 0.16704    | 0.17245    |   0.4 |  0.34
Modify  | 3.6641     | 20.66      | 36.509     | 333.8 | 41.89
Other   |            | 0.737      |            |       |  1.49

Nlocal:    49.5078 ave 137 max 27 min
Histogram: 94 2 0 6 10 0 0 0 2 14
Nghost:    561.797 ave 950 max 372 min
Histogram: 64 0 0 32 0 0 0 0 12 20
Neighs:    0 ave 0 max 0 min
Histogram: 128 0 0 0 0 0 0 0 0 0
FullNghs:  3995.02 ave 17250 max 1007 min
Histogram: 96 0 0 2 14 0 0 0 2 14

Total # of neighbors = 511362
Ave neighs/atom = 80.6947
Neighbor list builds = 6119
Dangerous builds = 0

write_data		${DIR}/data.eq-${NAME}-${TEMP}
write_data		run_19/data.eq-${NAME}-${TEMP}
write_data		run_19/data.eq-het_freeze_19-${TEMP}
write_data		run_19/data.eq-het_freeze_19-248
undump          1

reset_timestep  0

unfix           2
unfix           3
unfix           4


################################################
#######         Run Simulation         #########
################################################

log				${DIR}/log.run_${NAME}
log				run_19/log.run_${NAME}
log				run_19/log.run_het_freeze_19
