LAMMPS data file via write_data, version 16 Mar 2018, timestep = 100000

6337 atoms
2 atom types

0.0000000000000000e+00 4.9219999999999999e+01 xlo xhi
0.0000000000000000e+00 4.9019635930410494e+01 ylo yhi
2.5804863509120111e+00 5.7481513649087219e+01 zlo zhi

Masses

1 18.015
2 12.01

Atoms # atomic

1713 1 2.5796974806299837e+00 3.8924714991642042e+00 4.1734703985532811e+00 0 0 0
3167 1 6.3503323596119454e+00 1.0286317396431968e+00 3.3227427055582801e+00 0 1 1
2913 1 7.0151851438696591e+00 1.1091441557340310e+01 8.0654584866480512e+00 0 0 1
2992 1 8.3576084803282953e+00 2.1121602110475219e+00 5.0592194123333343e+00 0 0 0
1653 1 4.8169616320976072e+00 1.1205611508248202e+01 2.8513695533297172e+00 0 0 0
5014 1 3.1086795222902381e+00 6.7913370910339976e-01 7.5739688768649307e+00 1 1 0
5083 1 3.3170071862096911e-01 4.1849399764850581e+00 6.9676799178386748e+00 0 0 0
6006 1 3.6575426243567826e+00 1.2058300223956755e+00 3.7092555668175748e+00 0 1 1
4634 1 2.8429676564169548e+00 1.0632178662854150e+01 8.0277911951990575e+00 2 1 1
493 1 4.2214141158011458e+00 7.8321114520796451e+00 5.1917603945347768e+00 0 1 1
1899 1 2.6313641810791517e+00 9.9685807233503105e+00 4.0335450360427645e+00 0 1 1
4580 1 6.5879146317679096e+00 9.1197217702211262e+00 5.3364264934891228e+00 1 0 0
417 1 8.0043736855235519e+00 8.4301675450936546e+00 2.9470811791866631e+00 0 0 0
4596 1 2.9657288878954176e+00 3.3110394096462019e+00 6.9750692797680607e+00 1 1 1
1956 1 6.0282115634573721e+00 3.0795711280719773e-01 7.6793073610727074e+00 0 0 0
4667 1 8.1180712462854974e+00 8.4329871138555195e+00 7.4455979064545996e+00 0 1 1
4982 1 6.3145624296721214e+00 1.2075401677374618e+01 5.1712076396672924e+00 1 0 0
5157 1 9.0530295811200947e+00 3.8528746956400881e+00 7.5649831850313589e+00 0 0 0
4553 1 5.6805208912193965e+00 4.4583904600122404e+00 8.3088174313566192e+00 1 1 1
6250 1 2.2007490940520311e+00 8.0422765250924808e+00 7.2132055236330102e+00 0 1 1
1501 1 7.2479828634559187e+00 5.8382059728961986e+00 6.4257241240022269e+00 0 0 0
32 1 6.6903365229379537e+00 4.4814123732421436e+00 4.2133812760829086e+00 0 1 1
1513 1 4.5562012016748117e+00 5.8248627990152224e+00 3.4069263315681444e+00 0 0 1
1309 1 8.6244991220782623e+00 5.7787334104486172e+00 2.7079538089796418e+00 -1 1 1
3213 1 7.4414294400354750e+00 2.3619821187739003e+00 9.3252463562730448e+00 0 1 0
5155 1 9.7811025821107833e+00 1.0585675796805194e+01 2.5962411557018310e+00 0 -1 0
6321 1 3.0095608792596682e+00 5.8670284445026724e+00 8.7917022492272796e+00 0 0 0
1328 1 3.7027375875177193e+00 2.6748725365550636e+00 1.2217341945488320e+01 1 1 1
4457 1 2.2713986106875517e+00 3.2142077124790513e+00 1.0139264806197007e+01 0 1 1
5010 1 6.1108401122274030e+00 3.7652624296369450e+00 1.1630097485677442e+01 1 0 0
137 1 7.9250138663427263e+00 1.2389575337951320e+00 1.3700138825516589e+01 1 0 0
3561 1 1.5333153759486160e+00 6.5005576769455260e+00 1.1067396990457473e+01 1 0 1
4919 1 2.9303323369963263e-01 7.7579199911658501e+00 1.5844505907244438e+01 0 0 0
6207 1 5.3339850313184165e+00 6.6086932071435092e+00 1.0722074662772632e+01 1 1 1
3741 1 5.7785436630309448e+00 3.0829264141665635e-01 1.1709490689192105e+01 -1 0 0
3566 1 4.9584682172159242e+00 1.1645181121639261e+01 9.7061663538526410e+00 1 0 0
1319 1 7.7770881185319229e+00 7.6169823473591745e+00 1.0291188741335407e+01 0 0 1
1444 1 8.9312503677666157e+00 1.0357198293206860e+01 1.1132348331785309e+01 1 0 1
2837 1 6.1039867117325146e+00 1.0582732440210522e+01 1.1829744068107505e+01 0 0 1
3643 1 2.2640098465429337e+00 3.8303123509590176e+00 1.4358425820713050e+01 1 1 0
88 1 6.0446209127876687e+00 1.6541938105168925e+00 1.6086525609308712e+01 0 0 0
2845 1 8.7114072585215592e+00 3.8312548042493368e+00 1.3212140163766449e+01 0 1 1
295 1 2.9636951799951374e+00 6.4499749851995514e+00 1.5534682572213843e+01 1 0 0
6316 1 5.4076952863621202e+00 8.1295670063808814e+00 1.3080660205719440e+01 1 0 0
108 1 6.6331133405050879e+00 6.6834109478955135e+00 1.5378380968642800e+01 0 0 0
3293 1 7.5771268047557170e+00 4.1543120971912852e+00 1.5602563861783571e+01 -1 0 0
6141 1 9.3769125930409398e+00 5.0180679828954011e-01 1.0875816748854664e+01 0 1 0
5149 1 2.6676612411763956e+00 8.2774198726115067e+00 1.3279009193610076e+01 0 0 1
3206 1 2.0666652556919907e+00 1.1274517722282621e+01 1.3520972371126133e+01 1 -1 0
11 1 6.3884236479083674e+00 1.1836982908436353e+01 1.4495446758785596e+01 0 1 0
382 1 1.4313614592705366e+00 1.0095404145775843e+01 1.0568125962297266e+01 0 0 0
4536 1 9.1302656634300696e+00 5.1359967823681929e+00 1.0474982257552364e+01 0 2 1
5145 1 3.7797787994790668e+00 1.2014811278086279e+01 1.5435459386244196e+01 1 1 1
6302 1 1.1421245593658818e+00 4.7958266022962653e-01 9.5249596978860858e+00 1 1 0
3426 1 4.8503278119846023e+00 1.0797570162833059e+01 2.0136147290066766e+01 1 0 1
1264 1 9.2865982179526636e+00 4.1730379494425618e+00 1.7448811255650650e+01 0 0 1
373 1 8.5761768598584176e+00 2.1866657800562819e+00 2.1361415829090063e+01 -1 0 0
1893 1 7.2569392134143138e+00 2.3353476951268597e+00 1.8682885174987124e+01 1 -1 0
1380 1 4.5481222682001041e+00 2.9067459536885729e+00 1.9473397974693949e+01 1 1 1
3131 1 9.6536404954010155e+00 6.6882290063019845e+00 1.8586874205576176e+01 0 0 1
3545 1 4.2606238896168716e+00 5.5291790927606632e+00 1.9277993446010292e+01 0 0 0
5088 1 1.1267420534483319e+00 8.7278248684331103e+00 1.8468497314255202e+01 1 0 0
5285 1 6.1681656189671674e+00 3.8563133169609620e+00 2.1903617462896857e+01 -1 0 0
5138 1 6.2621248747026179e+00 6.5951599647443775e+00 2.1430438019935035e+01 0 1 0
5123 1 7.2425941673597753e+00 7.7651059477775295e+00 1.9176542401587426e+01 1 0 0
236 1 4.9706270716196466e+00 7.8407636670180754e+00 1.7362394914354308e+01 0 0 0
4856 1 3.2781971774041430e+00 1.0237040103329534e+01 1.7687024160011251e+01 1 0 1
4785 1 7.5785094923665772e+00 1.0245255146677170e+01 2.0064145319321128e+01 0 1 0
5035 1 2.6590809838885292e+00 1.2592015648832915e+00 2.0822285050244705e+01 -1 0 0
35 1 1.4369857814745213e+00 7.3377949894972716e-01 1.6549845860180920e+01 0 0 1
3532 1 9.1887784725657951e-02 9.4407994241803674e+00 2.2394345093591419e+01 0 1 0
197 1 1.6386418024044913e+00 6.6661908690018663e+00 1.9675071894680627e+01 0 -1 0
3123 1 2.2653446385363942e+00 7.6015654548479725e+00 2.2216084760828767e+01 0 0 0
1873 1 4.6100122917037103e+00 8.8899686619828753e+00 2.2104782827666689e+01 1 0 1
1684 1 7.3484056949646819e+00 1.0853903790587626e+01 1.7132016575938124e+01 1 1 0
3160 1 9.4753294753609509e+00 1.2112352014186001e+01 1.9611896205303484e+01 1 1 1
4957 1 3.3461660396919743e+00 3.0013068051576508e+00 1.6532797234528758e+01 1 1 1
2011 1 8.6308304356990124e+00 8.4031079925675520e+00 1.6335344560828531e+01 0 0 0
193 1 4.3161926800689860e+00 3.4497077789372734e+00 2.4225484835729024e+01 1 0 0
683 2 7.3829999999999991e+00 1.1366872099805333e+01 2.6869419417956077e+01 0 0 0
681 2 6.1524999999999999e+00 1.0656442593567499e+01 2.6869419417956077e+01 0 0 0
4552 1 7.1653306716631384e+00 4.2104551072081335e+00 2.4646198144035232e+01 1 1 1
638 2 4.9220000000000006e+00 1.1366872099805333e+01 2.6869419417956077e+01 0 0 0
6151 1 2.9041724540536027e+00 6.1072444546465787e+00 2.4327145693055808e+01 1 1 1
5050 1 2.5657645830201248e-01 5.1271724820386204e+00 2.4797271580977540e+01 1 0 0
2095 1 5.8153147439551320e+00 7.0630695050886452e+00 2.4504834648759864e+01 0 1 0
687 2 8.6134999999999984e+00 9.2355835810918343e+00 2.6869419417956077e+01 0 0 0
1679 1 8.1838375319096262e+00 1.5549308920246845e+00 2.4230668803928737e+01 0 1 1
3089 1 2.6431584031486981e+00 9.4902280449981391e-01 2.3507455806255571e+01 0 0 1
2014 1 5.9726453347396209e+00 1.0084317292249009e+01 2.4317121360137371e+01 0 -1 0
3614 1 8.4525577370276412e+00 1.1078631883971534e+01 2.4336500289945167e+01 0 1 0
554 2 0.0000000000000000e+00 2.8417180249513345e+00 2.6869419417956077e+01 0 0 0
556 2 0.0000000000000000e+00 0.0000000000000000e+00 2.6869419417956077e+01 0 0 0
558 2 1.2305000000000001e+00 7.1042950623783474e-01 2.6869419417956077e+01 0 0 0
565 2 1.2305000000000001e+00 2.1312885187134998e+00 2.6869419417956077e+01 0 0 0
567 2 2.4610000000000003e+00 2.8417180249513345e+00 2.6869419417956077e+01 0 0 0
569 2 2.4610000000000003e+00 0.0000000000000000e+00 2.6869419417956077e+01 0 0 0
571 2 3.6915000000000004e+00 7.1042950623783474e-01 2.6869419417956077e+01 0 0 0
586 2 3.6914999999999996e+00 2.1312885187134998e+00 2.6869419417956077e+01 0 0 0
588 2 4.9220000000000006e+00 2.8417180249513332e+00 2.6869419417956077e+01 0 0 0
590 2 4.9220000000000006e+00 0.0000000000000000e+00 2.6869419417956077e+01 0 0 0
592 2 6.1524999999999999e+00 7.1042950623783407e-01 2.6869419417956077e+01 0 0 0
615 2 6.1524999999999999e+00 2.1312885187134989e+00 2.6869419417956077e+01 0 0 0
617 2 7.3829999999999991e+00 2.8417180249513345e+00 2.6869419417956077e+01 0 0 0
619 2 7.3829999999999991e+00 0.0000000000000000e+00 2.6869419417956077e+01 0 0 0
621 2 8.6134999999999984e+00 7.1042950623783407e-01 2.6869419417956077e+01 0 0 0
652 2 8.6134999999999984e+00 2.1312885187135002e+00 2.6869419417956077e+01 0 0 0
561 2 0.0000000000000000e+00 4.2625770374269996e+00 2.6869419417956077e+01 0 0 0
563 2 1.2305000000000001e+00 4.9730065436648339e+00 2.6869419417956077e+01 0 0 0
578 2 1.2305000000000001e+00 6.3938655561404980e+00 2.6869419417956077e+01 0 0 0
582 2 2.4610000000000003e+00 4.2625770374269996e+00 2.6869419417956077e+01 0 0 0
584 2 3.6914999999999996e+00 4.9730065436648339e+00 2.6869419417956077e+01 0 0 0
607 2 3.6914999999999996e+00 6.3938655561404980e+00 2.6869419417956077e+01 0 0 0
559 2 0.0000000000000000e+00 7.1042950623783341e+00 2.6869419417956077e+01 0 0 0
580 2 2.4610000000000003e+00 7.1042950623783341e+00 2.6869419417956077e+01 0 0 0
611 2 4.9220000000000006e+00 4.2625770374269978e+00 2.6869419417956077e+01 0 0 0
613 2 6.1524999999999999e+00 4.9730065436648339e+00 2.6869419417956077e+01 0 0 0
644 2 6.1524999999999999e+00 6.3938655561404980e+00 2.6869419417956077e+01 0 0 0
648 2 7.3829999999999991e+00 4.2625770374269996e+00 2.6869419417956077e+01 0 0 0
650 2 8.6135000000000002e+00 4.9730065436648339e+00 2.6869419417956077e+01 0 0 0
689 2 8.6135000000000002e+00 6.3938655561404980e+00 2.6869419417956077e+01 0 0 0
609 2 4.9220000000000006e+00 7.1042950623783341e+00 2.6869419417956077e+01 0 0 0
646 2 7.3830000000000009e+00 7.1042950623783341e+00 2.6869419417956077e+01 0 0 0
574 2 0.0000000000000000e+00 8.5251540748539991e+00 2.6869419417956077e+01 0 0 0
576 2 1.2305000000000001e+00 9.2355835810918343e+00 2.6869419417956077e+01 0 0 0
603 2 2.4610000000000003e+00 8.5251540748539991e+00 2.6869419417956077e+01 0 0 0
605 2 3.6915000000000004e+00 9.2355835810918343e+00 2.6869419417956077e+01 0 0 0
572 2 0.0000000000000000e+00 1.1366872099805333e+01 2.6869419417956077e+01 0 0 0
599 2 1.2305000000000001e+00 1.0656442593567498e+01 2.6869419417956077e+01 0 0 0
601 2 2.4610000000000003e+00 1.1366872099805333e+01 2.6869419417956077e+01 0 0 0
636 2 3.6914999999999996e+00 1.0656442593567499e+01 2.6869419417956077e+01 0 0 0
685 2 7.3830000000000009e+00 8.5251540748539991e+00 2.6869419417956077e+01 0 0 0
728 2 8.6134999999999984e+00 1.0656442593567498e+01 2.6869419417956077e+01 0 0 0
642 2 6.1524999999999999e+00 9.2355835810918343e+00 2.6869419417956077e+01 0 0 0
640 2 4.9220000000000006e+00 8.5251540748539991e+00 2.6869419417956077e+01 0 0 0
410 1 1.4177886380564257e+00 1.1723277682381497e+01 2.3629375331603498e+01 0 1 0
224 1 5.1791545008322004e-01 2.5668961919530782e+00 2.4083519475814615e+01 0 1 0
2907 1 5.6026743886429839e+00 3.3618653461348569e-01 2.3653495145834885e+01 0 1 1
5081 1 8.6383389464191520e+00 7.2943596241071784e+00 2.3294685225925473e+01 -1 0 0
294 1 9.8346339801627867e+00 4.9759908424505381e+00 2.4264655558229148e+01 -1 1 0
555 2 0.0000000000000000e+00 1.4208590124756650e+00 3.0030999999999647e+01 0 0 0
557 2 0.0000000000000000e+00 0.0000000000000000e+00 3.0030999999999647e+01 0 0 0
566 2 1.2305000000000001e+00 2.1312885187134998e+00 3.0030999999999647e+01 0 0 0
568 2 2.4610000000000003e+00 1.4208590124756650e+00 3.0030999999999647e+01 0 0 0
570 2 2.4610000000000003e+00 0.0000000000000000e+00 3.0030999999999647e+01 0 0 0
587 2 3.6914999999999996e+00 2.1312885187134998e+00 3.0030999999999647e+01 0 0 0
564 2 1.2305000000000001e+00 3.5521475311891644e+00 3.0030999999999647e+01 0 0 0
585 2 3.6914999999999996e+00 3.5521475311891644e+00 3.0030999999999647e+01 0 0 0
883 2 0.0000000000000000e+00 2.8417180249513345e+00 3.3192580582039675e+01 0 0 0
884 2 0.0000000000000000e+00 0.0000000000000000e+00 3.3192580582039675e+01 0 0 0
885 2 1.2305000000000001e+00 7.1042950623783474e-01 3.3192580582039675e+01 0 0 0
889 2 1.2305000000000001e+00 2.1312885187134998e+00 3.3192580582039675e+01 0 0 0
890 2 2.4610000000000003e+00 2.8417180249513345e+00 3.3192580582039675e+01 0 0 0
891 2 2.4610000000000003e+00 0.0000000000000000e+00 3.3192580582039675e+01 0 0 0
892 2 3.6915000000000004e+00 7.1042950623783474e-01 3.3192580582039675e+01 0 0 0
900 2 3.6914999999999996e+00 2.1312885187134998e+00 3.3192580582039675e+01 0 0 0
589 2 4.9220000000000006e+00 1.4208590124756650e+00 3.0030999999999647e+01 0 0 0
591 2 4.9220000000000006e+00 0.0000000000000000e+00 3.0030999999999647e+01 0 0 0
616 2 6.1524999999999999e+00 2.1312885187134989e+00 3.0030999999999647e+01 0 0 0
618 2 7.3829999999999991e+00 1.4208590124756659e+00 3.0030999999999647e+01 0 0 0
620 2 7.3829999999999991e+00 0.0000000000000000e+00 3.0030999999999647e+01 0 0 0
653 2 8.6134999999999984e+00 2.1312885187135002e+00 3.0030999999999647e+01 0 0 0
614 2 6.1524999999999999e+00 3.5521475311891644e+00 3.0030999999999647e+01 0 0 0
651 2 8.6134999999999984e+00 3.5521475311891657e+00 3.0030999999999647e+01 0 0 0
901 2 4.9220000000000006e+00 2.8417180249513332e+00 3.3192580582039675e+01 0 0 0
902 2 4.9220000000000006e+00 0.0000000000000000e+00 3.3192580582039675e+01 0 0 0
903 2 6.1524999999999999e+00 7.1042950623783407e-01 3.3192580582039675e+01 0 0 0
915 2 6.1524999999999999e+00 2.1312885187134989e+00 3.3192580582039675e+01 0 0 0
916 2 7.3829999999999991e+00 2.8417180249513345e+00 3.3192580582039675e+01 0 0 0
917 2 7.3829999999999991e+00 0.0000000000000000e+00 3.3192580582039675e+01 0 0 0
918 2 8.6134999999999984e+00 7.1042950623783407e-01 3.3192580582039675e+01 0 0 0
934 2 8.6134999999999984e+00 2.1312885187135002e+00 3.3192580582039675e+01 0 0 0
560 2 0.0000000000000000e+00 5.6834360499026637e+00 3.0030999999999647e+01 0 0 0
562 2 0.0000000000000000e+00 4.2625770374269996e+00 3.0030999999999647e+01 0 0 0
579 2 1.2305000000000001e+00 6.3938655561404980e+00 3.0030999999999647e+01 0 0 0
581 2 2.4610000000000003e+00 5.6834360499026637e+00 3.0030999999999647e+01 0 0 0
583 2 2.4610000000000003e+00 4.2625770374269996e+00 3.0030999999999647e+01 0 0 0
608 2 3.6914999999999996e+00 6.3938655561404980e+00 3.0030999999999647e+01 0 0 0
577 2 1.2305000000000001e+00 7.8147245686161639e+00 3.0030999999999647e+01 0 0 0
606 2 3.6914999999999996e+00 7.8147245686161639e+00 3.0030999999999647e+01 0 0 0
887 2 0.0000000000000000e+00 4.2625770374269996e+00 3.3192580582039675e+01 0 0 0
888 2 1.2305000000000001e+00 4.9730065436648339e+00 3.3192580582039675e+01 0 0 0
896 2 1.2305000000000001e+00 6.3938655561404980e+00 3.3192580582039675e+01 0 0 0
898 2 2.4610000000000003e+00 4.2625770374269996e+00 3.3192580582039675e+01 0 0 0
899 2 3.6914999999999996e+00 4.9730065436648339e+00 3.3192580582039675e+01 0 0 0
911 2 3.6914999999999996e+00 6.3938655561404980e+00 3.3192580582039675e+01 0 0 0
886 2 0.0000000000000000e+00 7.1042950623783341e+00 3.3192580582039675e+01 0 0 0
897 2 2.4610000000000003e+00 7.1042950623783341e+00 3.3192580582039675e+01 0 0 0
610 2 4.9220000000000006e+00 5.6834360499026637e+00 3.0030999999999647e+01 0 0 0
612 2 4.9220000000000006e+00 4.2625770374269978e+00 3.0030999999999647e+01 0 0 0
645 2 6.1524999999999999e+00 6.3938655561404980e+00 3.0030999999999647e+01 0 0 0
647 2 7.3829999999999991e+00 5.6834360499026637e+00 3.0030999999999647e+01 0 0 0
649 2 7.3829999999999991e+00 4.2625770374269996e+00 3.0030999999999647e+01 0 0 0
690 2 8.6135000000000002e+00 6.3938655561404980e+00 3.0030999999999647e+01 0 0 0
643 2 6.1524999999999999e+00 7.8147245686161639e+00 3.0030999999999647e+01 0 0 0
688 2 8.6135000000000002e+00 7.8147245686161639e+00 3.0030999999999647e+01 0 0 0
913 2 4.9220000000000006e+00 4.2625770374269978e+00 3.3192580582039675e+01 0 0 0
914 2 6.1524999999999999e+00 4.9730065436648339e+00 3.3192580582039675e+01 0 0 0
930 2 6.1524999999999999e+00 6.3938655561404980e+00 3.3192580582039675e+01 0 0 0
932 2 7.3829999999999991e+00 4.2625770374269996e+00 3.3192580582039675e+01 0 0 0
933 2 8.6135000000000002e+00 4.9730065436648339e+00 3.3192580582039675e+01 0 0 0
953 2 8.6135000000000002e+00 6.3938655561404980e+00 3.3192580582039675e+01 0 0 0
912 2 4.9220000000000006e+00 7.1042950623783341e+00 3.3192580582039675e+01 0 0 0
931 2 7.3830000000000009e+00 7.1042950623783341e+00 3.3192580582039675e+01 0 0 0
573 2 0.0000000000000000e+00 9.9460130873296642e+00 3.0030999999999647e+01 0 0 0
575 2 0.0000000000000000e+00 8.5251540748539991e+00 3.0030999999999647e+01 0 0 0
602 2 2.4610000000000003e+00 9.9460130873296642e+00 3.0030999999999647e+01 0 0 0
604 2 2.4610000000000003e+00 8.5251540748539991e+00 3.0030999999999647e+01 0 0 0
598 2 1.2305000000000001e+00 1.2077301606043163e+01 3.0030999999999647e+01 0 0 0
600 2 1.2305000000000001e+00 1.0656442593567498e+01 3.0030999999999647e+01 0 0 0
635 2 3.6914999999999996e+00 1.2077301606043163e+01 3.0030999999999647e+01 0 0 0
637 2 3.6914999999999996e+00 1.0656442593567499e+01 3.0030999999999647e+01 0 0 0
894 2 0.0000000000000000e+00 8.5251540748539991e+00 3.3192580582039675e+01 0 0 0
895 2 1.2305000000000001e+00 9.2355835810918343e+00 3.3192580582039675e+01 0 0 0
909 2 2.4610000000000003e+00 8.5251540748539991e+00 3.3192580582039675e+01 0 0 0
910 2 3.6915000000000004e+00 9.2355835810918343e+00 3.3192580582039675e+01 0 0 0
893 2 0.0000000000000000e+00 1.1366872099805333e+01 3.3192580582039675e+01 0 0 0
907 2 1.2305000000000001e+00 1.0656442593567498e+01 3.3192580582039675e+01 0 0 0
908 2 2.4610000000000003e+00 1.1366872099805333e+01 3.3192580582039675e+01 0 0 0
926 2 3.6914999999999996e+00 1.0656442593567499e+01 3.3192580582039675e+01 0 0 0
639 2 4.9220000000000006e+00 9.9460130873296642e+00 3.0030999999999647e+01 0 0 0
641 2 4.9220000000000006e+00 8.5251540748539991e+00 3.0030999999999647e+01 0 0 0
684 2 7.3830000000000009e+00 9.9460130873296642e+00 3.0030999999999647e+01 0 0 0
686 2 7.3830000000000009e+00 8.5251540748539991e+00 3.0030999999999647e+01 0 0 0
680 2 6.1524999999999999e+00 1.2077301606043163e+01 3.0030999999999647e+01 0 0 0
682 2 6.1524999999999999e+00 1.0656442593567499e+01 3.0030999999999647e+01 0 0 0
727 2 8.6135000000000002e+00 1.2077301606043163e+01 3.0030999999999647e+01 0 0 0
729 2 8.6134999999999984e+00 1.0656442593567498e+01 3.0030999999999647e+01 0 0 0
928 2 4.9220000000000006e+00 8.5251540748539991e+00 3.3192580582039675e+01 0 0 0
929 2 6.1524999999999999e+00 9.2355835810918343e+00 3.3192580582039675e+01 0 0 0
951 2 7.3830000000000009e+00 8.5251540748539991e+00 3.3192580582039675e+01 0 0 0
952 2 8.6134999999999984e+00 9.2355835810918343e+00 3.3192580582039675e+01 0 0 0
927 2 4.9220000000000006e+00 1.1366872099805333e+01 3.3192580582039675e+01 0 0 0
949 2 6.1524999999999999e+00 1.0656442593567499e+01 3.3192580582039675e+01 0 0 0
950 2 7.3829999999999991e+00 1.1366872099805333e+01 3.3192580582039675e+01 0 0 0
973 2 8.6134999999999984e+00 1.0656442593567498e+01 3.3192580582039675e+01 0 0 0
64 1 9.2202927088678877e+00 4.7521226998615829e+00 3.5899392947272858e+01 0 1 -1
6093 1 5.9672074549656813e+00 5.8614136218373645e+00 3.6106170323134478e+01 1 1 -1
3051 1 9.3128684589751547e+00 1.0732553469025554e+01 3.5626894049160143e+01 1 1 0
4769 1 2.2538927115535388e+00 8.9819450339216402e+00 3.5749709457404016e+01 0 0 0
6247 1 6.2907520255175353e-01 1.3257166570833510e+00 3.5778476926818833e+01 0 -1 -1
6039 1 7.2838137582331415e+00 3.0379312240889527e+00 3.5536851952292487e+01 0 0 0
2053 1 3.6690216132808846e+00 4.4540862707556848e+00 3.5446640470197565e+01 -1 1 0
3114 1 4.7176331999420613e+00 2.3611855602641763e+00 3.6826404998931196e+01 0 1 -1
5978 1 4.6831455239631277e+00 1.0099637696271147e+01 3.5633455975034970e+01 1 0 0
2135 1 7.0807718286706400e+00 8.8341977339284146e+00 3.6604316522428498e+01 1 1 0
4513 1 9.1630479133870999e+00 5.7024858715288174e-01 3.5679962099334432e+01 0 0 0
4897 1 1.8507628185626737e+00 6.2643674395652296e+00 3.6630020593382191e+01 0 0 -1
1269 1 9.8206304671869056e+00 7.4305359526023471e+00 3.6056347843013292e+01 0 0 -1
4541 1 4.6854908392211465e+00 3.6405013753215516e+00 3.9296686412342034e+01 -1 1 0
4947 1 6.6500037747937055e+00 1.1817402539691981e+01 4.1720124038436978e+01 0 1 0
4469 1 7.9663449367379178e+00 2.3898074086587746e+00 3.8304031744327411e+01 1 1 0
1831 1 5.7826641325746930e+00 6.1131439730611152e+00 3.9005599638672777e+01 1 1 -1
3552 1 1.0742289515313226e+00 3.4106430402722201e+00 3.7762456697022905e+01 1 1 -1
6262 1 2.4185129903133253e+00 8.2570899068258097e+00 4.1343871220881191e+01 1 1 -1
4595 1 7.5973489362499915e+00 7.6452392502666733e+00 4.1774746144141631e+01 1 0 -1
1588 1 3.5138092122008642e+00 7.9743929336199439e+00 3.8754036007438202e+01 0 1 -1
1246 1 4.7264124524833413e+00 1.0491387306088068e+01 3.8462102551770570e+01 0 0 0
6085 1 7.3395588199671780e+00 1.0783475681914105e+01 3.9490057723396809e+01 1 1 0
4721 1 8.7310496851260488e+00 5.3584836782897582e+00 3.8670317381111815e+01 1 0 0
1365 1 8.6673683542278273e+00 8.3487442172071074e+00 3.9303384598435748e+01 0 0 0
138 1 5.2029835374004945e+00 9.4654815523878995e+00 4.2850544026619211e+01 0 1 -1
6008 1 2.2862862757525337e+00 1.9050606367295650e+00 4.0025605752500340e+01 0 0 0
1439 1 6.3310337308428188e+00 1.8146593255508274e+00 4.0647474997606203e+01 0 1 -1
2960 1 8.7349843916977186e+00 9.4554230449538625e+00 4.3454057143061540e+01 0 1 0
1291 1 4.8535648569876662e+00 6.7735719544227546e+00 4.1909754866665118e+01 0 1 -1
3350 1 8.9705478914677599e+00 5.5128181950162087e+00 4.2806826330019362e+01 0 0 -1
3032 1 2.9909906678585956e+00 4.3888036337248408e+00 4.1891619954685723e+01 1 0 0
2838 1 9.3877546283901592e-01 5.9539038391314989e+00 4.1527364685942764e+01 0 1 -1
1250 1 6.7951849665804309e-01 9.9659952763469235e+00 4.0121332691364721e+01 2 0 0
2860 1 1.4219782161181953e+00 2.2269183870588904e-01 4.2328497676970088e+01 0 0 0
3308 1 7.8313402360427151e+00 4.2170288971691505e-01 4.3436867576319578e+01 -1 1 -1
3259 1 5.7524575623202401e-01 9.8295642653106032e+00 4.3546484419918251e+01 1 0 -1
6287 1 9.2266845680201328e+00 3.3336392083561877e+00 4.1037929608683463e+01 0 1 -1
485 1 9.8301372492685033e+00 6.6443614839228027e-01 4.1150969118971375e+01 0 0 0
5292 1 2.5778370688307115e+00 2.3766963203075777e+00 4.3728875210878435e+01 0 0 0
6064 1 5.2998810010781505e-01 3.2312461156696166e+00 5.0390215692504725e+01 1 1 0
84 1 8.7573808201389785e+00 8.2040922755811891e+00 4.5912074937575099e+01 0 0 0
6217 1 1.4323012476678558e+00 3.6464946847516493e+00 4.6105356804951008e+01 1 1 0
1398 1 3.4946950666945025e+00 1.1779432730698286e+01 4.7953716351237347e+01 1 1 0
4648 1 8.4953194216257177e+00 3.2419310732949205e+00 4.6425427468503514e+01 0 0 0
502 1 9.0590628618965263e-01 6.4781396457350970e+00 4.7448909045574581e+01 0 1 0
515 1 3.9353653098174686e+00 5.2027346327914570e+00 4.6899744390089282e+01 0 0 0
2029 1 4.8216982165857178e+00 3.2616398442457180e+00 4.8603263386935076e+01 0 1 0
5986 1 5.1041714333550008e+00 4.5539863009503536e+00 4.4384785744320382e+01 1 1 0
6149 1 7.6699763715521518e+00 5.8044059009081721e+00 4.5209942521648060e+01 -1 1 0
1726 1 8.6473399085006371e+00 1.5242922928412374e-03 4.8905218910203871e+01 -1 1 -1
18 1 6.4789793876216937e+00 1.2159927451220769e+01 4.7651824252060280e+01 0 1 -1
4836 1 2.2433384732865376e+00 2.3131248734997265e+00 4.8469672769587447e+01 1 1 -1
4724 1 8.1792639556069915e+00 1.0722334937717882e+01 5.0171626110189763e+01 0 0 0
3726 1 6.5544432853727841e+00 1.5781421167683940e+00 4.7133220086535509e+01 0 0 0
4791 1 3.3461879594300106e+00 1.0087831936537112e+01 4.4953087733260141e+01 1 0 0
2884 1 5.2984548361477000e+00 1.6313955564435803e+00 4.4642075665176662e+01 0 1 0
3268 1 7.0156319004682013e+00 9.3992984405122719e+00 4.7716561592942803e+01 1 0 -1
5266 1 4.9133787159597215e+00 7.7187607969613961e+00 4.8091902800571340e+01 1 0 0
5999 1 7.4921976497904934e+00 6.2353052342959394e+00 4.9960226341795028e+01 0 -1 0
3083 1 5.8933937038494810e-01 1.1528466615566545e+01 4.8443843718655536e+01 -1 0 0
4710 1 2.1370619085383016e+00 9.0756054455820294e+00 4.7945607616366409e+01 1 0 -1
3153 1 9.9072856782335350e-02 5.9862862319095971e+00 4.9758959722306237e+01 0 1 0
4547 1 4.3413629103189209e+00 2.2219499687633135e+00 5.4510607422827384e+01 1 0 0
1300 1 1.7870855158732775e+00 1.1679654739845955e+00 5.3868271331211666e+01 2 0 0
6189 1 8.5617353708081581e+00 5.0197163102967606e+00 5.2488863965258894e+01 1 1 0
2952 1 1.9395563958231206e+00 8.1907675325152720e+00 5.0667967363075284e+01 1 0 0
394 1 3.6995092115113000e+00 5.7430025710775512e+00 5.2304181409148541e+01 0 0 -1
2005 1 5.7181666878467814e+00 5.0877619413793855e+00 5.4070646193326183e+01 0 0 -1
4571 1 1.5012866699110627e+00 9.6089672361083522e-01 5.6550626901843614e+01 0 0 -1
3326 1 7.9053699936860804e+00 8.4721056004372528e+00 5.2048149989390794e+01 1 1 -1
1327 1 9.3769764266946538e+00 2.6648980646820628e+00 5.1136440367201409e+01 1 1 0
1255 1 7.9925088371164872e+00 1.0473853577829370e+01 5.4141461456182547e+01 -1 0 -1
1660 1 4.9723761955287786e+00 8.1765126842299978e+00 5.0859430678327016e+01 0 1 -1
1846 1 5.6373098035368310e+00 1.9856204956030252e-01 5.2988226880263127e+01 0 1 -1
2901 1 9.1981111167125396e-01 9.1364664195560064e+00 5.3304547965656013e+01 1 0 0
3158 1 1.4935055067945919e+00 1.2042138652785045e+01 5.2953122830206510e+01 0 1 0
6140 1 1.7884392387510462e+00 7.4919176644866701e+00 5.5406360709324915e+01 1 -1 0
4531 1 4.3472112756521799e+00 7.0801719234171703e+00 5.5717948610296638e+01 0 0 0
6101 1 6.6826951829073673e+00 2.1868790130861653e+00 5.5851928966197953e+01 1 1 -1
4733 1 8.5666586189098837e+00 4.1401997077059267e+00 5.5145869668373884e+01 1 1 -1
4494 1 6.7715250911556462e+00 1.4411355156911370e+00 5.0906808969888210e+01 1 0 -1
4590 1 1.8934482001853012e+00 3.9027088553830072e+00 5.2789662520086530e+01 1 1 -1
1481 1 5.9745853041569301e+00 9.2822805978590939e+00 5.6098459574988858e+01 1 1 -1
175 1 7.0101079991634774e-01 3.5362707507853424e+00 5.7176024396216739e+01 0 1 0
3691 1 4.2947975111076564e-01 5.1027736349687931e+00 5.4979483999790645e+01 0 -1 0
3572 1 2.6802258625839032e-01 8.7943388631351969e+00 5.7408052712108734e+01 1 0 -1
4677 1 5.8073368035064252e+00 4.3727385839962292e+00 5.0744898409213732e+01 0 -1 0
6194 1 8.3225494488847360e+00 3.5207164204564378e-02 5.4438791601270502e+01 0 0 0
1996 1 9.5355418281090980e+00 1.6943317315774451e+01 4.7897155299917795e+00 0 1 0
191 1 4.0712572203330213e+00 1.4779819938113841e+01 5.9508131456163635e+00 0 1 0
3184 1 2.8649155927443797e+00 2.3393465926874136e+01 8.8339643469433700e+00 1 1 1
124 1 8.0917432877552145e+00 1.8592350082085204e+01 8.1922739895100065e+00 0 1 0
1525 1 3.2744803195022567e+00 1.8016031506055960e+01 6.4027063143933400e+00 0 0 0
3373 1 3.2852655732466811e+00 1.6299740263454339e+01 3.7782622352682269e+00 1 1 0
4824 1 5.1175645773975997e+00 2.3200475645784206e+01 4.9037756002509036e+00 0 0 1
3388 1 7.1350881062573448e+00 1.8028024983752264e+01 3.7520296054749607e+00 0 0 0
4740 1 9.1777573797445200e+00 2.2519139188681123e+01 7.5028546542859491e+00 0 0 1
217 1 1.7062546217759258e+00 2.0333654435852818e+01 5.5977603920766104e+00 0 0 1
6229 1 4.2958911921344383e+00 1.9990735797288778e+01 3.8874174781611579e+00 0 1 1
5280 1 3.6413636334879951e-01 1.6049296779009097e+01 3.9408984824688718e+00 1 1 0
3685 1 2.2201172579300659e+00 2.3066571251012554e+01 6.2407561522377843e+00 0 0 1
121 1 1.2631143749302298e+00 2.0656942229529772e+01 8.6099791642952255e+00 0 0 1
2943 1 2.5526290218240351e+00 1.3398971787431767e+01 3.1379198670512229e+00 -1 0 1
2093 1 2.7727768915588893e+00 1.6016631254590514e+01 8.5902609028529220e+00 0 1 1
2016 1 6.0291781351144706e+00 1.9034511449963613e+01 6.0856332793563510e+00 0 0 0
3261 1 6.0972116272274599e+00 1.5948267877239664e+01 7.7988545504073565e+00 1 0 1
6181 1 8.7880923490610918e+00 1.2853970146733406e+01 4.1499084989977337e+00 1 0 1
157 1 8.7935753933606247e+00 1.6000998058012041e+01 7.2701423140555628e+00 0 1 0
6158 1 5.5651655702136749e+00 2.2724096256890441e+01 9.3067504473457934e+00 0 -1 1
2935 1 3.0373164591725904e-01 1.8019651250696022e+01 8.2337040847964218e+00 0 2 1
5167 1 6.5093472415888387e+00 2.1641480681059960e+01 6.8305996541139065e+00 0 0 0
212 1 9.7446532607947596e+00 1.3331161415452822e+01 6.8938290762197028e+00 0 0 0
3013 1 7.3551916758731828e-01 1.4172938720554363e+01 8.9519937594714563e+00 0 0 1
1403 1 9.4745053224685858e+00 2.4370088634874900e+01 3.9907419583048087e+00 1 0 1
1974 1 2.2133857145922238e+00 1.2524408683358697e+01 6.0825473152212837e+00 1 0 0
3523 1 3.5232671607075465e+00 1.5331265071123493e+01 1.2959723635240154e+01 -1 1 0
81 1 5.6074436938030603e+00 2.3036027283049801e+01 1.3043009254982143e+01 1 0 0
5188 1 6.0896105865639685e+00 1.5881543157645654e+01 1.1875031058463369e+01 1 1 0
1429 1 2.4920281491865111e+00 1.3061315438585121e+01 1.1245154574130931e+01 0 0 0
4527 1 6.9948034971859698e+00 2.2260415901000474e+01 1.4982797577337953e+01 0 0 1
166 1 2.3428076256911772e+00 1.8026737396995888e+01 1.2949062148669830e+01 -1 0 0
3218 1 2.5260262646426681e+00 2.0479093001021951e+01 1.1417077231072547e+01 1 0 1
3072 1 5.2391629253984808e+00 2.0713929124079016e+01 1.1267741023186204e+01 1 0 1
5234 1 6.2796902455703671e+00 1.9450791531993872e+01 1.3791516549254782e+01 1 0 0
6266 1 7.0764577038621912e+00 1.8425960296173542e+01 1.1219250783044627e+01 1 0 1
4880 1 1.4180765660376029e+00 2.2731440623699434e+01 1.3156688083469056e+01 1 1 0