
# Create simulation box and atoms

read_data data.ML_graphite_m1000atm_245K
  orthogonal box = (0 0 2.62195) to (49.22 49.0196 57.4401)
  5 by 4 by 8 MPI processor grid
  reading atoms ...
  6337 atoms
  reading velocities ...
  6337 velocities
group water type 1
3577 atoms in group water
group graphite type 2
2760 atoms in group graphite

# Define potential

pair_style sw
pair_coeff * * MLC_e.sw mW C


# Fix graphite atoms in place

fix 5 graphite setforce 0.0 0.0 0.0
velocity graphite set 0.0 0.0 0.0


# Equilibration of molecular water

# Add velocity/set timestep

velocity	    water create ${TEMP} ${SEED} rot yes dist gaussian
velocity	    water create 248 ${SEED} rot yes dist gaussian
velocity	    water create 248 25028 rot yes dist gaussian
timestep	    5.0

# Define output

compute			1 water msd
compute			3 water temp
thermo	    	50
thermo_style	custom step temp press vol etotal ke pe c_1[4] c_3

# Neighbor lists

neigh_modify    delay 0 every 1 check yes

# Set fixes

fix             1 water momentum 10 linear 1 1 1 rescale
fix             2 water nve
fix             3 water temp/csvr ${TEMP} ${TEMP} 500.0 ${SEED}
fix             3 water temp/csvr 248 ${TEMP} 500.0 ${SEED}
fix             3 water temp/csvr 248 248 500.0 ${SEED}
fix             3 water temp/csvr 248 248 500.0 25028
fix             4 water press/berendsen z ${PRES} ${PRES} 1000.0 modulus 20000
fix             4 water press/berendsen z -1000 ${PRES} 1000.0 modulus 20000
fix             4 water press/berendsen z -1000 -1000 1000.0 modulus 20000

# Run 0.5 ns equilibration

dump		    1 all atom 2000 ${DIR}/eq.${NAME}-${TEMP}.dump
dump		    1 all atom 2000 run_28/eq.${NAME}-${TEMP}.dump
dump		    1 all atom 2000 run_28/eq.het_freeze_28-${TEMP}.dump
dump		    1 all atom 2000 run_28/eq.het_freeze_28-248.dump

reset_timestep  0

run	            100000
Neighbor list info ...
  update every 1 steps, delay 0 steps, check yes
  max neighbors/atom: 2000, page size: 100000
  master list distance cutoff = 6.67472
  ghost atom cutoff = 6.67472
  binsize = 3.33736, bins = 15 15 17
  1 neighbor lists, perpetual/occasional/extra = 1 0 0
  (1) pair sw, perpetual
      attributes: full, newton on
      pair build: full/bin/atomonly
      stencil: full/bin/3d
      bin: standard
Per MPI rank memory allocation (min/avg/max) = 4.066 | 4.174 | 4.485 Mbytes
Step Temp Press Volume TotEng KinEng PotEng c_1[4] c_3 
       0     139.9697   -1056.0851     132262.2   -34085.323    2643.5254   -36728.848            0          248 
      50    139.17216   -810.33937    132346.03   -34103.036    2628.4629   -36731.499   0.51984135    246.58692 
     100    140.41097   -1174.1329    132479.52   -34113.189    2651.8594   -36765.049   0.79251137    248.78185 
     150    140.95116   -1091.4914     132521.4   -34170.003    2662.0618   -36832.064   0.97950001    249.73897 
     200    140.54919   -1089.1224    132671.98   -34187.737    2654.4701   -36842.207     1.221675    249.02676 
     250    139.92303   -1030.7218    132753.08   -34099.802    2642.6441   -36742.446    1.4503866    247.91732 
     300    139.18823    -1049.205    132788.51   -34048.457    2628.7664   -36677.224    1.6150734     246.6154 
     350     140.3447   -972.97043    132886.86   -34079.598     2650.608   -36730.206    1.8012579    248.66444 
     400    141.51129   -1095.9939     132941.1   -34048.952    2672.6405   -36721.592    1.9527033    250.73141 
     450    137.72921   -978.05672    132968.69   -34107.571    2601.2107   -36708.782    2.0886025    244.03029 
     500    139.74654   -1160.7548       133074   -34069.029    2639.3109    -36708.34     2.222613    247.60461 
     550    141.92832   -1121.9215    133137.68   -33998.984    2680.5168   -36679.501    2.3923339    251.47032 
     600    143.97075   -1165.3349    133126.16   -34024.834     2719.091   -36743.925    2.5077582    255.08911 
     650    141.57979   -1263.1838    133147.29   -33993.442    2673.9343   -36667.376    2.6668704    250.85279 
     700     143.1493   -1317.8391    133150.77    -34004.69    2703.5768   -36708.266     2.859237    253.63366 
     750    143.05407   -1119.8363    133115.44   -34004.245    2701.7782   -36706.023    3.0644165    253.46494 
     800    141.69492   -1183.1711    133150.73    -34018.89    2676.1087   -36694.999    3.2791317    251.05677 
     850     139.5342   -1343.9816     133087.5   -34013.884    2635.3005   -36649.184    3.4531075    247.22838 
     900    140.13599   -1185.8178    133108.16    -34032.22    2646.6661   -36678.886    3.6104398    248.29464 
     950    138.60902   -1246.9635    133106.84   -34052.281    2617.8272   -36670.108    3.8082866    245.58914 
    1000    139.31194   -1544.7219    133114.78   -34028.925    2631.1027   -36660.028    4.0023532    246.83458 
    1050    137.95193   -1142.5989     133082.9   -34065.146    2605.4171   -36670.563    4.2155261     244.4249 
    1100    137.97803   -1203.4434    133156.95   -34007.449      2605.91   -36613.359    4.4296966    244.47114 
    1150    139.23828   -1368.6002    133250.81   -33991.117    2629.7116   -36620.828    4.6291161    246.70407 
    1200    139.86506    -1365.194    133292.43   -33988.261    2641.5492    -36629.81    4.8259892     247.8146 
    1250    141.28473   -1141.4784    133365.84   -34019.177    2668.3616   -36687.538    4.9352051    250.32999 
    1300    137.23433   -1277.4008    133286.77   -34024.779    2591.8642   -36616.644    5.0412777    243.15345 
    1350    144.70038   -1247.8425    133259.59   -34041.405     2732.871   -36774.276    5.1569126    256.38188 
    1400     140.8796   -1389.1244    133197.09    -34057.91    2660.7103   -36718.621     5.300298    249.61218 
    1450    139.51991   -1188.0464    133142.03   -34056.128    2635.0306   -36691.158    5.4321086    247.20307 
    1500    140.63479   -1190.8834    133153.01   -34074.708    2656.0867   -36730.795    5.4949829    249.17843 
    1550    139.99602   -1213.5413     133181.2   -34032.128    2644.0226   -36676.151    5.6806344    248.04664 
    1600    138.97948   -1326.0504    133195.66   -34065.425    2624.8237   -36690.248      5.81016    246.24551 
    1650    139.75896   -1443.7832    133198.59   -34069.484    2639.5453    -36709.03    5.9659972    247.62661 
    1700    138.48152   -1167.6916    133249.71    -34064.94    2615.4191   -36680.359    6.1740833    245.36323 
    1750     141.7742   -1395.1681    133302.15    -34035.19     2677.606   -36712.796    6.2823005    251.19724 
    1800    141.24166   -1278.1699     133365.6   -34016.859    2667.5483   -36684.407    6.4871104    250.25368 
    1850    140.41135   -1189.0664    133407.86   -34027.779    2651.8666   -36679.646    6.6537993    248.78252 
    1900    141.76189   -1227.9234    133455.15   -33983.164    2677.3735   -36660.537    6.7729544    251.17542 
    1950    140.40064   -1497.4209    133408.21   -33994.083    2651.6643   -36645.747    6.8922742    248.76355 
    2000    138.08543   -1631.9991    133321.34   -34034.497    2607.9383   -36642.435    7.0082593    244.66143 
    2050    140.75172   -1350.6747       133234   -33996.489    2658.2951   -36654.784    7.2096156    249.38561 
    2100    141.53163   -1369.3281     133184.9   -34030.831    2673.0247   -36703.856    7.4437739    250.76745 
    2150    141.17827   -1768.6953    133083.06   -34018.276    2666.3511   -36684.628    7.6746054    250.14137 
    2200     141.3683   -1223.4258    132981.73       -34002      2669.94    -36671.94    7.8915778    250.47806 
    2250    141.07243   -1128.3908     132975.8   -33983.032    2664.3521   -36647.384    8.0786257    249.95384 
    2300    141.08814   -1430.0684    132960.76   -34002.215    2664.6487   -36666.864    8.2470398    249.98166 
    2350    139.75267   -1451.7033     132858.3   -34002.568    2639.4265   -36641.995    8.4989534    247.61546 
    2400    138.33366   -1399.4176    132879.74   -33995.732    2612.6266   -36608.358    8.6262854    245.10125 
    2450    141.62321   -1355.9771    132802.81    -34022.33    2674.7543   -36697.084    8.7878364    250.92971 
    2500    141.39045   -1357.4727    132684.23   -34032.108    2670.3583   -36702.466    8.8973025    250.51731 
    2550    138.82578   -1347.7028    132635.29   -34007.262    2621.9209   -36629.183    9.0493817    245.97319 
    2600    140.96576   -1040.7037    132637.26   -33933.719    2662.3375   -36596.057    9.1679643    249.76484 
    2650    140.14008   -1127.0997    132684.32   -33970.996    2646.7434   -36617.739    9.3561473    248.30189 
    2700     140.8148   -1354.6041    132709.02   -33973.378    2659.4863   -36632.864    9.5839756    249.49736 
    2750    142.72664   -1222.5956    132671.51   -34013.794    2695.5942   -36709.388    9.6578601    252.88478 
    2800    140.57168   -1229.7952    132678.03    -34012.99    2654.8947   -36667.885    9.8300104     249.0666 
    2850    141.23335   -1222.3146    132664.94   -34021.798    2667.3913   -36689.189    10.024714    250.23896 
    2900    142.27033   -1258.9082    132734.63   -34021.935     2686.976   -36708.911    10.064595    252.07628 
    2950    143.52903   -1398.2181    132676.42   -33987.084    2710.7485   -36697.833    10.182837    254.30648 
    3000    141.05334   -976.20875    132662.07   -34021.342    2663.9916   -36685.334    10.439639    249.92001 
    3050    142.09699    -917.3765    132729.54    -34028.01    2683.7024   -36711.713    10.663715    251.76917 
    3100    138.24008   -1425.7887    132724.84   -34047.238    2610.8591   -36658.097    10.959778    244.93544 
    3150    138.65008   -1091.6728    132656.91   -34054.166    2618.6027   -36672.768    11.216223    245.66189 
    3200    142.51155   -1063.0075    132698.49   -34022.912    2691.5319   -36714.444    11.527546    252.50368 
    3250    138.46641   -1168.5599    132709.87   -34023.573    2615.1337   -36638.707    11.776973    245.33646 
    3300    138.78097    -1361.498    132744.85   -34049.516    2621.0747    -36670.59    11.960553    245.89381 
    3350    137.01526   -994.36532    132740.33   -34100.896    2587.7267   -36688.622    12.175432    242.76529 
    3400    140.10499   -1102.6492    132879.06   -34057.571    2646.0807   -36703.651    12.350281    248.23972 
    3450    140.56266   -1367.1295    132901.62   -34033.155    2654.7244   -36687.879    12.533348    249.05062 
    3500    139.23171   -1263.2909    132814.82   -34017.231    2629.5875   -36646.819    12.669935    246.69242 
    3550    139.54551   -1455.2301    132740.33   -34008.788    2635.5141   -36644.302    12.844984    247.24842 
    3600     142.8168   -1231.2067    132724.03    -33985.72     2697.297   -36683.017    12.962888    253.04453 
    3650    142.44145   -1265.1421    132774.53   -33972.462    2690.2079    -36662.67    13.094049    252.37948 
    3700    141.68371   -1077.7618    132890.45   -34024.348     2675.897   -36700.245    13.377516    251.03691 
    3750    141.31941   -1012.7546    132948.37   -34006.935    2669.0166   -36675.951    13.545441    250.39144 
    3800    139.70483   -1171.9005    132980.87     -34008.7     2638.523   -36647.222    13.645666     247.5307 
    3850    139.70706   -1246.3208    133008.19   -33991.892    2638.5652   -36630.458    13.849799    247.53466 
    3900    139.74621   -1347.6404    132910.02   -34018.146    2639.3045   -36657.451    14.037787    247.60402 
    3950    139.02857   -1430.2719    132883.16   -34062.349     2625.751     -36688.1    14.158671    246.33251 
    4000    139.28921   -1570.2574    132828.97   -34063.347    2630.6736   -36694.021    14.226367    246.79431 
    4050     137.5476   -1277.4328    132794.88   -34050.538    2597.7807   -36648.319    14.357485     243.7085 
    4100    140.34895   -1175.4965    132865.36   -34081.853    2650.6882   -36732.541    14.521253    248.67197 
    4150    138.81881   -1510.3634    132834.65   -34053.312    2621.7894   -36675.102      14.7019    245.96085 
    4200    142.31183    -1355.195    132828.86   -34024.244    2687.7599   -36712.004    14.929784    252.14982 
    4250    140.28667   -1067.8764    132830.81   -34039.954    2649.5119   -36689.466    15.191837    248.56162 
    4300    141.31729   -835.87838    132802.55   -34040.241    2668.9766   -36709.218    15.538131    250.38767 
    4350    138.14025   -1189.6418    132892.57   -34023.337    2608.9737    -36632.31    15.854167    244.75856 
    4400    140.30802   -1198.7253    132768.28   -34034.921    2649.9152   -36684.837    15.873764    248.59945 
    4450    139.47417   -1190.1531    132741.03   -34065.917    2634.1668   -36700.083    15.978938    247.12203 
    4500    135.61649   -1232.1443    132749.01   -34075.361    2561.3089    -36636.67    16.062928    240.28693 
    4550    142.04832    -1003.113    132867.36   -34047.709    2682.7831   -36730.492    16.150182    251.68292 
    4600    140.68405   -1078.4001     132904.7   -34057.236     2657.017   -36714.253    16.345015     249.2657 
    4650    141.48494   -1161.1614    132884.11   -34054.068    2672.1429    -36726.21    16.567769    250.68473 
    4700    137.85746   -1402.0131    132861.91   -34059.861    2603.6329   -36663.494    16.728478    244.25751 
    4750     143.6602   -1286.4492    132798.49   -34056.839    2713.2258   -36770.065    16.848472    254.53888 
    4800    140.58772   -1135.9274    132757.53   -34046.561    2655.1978   -36701.759    16.859658    249.09503 
    4850    139.64036   -1180.1509    132689.36   -34066.548    2637.3054   -36703.853    16.996959    247.41648 
    4900    138.57848    -1311.749    132682.78   -34104.116    2617.2503   -36721.366    17.067884    245.53502 
    4950     140.0576   -1276.6027    132741.78   -34123.618    2645.1856   -36768.803    17.264106    248.15575 
    5000    139.18262   -1512.0164    132675.09   -34163.177    2628.6604   -36791.838    17.265253    246.60545 
    5050    137.80745   -1004.0848    132734.51    -34157.83    2602.6883   -36760.518    17.191445     244.1689 
    5100    137.47399   -1012.4106    132827.81   -34133.479    2596.3906   -36729.869    17.188992    243.57808 
    5150    139.11842    -1220.392    132929.16   -34116.161    2627.4479   -36743.609    17.321668     246.4917 
    5200    141.18487   -1158.2378    132958.19   -34128.484    2666.4756    -36794.96    17.445121    250.15305 
    5250      139.311   -1137.1375    133017.46   -34093.055    2631.0851    -36724.14    17.513673    246.83292 
    5300    138.57546   -1286.4664    133025.77   -34101.453    2617.1932   -36718.646    17.614415    245.52967 
    5350    138.61338   -1317.7853    132943.59   -34125.767    2617.9095   -36743.676    17.625077    245.59687 
    5400    139.63481   -1119.8627    132934.77   -34121.427    2637.2006   -36758.627    17.635484    247.40664 
    5450    138.92866   -1216.9528    132972.98   -34144.011     2623.864   -36767.875    17.717772    246.15548 
    5500    138.60717   -1125.0144    133036.02   -34144.637    2617.7922   -36762.429    17.630032    245.58586 
    5550    140.31687   -1281.8889     133060.2   -34171.422    2650.0823   -36821.505    17.747542    248.61513 
    5600    137.56754   -1250.2981    133032.09   -34169.368    2598.1574   -36767.526    17.722763    243.74384 
    5650    138.53003    -1645.468     132940.8   -34143.915    2616.3353    -36760.25    17.644916    245.44918 
    5700    138.51655   -1390.3585    132791.77    -34155.61    2616.0807   -36771.691    17.790266     245.4253 
    5750    134.01331   -1398.3545     132710.2   -34212.291    2531.0306   -36743.322    17.943099     237.4464 
    5800    138.07156      -1202.5    132614.54   -34214.077    2607.6764   -36821.754    18.102647    244.63686 
    5850    139.58713   -1521.5424    132501.17   -34147.394    2636.3001   -36783.694    18.203891    247.32216 
    5900    140.29144   -1183.3857    132474.77   -34104.388     2649.602    -36753.99    18.379604    248.57007 
    5950    142.92035   -944.05316    132522.31   -34031.393    2699.2527   -36730.646    18.552389      253.228 
    6000      139.739   -1283.2811    132539.06   -34091.475    2639.1685   -36730.643    18.691753    247.59125 
    6050    139.11693   -925.00004    132584.39   -34085.243    2627.4198   -36712.663    18.791932    246.48906 
    6100    142.25337   -1011.0987    132609.84   -34041.968    2686.6558   -36728.624    18.892234    252.04624 
    6150    140.40598   -837.22855    132696.23   -34017.874    2651.7652   -36669.639    19.071768    248.77301 
    6200    140.59543   -1299.0618    132773.38   -34026.107    2655.3433    -36681.45    19.286543    249.10868 
    6250    138.81906   -1270.4822    132734.22   -33995.585    2621.7939   -36617.379    19.441577    245.96128 
    6300    140.36122   -1148.9879     132772.7   -34010.073      2650.92   -36660.993    19.823898    248.69371 
    6350     138.8544   -1487.1494    132791.69   -33974.886    2622.4614   -36597.348    20.032456     246.0239 
    6400    139.76406   -1124.7513    132652.78   -33963.149    2639.6416    -36602.79    20.143592    247.63564 
    6450    142.45663   -1023.4893    132656.48   -33951.607    2690.4948   -36642.102    20.346033    252.40639 
    6500     142.6543   -1208.1992     132761.9   -33936.979     2694.228   -36631.207    20.537721    252.75661 
    6550    138.74507   -864.35553    132768.21   -33973.314    2620.3966   -36593.711    20.664315    245.83019 
    6600     138.6776   -1227.7655    132735.61   -34030.083    2619.1223   -36649.206    20.791217    245.71065 
    6650    139.78205   -1277.8048    132700.22   -33992.079    2639.9814    -36632.06    21.058352    247.66752 
    6700    140.55644    -1172.258    132679.85   -34031.243    2654.6068    -36685.85    21.249008    249.03959 
    6750    138.49695    -1209.871    132578.24    -34025.36    2615.7105   -36641.071    21.414185    245.39056 
    6800    140.76377   -1260.8985    132677.23   -33995.934    2658.5227   -36654.456    21.633197    249.40695 
    6850    140.13623    -1515.438     132697.1   -34039.852    2646.6706   -36686.522    21.634422    248.29506 
    6900    138.57017   -1130.1134    132738.64   -34048.486    2617.0934   -36665.579    21.832806     245.5203 
    6950    139.59867   -1011.9802    132763.88   -34056.709     2636.518   -36693.227    22.064417    247.34261 
    7000    139.92095   -1168.9302    132788.44   -34018.061    2642.6047   -36660.666    22.177679    247.91363 
    7050     141.9734   -1250.7637    132801.43   -34014.389    2681.3683   -36695.757    22.266347    251.55019 
    7100    139.07056   -1216.4395    132814.33   -34030.363    2626.5439   -36656.907     22.41137    246.40689 
    7150    140.64133     -1104.04    132888.63   -34007.146    2656.2102   -36663.356    22.645535    249.19001 
    7200    140.66356   -1452.4509     132757.6   -34015.594      2656.63   -36672.224    22.709589    249.22939 
    7250    140.33282   -1291.1444    132719.33   -34024.543    2650.3835   -36674.926    22.935987    248.64339 
    7300    137.11148   -1235.0515    132755.31   -34061.861     2589.544   -36651.405    23.158482    242.93578 
    7350    140.24718   -1468.4911    132649.64   -34006.892    2648.7661   -36655.658     23.23696    248.49165 
    7400    139.11919   -1216.9969    132591.82   -34030.159    2627.4624   -36657.621    23.293661    246.49306 
    7450    140.40042   -1190.2831    132590.94    -34029.53    2651.6603    -36681.19    23.303468    248.76317 
    7500    137.94392   -954.17814    132612.52   -34041.943    2605.2658   -36647.209     23.50205    244.41071 
    7550    140.09791   -1160.1338    132585.52   -34047.332    2645.9469   -36693.279    23.668452    248.22716 
    7600    139.65678   -1201.2232    132534.78   -34016.163    2637.6156   -36653.779    23.817824    247.44557 
    7650    138.74482   -1028.6517    132638.86   -34007.779     2620.392   -36628.171    24.115614    245.82975 
    7700    139.58418   -1284.2291    132748.98    -33940.23    2636.2444   -36576.474     24.40326    247.31694 
    7750    139.63449   -1343.5228    132668.73   -33944.127    2637.1946   -36581.322    24.653189    247.40607 
    7800    141.62469    -1372.868    132664.82   -33978.257    2674.7823   -36653.039    24.848116    250.93233 
    7850    138.71208   -1130.2897    132701.89   -33951.978    2619.7736   -36571.752    25.070839    245.77174 
    7900    138.16155   -1182.4774    132712.08   -33972.711    2609.3761   -36582.087    25.284599    244.79631 
    7950    142.25964   -1098.5348    132741.85   -33917.693    2686.7742   -36604.467    25.383707    252.05734 
    8000    140.74661   -1210.2095    132705.41   -33981.911    2658.1986    -36640.11    25.543516    249.37655 
    8050    138.59138   -1210.5392     132662.3   -33972.742    2617.4939   -36590.236    25.803699    245.55788 
    8100    139.35942   -1132.8035    132709.08   -33940.823    2631.9995   -36572.822    26.061766    246.91871 
    8150    140.55749   -1321.3195    132673.52   -33963.785    2654.6268   -36618.412    26.291183    249.04146 
    8200    141.38771   -1283.2202    132646.31   -33986.423    2670.3067   -36656.729    26.486254    250.51246 
    8250    140.93711   -1380.8082    132561.43   -33985.386    2661.7965   -36647.182    26.751472    249.71408 
    8300    137.47488   -1334.4379    132515.64   -33990.316    2596.4074   -36586.723    26.921838    243.57966 
    8350    139.13632   -1318.8121    132473.68   -33966.817     2627.786   -36594.603    27.072215    246.52342 
    8400    141.03621   -1158.5183    132480.55   -33947.956    2663.6681   -36611.625    27.254645    249.88966 
    8450    142.12131   -1457.8464     132487.7    -33942.81    2684.1617   -36626.971    27.312729    251.81226 
    8500    141.98598    -1228.061    132448.59   -33942.379    2681.6058   -36623.985    27.378698    251.57248 
    8550    141.46751    -1328.999    132426.54   -33944.901    2671.8137   -36616.715    27.644628    250.65384 
    8600    138.85903   -1359.0135    132421.41   -33982.861    2622.5489    -36605.41    27.852277     246.0321 
    8650    139.06719   -1209.7869     132488.8   -33949.864    2626.4804   -36576.344    28.136464    246.40093 
    8700    142.37851   -1251.1148    132533.02   -33943.337    2689.0192   -36632.356    28.417318    252.26796 
    8750    139.17031   -1072.2079    132552.33   -33966.977    2628.4279   -36595.405    28.609766    246.58363 
    8800    139.91576   -1283.0466    132461.44   -33929.121    2642.5067   -36571.628    28.796808    247.90443 
    8850    144.25767   -1223.0895    132473.96   -33881.199    2724.5098   -36605.709    28.974905    255.59748 
    8900    143.06398   -1223.8511    132531.69   -33882.726    2701.9654   -36584.691    29.251962    253.48249 
    8950    139.06801   -1296.7182    132502.24   -33869.352    2626.4959   -36495.848    29.479787    246.40239 
    9000    141.74136   -1334.9447     132430.6   -33909.344    2676.9858    -36586.33    29.572612    251.13905 
    9050    140.76694   -1182.3972    132385.03   -33959.573    2658.5825   -36618.156    29.826674    249.41257 
    9100    139.69134   -1514.7815    132370.56   -33998.582    2638.2683    -36636.85    30.034223    247.50681 
    9150    141.34061   -1090.4096    132353.63   -33981.311     2669.417   -36650.728     30.17859      250.429 
    9200    141.64797   -1073.5059     132384.3   -33947.334    2675.2221   -36622.556    30.350076    250.97359 
    9250    140.95803   -1486.7634     132386.3   -33908.717    2662.1915   -36570.909     30.44097    249.75114 
    9300    140.60462   -1255.8239    132350.25   -33921.681    2655.5168   -36577.198    30.601958    249.12496 
    9350    141.02911   -1168.9026    132361.17   -33958.643     2663.534   -36622.177    30.709914    249.87709 
    9400    139.54999   -1030.5282    132380.56   -34007.022    2635.5986   -36642.621    30.752906    247.25635 
    9450    142.60243   -1345.1319     132373.1   -34007.543    2693.2483   -36700.791     30.67956    252.66471 
    9500    142.36971   -1498.9083    132361.37   -33952.988    2688.8531   -36641.841     30.81008    252.25238 
    9550      138.868   -1024.3046    132378.52   -33984.481    2622.7184     -36607.2    30.959436    246.04801 
    9600    142.27343   -1203.4657    132415.93   -33984.231    2687.0346   -36671.266    30.938938    252.08177 
    9650    137.97261   -978.25407    132411.85    -34020.83    2605.8076   -36626.637    31.127802    244.46154 
    9700    142.32728   -1336.4221    132356.82   -33977.088    2688.0517    -36665.14    31.195402     252.1772 
    9750    144.07051   -943.05162    132305.09   -33968.413    2720.9751   -36689.388     31.28523    255.26588 
    9800    141.97368   -1303.1337    132269.58   -33973.951    2681.3734   -36655.325    31.465057    251.55068 
    9850    141.28169    -1091.745    132204.31   -33961.678    2668.3042   -36629.983    31.656599     250.3246 
    9900     142.2629   -1218.2813    132268.78   -33936.594    2686.8358    -36623.43    31.833938    252.06313 
    9950    141.05037   -1192.5979    132250.34   -33927.169    2663.9355   -36591.104    31.837683    249.91475 
   10000    139.94578    -1039.894    132180.24   -33903.141    2643.0737   -36546.215    31.893162    247.95762 
   10050    139.55839   -1423.7962    132117.15    -33905.11    2635.7572   -36540.867    32.028172    247.27123 
   10100    139.77121   -1230.9669    132157.88   -33939.477    2639.7768   -36579.254    32.191057    247.64832 
   10150    139.18723    -1115.643    132189.29   -33940.037    2628.7474   -36568.784    32.399365    246.61361 
   10200    139.60038   -1141.7427    132238.86   -33932.109    2636.5504   -36568.659    32.571201    247.34565 
   10250    139.82681   -1279.9964    132303.71   -33921.697    2640.8267   -36562.524    32.820199    247.74683 
   10300    139.99384   -1195.1076    132256.68    -33936.65    2643.9815   -36580.631    32.921651    248.04278 
   10350     139.7972   -1398.8584    132273.15   -33979.747    2640.2677   -36620.014    33.164525    247.69437 
   10400    139.96777   -1063.6535    132239.13   -33999.881     2643.489    -36643.37    33.224947    247.99658 
   10450    139.87418   -1386.1906    132320.39   -34015.414    2641.7215   -36657.136    33.441334    247.83076 
   10500    139.54377   -1311.4666    132288.78   -33996.858    2635.4812   -36632.339    33.648743    247.24534 
   10550    140.10942   -858.49977    132272.06   -33980.776    2646.1643    -36626.94     33.90728    248.24756 
   10600    142.08309   -860.95255     132448.6   -33917.901    2683.4398   -36601.341    33.934937    251.74453 
   10650    141.40555   -1130.7747    132505.51   -33928.485    2670.6436   -36599.129    34.049756    250.54407 
   10700    141.60593   -1011.8985    132532.68   -33939.973    2674.4279   -36614.401    34.349148    250.89909 
   10750    141.77443     -1210.47    132541.12   -33943.085    2677.6104   -36620.695    34.668132    251.19766 
   10800     141.8704    -1216.788    132530.31   -34012.346    2679.4229   -36691.768     34.82542    251.36769 
   10850    140.37406   -1217.7284    132527.49   -33947.387    2651.1624    -36598.55    35.005356    248.71646 
   10900     144.6418   -1050.2186    132582.58   -33955.443    2731.7647   -36687.208    35.281271    256.27809 
   10950    138.99712   -1192.5299    132595.24   -33957.669     2625.157   -36582.826    35.462336    246.27678 
   11000    141.78824   -1062.6295    132677.86   -33956.672    2677.8711   -36634.543    35.531349    251.22211 
   11050    139.98211   -1229.2252    132721.72   -33957.765    2643.7599   -36601.525    35.661799    248.02199 
   11100    141.71952   -1082.8332    132693.48   -33972.719    2676.5733   -36649.292     36.07742    251.10036 
   11150    142.90112   -1112.3878    132647.19   -33951.789    2698.8894   -36650.679    36.242713    253.19392 
   11200    141.31013    -1029.452    132715.43   -33926.995    2668.8414   -36595.836    36.382483    250.37499 
   11250     140.6947   -1320.0666    132762.28   -33948.769    2657.2182   -36605.987    36.622598    249.28458 
   11300    138.08727   -1179.7508       132857    -33969.55    2607.9732   -36577.523    36.699777     244.6647 
   11350    139.05135   -1327.2353    132792.44   -33958.771    2626.1811   -36584.953    36.832107    246.37286 
   11400    136.70155   -1309.4021    132797.49   -34020.667    2581.8018   -36602.468     37.04093    242.20945 
   11450    137.51334   -1100.6804    132741.39    -33994.57    2597.1337   -36591.703    37.146704    243.64781 
   11500    140.49711   -1324.6872    132721.28   -33947.552    2653.4864   -36601.038    37.431516    248.93448 
   11550    141.20267   -1351.3362     132727.4   -33941.444    2666.8119   -36608.256    37.638725     250.1846 
   11600    140.89576    -1199.021    132744.74    -33938.59    2661.0155   -36599.605    37.849373    249.64081 
   11650    141.22001   -1252.9018    132713.63   -33968.728    2667.1393   -36635.867    38.150285    250.21531 
   11700    144.32739   -1149.6808    132673.67   -33915.805    2725.8266   -36641.632    38.248715    255.72102 
   11750    138.12001   -1340.4542    132601.01   -33992.697    2608.5914   -36601.288    38.346992    244.72269 
   11800    142.47456   -1034.1661    132602.92   -33927.881    2690.8333   -36618.714    38.510339    252.43815 
   11850    139.40049   -1144.8108    132642.34   -33946.571    2632.7752   -36579.347    38.734175    246.99148 
   11900     138.6199   -1138.3199    132707.56   -33974.427    2618.0327    -36592.46    38.843264    245.60842 
   11950    139.13361   -1154.2122    132791.56   -33990.023    2627.7347   -36617.758    39.081497    246.51861 
   12000    140.64233    -1310.852    132798.14   -33898.465    2656.2291   -36554.694    39.212373    249.19179 
   12050    141.42786   -1413.7446    132771.05   -33895.546    2671.0649   -36566.611    39.421496    250.58359 
   12100    139.94247   -1377.7529    132607.91   -33853.218    2643.0111   -36496.229    39.644301    247.95175 
   12150      140.968    -1118.222    132592.62   -33876.139    2662.3798   -36538.518    39.849096     249.7688 
   12200    137.86586   -1237.7082    132484.11   -33912.999    2603.7915    -36516.79    39.955239     244.2724 
   12250    140.60071   -1240.3594    132477.92   -33908.788    2655.4431   -36564.231     40.03306    249.11804 
   12300    139.25102   -1131.7962    132458.84   -33906.963    2629.9521   -36536.915    40.176235    246.72663 
   12350    139.36288    -1155.444    132380.93   -33895.239    2632.0649   -36527.304    40.274692    246.92484 
   12400    142.97376   -1062.5134    132441.72   -33894.622    2700.2615   -36594.883    40.644348    253.32264 
   12450    138.02101   -877.98273    132576.37   -33910.206    2606.7217   -36516.927    40.828513    244.54729 
   12500    139.64119   -1195.4029    132543.53    -33926.93    2637.3211   -36564.251    41.204223    247.41795 
   12550    139.98277   -1068.3735    132521.26   -33921.212    2643.7724   -36564.985    41.474183    248.02317 
   12600    139.87883   -1103.2858    132561.71   -33952.915    2641.8093   -36594.725    41.805821      247.839 
   12650    140.37455   -1225.2379    132584.63   -33888.312    2651.1716   -36539.483    42.128911    248.71732 
   12700    143.25054   -1051.3068    132656.53    -33867.13    2705.4887   -36572.619    42.468225    253.81303 
   12750    141.93891   -1402.0047    132632.54   -33832.343    2680.7168    -36513.06    42.647134    251.48907 
   12800    143.41024   -1171.2756    132567.83   -33914.826    2708.5049   -36623.331    43.007864    254.09599 
   12850    138.23968   -1206.2159    132597.22   -33981.739    2610.8516   -36592.591    43.270039    244.93473 
   12900     140.4016   -1135.9264    132624.46   -33994.399    2651.6825   -36646.081    43.540407    248.76525 
   12950    140.90787   -1089.0909    132628.12   -33957.777    2661.2441   -36619.021    43.614993    249.66226 
   13000    141.59556   -1145.4818    132647.69   -33971.647    2674.2321    -36645.88    43.879816    250.88072 
   13050     140.3124   -1231.2291     132677.4   -33976.389    2649.9978   -36626.387     44.29207     248.6072 
   13100    137.39591   -967.63645    132698.57   -33955.288    2594.9159   -36550.204    44.282257    243.43974 
   13150    141.46354   -1121.2979     132740.3   -33944.224    2671.7388   -36615.963     44.34998    250.64681 
   13200    143.77363   -823.41834    132856.69   -33865.103     2715.368   -36580.471    44.550175    254.73985 
   13250    141.20492   -1363.6154     132840.5   -33876.978    2666.8544   -36543.832    44.720597    250.18859 
   13300    146.38634   -1467.0146     132754.7   -33896.154    2764.7127   -36660.867    44.610282    259.36908 
   13350     143.9492   -1352.4533    132723.51   -33891.071    2718.6839   -36609.755    44.715579    255.05092 
   13400    144.65661   -1406.5381    132692.64   -33899.551    2732.0444   -36631.595    44.823809    256.30433 
   13450    144.24028   -1303.3154    132774.38   -33898.742    2724.1815   -36622.923    44.939291    255.56668 
   13500    143.07278    -1339.588    132702.28   -33872.807    2702.1316   -36574.938     45.24985    253.49808 
   13550    143.02277   -1243.7865    132666.09   -33867.121     2701.187   -36568.308    45.462383    253.40947 
   13600     139.0946   -1192.6693    132630.49   -33932.662    2626.9979    -36559.66    45.285377    246.44949 
   13650    140.17856   -1308.1377    132565.53   -33972.481    2647.4701   -36619.951    45.427017    248.37007 
   13700    142.55783   -1499.8778     132567.8    -33928.89     2692.406   -36621.296    45.668671    252.58568 
   13750    139.68589   -1367.1231    132500.77   -33940.886    2638.1653   -36579.051    45.800531    247.49714 
   13800    138.36544   -1315.8106    132469.15   -33943.466    2613.2268   -36556.692    45.977465    245.15756 
   13850    141.42316   -1145.8496    132397.93   -33904.467    2670.9762   -36575.443    46.175918    250.57527 
   13900    141.91301   -888.02132    132423.03   -33862.414    2680.2276   -36542.641     46.27309    251.44318 
   13950    144.01861   -1267.6565    132454.05   -33864.668    2719.9948   -36584.662    46.363128     255.1739 
   14000     139.6142    -1150.935    132404.92   -33868.333    2636.8114   -36505.144    46.244799    247.37013 
   14050    140.62937   -1139.8991    132389.82   -33929.181    2655.9842   -36585.165    46.514689    249.16881 
   14100    140.17203   -1082.4469    132474.14   -33944.177    2647.3468   -36591.523    46.736503     248.3585 
   14150    141.26942   -1015.9075    132549.02   -33954.855    2668.0725   -36622.927    46.668995    250.30286 
   14200    140.22917   -1081.0132    132604.67    -33939.23     2648.426   -36587.656    46.800049    248.45974 
   14250    139.96604   -1348.5639    132559.86   -33991.356    2643.4564   -36634.813    46.958611    247.99352 
   14300    139.03862   -1256.5325    132435.94   -34025.493    2625.9407   -36651.434     46.97159    246.35031 
   14350    139.49333   -729.55648    132435.41   -33989.546    2634.5285   -36624.075    46.981249    247.15596 
   14400    140.25401   -959.19852     132496.7   -33991.088    2648.8951   -36639.983    46.928787    248.50376 
   14450    142.20362   -1079.2109    132553.12   -33978.811    2685.7161   -36664.527    47.139314    251.95808 
   14500    141.13602   -1050.4186    132635.28   -33991.153    2665.5531   -36656.706    47.376142    250.06651 
   14550    140.73401   -967.46422    132732.23   -33958.563    2657.9605   -36616.523    47.540097    249.35422 
   14600    142.07142     -1144.52    132755.09   -34037.122    2683.2194   -36720.342    47.759882    251.72385 
   14650    141.30956   -1253.2285     132760.4   -34060.931    2668.8306   -36729.762    47.898824    250.37398 
   14700    139.24285   -1057.0896     132728.2   -34063.253    2629.7979   -36693.051    47.969326    246.71217 
   14750    140.84095   -998.40549    132835.38   -34036.296    2659.9802   -36696.277    48.103731    249.54369 
   14800    141.64412   -1021.9101    132968.21   -34062.583    2675.1492   -36737.732    48.430598    250.96676 
   14850    142.46649   -1161.0433    133035.44   -34021.649    2690.6809    -36712.33    48.347044    252.42384 
   14900    140.85828   -1176.1717    133026.51   -34028.023    2660.3075   -36688.331     48.52646     249.5744 
   14950    141.02996   -1323.5341    132986.11   -34065.409      2663.55   -36728.959    48.654289    249.87859 
   15000    138.16975   -934.31106    133065.14   -34029.541    2609.5308   -36639.072    48.644426    244.81082 
   15050    139.75859   -1134.0653     133111.5    -34005.97    2639.5384   -36645.508    48.765563    247.62596 
   15100    138.48636   -1379.3778    133082.65   -34004.296    2615.5105   -36619.807    48.790435     245.3718 
   15150     140.5286   -1130.4234    133082.81   -33996.516    2654.0811   -36650.597    48.905015    248.99027 
   15200     141.7965   -990.17372    133112.99   -33952.196    2678.0272   -36630.224    49.042611    251.23675 
   15250    141.44265   -1073.0859    133154.37   -33945.717    2671.3442   -36617.061    49.229719     250.6098 
   15300    139.42435   -1243.9741    133111.82   -33929.471    2633.2257   -36562.696    49.452516    247.03374 
   15350    142.39223   -1128.8289    133080.28   -33951.849    2689.2783   -36641.127    49.783078    252.29227 
   15400    143.49762   -1190.8139    133156.43   -33888.972    2710.1552   -36599.127    50.056396    254.25082 
   15450    141.06481   -1059.2279    133202.77   -33895.977    2664.2081   -36560.185    50.217195    249.94033 
   15500    140.77817   -1144.6835    133184.95   -33950.197    2658.7946   -36608.992    50.421548    249.43246 
   15550    141.94418   -1016.2271    133169.25   -33975.851    2680.8163   -36656.667    50.699728    251.49841 
   15600    140.60276    -914.4208     133220.7    -33969.64    2655.4817   -36625.122    50.997115    249.12167 
   15650    140.89495   -1053.5668    133227.79   -33962.637    2661.0002   -36623.637    50.937072    249.63938 
   15700    141.87496   -1032.0264    133268.58   -33957.767     2679.509   -36637.276    51.136341    251.37577 
   15750    142.85155   -1402.8858    133277.82   -33977.552    2697.9533   -36675.505    51.305919    253.10611 
   15800    141.19904   -1059.7738    133176.84   -33981.314    2666.7433   -36648.057    51.546588    250.17817 
   15850    141.53309   -1225.6764    133124.96   -34039.898    2673.0522    -36712.95    51.742355    250.77003 
   15900    141.75884   -1228.4804    133126.54    -34028.23    2677.3158   -36705.546    51.929168    251.17002 
   15950    140.42759     -1274.29    133053.11    -34038.35    2652.1735   -36690.524    52.277288    248.81131 
   16000    145.28599   -1036.7285    133062.07   -34014.004    2743.9311   -36757.936    52.401686    257.41947 
   16050    141.11239   -1237.2838    133148.88   -34065.088    2665.1068   -36730.195    52.559701    250.02463 
   16100    137.08789   -1245.3466    133124.22   -34066.116    2589.0984   -36655.214    52.835489    242.89398 
   16150    140.54248   -1212.0694     133156.8   -34091.813    2654.3432   -36746.156    52.750443    249.01486 
   16200    140.59249   -1277.8648    133160.27   -34083.927    2655.2877   -36739.215    52.985691    249.10347 
   16250    139.74122   -1363.2876    133192.69   -34069.196    2639.2104   -36708.406     53.10238    247.59519 
   16300    138.63809   -1081.1006    133246.45   -34085.479    2618.3762   -36703.856    53.170377    245.64065 
   16350    138.00655   -1015.1063    133265.03    -34110.29    2606.4486   -36716.739    53.231217    244.52167 
   16400    137.07272   -1180.4427    133265.42    -34080.69     2588.812   -36669.502    53.183071    242.86711 
   16450    141.09459   -1272.7873    133268.07   -34063.547    2664.7706   -36728.318     53.60716    249.99309 
   16500     138.0452   -1087.8927    133241.05   -34075.706    2607.1785   -36682.884    53.578028    244.59014 
   16550    137.51328   -1154.7844    133333.28   -34105.556    2597.1324   -36702.689    53.728686    243.64768 
   16600    139.00153   -1342.6583    133396.84   -34126.207    2625.2403   -36751.447    53.794892    246.28459 
   16650    136.31207   -1152.3401    133394.05   -34122.478     2574.446   -36696.924    54.017074    241.51937 
   16700    136.74409   -1229.5375    133352.63   -34155.722    2582.6054   -36738.328    54.103864    242.28484 
   16750    136.58046   -1396.9198    133349.66   -34125.069    2579.5149   -36704.584    54.383244    241.99491 
   16800     139.4059   -1411.7156    133303.91   -34133.619    2632.8774   -36766.497    54.428165    247.00106 
   16850    138.93311   -1309.1546    133294.98   -34127.825     2623.948   -36751.773    54.582069    246.16336 
   16900    136.09902   -1312.9587    133385.25   -34155.444    2570.4222   -36725.866    54.964348    241.14189 
   16950    137.11275   -1233.3143    133476.22   -34122.535     2589.568   -36712.103    55.144287    242.93803 
   17000    138.88697   -1457.9984    133517.49   -34082.982    2623.0767   -36706.059    55.248116    246.08162 
   17050     137.8584   -1220.6033    133477.85   -34054.757    2603.6506   -36658.408    55.406591    244.25918 
   17100    140.07653   -1139.8417    133496.97   -34041.604    2645.5432   -36687.147    55.716502     248.1893 
   17150    139.36879   -1152.0624    133568.87   -34010.659    2632.1764   -36642.836    55.805824     246.9353 
   17200    140.32993   -1138.1637    133501.69   -33995.937    2650.3289   -36646.265    55.968274    248.63826 
   17250    145.37889   -1206.3129    133502.94   -33946.985    2745.6856   -36692.671    56.432603    257.58407 
   17300    139.69877    -1358.726    133508.79   -33970.421    2638.4087    -36608.83    56.704321    247.51998 
   17350    141.48742   -1360.2761    133449.29   -33966.673    2672.1898   -36638.863    56.587847    250.68913 
   17400    140.78849   -1187.8734    133376.69   -34017.939    2658.9896   -36676.929    56.749467    249.45076 
   17450    138.40284   -1052.7544    133365.16   -34039.371    2613.9331   -36653.304    56.600078    245.22382 
   17500    141.00822   -1416.6642    133292.78   -34070.592    2663.1394   -36733.731    56.623269    249.84006 
   17550    141.20696   -1292.6043    133289.39   -34012.459    2666.8928   -36679.351    56.342463    250.19219 
   17600    138.22612   -1160.9182    133215.61   -34065.299    2610.5956   -36675.894    56.494928    244.91071 
   17650    138.65937   -1271.7937    133110.55   -34068.124     2618.778   -36686.902    56.501062    245.67834 
   17700     139.6655   -1211.4299    133108.67   -34096.593    2637.7802   -36734.373    56.612639    247.46101 
   17750    140.59805   -1275.9819    133095.74   -34088.746    2655.3927   -36744.138    56.747085    249.11332 
   17800    138.34659   -1212.4383    133064.28   -34036.538    2612.8708   -36649.409    57.030825    245.12417 
   17850    138.70655   -1139.4602    133059.77   -34059.376    2619.6691   -36679.046    57.113917    245.76194 
   17900    141.74331   -1238.9774    133169.88   -34026.127    2677.0225   -36703.149     57.08136     251.1425 
   17950    142.43153   -1141.6305    133253.59   -33985.052    2690.0205   -36675.072    57.053066     252.3619 
   18000    143.07948    -1342.007    133306.81   -33973.035     2702.258   -36675.293    56.873181    253.50994 
   18050    144.71488   -1189.1828    133287.33   -33974.432     2733.145   -36707.577    56.784044    256.40758 
   18100    140.74212   -1076.9092    133208.12    -33981.95    2658.1137   -36640.064    56.717209    249.36859 
   18150    139.16699    -964.8484    133223.42   -33986.141    2628.3652   -36614.506    56.761619    246.57775 
   18200    138.64583   -1462.2502    133215.92   -34024.633    2618.5223   -36643.156    56.877126    245.65435 
   18250    140.86205   -1433.7712    133172.31   -34003.984    2660.3788   -36664.363    57.349106    249.58108 
   18300    142.36078   -1354.2939    133107.93   -33992.155    2688.6845   -36680.839    57.513469    252.23656 
   18350    138.79263   -1343.5733    133104.39   -33993.895    2621.2949    -36615.19    57.985687    245.91446 
   18400    140.44508   -1239.4297    133186.67   -34042.285    2652.5037   -36694.789    58.334436    248.84228 
   18450    139.31039   -1344.4809    133189.66   -34053.511    2631.0736   -36684.585    58.591054    246.83184 
   18500    140.11827    -1171.755    133191.62   -34016.826    2646.3314   -36663.157    58.934093    248.26324 
   18550    141.08785   -857.38366    133301.48   -34034.866    2664.6434   -36699.509    59.297633    249.98116 
   18600    138.16394   -1182.4156    133333.17    -34068.98    2609.4211   -36678.401     59.37185    244.80054 
   18650     139.5513   -1005.3774    133345.21    -34073.53    2635.6234   -36709.154    59.653769    247.25868 
   18700    139.50943   -986.10602    133416.61   -34062.661    2634.8327   -36697.493    59.706151     247.1845 
   18750    138.16626   -1003.4892    133468.42    -34128.31    2609.4649   -36737.775    59.696536    244.80464 
   18800    137.32723   -1359.6747    133531.34   -34110.984    2593.6187   -36704.603     59.97184    243.31805 
   18850    138.51459   -1245.1772    133495.73   -34088.407    2616.0437    -36704.45    60.201681    245.42182 
   18900    138.13292   -1299.6173    133429.79   -34051.401    2608.8353   -36660.236    60.386438    244.74558 
   18950    135.79846   -1163.0263    133478.61   -34081.688    2564.7458   -36646.433    60.548013    240.60935 
   19000    138.39166   -1362.8561    133545.59    -34036.94    2613.7221   -36650.662    60.790489    245.20402 
   19050    137.95081   -1270.5992    133582.01   -34030.239     2605.396   -36635.635     61.05666    244.42292 
   19100    140.25466   -1252.9579    133562.28   -34068.441    2648.9074   -36717.349    61.142063    248.50491 
   19150    139.91185   -1358.6686     133618.1   -34058.852    2642.4329   -36701.285    61.191017    247.89751 
   19200    142.36632     -1249.97    133625.91   -34067.269     2688.789   -36756.058    61.256045    252.24636 
   19250    140.89823    -1403.959    133609.73   -34057.693     2661.062   -36718.755    61.368819    249.64518 
   19300    139.50397   -1186.0083    133665.87   -34093.282    2634.7296   -36728.011    61.502574    247.17483 
   19350    139.25973   -1467.6279     133673.1   -34133.921    2630.1167   -36764.038    61.715539    246.74207 
   19400    140.74913   -1404.4344    133600.57   -34190.303    2658.2461   -36848.549    61.723042    249.38101 
   19450    141.24323   -1110.2537    133624.14   -34130.713     2667.578   -36798.291    61.688184    250.25647 
   19500    139.60625   -1080.9948    133706.02   -34150.665    2636.6613   -36787.327    61.910888    247.35604 
   19550    138.14359   -1255.3235     133658.6   -34203.928    2609.0368   -36812.965    62.053081    244.76448 
   19600    140.05593   -1363.0066    133631.19   -34178.953    2645.1541   -36824.107    62.081899    248.15279 
   19650    141.06437   -1121.5299     133720.5   -34159.316    2664.1999   -36823.516    62.583005    249.93955 
   19700    139.92859   -1228.1942     133653.3   -34125.887    2642.7491   -36768.636    62.744807    247.92717 
   19750    140.29684   -1590.2553    133586.57   -34130.518    2649.7041   -36780.222    62.689176    248.57964 
   19800    139.27892   -1097.5496    133540.19   -34135.674    2630.4792   -36766.153    62.759461    246.77608 
   19850    142.44478   -1372.4114    133559.82   -34096.943    2690.2708   -36787.213     62.71713    252.38538 
   19900      140.913   -1018.3644    133513.63   -34092.555     2661.341   -36753.896    62.703122    249.67135 
   19950    142.82299   -1216.9292    133461.84   -34103.657    2697.4139   -36801.071    62.829315     253.0555 
   20000    142.59541   -1237.5062    133438.28   -34088.983    2693.1158   -36782.099     62.88192    252.65228 
   20050    138.36523   -983.49053    133455.35   -34073.328    2613.2229   -36686.551    63.070867    245.15719 
   20100     138.7151   -1272.1621    133534.61     -34046.1    2619.8306    -36665.93    63.182068    245.77709 
   20150    139.22683   -1314.2067    133556.55   -34123.166    2629.4954   -36752.662    63.285419    246.68378 
   20200     137.4806   -1550.8714     133523.5   -34181.802    2596.5152   -36778.317    63.322537    243.58978 
   20250    139.32809   -1257.2495    133535.17   -34166.604    2631.4077   -36798.012    63.484894    246.86319 
   20300    139.15261   -1063.5392    133534.64   -34167.533    2628.0935   -36795.626    63.696723    246.55227 
   20350     137.6996    -1257.637    133558.29   -34140.392    2600.6515   -36741.044    63.869642    243.97782 
   20400    139.77584   -1148.5424     133599.5   -34110.116    2639.8642    -36749.98    64.111231    247.65653 
   20450    141.32078   -1320.0775    133616.73   -34085.258    2669.0426   -36754.301     64.28281    250.39387 
   20500    140.80147   -1315.3445    133585.79   -34023.608    2659.2346   -36682.843    64.310907    249.47374 
   20550    144.74018   -1182.7618    133513.78   -34050.416    2733.6228   -36784.038    64.583919     256.4524 
   20600     138.4831   -1215.7131     133452.7    -34076.75     2615.449   -36692.199    64.534296    245.36603 
   20650    142.09195   -1211.1713    133446.08   -34049.104    2683.6072   -36732.711    64.770075    251.76024 
   20700    139.36138    -1132.955    133406.32     -34080.3    2632.0365   -36712.337    64.857486    246.92218 
   20750    141.41604   -1090.0899    133384.54   -34046.448    2670.8416    -36717.29    65.005455    250.56265 
   20800    138.44299   -1238.5925    133315.69   -34114.177    2614.6914   -36728.868    65.236966    245.29496 
   20850    139.99081   -1135.6225    133355.87   -34129.889    2643.9241   -36773.813     65.43722     248.0374 
   20900    139.82255   -1201.4079     133448.2   -34116.086    2640.7463   -36756.832    65.540411    247.73928 
   20950    139.25107      -1270.5    133450.56   -34117.442    2629.9531   -36747.395    65.624465    246.72672 
   21000    141.82462    -1213.027    133468.44   -34084.415    2678.5582   -36762.973    65.830679    251.28657 
   21050    140.26867   -1289.9106    133469.53   -34104.056    2649.1719   -36753.228    66.080479    248.52972 
   21100      139.529   -1226.6258    133481.37   -34114.601    2635.2023   -36749.803    66.234722    247.21917 
   21150    139.60856   -1500.7166    133538.19   -34144.021    2636.7048   -36780.725    66.227955    247.36013 
   21200    138.03081   -1258.2065     133509.8   -34149.987    2606.9067   -36756.893    66.372549    244.56465 
   21250    140.97085   -1173.1252     133572.5   -34029.019    2662.4336   -36691.452    66.242482    249.77385 
   21300    143.32952   -1364.1608    133533.71   -34047.772    2706.9804   -36754.752    66.356302    253.95298 
   21350    140.43975   -1257.5447    133475.16   -34048.145     2652.403   -36700.548    66.262877    248.83284 
   21400     137.8829   -1296.1975    133450.39   -34154.508    2604.1133   -36758.622    66.440469    244.30259 
   21450    139.47944   -1461.1497    133487.65   -34112.391    2634.2662   -36746.657    66.376971    247.13135 
   21500    141.33987   -1115.3917    133495.15    -34131.16    2669.4032   -36800.564    66.452466     250.4277 
   21550    140.02192   -1162.4109    133578.94   -34161.111    2644.5116   -36805.623    66.627912    248.09252 
   21600    139.32002   -1152.2112    133608.32   -34162.791    2631.2554   -36794.046    66.699241     246.8489 
   21650     140.4869   -1185.7301    133585.79   -34154.687    2653.2936    -36807.98    66.650141    248.91639 
   21700    142.16703    -1256.758    133558.57   -34050.179    2685.0251   -36735.204    66.726983    251.89325 
   21750    143.59287   -1267.0189    133535.64   -34019.459    2711.9542   -36731.413    66.999103    254.41958 
   21800    143.45434    -1105.654    133534.02    -33964.42    2709.3378   -36673.758    67.331895    254.17413 
   21850    142.91059   -1129.0008    133591.32   -33982.257    2699.0684   -36681.325    67.565827    253.21072 
   21900    142.62733   -1188.1332    133580.84   -34053.512    2693.7185   -36747.231    67.688362    252.70882 
   21950    139.45928   -1227.5945    133695.57   -34070.076    2633.8854   -36703.961     67.89203    247.09563 
   22000    142.12818   -1127.1828    133740.94   -34090.575    2684.2915   -36774.866    67.815886    251.82443 
   22050    143.43191   -1141.5923    133711.47    -34075.73    2708.9142   -36784.644    67.961639    254.13439 
   22100    142.07608   -1244.4557    133732.99   -34044.516    2683.3074   -36727.824     68.18985    251.73211 
   22150    141.36822   -1249.4084    133697.32   -34044.222    2669.9386    -36714.16    68.135282    250.47793 
   22200     142.3445   -1499.1721    133751.97   -34008.175     2688.377   -36696.552     68.32311    252.20771 
   22250    141.39567   -1321.0143    133685.04   -34044.927     2670.457   -36715.384    68.428953    250.52656 
   22300    139.32417   -1427.5217    133523.25   -34079.389    2631.3337   -36710.723    68.286576    246.85625 
   22350    139.48416   -1401.6543    133422.51   -34068.547    2634.3555   -36702.902    68.393531    247.13973 
   22400     140.7287   -1067.4446    133408.58   -34065.621    2657.8603   -36723.481     68.46052    249.34481 
   22450    142.86615   -1094.7479     133494.5    -34001.63    2698.2291   -36699.859    68.747624    253.13198 
   22500    139.75659   -1048.2872    133565.91   -34009.155    2639.5007   -36648.656    69.138497    247.62242 
   22550     140.3269   -1230.5044    133578.63   -34006.462    2650.2718   -36656.734     69.18076     248.6329 
   22600    142.22615   -1334.6656    133544.42   -34040.391    2686.1417   -36726.532    69.357845      251.998 
   22650    142.58185   -1115.6054    133521.44   -34060.729    2692.8595   -36753.589    69.834758    252.62824 
   22700    140.56813   -1081.3217    133550.01    -34048.54    2654.8276   -36703.367    70.253866    249.06031 
   22750    141.34378    -1089.787     133626.3   -34048.204     2669.477   -36717.681    70.337215    250.43462 
   22800    140.56531   -1272.6389    133589.29   -34030.717    2654.7744   -36685.492    70.751413    249.05532 
   22850     140.0271   -1463.7613    133533.49   -34104.155    2644.6095   -36748.764    70.818635    248.10171 
   22900    137.52844   -1175.6785    133509.34   -34099.514    2597.4189   -36696.933    70.843887    243.67456 
   22950    135.23136   -1490.2158     133446.5   -34139.197    2554.0353   -36693.232    70.918784    239.60457 
   23000    135.68513   -1376.9354    133390.14   -34152.438    2562.6054   -36715.044    70.685648    240.40855 
   23050    140.12279   -1317.9963    133316.74   -34144.787    2646.4168   -36791.203    70.636755    248.27125 
   23100    137.94094   -1532.2672    133223.68   -34150.463    2605.2096   -36755.673    70.944386    244.40543 
   23150    139.20052   -1397.2563    133143.88   -34155.103    2628.9984   -36784.101    71.113462    246.63716 
   23200    139.14667   -1185.7963    133191.22   -34110.963    2627.9814   -36738.944    71.492016    246.54175 
   23250    141.19544   -1283.3897    133273.29    -34070.99    2666.6752   -36737.665    71.438729    250.17178 
   23300     138.1171   -1469.7706    133309.26   -34088.674    2608.5366    -36697.21    71.479267    244.71755 
   23350    139.28927   -1511.4981    133256.23    -34085.15    2630.6747   -36715.825    71.500962    246.79442 
   23400    137.87645   -1281.4618    133237.34   -34119.548    2603.9916   -36723.539    71.696535    244.29116 
   23450    139.07187   -1036.6949    133281.94   -34131.137    2626.5688   -36757.705    71.980312    246.40923 
   23500     141.7763   -1283.9123    133279.55   -34098.548    2677.6456   -36776.194    72.089704    251.20096 
   23550    140.91809   -967.43471    133299.69   -34062.156    2661.4372   -36723.593     72.22278    249.68038 
   23600    138.48993    -967.5365    133364.13   -34101.687    2615.5779   -36717.265    72.424982    245.37813 
   23650    141.59438   -1385.8894    133388.08   -34046.524    2674.2099   -36720.734    72.463968    250.87864 
   23700    141.50372   -1144.5438    133348.25   -34023.515    2672.4976   -36696.012     72.82009      250.718 
   23750    138.75601   -1369.7024    133365.06   -34063.697    2620.6033   -36684.301    73.298103    245.84958 
   23800    141.47157   -1324.3093    133303.99   -34032.506    2671.8904   -36704.396    73.643096    250.66103 
   23850    138.48333   -1176.6845    133199.37    -34038.64    2615.4533   -36654.093    73.776619    245.36643 
   23900    141.14011   -1064.7367    133168.58   -33950.382    2665.6304   -36616.013    73.879548    250.07376 
   23950    141.68157   -1378.3091    133195.84   -33976.241    2675.8566   -36652.098    74.040496    251.03312 
   24000    140.84407   -1186.5808    133125.28   -34019.619    2660.0392   -36679.658    73.909362    249.54923 
   24050    143.48629   -1008.8314    133183.28   -34026.516    2709.9413   -36736.457    74.026941    254.23075 
   24100    138.58687   -1094.4068    133153.75   -34036.269    2617.4088   -36653.678    74.323811     245.5499 
   24150    141.99469    -1053.103    133164.08   -34026.805    2681.7702   -36708.575    74.632981     251.5879 
   24200    146.12717   -1156.1637    133201.85   -34028.588    2759.8179   -36788.406    74.910425    258.90988 
   24250    142.59101   -1201.2388       133258   -34055.781    2693.0327   -36748.814    75.232937    252.64448 
   24300    141.65676   -1259.4022    133245.02   -34011.934     2675.388   -36687.322    75.402932    250.98916 
   24350    142.19913   -1154.5717    133174.97   -34036.535    2685.6315   -36722.167    75.300872    251.95014 
   24400    141.93946   -1226.8061    133206.43   -34045.995    2680.7271   -36726.723    75.507884    251.49004 
   24450    141.40005   -1297.5561    133186.88   -34068.201    2670.5396    -36738.74    75.565912    250.53431 
   24500    141.72201    -1097.542    133230.84   -34071.481    2676.6204   -36748.101     75.85341    251.10478 
   24550     137.6784   -1103.2593     133157.5   -34109.261    2600.2511   -36709.512    76.242707    243.94025 
   24600    140.20169   -1106.0469    133199.78   -34119.694    2647.9069   -36767.601    76.524483    248.41104 
   24650    139.48825   -1023.5083    133229.91   -34073.581    2634.4326   -36708.014    76.568851    247.14697 
   24700    142.32178   -1042.2515    133272.61   -34003.059    2687.9477   -36691.007    76.905525    252.16744 
   24750    140.07696    -852.1644    133366.87   -33985.729    2645.5512    -36631.28    77.174914    248.19004 
   24800    143.15628   -966.03283    133401.91   -33965.122    2703.7086   -36668.831    77.483321    253.64603 
   24850    141.35416   -1132.9092    133366.35   -33997.661    2669.6729   -36667.334    77.555283      250.453 
   24900    142.44884   -1418.0975    133449.06    -34021.01    2690.3476   -36711.358    77.697706    252.39258 
   24950    140.42217   -1429.9187    133370.65   -33989.699    2652.0711    -36641.77    77.803788    248.80171 
   25000    139.03336   -1267.4266    133295.55    -33967.08    2625.8413   -36592.922    77.936502    246.34098 
   25050    139.48482   -1265.8572    133237.97   -33977.282    2634.3678   -36611.649    78.057577    247.14088 
   25100    138.23487   -1196.2635    133148.97   -33961.434    2610.7608   -36572.195    77.924972    244.92621 
   25150    142.27889   -1286.9658    133140.35   -33970.879    2687.1379   -36658.017    78.165389    252.09146 
   25200    141.83359   -1374.3893    133115.91    -33978.55    2678.7276   -36657.277    78.385178    251.30246 
   25250    139.38801   -1278.0938     133122.3   -34048.575    2632.5394   -36681.115    78.685425    246.96935 
   25300    139.21485   -1327.6185     133130.7    -33991.61    2629.2691   -36620.879    78.568807    246.66255 
   25350    143.87921   -1172.9587    133151.01   -33935.418    2717.3622    -36652.78    78.672148    254.92693 
   25400    139.45481   -1375.5999    133179.44   -33983.932     2633.801   -36617.733    78.574479    247.08772 
   25450    139.62466   -1437.6664    133017.13   -34031.702    2637.0089   -36668.711    78.576181    247.38865 
   25500    140.79546   -1412.2114    132864.06   -34026.984    2659.1212   -36686.105    78.538928    249.46311 
   25550    139.84944   -1281.2046    132800.46   -34035.003    2641.2541   -36676.257    78.586225    247.78692 
   25600    141.76983   -1234.5406     132759.5    -33976.01    2677.5234   -36653.533    78.486448    251.18949 
   25650    136.85126   -1570.7315    132733.48   -33996.929    2584.6293   -36581.558    78.892079    242.47471 
   25700    141.30757   -1124.0565    132694.24   -33978.403    2668.7931   -36647.196    78.849783    250.37047 
   25750    138.28438   -1187.0165    132712.94   -34077.647    2611.6959   -36689.343    78.959632    245.01394 
   25800    139.77507   -1086.7566     132801.6    -34046.27    2639.8497   -36686.119    78.909423    247.65517 
   25850    138.30661   -1122.8902     132778.4   -34038.278    2612.1158   -36650.393    79.159994    245.05333 
   25900    142.22171   -972.85655     132793.4   -34003.982    2686.0578    -36690.04    79.186849    251.99014 
   25950    139.66817   -1323.3089    132839.66   -34021.418    2637.8307   -36659.248    79.527868    247.46576 
   26000    143.23177   -1094.9338    132822.47   -34006.196    2705.1343   -36711.331    79.713292    253.77978 
   26050    141.43182   -1161.4912    132861.83   -33996.549    2671.1396   -36667.689    79.932802     250.5906 
   26100    140.72051   -1244.7653    132849.42   -34007.415    2657.7055   -36665.121    80.031941    249.33029 
   26150    141.78319   -1040.6112    132903.24   -34007.821    2677.7757   -36685.597    80.401445    251.21316 
   26200    140.06757    -1351.694    132939.22   -34042.213    2645.3739   -36687.587    80.590674    248.17341 
   26250    137.89533    -1330.565    132922.96   -34116.439    2604.3481   -36720.787     81.11882    244.32461 
   26300    139.00608   -1285.9886    132905.95    -34087.49    2625.3262   -36712.817     81.34948    246.29266 
   26350    138.71093   -1175.2033    132998.77   -34091.053    2619.7518   -36710.804    81.741715     245.7697 
   26400    139.44021    -1273.941    133004.87   -34081.336    2633.5253   -36714.861    81.906994    247.06184 
   26450    139.05744   -1613.1082     132958.7   -34020.343    2626.2962   -36646.639    82.173898    246.38365 
   26500    139.91663     -1245.59    132935.29   -33997.269    2642.5231   -36639.793    82.258241    247.90597 
   26550    142.42462   -1330.7023    132907.36   -33972.109    2689.8902   -36661.999    82.287324    252.34967 
   26600    139.77123    -1326.621    132844.54   -34021.921    2639.7772   -36661.698    82.464921    247.64836 
   26650    139.23177   -1074.0491    132758.82   -34046.413    2629.5887   -36676.002    82.603373    246.69254 
   26700     140.2054   -1002.7377    132684.11   -34004.457    2647.9771   -36652.434    82.482562    248.41763 
   26750    144.43438   -1318.0052    132663.59   -33951.732    2727.8473    -36679.58    82.401372    255.91058 
   26800    142.37829   -1229.0143     132669.4    -34034.03    2689.0151   -36723.045     82.46088    252.26757 
   26850    141.30492   -1312.4946    132614.67   -34059.929     2668.743   -36728.672    82.605405    250.36577 
   26900    138.57896    -1106.645    132628.55   -34090.227    2617.2593   -36707.487    82.640145    245.53587 
   26950    136.90865    -1311.414     132618.3   -34068.725    2585.7133   -36654.439    82.790208    242.57641 
   27000    141.34011   -1189.2856     132703.8   -34086.477    2669.4077   -36755.885    83.155123    250.42812 
   27050    140.02906    -1139.789    132725.87   -34091.234    2644.6466   -36735.881     83.48282    248.10519 
   27100     135.3537   -1308.1375    132664.08   -34073.981    2556.3458   -36630.326    83.792551    239.82132 
   27150    140.43644   -1094.9927    132675.11   -34055.144    2652.3406   -36707.485    84.011715    248.82699 
   27200    142.06613   -1256.1761    132730.05   -34001.242    2683.1196   -36684.362     84.29333    251.71449 
   27250    140.76347   -949.45208    132766.24   -33995.227     2658.517   -36653.744    84.639712    249.40642 
   27300    137.91324   -1219.9563    132848.19   -34048.515    2604.6862   -36653.202    84.883657    244.35634 
   27350    138.38075   -1125.1156    132866.68   -34053.023    2613.5159   -36666.539    85.137472    245.18468 
   27400    139.56944   -1214.1438    132906.02   -34072.695     2635.966   -36708.661    85.178148    247.29082 
   27450    140.10577   -1202.4998    132867.73   -34065.431    2646.0953   -36711.527    85.304914    248.24109 
   27500    135.70228   -1475.1013    132823.83   -34084.404    2562.9292   -36647.334    85.468993    240.43893 
   27550    137.67834   -1432.0941    132711.16   -34104.935    2600.2499   -36705.185    85.680081    243.94015 
   27600    136.80262   -1154.1335    132689.97   -34099.979    2583.7108   -36683.689    85.774796    242.38854 
   27650    137.60012   -1006.4997    132752.62   -34094.186    2598.7726   -36692.958    85.679493    243.80155 
   27700    138.71336   -1266.8902    132806.14   -34083.191    2619.7977   -36702.988    85.581121      245.774 
   27750    141.38747   -1322.7555    132891.26   -34044.009    2670.3021   -36714.311    85.602985    250.51203 
   27800    138.33399   -1000.8477    132911.24   -34041.517    2612.6329   -36654.149    85.424231    245.10184 
   27850    139.82519   -1259.4143     132931.1    -34024.92    2640.7962   -36665.717    85.485188    247.74396 
   27900    138.69926   -1147.8659    132999.94   -34021.033    2619.5314   -36640.564    85.879677    245.74902 
   27950    138.27143   -1120.1898    133036.42   -33985.706    2611.4512   -36597.157    86.018872    244.99099 
   28000    139.64725   -1415.4603    132967.51    -34011.93    2637.4356   -36649.365    86.151124    247.42869 
   28050    138.32769   -1156.2326    132894.09   -33983.531    2612.5139   -36596.045    86.078738    245.09068 
   28100    140.59736   -1241.4433    132924.77   -33992.302    2655.3797   -36647.682    86.347894     249.1121 
   28150    141.52797   -1292.1212    132860.85    -34028.59    2672.9556   -36701.546     86.59743    250.76097 
   28200    140.17333   -1216.1135    132800.88   -34033.162    2647.3714   -36680.533    86.978421     248.3608 
   28250    140.95418   -879.73516    132781.01   -33998.808    2662.1188   -36660.927     86.89875    249.74432 
   28300    138.58584   -1117.9286    132705.23   -33977.784    2617.3893   -36595.173    87.093505    245.54806 
   28350    138.73758   -1114.0698    132726.21   -34005.108    2620.2551   -36625.363    87.151515    245.81692 
   28400    138.89134   -1263.9251    132798.06   -34027.086    2623.1592   -36650.245    87.252697    246.08936 
   28450    137.38367   -1307.2077    132720.84   -34051.551    2594.6847   -36646.236    87.328116    243.41805 
   28500    139.24662    -1203.885     132714.5   -34007.255    2629.8692   -36637.124    87.574432    246.71885 
   28550     141.8649   -1347.8726    132726.09   -33958.834     2679.319   -36638.153    87.787728    251.35794 
   28600    141.42148   -1166.6587    132742.08    -33934.83    2670.9445   -36605.775    88.298657    250.57229 
   28650    139.29633    -1245.258    132704.93   -34025.888     2630.808   -36656.696    88.603952    246.80693 
   28700    142.04219   -1352.1881    132699.27   -34013.472    2682.6674   -36696.139     88.65963    251.67207 
   28750    139.25108   -1035.3738    132753.13   -33980.094    2629.9533   -36610.047     88.73461    246.72674 
   28800    139.78137   -1230.2409    132679.32   -33954.081    2639.9687   -36594.049    88.737296    247.66633 
   28850    143.77695   -1303.5232    132710.48   -34004.822    2715.4309   -36720.253    88.793849    254.74574 
   28900    139.19351   -1101.2367    132774.22   -33984.497    2628.8661   -36613.363    88.885949    246.62474 
   28950      142.427   -1216.9532    132690.49    -34002.27     2689.935   -36692.205    89.080803    252.35388 
   29000    139.24269   -973.59149    132691.57   -34014.215    2629.7948    -36644.01    89.334476    246.71187 
   29050    142.80801   -959.60936    132734.72   -33993.844     2697.131   -36690.975    89.685713    253.02896 
   29100    140.17845   -1074.0857    132836.84   -34000.269     2647.468   -36647.737    89.799917    248.36987 
   29150    141.61426   -1117.5966    132949.43   -34036.718    2674.5853   -36711.303     90.02527    250.91386 
   29200    139.60474   -996.76399    132945.57   -34066.467    2636.6328     -36703.1    89.803639    247.35337 
   29250    140.39407   -1395.5402    132933.64    -34005.52    2651.5404   -36657.061    90.025036    248.75191 
   29300    142.14529   -1181.5049     132948.8   -33994.527    2684.6146   -36679.142    90.200562    251.85474 
   29350    138.99582   -1356.2187    132917.05   -33987.419    2625.1323   -36612.552    90.543111    246.27446 
   29400    139.23662   -1456.1707    132828.32   -33942.523    2629.6802   -36572.203    90.390771    246.70112 
   29450    140.49166   -1122.3571    132834.82   -33926.761    2653.3835   -36580.145    90.362087    248.92482 
   29500     141.9202   -1108.1614    132861.52   -33876.979    2680.3635   -36557.343     90.59256    251.45593 
   29550    143.61443   -1118.0138    132890.34   -33873.612    2712.3615   -36585.974    90.885409    254.45779 
   29600    142.24243   -1361.2601    132897.68   -33871.466    2686.4492   -36557.915    91.119024    252.02686 
   29650    143.99825   -1200.6596    132928.61   -33912.249    2719.6104   -36631.859    91.399953    255.13784 
   29700    141.71871   -953.54267    133004.79   -33968.386     2676.558   -36644.944    91.439548    251.09892 
   29750    141.35225   -1238.0409    133033.79   -33963.982    2669.6369   -36633.619    91.768011    250.44962 
   29800    139.50537   -1242.2183    133088.57   -34006.727     2634.756   -36641.483    91.967124     247.1773 
   29850    139.61361   -1261.2736     133065.9   -34009.845    2636.8002   -36646.645    92.210671    247.36907 
   29900    142.43171   -1342.2429    132945.63   -34012.103     2690.024   -36702.127    92.289378    252.36222 
   29950    138.18681    -1143.967    132911.79   -34056.969     2609.853   -36666.822    92.302515    244.84105 
   30000    139.49151   -1236.3731    132959.78   -34053.339    2634.4942   -36687.833    92.486873    247.15274 
   30050    137.13672   -1348.2143    132962.03   -34039.904    2590.0206   -36629.925    92.466537    242.98049 
   30100    138.47631   -1597.9547    132880.84   -34044.325    2615.3208   -36659.645    92.739644      245.354 
   30150    138.61527   -1430.8859    132772.04     -34018.1    2617.9452   -36636.045     93.08608    245.60021 
   30200    137.84228   -1331.6892    132760.11   -33990.936    2603.3462   -36594.282    93.343844    244.23062 
   30250    137.52801   -1401.7573    132689.37   -34004.935    2597.4107   -36602.345    93.392701    243.67379 
   30300    138.07596     -977.062    132741.28   -34015.504    2607.7595   -36623.264    93.557109    244.64465 
   30350    139.19257   -1275.0194    132696.14   -34028.316    2628.8484   -36657.165    94.023926    246.62308 
   30400    139.21406   -1317.7246    132639.17   -34007.143    2629.2542   -36636.398     94.49221    246.66116 
   30450    138.38226   -1578.3894    132594.54   -34006.978    2613.5444   -36620.522    94.739496    245.18735 
   30500    140.63309   -1255.6569    132546.42   -34002.929    2656.0546   -36658.984    95.151323    249.17541 
   30550     139.9215   -1056.4085    132673.92   -33940.226    2642.6151   -36582.841    95.328955     247.9146 
   30600    142.19529   -1235.8872    132769.65   -33920.976    2685.5589   -36606.535    95.533166    251.94333 
   30650    142.77201   -1466.0352    132742.42   -33960.313    2696.4511   -36656.764      95.8696    252.96517 
   30700    141.60121   -1301.8945    132822.54   -33957.565    2674.3389   -36631.904    96.357552    250.89074 
   30750    139.14998   -1416.9388    132845.68    -33950.27     2628.044   -36578.314    96.438449    246.54762 
   30800    139.01461   -1707.1428    132836.27   -34016.327    2625.4873   -36641.815    96.726593    246.30777 
   30850    139.65071   -1546.8325    132704.87   -34005.708    2637.5009   -36643.209    96.721881    247.43481 
   30900    138.56799   -1262.8297    132666.66   -33967.589    2617.0522   -36584.641    96.585174    245.51644 
   30950    139.96151   -1193.4185    132694.43   -33965.012    2643.3708   -36608.383    96.630782    247.98549 
   31000     141.8203   -1444.1415    132756.83   -33944.406    2678.4766   -36622.883    96.779847    251.27892 
   31050    139.28612   -1150.3462    132788.14   -33980.134    2630.6152   -36610.749     96.91928    246.78883 
   31100    138.68114   -1436.7913    132749.96   -33972.134    2619.1893   -36591.323    97.189618    245.71693 
   31150    142.75069   -1172.6226    132722.54     -33981.2    2696.0484   -36677.249    97.616939     252.9274 
   31200    140.92555   -1211.1263    132777.41   -33999.574     2661.578   -36661.152    97.733664    249.69359 
   31250    141.12757   -1466.3943    132804.15   -34030.785    2665.3935   -36696.178    97.851046    250.05153 
   31300    139.31288   -1264.2505    132764.03   -34060.392    2631.1206   -36691.513    97.911767    246.83625 
   31350    139.82345   -1217.7673    132747.85   -34057.778    2640.7633   -36698.541    98.032637    247.74088 
   31400    140.25782   -1288.9195    132743.56   -34013.156     2648.967   -36662.123    98.078701    248.51049 
   31450    140.93285   -1238.1251     132711.5   -34031.449    2661.7159   -36693.165    97.963966    249.70652 
   31500    140.95388   -1161.4242    132708.58   -34034.342    2662.1132   -36696.455    98.013797     249.7438 
   31550    142.29306   -1229.8708     132650.7   -34085.836    2687.4053   -36773.241    98.018906    252.11656 
   31600    141.27806   -1175.1882    132656.92   -34021.073    2668.2357   -36689.309    98.214171    250.31818 
   31650    143.88518   -991.19591    132730.97   -34026.119    2717.4749   -36743.594     98.27949     254.9375 
   31700    139.57493   -1406.9419    132771.33   -34052.319    2636.0698   -36688.389     98.27697    247.30055 
   31750    138.37215   -972.82158    132765.15   -34077.921    2613.3535   -36691.275    98.300492    245.16944 
   31800    137.51696   -1162.7982    132808.96   -34085.105     2597.202   -36682.307    98.534285    243.65421 
   31850    139.88354   -811.53479    132820.02   -34050.312    2641.8983    -36692.21    98.410794    247.84735 
   31900    141.58368   -1062.4735    132866.61   -34038.312    2674.0077    -36712.32    98.732234    250.85967 
   31950    140.56921   -1167.7989    132916.12   -34043.149    2654.8482   -36697.997    99.136288    249.06223 
   32000    140.04822   -1089.6398    132903.73   -34080.416    2645.0084   -36725.424    99.389807    248.13912 
   32050     137.8634   -1212.9604     132876.9   -34111.723    2603.7451   -36715.468    99.451147    244.26804 
   32100    140.18756   -1147.5388    132876.85   -34109.537      2647.64   -36757.177    99.448083    248.38601 
   32150    135.98927   -1137.3591    132796.56   -34150.366    2568.3495   -36718.715    99.662499    240.94743 
   32200     140.1496   -911.94633    132630.89    -34143.01    2646.9231   -36789.933    99.885613    248.31875 
   32250    139.78019   -952.10247    132645.71   -34127.949    2639.9463   -36767.895    100.10823    247.66423 
   32300    137.33935   -918.29548    132690.41   -34110.895    2593.8476   -36704.743    100.20744    243.33952 
   32350    140.60314   -1002.4093    132767.96   -34037.899    2655.4888   -36693.388    100.35785    249.12233 
   32400    139.47134   -1016.6897    132848.18   -34100.443    2634.1132   -36734.557    100.61447      247.117 
   32450    141.50096    -1264.398    132898.91   -34072.057    2672.4456   -36744.502     101.1297    250.71312 
   32500    137.17435    -1136.681    133006.94   -34164.513    2590.7313   -36755.245    101.41661    243.04717 
   32550    135.35787   -1091.2179    133037.64   -34138.809    2556.4245   -36695.234    101.39478     239.8287 
   32600    138.49607   -1079.4549    132968.12    -34174.28     2615.694   -36789.974    101.46087    245.38901 
   32650    137.54819   -1284.6071    132945.02   -34177.386    2597.7918   -36775.178    101.66142    243.70954 
   32700    137.66607   -1302.3563    132914.28   -34142.182    2600.0183     -36742.2    101.57675    243.91841 
   32750    139.69847    -1282.809    132950.17   -34097.144    2638.4028   -36735.547    101.79679    247.51943 
   32800    137.21592   -1150.6499    132848.49   -34139.533    2591.5164   -36731.049    102.07728    243.12082 
   32850     140.4974   -1381.3634    132797.48   -34142.435    2653.4918   -36795.927    102.47473    248.93499 
   32900    138.78858   -1092.3554     132784.2   -34152.259    2621.2184   -36773.478    102.53059    245.90729 
   32950    137.14744   -1306.2359    132816.08   -34152.607    2590.2231    -36742.83    103.05421    242.99949 
   33000    138.59528   -1041.8135    132748.92   -34184.542    2617.5677    -36802.11    103.03736    245.56479 
   33050    141.26089    -1134.237    132775.65   -34145.789    2667.9114     -36813.7    103.38394    250.28775 
   33100    139.43672   -817.75017    132857.64   -34154.598    2633.4594   -36788.057    103.72367    247.05566 
   33150    137.04701   -1373.8182    132785.61   -34192.689    2588.3263   -36781.016    103.86057    242.82155 
   33200    137.90014   -1211.8291    132649.75   -34173.525    2604.4388   -36777.964    103.89923    244.33313 
   33250     139.0845   -997.38671    132565.26    -34155.48    2626.8072   -36782.287    104.30851     246.4316 
   33300    136.94111   -1349.6888    132564.62   -34178.084    2586.3263   -36764.411    104.51512    242.63391 
   33350    137.61595   -1372.4193     132552.4   -34197.512    2599.0716   -36796.584    104.67817    243.82961 
   33400    139.54018    -1282.101    132539.76   -34219.274    2635.4135   -36854.688    104.97543    247.23898 
   33450    140.45371   -1399.9024    132498.55   -34135.636    2652.6667   -36788.303    105.16675    248.85758 
   33500    140.61826   -1114.9852       132485    -34144.78    2655.7745   -36800.554    105.08259    249.14914 
   33550    140.87779   -950.56942    132441.61   -34078.424    2660.6761     -36739.1    105.43459    249.60897 
   33600    137.86553   -975.85457    132402.95   -34102.639    2603.7853   -36706.424     105.6153    244.27181 
   33650     142.0698   -1012.1072    132429.01   -34095.224    2683.1888   -36778.413    106.13552    251.72099 
   33700    139.49178   -1121.6092    132414.81   -34130.676    2634.4993   -36765.176    106.53958    247.15322 
   33750    138.45278   -1025.5973    132328.28   -34121.293    2614.8763   -36736.169    106.53724    245.31231 
   33800    139.94416   -1041.2622    132294.61   -34101.377    2643.0431    -36744.42    106.59546    247.95475 
   33850    138.43764   -1279.9711    132203.23   -34071.906    2614.5904   -36686.496    106.86188    245.28549 
   33900    144.21353   -1004.6155    132189.33   -34022.735    2723.6763   -36746.411    107.41965    255.51928 
   33950    139.43139    -1038.959    132140.83   -34054.005    2633.3588   -36687.364    107.66853    247.04623 
[...]
   92000    142.02273   -999.11462    132923.56   -34065.223    2682.2998   -36747.523     265.7166    251.63758 
   92050    137.52971   -1330.9663    132868.91   -34050.846    2597.4429   -36648.289    265.80506    243.67681 
   92100    138.46018   -1135.4505    132824.09   -34042.243     2615.016   -36657.259    265.91193    245.32542 
   92150    138.98349   -1067.3781    132869.06   -34036.015    2624.8995   -36660.915    266.02149    246.25263 
   92200    138.99281   -1282.7725    132856.93   -34039.742    2625.0756   -36664.818    266.03504    246.26914 
   92250    140.29637   -1391.6493    132795.81   -34058.827    2649.6951   -36708.522    266.18418    248.57881 
   92300    140.74255   -1293.9349     132844.7   -34066.304    2658.1218   -36724.426    266.48664    249.36935 
   92350    140.19671   -1085.9324    132862.81    -34037.74     2647.813   -36685.553    266.57056    248.40223 
   92400    138.80962   -1214.8529    132897.97   -34095.477    2621.6156   -36717.092    267.00748    245.94455 
   92450    139.43933   -1323.3944    132867.62   -34068.198    2633.5086   -36701.707    267.30465    247.06028 
   92500    143.30525   -1015.5461    132838.86   -34025.048    2706.5221    -36731.57    267.54547    253.90998 
   92550    139.01582    -1021.475    132932.39   -33993.168    2625.5101   -36618.678     268.0826    246.30991 
   92600     142.0072   -1105.3355    132981.39   -34006.903    2682.0066   -36688.909    268.04897    251.61007 
   92650    142.51776   -1045.0935    133037.46   -33997.668    2691.6491   -36689.318     268.5486    252.51468 
   92700    139.54837   -1151.0523    132991.42   -34032.872     2635.568    -36668.44    268.29737    247.25348 
   92750     137.7081   -1133.0309    132988.96   -34045.861    2600.8121   -36646.673    268.22758    243.99288 
   92800     138.8202   -1245.5035    132999.47   -34063.011    2621.8155   -36684.827    268.29465     245.9633 
   92850    139.10408   -1185.1548     132971.1   -34013.178     2627.177   -36640.355    268.39321    246.46628 
   92900    141.09214    -1246.925       132965   -34006.411    2664.7243   -36671.136     268.9337    249.98875 
   92950    138.27021   -1228.5528    132911.65   -34017.246    2611.4281   -36628.674    268.51372    244.98882 
   93000    138.72625   -1173.9527    132946.97   -33965.447    2620.0412   -36585.488    268.55593    245.79685 
   93050    140.98119   -1073.0448    132971.28   -33965.264    2662.6288   -36627.893    269.16631    249.79217 
   93100    141.85663   -1092.0052    132955.95   -33967.646    2679.1628   -36646.809    269.63098    251.34329 
   93150    140.73314   -1219.8488    132920.67   -33928.547    2657.9441   -36586.491    269.92413    249.35268 
   93200    140.09858   -1089.9782    133015.63   -33916.252    2645.9596   -36562.212    270.17994    248.22836 
   93250    142.83622   -1196.6899    133043.88    -33916.84    2697.6638   -36614.504    270.60103    253.07894 
   93300    142.96278   -976.91044    133044.17   -33901.321     2700.054   -36601.375    270.52977    253.30317 
   93350    140.08196   -1113.0269    133037.48   -33899.026    2645.6458   -36544.672    270.60904    248.19892 
   93400    140.78468   -1344.5857    133073.87   -33873.889    2658.9175   -36532.806    270.63037      249.444 
   93450    139.68022   -1351.6099    133027.62   -33874.334    2638.0582   -36512.392    270.78702     247.4871 
   93500    142.16336   -1118.4369    132993.63    -33884.39    2684.9558   -36569.346    270.97549    251.88676 
   93550    138.74139   -1206.1324    132995.78   -33967.407    2620.3272   -36587.734    271.29479    245.82368 
   93600    142.60507   -1358.5023    132956.37   -33940.589    2693.2983   -36633.887    271.63608    252.66939 
   93650    139.99589   -1073.4269    132973.88   -33943.819    2644.0202   -36587.839     272.4866    248.04641 
   93700     142.8089    -1209.809    133092.36   -33991.718    2697.1479   -36688.866    272.52327    253.03054 
   93750    138.06616   -1180.4601    133175.34   -34001.841    2607.5745   -36609.415     272.9929     244.6273 
   93800    140.15086     -1391.82    133096.82   -33997.703    2646.9469    -36644.65    273.09905    248.32098 
   93850     142.1443    -944.1482    133091.24   -33939.264     2684.596    -36623.86     273.2852    251.85299 
   93900    142.36367   -1416.6647    133133.63   -33936.063     2688.739   -36624.802    273.47217    252.24167 
   93950    139.42856   -1237.0445     133063.4   -33910.399    2633.3053   -36543.705    273.59187    247.04121 
   94000    141.56435   -1276.3489    132983.11   -33937.183    2673.6428   -36610.826    273.76282    250.82543 
   94050    142.64874   -1074.8784    132924.83   -33961.008    2694.1229   -36655.131    273.90973    252.74676 
   94100    137.92783   -1228.2575    132927.76   -33997.805    2604.9619   -36602.767    273.79331     244.3822 
   94150    138.89004   -1308.3251    132936.63   -33977.562    2623.1347   -36600.697    273.77227    246.08706 
   94200    139.64596   -1519.7902    132908.73   -33964.656    2637.4113   -36602.067    273.83378     247.4264 
   94250    138.78545   -1122.8848     132796.9   -34008.835    2621.1592   -36629.995    273.92428    245.90173 
   94300    139.55938   -1415.6909    132752.86   -33981.896    2635.7761   -36617.673    273.97848      247.273 
   94350    139.29852   -1054.5485     132739.1   -33970.403    2630.8492   -36601.253    273.61255    246.81079 
   94400    140.29506   -1300.5019    132690.88   -33963.217    2649.6704   -36612.888    273.80401    248.57649 
   94450    138.33133   -1006.5116    132747.58   -33993.832    2612.5826   -36606.414    274.00497    245.09712 
   94500    139.55725   -1186.7767    132840.61   -34030.053    2635.7358   -36665.789    274.06719    247.26923 
   94550    137.23843   -1233.8267     132946.3   -34044.285    2591.9415   -36636.227    273.97375     243.1607 
   94600    136.51874   -1255.8153    133023.25   -34066.515    2578.3493   -36644.865    274.51028    241.88556 
   94650    140.76345   -1349.9153    132916.48   -34034.516    2658.5165   -36693.032    275.15482    249.40638 
   94700     138.6387   -1204.4788    132879.24   -34023.305    2618.3877   -36641.693    275.75947    245.64173 
   94750    140.93372   -1170.0511    132823.43   -33969.506    2661.7324   -36631.239    275.89349    249.70807 
   94800    142.08452   -1275.9085    132865.22   -33974.513    2683.4668    -36657.98    275.82214    251.74706 
   94850     140.5969   -1308.2626    132858.22   -33944.039    2655.3711    -36599.41    276.21799    249.11129 
   94900    142.38286   -1302.3843    132789.96    -33934.05    2689.1014   -36623.151    276.44759    252.27567 
   94950    142.87149   -1239.5839    132724.38   -33931.114    2698.3298   -36629.444    276.89695    253.14142 
   95000    137.18527   -1311.6534    132668.78   -34007.546    2590.9375   -36598.483    277.44886    243.06651 
   95050    138.19847   -1424.8652    132617.01    -34089.33    2610.0734   -36699.403    277.43121    244.86173 
   95100    139.99016   -1418.6693    132654.67    -34066.89    2643.9119   -36710.802    277.91226    248.03626 
   95150    138.13325   -1283.8644     132564.3    -34018.92    2608.8416   -36627.761    277.52497    244.74617 
   95200    139.46385   -1343.6675    132537.84   -34010.481    2633.9718   -36644.453    277.61262    247.10374 
   95250    135.04374   -1282.4956    132432.45   -34036.599    2550.4917    -36587.09    277.77758    239.27213 
   95300    137.87857    -1533.262       132412   -34011.693    2604.0315   -36615.725    278.31203    244.29491 
   95350    140.34072   -984.95572    132364.54   -34011.991    2650.5326   -36662.523    278.29591    248.65738 
   95400    139.02574   -1187.2961    132397.62   -33982.905    2625.6974   -36608.602    278.61506    246.32748 
   95450    140.39739   -1074.1412    132438.49    -33948.32     2651.603   -36599.923    278.91709    248.75779 
   95500    139.02758   -1243.6643    132483.61   -33906.325    2625.7322   -36532.057    278.93057    246.33074 
   95550    139.53624   -1261.0005    132488.18   -33931.881     2635.339    -36567.22    278.93795      247.232 
   95600    139.28352   -949.51469    132432.19   -33969.668     2630.566   -36600.234    278.97443    246.78423 
   95650    138.27338   -928.40016    132508.39   -33924.013    2611.4881   -36535.501    279.09685    244.99445 
   95700    142.40659   -1065.6621    132593.23   -33872.457    2689.5495   -36562.007    279.41469    252.31771 
   95750    144.08769   -1445.0224    132471.87   -33891.818    2721.2996   -36613.118    279.49956    255.29632 
   95800    143.43631   -1180.7961    132396.84   -33882.347    2708.9974   -36591.344    279.20675    254.14219 
   95850    141.18043   -1237.8638    132411.86   -33891.976    2666.3919   -36558.368    279.36056    250.14519 
   95900      139.688   -989.98742    132344.86   -33945.062    2638.2053   -36583.268    279.65222    247.50089 
   95950    139.82828   -1051.0131    132391.56    -33901.47    2640.8546   -36542.324     279.9089    247.74944 
   96000     137.7452   -1101.1827    132505.78   -33939.555    2601.5126   -36541.067    280.12741    244.05861 
   96050    139.23198   -1368.6796    132471.61   -33923.604    2629.5926   -36553.196    280.44565    246.69291 
   96100    139.98106    -927.0793    132463.49   -33918.702    2643.7401   -36562.442    280.59315    248.02014 
   96150    137.87447   -1054.6906       132457   -33884.329     2603.954   -36488.283    281.11304    244.28765 
   96200    138.40536   -933.35531    132438.91   -33914.494    2613.9807   -36528.475    281.41982    245.22829 
   96250    138.14867   -1215.5226    132448.44   -33933.853    2609.1328   -36542.986    282.10338    244.77348 
   96300     140.0805   -1172.8805    132493.02   -33930.422    2645.6181    -36576.04    282.51121    248.19632 
   96350    139.75193   -1323.0535    132561.25   -33917.221    2639.4125   -36556.633    282.77675    247.61415 
   96400    138.42359   -1129.9616    132552.48   -33911.431     2614.325   -36525.756    283.49264    245.26058 
   96450     140.2512   -1028.0279    132532.09   -33919.747     2648.842   -36568.589     283.3211    248.49877 
   96500    139.12637   -1205.6956     132610.2   -33948.289     2627.598   -36575.887    283.51671    246.50579 
   96550    137.83954   -1218.6741    132697.96   -33926.692    2603.2944   -36529.986    284.02618    244.22576 
   96600    139.70095   -1088.1238    132759.43   -33875.145    2638.4498   -36513.595    284.69565    247.52383 
   96650    140.10725   -1312.6084    132725.08   -33867.108    2646.1232   -36513.231     284.5957    248.24371 
   96700    142.25636   -1150.1454    132678.08    -33899.05    2686.7123   -36585.762    285.36928    252.05153 
   96750    137.95589   -1035.9208    132758.27    -33863.36    2605.4918   -36468.852    285.42066    244.43191 
   96800    138.63096   -1407.4688    132766.74   -33894.148    2618.2415   -36512.389    285.75503    245.62801 
   96850    137.45709   -1280.2087    132692.04   -33872.626    2596.0713   -36468.697    286.02352    243.54814 
   96900    141.90035   -1190.7797    132552.33   -33874.813    2679.9885   -36554.801    285.62402    251.42075 
   96950    141.11786   -1188.3422    132616.04   -33878.138    2665.2101   -36543.348    286.41089    250.03433 
   97000    140.92719   -1234.4695    132689.27   -33861.132     2661.609   -36522.741    286.34167    249.69649 
   97050     140.4425   -1193.0296    132670.45    -33899.38    2652.4549   -36551.835    286.21426    248.83771 
   97100    141.29972   -1272.0962    132679.82   -33911.588    2668.6448   -36580.233    286.70469    250.35655 
   97150    142.81529   -1209.5801    132718.32   -33960.906    2697.2684   -36658.174    286.80348    253.04185 
   97200    138.57583   -1285.5843    132587.36    -33964.75    2617.2002    -36581.95    286.91335    245.53033 
   97250    135.73569   -1337.8606    132565.86   -33977.454    2563.5603   -36541.014    286.93673    240.49814 
   97300    138.55172   -1504.7562    132584.13   -33963.185     2616.745    -36579.93    287.01993    245.48761 
   97350    136.99312   -1126.2559    132603.52   -34001.848    2587.3086   -36589.157    287.43369    242.72607 
   97400    139.31846   -1196.6003    132617.83   -34005.484    2631.2258    -36636.71    287.19519    246.84612 
   97450    137.41937    -1100.469    132594.57   -33977.099    2595.3589   -36572.458    287.05345     243.4813 
   97500    140.77986   -930.94555    132601.05   -33937.905    2658.8266   -36596.732    286.91042    249.43546 
   97550    139.92232   -1195.7002    132548.48   -33901.854    2642.6306   -36544.485    287.23624    247.91605 
   97600    138.57861   -1313.9668    132487.17   -33894.294    2617.2527   -36511.547    287.33304    245.53525 
   97650     140.9036   -1141.5023    132483.95   -33924.964    2661.1636   -36586.128     287.2127    249.65471 
   97700    139.59043   -1034.6413    132552.27   -33943.668    2636.3624    -36580.03    287.71715    247.32801 
   97750     139.8054   -1135.2848    132604.39   -33945.808    2640.4224   -36586.231    287.50081    247.70889 
   97800    143.11063   -1180.6895    132623.82   -33948.316    2702.8463   -36651.162     287.9589    253.56514 
   97850    141.56453   -1196.3699    132641.87   -33946.698    2673.6461   -36620.344    287.98757    250.82575 
   97900    138.11661   -1254.6828    132606.47   -33983.938    2608.5273   -36592.465    288.01819    244.71668 
   97950    138.20575   -1060.3597    132714.09   -34022.389    2610.2108     -36632.6    288.49869    244.87462 
   98000    136.83697   -1291.3357    132746.82   -33991.399    2584.3595   -36575.758    288.67995     242.4494 
   98050    142.84953   -1157.6564     132803.2    -33916.97    2697.9151   -36614.885    289.26124    253.10252 
   98100    142.36629   -1235.7873     132933.4   -33894.273    2688.7884   -36583.062    289.63635    252.24631 
   98150    140.54664   -1355.0326    132975.66    -33950.73    2654.4218   -36605.152    290.21925    249.02224 
   98200    141.51505    -1181.231    133013.96   -33956.098    2672.7116    -36628.81     290.4945    250.73807 
   98250    136.84255   -1405.2453    132962.54   -33926.264    2584.4648   -36510.729    290.70764    242.45928 
   98300     138.1318   -1571.2046    132995.38   -33896.104    2608.8142   -36504.918    291.18568    244.74359 
   98350    140.01251   -1236.8459    132921.06   -33932.245    2644.3339   -36576.579    290.80302    248.07585 
   98400    140.78643   -1232.7248    132836.98   -33943.545    2658.9506   -36602.496    290.34123     249.4471 
   98450    139.46137   -1329.3653    132777.28   -34000.287    2633.9249   -36634.212    290.43559    247.09934 
   98500    137.11368   -1295.7482    132708.95    -34015.05    2589.5856   -36604.635    290.67052    242.93968 
   98550    137.26617   -1462.5637    132646.67   -34022.865    2592.4656   -36615.331    290.98423    243.20987 
   98600    138.57658   -1434.2971    132508.62   -34042.377    2617.2145   -36659.592    291.10571    245.53166 
   98650    141.21118   -1193.7717    132528.39   -33996.387    2666.9727    -36663.36    291.32451    250.19968 
   98700    138.11029   -1276.9294    132570.31   -33975.618    2608.4078   -36584.026    291.66546    244.70547 
   98750    139.07742   -1332.7885       132482   -33993.528    2626.6735   -36620.202    291.62879    246.41905 
   98800    140.62089   -1500.1115    132429.67   -33961.462    2655.8242   -36617.286    291.61813     249.1538 
   98850    140.03971   -1307.0847    132283.45   -33899.628    2644.8477   -36544.476    291.79823    248.12405 
   98900    139.25399   -1426.7405    132233.43   -33936.262    2630.0084   -36566.271    291.68862    246.73191 
   98950    140.69977    -1302.712    132173.68   -33961.482    2657.3138   -36618.796    292.10667    249.29355 
   99000    139.34497   -1086.2219    132246.08   -33952.782    2631.7266   -36584.509    292.24527    246.89311 
   99050    138.98399   -1187.0875     132340.9   -33969.021    2624.9089   -36593.929    292.63577    246.25351 
   99100    140.31479   -1403.7429    132321.72   -33986.659    2650.0431   -36636.702     293.2901    248.61145 
   99150    137.64758   -1102.3478    132346.05   -33999.353    2599.6689   -36599.022    293.20866    243.88564 
   99200    139.19098   -1457.7069    132314.98   -33959.378    2628.8182   -36588.197    293.55826    246.62026 
   99250    139.31295   -1161.1818    132264.07   -33991.767    2631.1219   -36622.888    293.43831    246.83637 
   99300    140.48407   -1114.4516    132326.85   -34004.061    2653.2401   -36657.301    293.39959    248.91138 
   99350    143.60276   -1350.6199    132297.55   -33953.253    2712.1409   -36665.394    293.47651     254.4371 
   99400    138.64162   -1180.7814    132283.88   -34030.713    2618.4428   -36649.156    293.91221    245.64689 
   99450    140.96285   -1087.0697    132318.53   -33971.963    2662.2824   -36634.245    293.93559    249.75967 
   99500    138.83306   -1309.6378    132342.83   -33967.166    2622.0584   -36589.225    293.89429    245.98609 
   99550    142.83529   -1243.2596    132415.57   -33978.889    2697.6462   -36676.536    294.04216     253.0773 
   99600    139.01634   -1148.2156    132469.46   -34030.123    2625.5199   -36655.643    294.44296    246.31083 
   99650    138.93486   -1005.2336    132567.19   -34034.806     2623.981   -36658.787    294.67692    246.16646 
   99700     140.4851   -1091.4015    132621.39   -34060.428    2653.2595   -36713.687    294.56809     248.9132 
   99750    138.26684   -1322.0452    132639.18   -34074.196    2611.3646   -36685.561    294.45614    244.98286 
   99800    137.69638   -1256.2902    132609.67   -34045.841    2600.5906   -36646.432    295.02835     243.9721 
   99850    138.24398   -1339.5645    132665.87   -34060.718    2610.9328   -36671.651    294.96718    244.94236 
   99900    137.70726   -1372.4798    132525.17   -34104.585    2600.7961   -36705.381     295.2838    243.99138 
   99950    138.59646   -1272.4086    132471.28   -34046.304    2617.5899   -36663.894    295.46017    245.56688 
  100000    141.80092   -1209.1028    132462.26   -33955.514    2678.1107   -36633.625     295.3738    251.24459 
Loop time of 120.298 on 160 procs for 100000 steps with 6337 atoms

Performance: 359.108 ns/day, 0.067 hours/ns, 831.269 timesteps/s
98.0% CPU use with 160 MPI tasks x no OpenMP threads

MPI task timing breakdown:
Section |  min time  |  avg time  |  max time  |%varavg| %total
---------------------------------------------------------------
Pair    | 13.31      | 32.153     | 87.753     | 521.1 | 26.73
Neigh   | 0.36056    | 0.78033    | 2.6003     |  80.2 |  0.65
Comm    | 8.9298     | 33.356     | 91.701     | 555.2 | 27.73
Output  | 0.18831    | 0.19108    | 0.32124    |   2.4 |  0.16
Modify  | 8.592      | 52.736     | 94.959     | 564.1 | 43.84
Other   |            | 1.082      |            |       |  0.90

Nlocal:    39.6063 ave 110 max 18 min
Histogram: 96 24 0 2 18 0 0 0 4 16
Nghost:    513.837 ave 873 max 340 min
Histogram: 80 0 0 40 0 0 0 0 11 29
Neighs:    0 ave 0 max 0 min
Histogram: 160 0 0 0 0 0 0 0 0 0
FullNghs:  3200.5 ave 13683 max 636 min
Histogram: 120 0 0 0 20 0 0 0 2 18

Total # of neighbors = 512080
Ave neighs/atom = 80.808
Neighbor list builds = 6116
Dangerous builds = 0

write_data		${DIR}/data.eq-${NAME}-${TEMP}
write_data		run_28/data.eq-${NAME}-${TEMP}
write_data		run_28/data.eq-het_freeze_28-${TEMP}
write_data		run_28/data.eq-het_freeze_28-248
undump          1

reset_timestep  0

unfix           2
unfix           3
unfix           4


################################################
#######         Run Simulation         #########
################################################

log				${DIR}/log.run_${NAME}
log				run_28/log.run_${NAME}
log				run_28/log.run_het_freeze_28
