
# Create simulation box and atoms

read_data data.ML_graphite_m500atm_240K
  orthogonal box = (0 0 1.70882) to (49.22 49.0196 32.2312)
  5 by 4 by 3 MPI processor grid
  reading atoms ...
  4537 atoms
  reading velocities ...
  4537 velocities
group water type 1
1777 atoms in group water
group graphite type 2
2760 atoms in group graphite

# Define potential

pair_style sw
pair_coeff * * MLC_e.sw mW C


# Fix graphite atoms in place

fix 5 graphite setforce 0.0 0.0 0.0
velocity graphite set 0.0 0.0 0.0


# Equilibration of molecular water

# Add velocity/set timestep

velocity	    water create ${TEMP} ${SEED} rot yes dist gaussian
velocity	    water create 240 ${SEED} rot yes dist gaussian
velocity	    water create 240 3284 rot yes dist gaussian
timestep	    5.0

# Define output

compute			1 water msd
compute			3 water temp
thermo	    	50
thermo_style	custom step temp press vol etotal ke pe c_1[4] c_3

# Neighbor lists

neigh_modify    delay 0 every 1 check yes

# Set fixes

fix             1 water momentum 10 linear 1 1 1 rescale
fix             2 water nve
fix             3 water temp/csvr ${TEMP} ${TEMP} 500.0 ${SEED}
fix             3 water temp/csvr 240 ${TEMP} 500.0 ${SEED}
fix             3 water temp/csvr 240 240 500.0 ${SEED}
fix             3 water temp/csvr 240 240 500.0 3284
fix             4 water press/berendsen z ${PRES} ${PRES} 1000.0 modulus 20000
fix             4 water press/berendsen z -500 ${PRES} 1000.0 modulus 20000
fix             4 water press/berendsen z -500 -500 1000.0 modulus 20000

# Run 0.5 ns equilibration

dump		    1 all atom 2000 ${DIR}/eq.${NAME}-${TEMP}.dump
dump		    1 all atom 2000 run_14/eq.${NAME}-${TEMP}.dump
dump		    1 all atom 2000 run_14/eq.het_freeze_14-${TEMP}.dump
dump		    1 all atom 2000 run_14/eq.het_freeze_14-240.dump

reset_timestep  0

run	            100000
Neighbor list info ...
  update every 1 steps, delay 0 steps, check yes
  max neighbors/atom: 2000, page size: 100000
  master list distance cutoff = 6.67472
  ghost atom cutoff = 6.67472
  binsize = 3.33736, bins = 15 15 10
  1 neighbor lists, perpetual/occasional/extra = 1 0 0
  (1) pair sw, perpetual
      attributes: full, newton on
      pair build: full/bin/atomonly
      stencil: full/bin/3d
      bin: standard
Per MPI rank memory allocation (min/avg/max) = 4.104 | 4.229 | 4.477 Mbytes
Step Temp Press Volume TotEng KinEng PotEng c_1[4] c_3 
       0    93.968254   -654.73592     73642.74   -17158.673    1270.5405   -18429.214            0          240 
      50    97.728015   -904.75667    73634.151   -17135.828     1321.376   -18457.204   0.52886739    249.60263 
     100    91.071139   -811.75594    73562.076   -17154.973    1231.3687   -18386.342   0.86066562    232.60061 
     150    95.701637   -1068.5698    73580.722   -17162.292    1293.9775    -18456.27    1.0469918    244.42715 
     200    96.352785   -1077.5993    73611.817   -17138.569    1302.7816    -18441.35    1.3473273    246.09022 
     250    92.048952   -1112.4089    73618.919   -17184.827    1244.5897   -18429.417    1.6199755      235.098 
     300    92.380809   -1211.4619    73660.137   -17198.851    1249.0767   -18447.928    1.8372891    235.94558 
     350    94.123153    -1055.769    73685.182   -17158.288    1272.6349   -18430.923     2.153656    240.39562 
     400    95.163848   -909.95477    73743.659   -17138.214    1286.7061    -18424.92    2.3787576    243.05361 
     450    96.090139   -1099.8395    73801.481   -17157.487    1299.2304   -18456.718     2.597184    245.41941 
     500    93.329624   -917.78929    73853.294   -17153.588    1261.9056   -18415.494    2.8479236     238.3689 
     550    94.783615   -973.57494    73913.841    -17154.41    1281.5649   -18435.975    3.0858889    242.08248 
     600     93.83931   -791.77091    73940.048   -17142.298     1268.797   -18411.095    3.4094666    239.67067 
     650    98.085798   -1002.9428    73927.429   -17174.191    1326.2136   -18500.405    3.6787043    250.51643 
     700    94.228252   -1090.6496    73872.142   -17158.651    1274.0559   -18432.706    4.0133191    240.66405 
     750    92.819644   -888.10033    73759.978   -17176.353    1255.0102   -18431.363    4.2022392    237.06639 
     800    94.220737   -902.61587    73729.762   -17199.264    1273.9543   -18473.218    4.3465562    240.64485 
     850    96.003312   -1115.3412    73686.255   -17209.441    1298.0564   -18507.498    4.4257652    245.19765 
     900     93.04331   -1091.8962    73618.395   -17260.042    1258.0343   -18518.077    4.4410867    237.63764 
     950     97.71693   -919.63273    73580.938   -17209.157    1321.2261   -18530.383    4.6913087    249.57432 
    1000    94.486333   -447.90051    73636.854   -17222.086    1277.5454   -18499.631    4.8859753     241.3232 
    1050    93.339549   -860.86346    73705.616   -17248.748    1262.0398   -18510.787    5.0299183    238.39425 
    1100    91.233363   -1095.7202    73738.418   -17250.429    1233.5621   -18483.991    5.1610249    233.01494 
    1150    93.714904   -1087.9572    73689.918   -17235.836    1267.1149   -18502.951    5.3793772    239.35293 
    1200    94.364839   -1094.9414    73728.907   -17233.212    1275.9027   -18509.114    5.5970558     241.0129 
    1250    93.660457   -891.42573    73797.493   -17233.741    1266.3788    -18500.12    5.8725412    239.21387 
    1300    93.528038   -927.41763    73748.969    -17214.11    1264.5883   -18478.699    6.0705506    238.87566 
    1350    92.141527   -703.58604    73701.873   -17257.235    1245.8414   -18503.077    6.1919569    235.33444 
    1400    91.780583   -865.55678    73780.195   -17276.801    1240.9611   -18517.762    6.2703746    234.41257 
    1450    93.443605   -971.93298    73819.867   -17234.821    1263.4467   -18498.267    6.3032015    238.66002 
    1500    92.924897    -1079.032    73814.059   -17216.699    1256.4333   -18473.133    6.5187703    237.33521 
    1550    94.039805   -678.19901    73832.044   -17254.514    1271.5079   -18526.022    6.5852226    240.18275 
    1600    93.604451   -827.42792    73879.776   -17283.228    1265.6215    -18548.85    6.5958943    239.07083 
    1650      93.0301   -700.17872    73906.124   -17263.595    1257.8557   -18521.451     6.643135     237.6039 
    1700    93.088232   -621.86284    73897.129   -17246.753    1258.6417   -18505.395    6.7399413    237.75238 
    1750    93.873326    -1195.264    73944.028   -17272.857     1269.257   -18542.113     6.860023    239.75755 
    1800    92.033921   -1204.5884    73948.713   -17252.877    1244.3864   -18497.263    6.8495674    235.05961 
    1850     95.03336   -1036.3911    73949.605    -17221.65    1284.9417   -18506.591    7.0582863    242.72034 
    1900    92.911358   -1064.3174    74014.089   -17227.658    1256.2502   -18483.908    7.3086634    237.30063 
    1950    95.104434   -1114.5009    74047.781   -17177.098    1285.9027   -18463.001    7.3964401    242.90187 
    2000    93.683047   -889.34566    74021.536   -17206.129    1266.6842   -18472.813    7.5648667    239.27157 
    2050    93.013672   -1007.2471    74012.703   -17234.259    1257.6336   -18491.893    7.6295851    237.56195 
    2100    95.091487   -861.51421    73987.832    -17227.98    1285.7277   -18513.708    7.7846894     242.8688 
    2150    95.228392   -1197.9959    73975.835   -17218.193    1287.5787   -18505.772    7.9519201    243.21846 
    2200    93.743254   -1053.0761    73956.009   -17235.357    1267.4983   -18502.855    8.1305125    239.42534 
    2250    94.066112   -619.76507     73958.61   -17229.781    1271.8636   -18501.644    8.2353722    240.24993 
    2300    93.361682   -926.90344    73937.832   -17236.122    1262.3391   -18498.461    8.2796058    238.45078 
    2350    92.887983   -977.97085    73951.551   -17261.197    1255.9342   -18517.131    8.3949634    237.24093 
    2400    92.534383   -1047.3559     73892.21   -17270.246    1251.1532   -18521.399    8.6351831    236.33782 
    2450    91.893537   -1180.9057    73855.839   -17250.372    1242.4883    -18492.86    8.8987562    234.70106 
    2500    93.013095   -1092.9168    73815.837   -17212.971    1257.6258   -18470.597    9.0313197    237.56047 
    2550    94.270735    -1071.078    73755.332   -17189.924    1274.6303   -18464.555    9.1818856    240.77255 
    2600    91.054639    -870.1282    73736.568   -17201.963    1231.1456   -18433.108    9.3299903    232.55847 
    2650    92.781471   -1014.2881    73758.407   -17224.299     1254.494   -18478.793    9.5639388    236.96889 
    2700    93.329326   -975.42445     73742.41   -17185.656    1261.9016   -18447.558    9.8423982    238.36814 
    2750    92.484598   -1261.0456    73746.962   -17217.756      1250.48   -18468.236    10.063652    236.21066 
    2800    92.009068   -1006.8435    73717.777   -17257.572    1244.0504   -18501.623    10.290428    234.99613 
    2850    92.570939   -1095.3573    73724.561   -17258.852    1251.6474   -18510.499    10.487847    236.43118 
    2900    92.270385   -1115.0115    73693.352   -17251.133    1247.5837   -18498.717    10.537174    235.66355 
    2950    91.670648   -904.40473     73713.75   -17232.902    1239.4747   -18472.377    10.745949    234.13179 
    3000    91.901966   -911.26239    73744.525   -17205.459    1242.6023   -18448.062    10.985876    234.72259 
    3050    93.843032   -726.98836    73775.778   -17186.554    1268.8474   -18455.402    11.213601    239.68018 
    3100    91.263551   -1071.2254    73785.223   -17213.826    1233.9703   -18447.796    11.419523    233.09204 
    3150    92.354285   -1032.1787    73787.347   -17237.051    1248.7181   -18485.769     11.58722    235.87784 
    3200    91.757261   -1274.0995    73784.763   -17225.375    1240.6457   -18466.021    11.747191    234.35301 
    3250    93.838753   -1059.2389    73778.407   -17211.664    1268.7895   -18480.453     11.86049    239.66925 
    3300    95.454422   -1412.7972    73752.862   -17166.524    1290.6349   -18457.158    12.044477    243.79575 
    3350    94.332748   -1223.9002    73701.208   -17166.097    1275.4688   -18441.566    12.074111    240.93094 
    3400    94.878281   -1203.9306     73671.15   -17151.959    1282.8449   -18434.804    12.265698    242.32426 
    3450    91.459813   -1220.5132    73602.032   -17197.797     1236.624   -18434.421    12.362279    233.59331 
    3500    94.072734   -1394.4744    73580.657   -17195.598    1271.9531   -18467.551    12.494284    240.26685 
    3550     96.04807   -927.48789    73538.325   -17179.139    1298.6616   -18477.801    12.766507    245.31196 
    3600    92.539863   -779.46098    73549.404   -17222.267    1251.2273   -18473.494    13.000803    236.35181 
    3650    94.822969   -946.37633    73571.982    -17190.82     1282.097   -18472.917    13.086252    242.18299 
    3700     94.87101   -847.51552    73589.028   -17219.675    1282.7466   -18502.422    13.169301    242.30569 
    3750    95.548864   -1353.3255      73601.8   -17190.734    1291.9118   -18482.646    13.372599    244.03696 
    3800     96.30277   -1148.4756    73515.782   -17157.735    1302.1054    -18459.84    13.503613    245.96248 
    3850    96.254451   -786.91509    73560.253   -17163.771     1301.452   -18465.223    13.619778    245.83907 
    3900    95.946971   -724.90202    73648.435   -17191.551    1297.2946   -18488.846    13.788962    245.05375 
    3950    95.821138   -877.78406    73661.977    -17169.63    1295.5932   -18465.224    14.163286    244.73237 
    4000    94.651748   -758.16555    73685.382   -17195.944     1279.782   -18475.726    14.260432    241.74568 
    4050    96.273264   -1010.0849    73710.601   -17170.214    1301.7064    -18471.92    14.551149    245.88712 
    4100    93.655017   -1020.7338    73732.849   -17192.849    1266.3052   -18459.154    14.871002    239.19998 
    4150     95.42356   -1304.9482    73645.278   -17193.123    1290.2176    -18483.34    15.018042    243.71693 
    4200    94.009293   -1274.5741    73542.263   -17222.182    1271.0954   -18493.278     15.13283    240.10482 
    4250    92.295749   -1108.1365    73501.137   -17209.234    1247.9266   -18457.161    15.384978    235.72833 
    4300    93.808437    -1114.581    73544.144   -17178.491    1268.3796    -18446.87    15.478773    239.59182 
    4350    91.949279   -1379.1009    73527.913    -17197.88     1243.242   -18441.122    15.577131    234.84343 
    4400    94.568821   -1210.2724    73487.062   -17175.971    1278.6607   -18454.631    15.775975    241.53388 
    4450    94.985532   -1057.0843    73463.237   -17157.497     1284.295   -18441.793      15.9261    242.59818 
    4500    96.556487   -980.11219    73422.005   -17144.439    1305.5359   -18449.974    15.994928    246.61049 
    4550    93.500068   -642.18953    73416.826   -17154.239    1264.2102   -18418.449      16.1963    238.80423 
    4600    95.669666   -480.89572    73470.504   -17132.919    1293.5452   -18426.464    16.356014     244.3455 
    4650    98.124981   -837.69354    73521.879   -17147.686    1326.7434    -18474.43    16.436707     250.6165 
    4700    93.669511     -848.801    73556.271   -17142.003    1266.5012   -18408.504    16.641042    239.23699 
    4750    97.287525   -719.07149    73597.606   -17129.862    1315.4202   -18445.282    16.569551     248.4776 
    4800     96.11818   -710.29975    73619.476   -17134.338    1299.6095   -18433.948    16.647058    245.49103 
    4850    94.845403   -1058.2522    73620.754   -17163.513    1282.4004   -18445.913    16.628912    242.24029 
    4900    92.649025   -746.57226    73563.166   -17169.191    1252.7032   -18421.894    16.845705    236.63062 
    4950    94.743142   -727.91655    73548.528   -17186.973    1281.0177   -18467.991    16.987009    241.97911 
    5000     93.82102   -824.17591    73553.014   -17197.804    1268.5497   -18466.354    17.124123    239.62396 
    5050    93.298187   -847.29513    73501.098   -17211.351    1261.4805   -18472.832     17.30885    238.28861 
    5100    96.233131   -842.93847    73592.149   -17206.586    1301.1638    -18507.75    17.431057    245.78462 
    5150    93.315256   -684.63661      73585.5   -17189.263    1261.7113   -18450.975    17.557706    238.33221 
    5200    94.396644   -283.45769    73585.431   -17222.942    1276.3327   -18499.275     17.58961    241.09413 
    5250    98.103862   -1025.6914    73603.501   -17206.955    1326.4578   -18533.413    17.847522    250.56257 
    5300    95.504288   -1045.1464    73599.189   -17205.475    1291.3091   -18496.784    18.050507    243.92311 
    5350     97.57354   -722.54262    73664.998   -17167.753    1319.2874    -18487.04    18.298442    249.20809 
    5400    93.324544   -1097.2616    73753.051   -17190.712    1261.8369   -18452.549    18.352574    238.35593 
    5450    92.673147   -798.09618    73800.725   -17181.562    1253.0294   -18434.591    18.490498    236.69223 
    5500     93.70367   -758.95369    73813.239    -17160.27    1266.9631   -18427.233    18.426165    239.32424 
    5550    93.986006   -876.27344    73813.394   -17198.295    1270.7805   -18469.076    18.545507    240.04534 
    5600    91.416721   -757.02006    73818.812   -17187.062    1236.0413   -18423.103    18.601058    233.48325 
    5650    94.332177   -1049.2829    73822.718   -17180.876    1275.4611   -18456.337     18.74719    240.92948 
    5700    96.626044   -908.73062    73793.831   -17156.832    1306.4763   -18463.308    18.918068    246.78814 
    5750    92.864714    -1128.806    73798.127   -17163.718    1255.6196   -18419.337    19.089173     237.1815 
    5800    95.840012   -978.28437    73757.098   -17148.332    1295.8484   -18444.181    19.168744    244.78057 
    5850    95.776779       -972.1    73752.056   -17145.776    1294.9935    -18440.77    19.349139    244.61907 
    5900    98.029799   -765.77044    73750.805   -17126.454    1325.4564    -18451.91    19.604668    250.37341 
    5950    95.017877   -877.45088    73742.903   -17130.861    1284.7324   -18415.593    19.510355    242.68079 
    6000    96.479084   -719.97111    73750.102   -17192.729    1304.4893   -18497.218    19.755205     246.4128 
    6050    92.883964   -997.05255    73772.706   -17195.261    1255.8798   -18451.141     19.96468    237.23066 
    6100    97.993064   -929.57338    73785.575    -17152.11    1324.9597    -18477.07     20.19182    250.27958 
    6150    96.983844   -633.03778    73833.738   -17136.254    1311.3141   -18447.568    20.287345    247.70198 
    6200    96.884837   -975.46013    73796.815   -17160.535    1309.9755    -18470.51    20.536232    247.44911 
    6250    96.103545   -1051.9218    73789.352   -17154.083    1299.4116   -18453.494    20.777352    245.45365 
    6300    95.862149   -870.97124    73756.917   -17168.425    1296.1478   -18464.573    20.934131    244.83711 
    6350    94.831107   -581.89789    73784.646   -17181.512    1282.2071   -18463.719     20.93669    242.20377 
    6400    97.629398   -1017.2627    73787.023   -17181.344    1320.0426   -18501.386    21.183674    249.35076 
    6450    92.829099   -763.53515    73788.421   -17206.397     1255.138   -18461.535    21.540223    237.09054 
    6500    94.697344   -1004.7608    73789.952    -17188.77    1280.3985   -18469.168    21.905658    241.86214 
    6550    95.370524   -1149.9015    73770.587   -17165.008    1289.5005   -18454.509     22.08578    243.58147 
    6600    90.245187   -839.41942    73779.902   -17215.527    1220.2011   -18435.728    22.352887    230.49108 
    6650    92.799181   -1003.6305    73802.753   -17198.684    1254.7335   -18453.417     22.50322    237.01412 
    6700     92.42691   -855.97645    73794.638   -17208.677       1249.7   -18458.377    22.709823    236.06332 
    6750    91.250621   -642.70649    73849.528   -17207.437    1233.7955   -18441.232    22.759444    233.05902 
    6800    93.119581   -908.99406    73921.439   -17195.667    1259.0656   -18454.733    22.791908    237.83244 
    6850    93.208526   -1087.2742    73887.894   -17173.165    1260.2682   -18433.433    23.076952    238.05961 
    6900    91.887398    -1341.164    73887.668   -17170.651    1242.4053   -18413.056    23.204821    234.68538 
    6950    95.161222   -794.94618    73952.495   -17145.599    1286.6705   -18432.269    23.356716     243.0469 
    7000    92.911619   -1013.5663    73883.363   -17160.838    1256.2538   -18417.092    23.584335     237.3013 
    7050    96.402982   -1215.5301    73831.659   -17183.476    1303.4603   -18486.937    23.754473    246.21843 
    7100       93.338   -995.63797    73773.035   -17206.615    1262.0188   -18468.634    24.001522     238.3903 
    7150    94.402478   -956.73423    73754.916   -17213.075    1276.4116   -18489.487     24.35246    241.10903 
    7200    94.853692   -851.23563    73772.501   -17231.302    1282.5124   -18513.814    24.382586    242.26146 
    7250    95.325151   -1050.8518    73795.269    -17241.19     1288.887   -18530.077    24.611078    243.46559 
    7300    95.257007   -942.44298    73787.483   -17219.639    1287.9657   -18507.605    24.980322    243.29155 
    7350    92.068445    -1223.859    73748.969   -17216.268    1244.8532   -18461.121    25.238063    235.14779 
    7400    93.797777   -776.81877     73724.93   -17214.588    1268.2355   -18482.823     25.45734    239.56459 
    7450    95.337841   -1029.7539    73729.376   -17216.073    1289.0586   -18505.132    25.758835      243.498 
    7500    90.910589   -1151.9524    73702.006   -17245.963    1229.1979   -18475.161    25.849014    232.19056 
    7550     93.23746   -683.03765     73611.09   -17249.362    1260.6594   -18510.021    25.964727    238.13351 
    7600    92.654219   -1258.1368     73561.83    -17281.41    1252.7735   -18534.184     26.18033    236.64388 
    7650    95.458879   -886.94857    73562.617   -17248.582    1290.6952   -18539.277     26.40713    243.80714 
    7700    92.725445   -939.91738    73546.196   -17296.531    1253.7365   -18550.268    26.365529     236.8258 
    7750    89.920391     -1116.83    73583.633   -17321.537    1215.8095   -18537.346    26.497753    229.66154 
    7800    90.242254   -996.75337    73620.453   -17338.334    1220.1614   -18558.495    26.572709    230.48359 
    7850    89.659342   -773.37252    73659.017    -17319.36    1212.2799    -18531.64    26.624417    228.99481 
    7900    92.781884   -761.73449    73763.922   -17293.921    1254.4996   -18548.421    26.718757    236.96995 
    7950    92.316325   -717.19651    73869.353   -17289.132    1248.2048   -18537.337    26.885732    235.78088 
    8000     95.94866   -741.58424    73945.531   -17230.795    1297.3175   -18528.112    26.929382    245.05806 
    8050    95.426346   -827.45905     73990.82   -17254.525    1290.2553    -18544.78    27.176214    243.72405 
    8100     94.92791   -1149.4917    74006.763   -17252.783    1283.5159   -18536.299      27.2152    242.45101 
    8150    92.610908   -819.25143    73943.937   -17244.114    1252.1879   -18496.302    27.508214    236.53327 
    8200    94.873188   -1158.5815     73879.59   -17237.732    1282.7761   -18520.508    27.590679    242.31125 
    8250    91.970234   -996.17942    73839.071   -17273.086    1243.5253   -18516.611    27.572427    234.89695 
    8300    90.687659   -975.88129    73799.064   -17283.105    1226.1837   -18509.289     27.69293    231.62118 
    8350    93.421536   -1060.0096    73792.832   -17262.295    1263.1483   -18525.443     27.68243    238.60365 
    8400    97.975794    -723.8015    73842.824   -17203.074    1324.7262     -18527.8    27.713402    250.23547 
    8450     94.90969   -721.07253    73833.584   -17255.237    1283.2696   -18538.507    27.900671    242.40448 
    8500    94.593943   -1220.0064    73832.867   -17250.034    1279.0004   -18529.034    28.082005    241.59804 
    8550    97.213071   -1215.6477    73805.188   -17233.764    1314.4135   -18548.178    28.283951    248.28744 
    8600    93.085264   -803.01164    73822.949   -17194.585    1258.6016   -18453.187    28.271319     237.7448 
    8650     96.35385   -782.54282    73913.136   -17241.961     1302.796   -18544.757    28.424648    246.09294 
    8700    93.765659   -633.16854    73943.071   -17231.227    1267.8012   -18499.029    28.919714    239.48256 
    8750     94.41521    -805.5012     73960.01   -17270.862    1276.5837   -18547.446    28.854043    241.14155 
    8800    94.968283   -748.95826    74019.211   -17235.778    1284.0618    -18519.84    29.053945    242.55413 
    8850    93.824337   -802.87805    74075.545   -17253.713    1268.5946   -18522.307    29.115999    239.63243 
    8900    92.722504   -858.67405     74056.97   -17277.772    1253.6968   -18531.469    29.346202    236.81829 
    8950    93.441799   -851.63297    74015.885   -17307.145    1263.4223   -18570.568    29.281096     238.6554 
    9000    94.869831   -965.35684    74007.715   -17282.766    1282.7307   -18565.497    29.329934    242.30268 
    9050    90.809766   -720.46772     74042.09   -17256.472    1227.8347   -18484.306    29.425894    231.93305 
    9100    95.657779   -662.99353    74068.303   -17261.118    1293.3845   -18554.502    29.699995    244.31514 
    9150    93.070031   -706.99731    74114.021   -17267.982    1258.3956   -18526.377    29.889861    237.70589 
    9200    94.150715   -873.46998    74225.133   -17274.554    1273.0075   -18547.562    30.124116    240.46602 
    9250    93.883282    -754.9145    74319.712   -17238.756    1269.3916   -18508.148    30.440418    239.78298 
    9300    94.449868   -692.75013    74297.732   -17233.098    1277.0524    -18510.15    30.698276    241.23007 
    9350    94.371337   -783.30455    74314.573   -17257.592    1275.9905   -18533.583    30.768961     241.0295 
    9400    94.451409   -941.02762    74364.801   -17216.093    1277.0732   -18493.166    30.664854    241.23401 
    9450    94.687891   -628.96351    74345.974   -17240.819    1280.2707    -18521.09    30.733949    241.83799 
    9500    91.840129    -1097.373    74323.386   -17274.614    1241.7662    -18516.38     30.81234    234.56465 
    9550    91.527264   -1129.8686    74231.132   -17342.557     1237.536   -18580.093    30.994889    233.76558 
    9600    93.990817    -693.4415    74175.627   -17329.528    1270.8456   -18600.373    31.053427    240.05763 
    9650    93.265319   -871.78162    74101.505   -17340.948    1261.0361   -18601.984    30.987472    238.20467 
    9700    93.679741   -1001.4291    74067.578   -17349.287    1266.6395   -18615.927    30.858231    239.26312 
    9750    92.914512   -1216.0525    74078.604   -17320.729    1256.2929   -18577.022    31.049307    237.30869 
    9800    93.444437   -938.62113    74034.509   -17287.727     1263.458   -18551.185    31.126993    238.66214 
    9850    95.056232    -872.9729    73993.252   -17294.492     1285.251   -18579.743    31.435371    242.77875 
    9900    91.955471   -792.06971    73957.859   -17299.187    1243.3257   -18542.513     31.44646    234.85924 
    9950    93.232343   -1146.1663    73922.821    -17303.58    1260.5903    -18564.17    31.703015    238.12044 
   10000    95.088631   -877.34528    73881.743   -17260.774     1285.689   -18546.463    31.916633     242.8615 
   10050    96.405526   -909.77503    73867.737   -17237.249    1303.4947   -18540.744    32.006298    246.22493 
   10100    95.314851   -1058.0605    73878.642   -17226.785    1288.7478   -18515.533    32.131574    243.43928 
   10150    97.281357   -1041.5355    73864.298   -17246.267    1315.3368   -18561.604    32.210149    248.46184 
   10200    96.470499   -691.58204    73887.096   -17220.051    1304.3732   -18524.425    32.253724    246.39087 
   10250    95.215862   -584.66912    73909.623   -17248.687    1287.4093   -18536.096    32.487606    243.18646 
   10300     95.40479   -719.15444    73936.682   -17268.936    1289.9638     -18558.9    32.727159    243.66899 
   10350    92.727666   -1044.2041    73997.002    -17271.36    1253.7665   -18525.126     32.90413    236.83147 
   10400    94.390376   -883.06121    74011.019   -17293.851     1276.248   -18570.099     33.25717    241.07812 
   10450     95.32192   -687.81365    74061.614    -17289.32    1288.8433   -18578.164    33.254792    243.45734 
   10500    93.809891   -981.51128    74086.231   -17268.127    1268.3993   -18536.526    33.322147    239.59553 
   10550    96.243832   -788.07632    74066.078   -17254.253    1301.3085   -18555.562    33.366249    245.81195 
   10600    92.955962   -780.37098    74081.709   -17235.157    1256.8533    -18492.01    33.635076    237.41455 
   10650    92.920993   -614.43349    74141.537   -17224.074    1256.3805   -18480.455    33.683181    237.32524 
   10700    92.260624   -743.35666    74156.555   -17212.686    1247.4517   -18460.138    33.868586    235.63862 
   10750    90.509239   -808.61587    74108.984   -17257.221    1223.7713   -18480.992    34.000922    231.16549 
   10800    93.230296   -1142.5479    74099.577   -17261.925    1260.5626   -18522.487    34.009376    238.11521 
   10850    93.312103   -734.75036    74109.189   -17238.455    1261.6687   -18500.124    33.994246    238.32415 
   10900    92.859479   -1207.6585    74130.132   -17273.082    1255.5488   -18528.631    34.033744    237.16813 
   10950    94.555522   -1050.7368    74117.231   -17243.041    1278.4809   -18521.521    34.251352    241.49991 
   11000    92.796459    -785.0347    74164.964   -17254.823    1254.6967    -18509.52    34.589938    237.00717 
   11050    97.947962   -594.46476    74148.857   -17217.395    1324.3499   -18541.745    34.768968    250.16439 
   11100    92.576385    -763.7017    74237.111    -17240.35    1251.7211   -18492.071    35.008738    236.44509 
   11150    95.992315   -1234.6601     74240.73   -17235.433    1297.9077   -18533.341    34.957731    245.16956 
   11200    97.811273   -1162.1684    74205.815   -17206.433    1322.5018   -18528.935    35.345631    249.81528 
   11250    94.623812   -914.52754    74251.733   -17239.905    1279.4042    -18519.31    35.670436    241.67433 
   11300     91.88737   -951.34703    74276.223   -17245.197    1242.4049   -18487.602    35.679712    234.68531 
   11350    94.032591   -722.95424    74278.235    -17262.11    1271.4104    -18533.52    35.833329    240.16432 
   11400    94.755775   -746.08983    74356.064   -17279.444    1281.1885   -18560.632    36.256191    242.01137 
   11450    93.764176   -943.40359    74375.176   -17269.975    1267.7811   -18537.757    36.168351    239.47877 
   11500    92.064548    -999.3025    74369.938   -17274.993    1244.8006   -18519.794    36.118419    235.13783 
   11550    92.237022   -1065.7044    74385.782   -17268.667    1247.1326   -18515.799    36.244067    235.57834 
   11600    90.562171   -990.81373      74381.4   -17321.568     1224.487   -18546.055    36.417456    231.30068 
   11650    89.374152   -946.18266     74414.39   -17294.322    1208.4238   -18502.746    36.273706    228.26641 
   11700    92.868624   -1313.7178    74457.998   -17290.177    1255.6724    -18545.85    36.557248    237.19149 
   11750    92.847745   -953.92603    74372.322   -17266.238    1255.3901   -18521.628    36.961939    237.13816 
   11800    91.016324   -1173.3889     74307.98   -17238.098    1230.6276   -18468.725     37.04438    232.46061 
   11850    93.722336   -993.65712    74260.906   -17245.612    1267.2154   -18512.828    37.078889    239.37191 
   11900    93.344916     -1002.01    74206.721    -17242.88    1262.1123   -18504.992    37.156421    238.40796 
   11950    90.540609   -957.10212     74172.16   -17280.405    1224.1954     -18504.6     37.25129    231.24561 
   12000    91.253273   -951.13143    74102.355   -17273.109    1233.8313    -18506.94    37.228215    233.06579 
   12050    92.091936   -990.96872    74100.722   -17255.329    1245.1709     -18500.5    37.421136    235.20778 
   12100    91.616981   -733.23213    74120.651   -17239.191     1238.749    -18477.94    37.850996    233.99472 
   12150    93.072741   -950.66885    74121.448   -17209.003    1258.4323   -18467.436    38.109871    237.71281 
   12200    95.015116   -1111.2658    74169.302   -17234.602     1284.695   -18519.297    38.156371    242.67374 
   12250     91.70284   -1025.8265    74177.977   -17249.677    1239.9099   -18489.587    38.224989    234.21401 
   12300    95.828834   -754.61749    74211.552    -17213.67    1295.6973   -18509.367    38.304791    244.75202 
   12350    96.616736   -871.72461    74189.675   -17215.488    1306.3505   -18521.839    38.532567    246.76437 
   12400    93.592642   -1031.6767    74203.368   -17229.633    1265.4618   -18495.095    38.944297    239.04067 
   12450    96.694383   -1038.9134    74186.127   -17227.408    1307.4003   -18534.808    39.108759    246.96268 
   12500    92.339721   -1067.3023    74182.988   -17234.143    1248.5212   -18482.664    39.220771    235.84064 
   12550    96.558235   -1152.8383    74242.521   -17226.635    1305.5595   -18532.194    39.479328    246.61495 
   12600    94.001764   -858.87727    74147.874   -17260.011    1270.9936   -18531.004    39.485654    240.08559 
   12650     92.69907   -963.51043    74097.726   -17259.126    1253.3799   -18512.506    39.491068    236.75844 
   12700    94.959408   -1174.0615    74133.096   -17259.871    1283.9418   -18543.812    39.612365    242.53146 
   12750    95.985081   -780.78537     74121.64   -17247.915    1297.8099   -18545.725    39.710372    245.15108 
   12800    96.363293   -1079.0208    74144.036   -17249.049    1302.9237   -18551.973    39.755122    246.11706 
   12850    96.186771    -907.7723    74151.498   -17246.018    1300.5369   -18546.555    40.033787    245.66621 
   12900    92.938435   -701.06991    74213.349   -17239.509    1256.6163   -18496.126    40.225463    237.36979 
   12950     93.54659    -1139.194    74219.836   -17224.543    1264.8392   -18489.382    40.231694    238.92305 
   13000    96.971689   -888.48349    74187.935   -17178.894    1311.1498   -18490.044    40.432607    247.67094 
   13050    96.250163   -644.61079    74206.381   -17177.835    1301.3941   -18479.229    40.666206    245.82812 
   13100    93.891415   -1068.0706    74235.033   -17198.276    1269.5015   -18467.778    40.570351    239.80375 
   13150    91.819599   -718.34039    74245.334   -17213.834    1241.4886   -18455.323    40.937335    234.51222 
   13200    94.556302   -979.10135    74282.908   -17187.284    1278.4914   -18465.775    41.080255    241.50191 
   13250    97.160004   -868.34717     74311.64   -17152.422     1313.696   -18466.118    41.525143     248.1519 
   13300    92.671052   -817.35749     74302.05   -17170.904    1253.0011   -18423.905    41.631043    236.68688 
   13350    96.233057   -1223.9103      74279.6   -17182.057    1301.1628   -18483.219    41.888266    245.78443 
   13400    95.437896   -1079.5307    74220.169   -17163.644    1290.4114   -18454.055    42.038702    243.75354 
   13450    97.871356   -872.06357    74145.288   -17129.054    1323.3141   -18452.368    42.269958    249.96873 
   13500    97.011607    -885.1839    74130.468   -17134.893    1311.6895   -18446.582    42.243177    247.77289 
   13550    93.553465   -1072.6501    74138.268   -17146.961    1264.9321   -18411.894      42.7643    238.94061 
   13600    95.442445   -999.07104     74115.41   -17144.609     1290.473   -18435.081    42.891996    243.76516 
   13650    96.510531   -892.59261    74100.839   -17165.674    1304.9145   -18470.588    43.136457    246.49311 
   13700     97.23482   -833.75929     74070.43   -17154.576    1314.7076   -18469.284    42.942521    248.34299 
   13750     97.07693   -1129.0053    74109.215   -17152.869    1312.5727   -18465.442       42.893    247.93973 
   13800    96.901154    -1124.501    74052.428   -17152.439    1310.1961   -18462.635    42.974615    247.49079 
   13850    94.154612   -1036.8037    74017.627   -17158.279    1273.0602   -18431.339    43.166289    240.47597 
   13900    93.627153   -962.30468    74030.999   -17177.586    1265.9285   -18443.515    43.510036    239.12881 
   13950    95.021244   -960.02675    74046.952   -17173.867    1284.7779   -18458.645    43.538216    242.68939 
   14000     93.62196   -1013.8969    74075.046   -17184.104    1265.8583   -18449.962     43.74248    239.11555 
   14050    94.934679   -743.36167    74063.111   -17167.819    1283.6075   -18451.426    44.138216     242.4683 
   14100     95.24969    -915.6923    74080.145   -17190.289    1287.8667   -18478.156     44.37047    243.27286 
   14150    93.504545   -921.77524    74065.668    -17185.93    1264.2707     -18450.2    44.626953    238.81566 
   14200    93.471019   -982.68912    74087.506    -17193.05    1263.8174   -18456.867    45.006094    238.73004 
   14250    95.134165   -972.87435    74110.588   -17227.683    1286.3047   -18513.988    45.176191     242.9778 
   14300    97.298898   -1215.1452    74123.029   -17195.811     1315.574   -18511.385    45.468762    248.50665 
   14350    94.528627   -1173.5083    74107.592   -17208.741    1278.1173   -18486.858    45.881381    241.43122 
   14400    93.332161   -930.59397    74081.814     -17206.2    1261.9399    -18468.14    46.215402    238.37539 
   14450    95.648716   -765.48549    74032.278   -17204.557    1293.2619   -18497.819     46.07242    244.29199 
   14500    93.127589   -808.38127    74063.493   -17221.963    1259.1739   -18481.137    46.239394     237.8529 
   14550    93.617362   -886.57306    74074.879   -17204.712    1265.7961   -18470.508    46.334095     239.1038 
   14600    94.832906   -894.51952     74069.96   -17208.522    1282.2314   -18490.754    46.477803    242.20837 
   14650    95.445724   -626.42615    74125.628   -17198.886    1290.5173   -18489.403    47.002553    243.77354 
   14700    96.988848   -970.77801    74152.103   -17166.694    1311.3818   -18478.076    47.123404    247.71476 
   14750    95.920444   -837.15599    74211.337   -17152.598    1296.9359   -18449.534    47.254546      244.986 
   14800     93.09199    -873.5639    74200.814    -17217.71    1258.6926   -18476.403    47.280508    237.76198 
   14850    96.442682   -360.09813    74246.107   -17187.315    1303.9971   -18491.312    47.476761    246.31982 
   14900    94.388489   -1023.9371     74275.09   -17200.791    1276.2225   -18477.013    47.670811     241.0733 
   14950    93.177508    -1007.959     74284.55   -17220.795    1259.8488   -18480.644    47.665269    237.98039 
   15000    95.748889   -1107.3815    74292.743   -17222.632    1294.6164   -18517.248    48.140969    244.54784 
   15050    93.127148   -1086.4518    74295.761   -17224.893    1259.1679   -18484.061    48.498877    237.85177 
   15100    93.456854   -989.19901    74247.306   -17210.295    1263.6259   -18473.921    48.513886    238.69386 
   15150    94.233074   -875.37181    74222.368   -17221.799    1274.1211    -18495.92    48.645128    240.67637 
   15200    94.156361   -875.16289    74177.286   -17236.715    1273.0839   -18509.799    48.752546    240.48044 
   15250    93.160912     -1086.26    74193.656   -17195.629    1259.6244   -18455.253    48.877436    237.93801 
   15300    96.927894   -1039.6064    74233.167   -17190.881    1310.5576   -18501.438    49.024596    247.55908 
   15350    95.804487   -623.28826    74264.012   -17216.596    1295.3681   -18511.964     48.90323    244.68984 
   15400    95.027296   -900.94209    74267.321   -17231.286    1284.8597   -18516.146     49.23859    242.70485 
   15450    93.264477   -1069.3631    74249.249   -17244.232    1261.0247   -18505.256    49.291009    238.20252 
   15500    91.511942   -1056.9624    74230.364   -17314.896    1237.3288   -18552.225     49.23976    233.72645 
   15550    94.520338   -825.00866    74299.972   -17294.022    1278.0052   -18572.027    49.558362    241.41005 
   15600     92.44558   -715.13243    74347.856   -17298.165    1249.9525   -18548.118     49.99602    236.11101 
   15650    90.892127   -750.94314    74449.934   -17328.441    1228.9483    -18557.39    49.907335    232.14341 
   15700    91.791912   -847.04772    74452.878   -17325.872    1241.1143   -18566.987    49.952378    234.44151 
   15750    92.206386   -908.72972    74453.913   -17334.349    1246.7183   -18581.067    50.056526    235.50009 
   15800    94.866618    -1258.823    74480.272   -17315.349    1282.6872   -18598.036    50.127173    242.29447 
   15850    90.066976   -1022.2052    74519.865   -17344.935    1217.7915   -18562.726    50.319028    230.03593 
   15900    92.874383   -943.17533    74533.223   -17330.409    1255.7503    -18586.16    50.324302    237.20619 
   15950    89.244582   -925.36656    74505.037   -17330.476    1206.6719   -18537.148    50.443763    227.93549 
   16000     90.67678   -783.10293    74497.819   -17305.513    1226.0366    -18531.55    50.489089     231.5934 
   16050    93.921661   -837.87912    74534.604   -17281.327    1269.9105   -18551.238    50.554955      239.881 
   16100    93.268301    -923.5975    74543.264   -17279.048    1261.0764   -18540.125    50.965953    238.21228 
   16150    93.906319   -1016.0476    74577.369   -17291.221    1269.7031   -18560.924    51.443912    239.84182 
   16200    94.505025   -940.20698    74672.462   -17285.978    1277.7981   -18563.776    51.602178    241.37094 
   16250    94.196139   -933.90475    74701.196   -17297.053    1273.6217   -18570.675     51.48564    240.58203 
   16300    93.833614   -913.99114    74737.494   -17304.675      1268.72   -18573.395    51.609334    239.65612 
   16350    90.415326   -887.25309    74665.697   -17300.262    1222.5015   -18522.763    51.807488    230.92563 
   16400    90.853307   -899.68469    74661.223   -17291.766    1228.4234    -18520.19    52.126603    232.04426 
   16450    95.844549   -766.36482    74628.554   -17248.896    1295.9098   -18544.806    52.124075    244.79216 
   16500     95.24589   -720.83555    74654.225   -17269.447    1287.8153   -18557.262    52.050777    243.26315 
   16550    95.039045   -707.00921    74685.359   -17266.984    1285.0186   -18552.002    52.275837    242.73486 
   16600    91.982352   -925.76502    74720.616   -17285.108    1243.6892   -18528.797    52.649836     234.9279 
   16650    94.186918   -690.59075    74727.793   -17271.729     1273.497   -18545.226    52.865039    240.55848 
   16700    94.982122   -1013.4762    74732.067   -17277.729    1284.2489   -18561.978    53.176408    242.58947 
   16750    92.203396    -783.9597     74712.18   -17301.427    1246.6779   -18548.105    53.549844    235.49246 
   16800    93.654602   -1096.7423    74765.953   -17288.814    1266.2996   -18555.113    54.000809    239.19892 
   16850    91.649398   -721.82257     74841.67   -17283.279    1239.1873   -18522.467    54.090274    234.07752 
   16900    89.947621   -1114.9501    74891.396   -17282.574    1216.1777   -18498.752    53.983344    229.73109 
   16950     92.80368   -1103.0548    74861.217   -17287.013    1254.7943   -18541.808    54.112524    237.02562 
   17000    92.135163    -1382.327    74825.661   -17292.786    1245.7553   -18538.541    54.197869    235.31819 
   17050    94.830683   -958.44184    74772.497   -17264.601    1282.2013   -18546.802    54.130158    242.20269 
   17100     93.27849   -897.44932    74731.002   -17257.866    1261.2142   -18519.081     54.07773    238.23831 
   17150    94.649984   -1159.4984    74761.817   -17273.412    1279.7581    -18553.17    54.171432    241.74117 
   17200    95.057144   -1035.0315    74777.633    -17274.37    1285.2633   -18559.633    54.379171    242.78108 
   17250    93.616087   -868.32518    74781.198   -17312.788    1265.7788   -18578.567    54.497322    239.10055 
   17300    94.733148   -742.23106     74762.12   -17301.553    1280.8826   -18582.436    54.398891    241.95358 
   17350    94.381914   -875.56708    74772.516   -17275.656    1276.1335   -18551.789    54.505237    241.05651 
   17400    93.499265   -934.30128    74797.054   -17259.018    1264.1993   -18523.217    54.878484    238.80218 
   17450    93.335324   -1103.2215    74755.649   -17248.637    1261.9827    -18510.62    55.016584    238.38346 
   17500    94.025433   -1138.5601    74726.077    -17230.71    1271.3136   -18502.023    55.488913    240.14604 
   17550    93.486958   -1253.2922    74681.985   -17274.394    1264.0329   -18538.427    55.673967    238.77074 
   17600    94.104137   -980.29942    74632.489   -17263.251    1272.3777   -18535.629    55.741152    240.34705 
   17650    92.735081   -817.54678    74642.921   -17255.964    1253.8668   -18509.831    56.178032    236.85041 
   17700    95.220429    -1024.452    74647.826   -17230.886    1287.4711   -18518.357    56.407793    243.19812 
   17750    95.134828   -933.69662     74684.29    -17239.32    1286.3137   -18525.633    56.776376    242.97949 
   17800    91.336758   -1131.8123    74665.425   -17246.721    1234.9601   -18481.681    57.031991    233.27902 
   17850     92.65898   -1062.5087    74637.964   -17270.906    1252.8378   -18523.744    57.278359    236.65604 
   17900    92.707615   -917.90268    74613.377   -17225.936    1253.4954   -18479.431    57.270703    236.78026 
   17950     93.11671   -1024.3083    74647.986   -17245.058    1259.0268   -18504.085    57.616159    237.82511 
   18000    92.824132   -855.59953    74636.921   -17245.219    1255.0709    -18500.29    57.696371    237.07785 
   18050    97.199254   -993.76533    74561.336   -17241.366    1314.2267   -18555.593     58.02392    248.25215 
   18100    93.750932   -735.70381    74523.557   -17249.067    1267.6021   -18516.669     58.27603    239.44495 
   18150    93.184056   -921.84365    74512.286   -17260.505    1259.9374   -18520.443    58.289742    237.99712 
   18200    92.626803   -792.35745    74528.026    -17261.07    1252.4028   -18513.473    58.413271    236.57386 
   18250    95.430228   -1157.0412    74512.389   -17265.957    1290.3078   -18556.265    58.833029    243.73396 
   18300    93.428589   -550.01095    74547.727   -17254.953    1263.2437   -18518.197    58.722037    238.62167 
   18350    93.026653   -863.71099    74516.078   -17248.908    1257.8091   -18506.717     59.00077     237.5951 
   18400    91.983006   -980.80447     74530.95   -17295.475     1243.698   -18539.173     58.79006    234.92957 
   18450     89.91881   -1204.0609    74506.445   -17318.646    1215.7881   -18534.434    59.025007     229.6575 
   18500    92.050777   -1106.3389     74456.31   -17298.053    1244.6144   -18542.667    59.312113    235.10266 
   18550    94.350976   -1236.5363    74395.309   -17307.739    1275.7152   -18583.454    59.712739    240.97749 
   18600    91.668797   -964.25204    74334.885   -17300.937    1239.4496   -18540.386    59.620184    234.12706 
   18650    91.342044   -1102.1909    74297.207   -17285.558    1235.0316    -18520.59    59.716425    233.29252 
   18700    89.902082   -839.26803     74319.89   -17308.507    1215.5619   -18524.069    59.775278    229.61478 
   18750     91.35685   -848.24263    74302.549   -17307.543    1235.2318   -18542.775    59.981366    233.33033 
   18800    93.923295   -752.03686    74387.313   -17299.859    1269.9326   -18569.791    60.211942    239.88517 
   18850    92.665824   -985.35853     74401.62   -17260.172    1252.9304   -18513.102    60.274349    236.67352 
   18900    92.904606   -913.19075    74514.426   -17283.657    1256.1589   -18539.816    60.485277    237.28339 
   18950    95.554315    -1036.399    74547.111   -17231.362    1291.9855   -18523.347     60.88245    244.05089 
   19000    94.184324   -1231.6526    74533.154   -17230.753     1273.462   -18504.215    61.406072    240.55185 
   19050    95.202758   -787.39224    74508.791   -17172.458    1287.2321    -18459.69    61.263715    243.15299 
   19100    92.043749   -1063.1657    74404.601   -17193.109    1244.5193   -18437.628    61.258502    235.08471 
   19150    96.211729   -1005.3304    74359.888   -17191.711    1300.8744   -18492.585     61.23624    245.72996 
   19200    94.332537   -839.48406    74383.518   -17215.929    1275.4659   -18491.395    61.225098     240.9304 
   19250    94.342053    -727.4015    74341.631   -17223.704    1275.5946   -18499.299    61.064388     240.9547 
   19300    93.646408   -804.70861     74296.52   -17217.225    1266.1888   -18483.414    60.846818    239.17799 
   19350    96.164652   -881.80858    74285.527   -17169.879    1300.2379   -18470.117    61.010767    245.60972 
   19400    93.033959   -850.88751     74339.73   -17213.202    1257.9079    -18471.11    61.470417    237.61376 
   19450    93.848655   -1047.8922    74268.389   -17186.882    1268.9234   -18455.805    61.612747    239.69454 
   19500    93.675482   -786.21745    74226.342   -17208.377    1266.5819   -18474.959    61.854114    239.25225 
   19550    94.590948   -928.32992     74230.31   -17265.163    1278.9599   -18544.123    62.111758    241.59039 
   19600    93.654701   -795.11724    74259.187   -17279.805    1266.3009   -18546.106    62.467014    239.19917 
   19650    94.669776   -990.49046     74366.61   -17262.575    1280.0257   -18542.601    62.822934    241.79173 
   19700    92.197735    -970.5638    74383.014   -17256.693    1246.6014   -18503.295    62.880399      235.478 
   19750    92.383943   -724.30456    74335.953   -17234.836    1249.1191   -18483.955    62.594821    235.95358 
   19800    92.918129    -885.8229    74257.892   -17274.527    1256.3418   -18530.869    62.571324    237.31792 
   19850    94.646861   -954.52038    74181.729   -17262.366    1279.7159   -18542.082    62.543652     241.7332 
   19900    94.274974   -836.61059    74126.736   -17306.765    1274.6876   -18581.453    62.623882    240.78338 
   19950    91.833227   -721.72437     74131.83   -17300.403    1241.6729   -18542.075    62.797313    234.54703 
   20000     91.58929   -671.64901    74156.977   -17272.425    1238.3746   -18510.799    63.120415      233.924 
   20050    93.311722   -1011.4182    74119.059   -17246.497    1261.6635   -18508.161    63.237089    238.32318 
   20100    94.223035   -873.53254    74051.737   -17208.851    1273.9854   -18482.836    63.602518    240.65072 
   20150    94.980857   -899.91374    74011.336   -17220.414    1284.2318   -18504.646    63.925055    242.58624 
   20200    90.381781   -1086.9179    74054.406   -17238.162    1222.0479    -18460.21    64.206981    230.83995 
   20250     96.35755   -955.44807     74060.02   -17218.469     1302.846   -18521.315    64.757124    246.10239 
   20300    92.307637   -736.39412    74056.886   -17203.612    1248.0873     -18451.7    64.735263    235.75869 
   20350    96.869747   -1061.0153    74051.299   -17197.262    1309.7714   -18507.033    64.878746    247.41057 
   20400    94.463659    -709.3776    74030.114   -17217.566    1277.2388   -18494.805    64.495266    241.26529 
   20450    92.972642   -987.06337    74028.461   -17198.183    1257.0789   -18455.262    64.375287    237.45715 
   20500    96.302938   -928.47931    73968.805   -17204.723    1302.1076    -18506.83    64.448462    245.96291 
   20550    93.990886   -504.03517    73975.158   -17200.257    1270.8465   -18471.104    64.601383     240.0578 
   20600    92.566803   -848.74696    73980.062   -17177.654    1251.5915   -18429.245    64.587307    236.42062 
   20650    94.826983   -930.99756    73867.132   -17189.438    1282.1513   -18471.589    64.570374    242.19324 
   20700    94.269228   -1185.8775     73802.15   -17187.257    1274.6099   -18461.867    64.380336     240.7687 
   20750    95.668506   -694.31641    73763.214   -17169.594    1293.5295   -18463.124    64.241002    244.34254 
   20800    93.171687   -1128.4386    73780.804   -17195.755    1259.7701   -18455.525    64.362166    237.96553 
   20850    94.353703   -744.59241     73715.97   -17191.871    1275.7521   -18467.624    64.670631    240.98446 
   20900    92.943627   -1066.7106    73684.939   -17212.691    1256.6865   -18469.377    65.042982    237.38305 
   20950    94.898479   -1073.3343    73663.772   -17178.287     1283.118   -18461.405    65.285462    242.37584 
   21000    94.372866   -1064.5277    73684.144   -17209.393    1276.0112   -18485.404    65.238101     241.0334 
   21050    93.928428   -791.16206    73694.729    -17222.78     1270.002   -18492.782    65.531811    239.89828 
   21100    92.731247   -865.05157     73668.86   -17215.306     1253.815    -18469.12    65.279036    236.84062 
   21150    93.807687   -1023.3591     73583.55   -17249.949    1268.3695   -18518.319    65.458169     239.5899 
   21200    93.083376   -866.33801    73574.186   -17246.954    1258.5761    -18505.53    65.691377    237.73997 
   21250    90.915883   -620.09121    73598.767   -17256.831    1229.2695   -18486.101    65.982872    232.20408 
   21300    92.352275    -964.3066    73556.688   -17249.273    1248.6909   -18497.964    66.055403     235.8727 
   21350    91.701799   -940.81917    73539.928   -17225.588    1239.8958   -18465.484    66.099697    234.21135 
   21400    94.057144   -907.25276     73542.02   -17215.134    1271.7423   -18486.876    65.826648    240.22703 
   21450    93.455315   -854.94123    73500.465   -17206.208    1263.6051   -18469.813    65.763732    238.68993 
   21500     96.04517   -713.91533    73502.796   -17201.297    1298.6224    -18499.92    65.966769    245.30456 
   21550    95.800787    -621.0986    73556.727   -17169.622    1295.3181    -18464.94    66.197189    244.68039 
   21600    97.667934    -777.7223     73637.55   -17157.879    1320.5637   -18478.443    66.463786    249.44918 
   21650    95.818827    -989.1885      73674.3   -17194.233     1295.562   -18489.795    66.607686    244.72646 
   21700    93.995767   -826.31808    73700.539   -17211.096    1270.9125   -18482.008    66.556563    240.07027 
   21750     92.53704   -837.39687    73721.964   -17233.112    1251.1891   -18484.301    66.895727     236.3446 
   21800    90.898718   -607.03345    73703.438   -17248.647    1229.0374   -18477.684    67.028333    232.16024 
   21850    91.804417   -766.65774    73689.754   -17252.664    1241.2833   -18493.947    67.046117    234.47344 
   21900    92.479014   -1099.0941    73728.495   -17243.004    1250.4045   -18493.408    67.056794     236.1964 
   21950    88.759908   -1133.3043    73696.011   -17262.268    1200.1187   -18462.387    67.116207     226.6976 
   22000    92.838525   -945.21704    73644.907   -17221.506    1255.2655   -18476.771    66.929691    237.11461 
   22050    94.509201   -907.24815    73632.853   -17193.588    1277.8546   -18471.442    67.179584    241.38161 
   22100    93.670862   -956.71199    73642.598   -17222.853    1266.5194   -18489.373    67.522357    239.24044 
   22150    92.691092   -1168.7879    73613.385   -17206.098     1253.272    -18459.37    67.712836    236.73806 
   22200    93.239358   -924.25535    73621.931   -17221.201    1260.6851   -18481.886    68.214478    238.13836 
   22250    93.043547   -938.90952    73613.463   -17243.291    1258.0375   -18501.329    68.714375    237.63825 
   22300    93.091432   -795.84127    73609.537   -17221.581     1258.685   -18480.266    68.912514    237.76055 
   22350    94.156989   -1259.9588    73560.356   -17231.282    1273.0924   -18504.374    68.999348    240.48204 
   22400    92.555214   -1030.3999    73508.487    -17210.72    1251.4348   -18462.154    69.086493    236.39102 
   22450    94.657023   -1049.8211    73498.086   -17177.389    1279.8533   -18457.243    69.364503    241.75915 
   22500    93.796366   -902.84139    73431.756    -17186.68    1268.2164   -18454.896    69.402729    239.56099 
   22550    94.846719   -1227.2393    73395.606   -17179.801    1282.4182    -18462.22    69.655434    242.24365 
   22600    95.109852   -713.23995    73399.964   -17158.378     1285.976   -18444.354    69.339565     242.9157 
   22650    96.785118   -942.06905    73369.606   -17184.297    1308.6272   -18492.924    69.552202    247.19442 
   22700    93.909224    -704.9265    73348.216   -17188.571    1269.7423   -18458.313    69.795312    239.84924 
   22750    95.949876    -987.2449     73337.97   -17201.985    1297.3339   -18499.319    69.834864    245.06117 
   22800    94.072167     -959.839    73315.782   -17195.812    1271.9455   -18467.757    70.065094     240.2654 
   22850    93.319087   -816.53436    73336.712   -17199.619    1261.7631   -18461.383    69.930887    238.34199 
   22900    91.978479   -925.88796     73379.87    -17252.62    1243.6368   -18496.257    70.222393    234.91801 
   22950    90.365566   -790.31872    73388.938   -17265.278    1221.8287   -18487.107    70.244014    230.79854 
   23000    93.443927   -1036.4567    73376.862   -17245.088    1263.4511   -18508.539    70.503351    238.66084 
   23050    89.808273   -713.08129    73407.222   -17243.507    1214.2936     -18457.8    70.596949    229.37518 
   23100    94.533973    -825.5613    73468.258    -17198.68    1278.1895    -18476.87    71.063101    241.44488 
   23150      92.4484   -859.10027    73439.358   -17216.249    1249.9906    -18466.24    71.081843    236.11821 
   23200    94.160329   -1043.6918    73416.063   -17200.886    1273.1375   -18474.023    71.098158    240.49057 
   23250    92.902792   -646.66137    73412.496   -17197.926    1256.1344   -18454.061    71.599417    237.27875 
   23300    93.934292   -732.36842    73473.902   -17233.395    1270.0813   -18503.476    71.925929    239.91326 
   23350    93.993629   -923.71151    73541.265   -17245.488    1270.8836   -18516.372    72.305086    240.06481 
   23400    91.994111   -757.71467    73514.941   -17255.211    1243.8482   -18499.059    72.557094    234.95793 
   23450    92.415626   -1143.7888      73545.5   -17250.191    1249.5475   -18499.739    72.962238    236.03451 
   23500    94.055476   -1359.9862    73496.821   -17227.055    1271.7198   -18498.774    73.023141    240.22277 
   23550     92.97689   -1203.6881     73394.08   -17258.046    1257.1363   -18515.183    72.799284      237.468 
   23600     89.12611   -1260.9149    73284.714   -17258.119    1205.0701   -18463.189    72.892422     227.6329 
   23650    92.419457   -788.97791    73279.444   -17202.777    1249.5993   -18452.376    72.960463    236.04429 
   23700     93.91373   -1136.4769    73317.636   -17252.802    1269.8033   -18522.605    73.122345    239.86074 
   23750    90.568952   -734.51901    73331.453    -17267.42    1224.5787   -18491.998    73.202686      231.318 
   23800    92.914746    -864.0322    73305.794   -17219.675     1256.296   -18475.971    73.534446    237.30928 
   23850    96.130729   -773.67261    73353.502   -17186.561    1299.7792    -18486.34    73.783242    245.52308 
   23900    91.805863   -745.49958    73413.513   -17191.442    1241.3029   -18432.745    74.072087    234.47714 
   23950    97.015751   -918.03008     73423.09    -17182.73    1311.7455   -18494.476    74.395947    247.78347 
   24000    93.866647   -1143.8602    73414.095   -17199.427    1269.1667   -18468.594    74.782639    239.74049 
   24050    93.740693   -944.74573     73456.02   -17191.544    1267.4636   -18459.008    74.595647     239.4188 
   24100    95.035032   -920.86673    73457.155   -17153.867    1284.9643   -18438.831    74.719986    242.72461 
   24150    91.768173   -801.70729     73498.61   -17180.789    1240.7933   -18421.583    74.844767    234.38087 
   24200    91.174255   -835.33477    73573.069   -17190.549    1232.7629   -18423.312    74.914998    232.86398 
   24250    92.096585   -828.95546    73609.688   -17196.665    1245.2337   -18441.898    75.461606    235.21966 
   24300    90.564142   -793.68712    73656.565   -17218.698    1224.5136   -18443.212    75.935933    231.30571 
   24350    93.130514   -914.62155    73662.376   -17183.232    1259.2134   -18442.445    76.468416    237.86037 
   24400    96.074862   -793.01636    73702.358    -17132.25    1299.0238   -18431.274    76.538539    245.38039 
   24450    94.821337   -914.40104    73713.449   -17125.756     1282.075   -18407.831    76.574663    242.17882 
   24500    96.078297   -862.65599    73695.508   -17130.101    1299.0703   -18429.171    76.940163    245.38916 
   24550    91.956641   -904.61739    73686.485   -17172.802    1243.3416   -18416.144    77.038896    234.86223 
   24600    93.083038   -1235.0219    73643.001   -17201.563    1258.5715   -18460.134    76.902057    237.73911 
   24650    93.243263   -388.33398    73675.226   -17201.078    1260.7379   -18461.816    76.749062    238.14833 
   24700    92.294875    -716.7091    73678.129   -17239.719    1247.9148   -18487.634    76.732221     235.7261 
   24750    92.677102   -882.41226    73668.265    -17243.61    1253.0829   -18496.692    77.042815    236.70233 
   24800    91.807401   -685.25673    73733.027   -17192.411    1241.3237   -18433.734    77.422057    234.48107 
   24850    93.094619   -901.76314    73752.794   -17177.787    1258.7281   -18436.515    77.567781    237.76869 
   24900    93.721037   -978.59812    73758.832   -17190.763    1267.1979   -18457.961    77.406987    239.36859 
   24950     91.13515   -783.80488     73780.07   -17251.281    1232.2342   -18483.515    77.429993     232.7641 
   25000    94.179845    -725.5612    73819.582   -17223.208    1273.4014    -18496.61    77.380395    240.54041 
   25050    92.774839   -940.76633    73898.168   -17186.166    1254.4044    -18440.57    77.436613    236.95195 
   25100    96.287321   -797.19758    73871.778   -17190.377    1301.8965   -18492.274    77.649624    245.92302 
   25150    92.378325    -747.3394    73962.244   -17200.315    1249.0431   -18449.358     77.84782    235.93924 
   25200    95.456672   -1220.1807    73969.411   -17181.083    1290.6653   -18471.749     78.07686     243.8015 
   25250    96.318244   -1120.9969    74008.112   -17159.595    1302.3146    -18461.91    77.984939      246.002 
   25300    94.738278   -1152.2139    73960.454   -17184.615    1280.9519   -18465.567    78.148143    241.96668 
   25350     94.96395   -813.01883    73932.414   -17175.616    1284.0032   -18459.619    78.241262    242.54306 
   25400     92.52963     -621.226    74009.784   -17223.524    1251.0889   -18474.613    78.420455    236.32568 
   25450    92.948643   -1187.4998    73958.128   -17264.708    1256.7544   -18521.462    78.723231    237.39586 
   25500    92.668594   -924.21337    73929.951   -17244.759    1252.9678   -18497.727    78.795017     236.6806 
   25550    93.132712   -874.22683    73920.483   -17267.443    1259.2432   -18526.687    78.399757    237.86598 
   25600    94.003499   -969.50972    73927.993   -17286.456     1271.017   -18557.473    78.423114    240.09002 
   25650    90.295463   -949.65889    73896.847   -17334.077    1220.8808   -18554.958    78.413308    230.61949 
   25700    92.982886    -938.5823    73904.643   -17329.074    1257.2174   -18586.291    78.769132    237.48332 
   25750    91.559068   -679.76172    73945.542   -17319.008     1237.966   -18556.974    78.854572    233.84681 
   25800    92.422902   -801.30322    73923.063   -17299.321    1249.6458   -18548.967    79.326323    236.05309 
   25850    92.952164   -884.05966    73936.071   -17292.751     1256.802   -18549.553    79.590662    237.40485 
   25900    91.635022   -839.26958    73853.914   -17331.348    1238.9929   -18570.341    79.776983     234.0408 
   25950    88.334138   -680.83945    73849.022   -17334.178    1194.3619    -18528.54    79.655797    225.61016 
   26000    92.752781   -739.35392     73854.28   -17346.252    1254.1061   -18600.358    79.458883    236.89562 
   26050    91.439569   -1095.5945    73849.396   -17329.007    1236.3502   -18565.357    79.690608     233.5416 
   26100    92.719205   -879.12589    73805.628   -17354.708    1253.6521    -18608.36    79.751195    236.80986 
   26150    90.847844   -985.60282     73699.39   -17325.988    1228.3496   -18554.338    79.524049     232.0303 
   26200    92.554548   -969.31605    73675.447   -17328.457    1251.4258   -18579.883    79.770067    236.38932 
   26250    90.671458   -756.92033    73667.331   -17337.194    1225.9647   -18563.158    80.004216    231.57981 
   26300    90.820886   -746.34405    73709.584   -17330.336    1227.9851   -18558.321    80.355974    231.96145 
   26350    93.714691   -538.33404    73730.323   -17307.614    1267.1121   -18574.726    80.529335    239.35239 
   26400    93.897593   -861.36122    73676.177   -17310.571    1269.5851   -18580.156    81.032979    239.81953 
   26450    92.427266   -703.95157    73678.875   -17310.654    1249.7048   -18560.359    80.974385    236.06423 
   26500    91.455552   -620.51584    73693.626    -17313.87    1236.5663   -18550.436    80.928567    233.58242 
   26550    95.152266   -730.22435    73716.496   -17286.751    1286.5494   -18573.301    81.049815    243.02403 
   26600    96.295862    -989.3306    73736.866   -17291.906     1302.012   -18593.918    81.188842    245.94484 
   26650    94.167979   -1154.7643    73729.947    -17322.63    1273.2409   -18595.871     81.69397    240.51011 
   26700    92.290792   -911.11278     73753.32    -17327.23    1247.8596    -18575.09    81.959838    235.71567 
   26750    94.826661    -1099.384    73733.252    -17296.82     1282.147   -18578.967    81.832186    242.19242 
   26800     91.52857   -1240.0877    73696.304   -17311.726    1237.5536   -18549.279    81.736862    233.76891 
   26850    91.268989   -1034.1768    73605.465   -17328.613    1234.0438   -18562.657    81.704484    233.10593 
   26900    90.346919   -963.96932    73596.852   -17326.025    1221.5766   -18547.602    82.090567    230.75091 
   26950    92.863817   -1016.6432    73643.331   -17306.211    1255.6074   -18561.819    82.374741    237.17921 
   27000    92.265798   -655.63125    73665.888   -17327.755    1247.5216   -18575.276    82.838298    235.65183 
   27050    95.454711   -711.26665    73794.517   -17271.893    1290.6388   -18562.532    83.023653    243.79649 
   27100    94.286042   -979.95111    73874.263   -17271.263    1274.8373     -18546.1    83.109722    240.81165 
   27150     95.71918   -754.73846    73894.508   -17284.414    1294.2147   -18578.628    83.310884    244.47196 
   27200    93.880389   -802.40164    73930.334   -17284.994    1269.3525   -18554.346    83.787971    239.77559 
   27250    92.347637   -621.54582    73940.038   -17274.171    1248.6282   -18522.799    84.126851    235.86086 
   27300    93.099536   -771.38274    73893.575   -17245.214    1258.7946   -18504.008    84.539297    237.78125 
   27350    94.419234   -487.04615    73922.326   -17224.055    1276.6382   -18500.694    84.722796    241.15183 
   27400    95.652012   -512.98181    74008.809   -17220.544    1293.3065    -18513.85    85.126527    244.30041 
   27450     95.72371   -595.76369     74153.53   -17198.808    1294.2759   -18493.084    85.249526    244.48353 
   27500    95.108621   -977.95478    74175.557   -17229.518    1285.9593   -18515.477     85.71627    242.91256 
   27550    95.028903   -596.38931    74171.827    -17190.76    1284.8815   -18475.641    85.645246    242.70895 
   27600    95.495015   -972.60061    74205.332   -17186.933    1291.1837   -18478.117    85.769794    243.89943 
   27650    92.909891   -1059.9066    74156.062   -17212.587    1256.2304   -18468.817    85.790121    237.29688 
   27700    94.415301   -969.92966     74114.13   -17218.554     1276.585   -18495.139    85.781792    241.14178 
   27750    94.259176   -1065.7756    74132.148   -17240.832     1274.474   -18515.306    86.138891    240.74303 
   27800    92.795245   -1077.2752    74137.288   -17262.869    1254.6803   -18517.549    86.105852    237.00407 
   27850    94.854427   -763.09441    74135.051   -17242.351    1282.5224   -18524.873    86.218639    242.26333 
   27900    94.426888   -853.17883    74081.812   -17257.446    1276.7416   -18534.187    86.459184    241.17138 
   27950    96.090891   -626.89761    74106.254   -17263.293    1299.2406   -18562.533    86.610815    245.42133 
   28000    94.374132   -624.50095    74079.344   -17231.367    1276.0283   -18507.396    87.048504    241.03663 
   28050    95.762346   -860.03079    74037.107   -17195.576    1294.7983   -18490.374    87.174355    244.58221 
   28100    94.522568   -841.01146    74020.179   -17197.937    1278.0353   -18475.973    87.196457    241.41575 
   28150    96.208487   -1053.4883    73976.671    -17219.59    1300.8306    -18520.42     87.36487    245.72168 
   28200    95.384134   -624.05831    73970.487   -17231.871    1289.6845   -18521.556    87.739515    243.61624 
   28250     96.54215   -928.41006     73940.12   -17231.897     1305.342   -18537.239     88.01733    246.57387 
   28300     94.92412    -793.0638    74007.436   -17255.615    1283.4647    -18539.08    88.102751    242.44133 
   28350    94.990168   -884.14853    74009.988   -17256.274    1284.3577   -18540.632    88.066067    242.61002 
   28400    92.754417   -789.77022    74042.165   -17288.941    1254.1282    -18543.07     88.20368    236.89979 
   28450     94.58702   -976.63399    74049.154   -17306.767    1278.9068   -18585.674    88.557207    241.58036 
   28500    89.431578    -844.5038    74071.718   -17338.819    1209.2003   -18548.019    88.956625    228.41308 
   28550    96.281581   -1154.0977    74049.638   -17289.285    1301.8189   -18591.103    88.950627    245.90836 
   28600    95.827703   -958.13991    74062.287   -17290.555     1295.682   -18586.237    88.873166    244.74913 
   28650    93.359822   -947.43563    74051.641   -17294.907    1262.3139   -18557.221    88.960128    238.44603 
   28700    93.490739   -857.00244    74083.392   -17299.422     1264.084   -18563.506    89.183647     238.7804 
   28750    94.610553   -871.13971    74051.962    -17297.18     1279.225   -18576.405    89.299792    241.64047 
   28800    94.012679   -903.81218    74082.889   -17290.024    1271.1412   -18561.165    89.256142    240.11347 
   28850    94.048522   -1008.6464    74106.673   -17277.761    1271.6258   -18549.386    89.623903    240.20501 
   28900    96.983977   -1246.2691    74083.746   -17248.494    1311.3159    -18559.81    89.588198    247.70232 
   28950    92.742528   -929.19824    74041.145   -17267.554    1253.9675   -18521.522    90.046228    236.86943 
   29000    98.083067   -871.45665    74082.482   -17250.384    1326.1767   -18576.561    89.894424    250.50945 
   29050    93.850974   -770.58273    74115.245   -17225.459    1268.9547   -18494.414    90.081208    239.70046 
   29100    92.436001   -1168.7459    74070.736    -17260.57     1249.823   -18510.393    90.212125    236.08654 
   29150    94.685727   -906.69602    74043.577   -17246.017    1280.2414   -18526.259    90.184824    241.83246 
   29200    94.996094    -967.3212    74012.304   -17273.004    1284.4379   -18557.441    90.183239    242.62516 
   29250    95.185567   -691.21195    74045.629   -17268.354    1286.9997   -18555.353    89.961148    243.10908 
   29300    94.138294   -824.04327    74111.746   -17296.746    1272.8396   -18569.585    90.295577    240.43429 
   29350    94.978641   -1021.1208    74170.101   -17275.223    1284.2019   -18559.425    90.642896    242.58058 
   29400    97.371706    -1054.605    74191.549   -17298.412    1316.5584   -18614.971     90.63672     248.6926 
   29450     95.00452   -896.67256    74255.847   -17266.735    1284.5518   -18551.287    90.479016    242.64668 
   29500    95.372949   -1183.0824    74229.814   -17267.915    1289.5333   -18557.448    90.342407    243.58767 
   29550    94.095666   -1046.7782     74220.94   -17291.241    1272.2632   -18563.504    90.039521    240.32542 
   29600    94.917177   -858.24721    74194.544   -17269.862    1283.3708   -18553.233    90.078731     242.4236 
   29650    91.672791    -978.9539    74156.211   -17304.715    1239.5036   -18544.218    90.290763    234.13726 
   29700    95.257736   -1056.8139    74073.025   -17283.784    1287.9755   -18571.759    90.633779    243.29341 
   29750    93.947726   -1035.1958    74017.038   -17279.521    1270.2629   -18549.783    90.723681    239.94757 
   29800    94.967169   -1023.6329     73971.19   -17280.055    1284.0468   -18564.101    90.960089    242.55128 
   29850    94.623146   -563.86558    73973.448   -17274.104    1279.3952   -18553.499    91.354484    241.67263 
   29900    91.241635    -897.1031    73971.895   -17285.336     1233.674    -18519.01    91.480851    233.03607 
   29950    91.984574    -744.6669    73953.329   -17340.389    1243.7192   -18584.108    91.357834    234.93357 
   30000    92.543095   -559.65104    73899.199   -17314.753     1251.271   -18566.023    91.594391    236.36007 
   30050    96.114038   -782.43524    73922.043   -17226.151    1299.5535   -18525.705    91.983192    245.48045 
   30100    95.588249   -986.37964    73899.993   -17256.962    1292.4444   -18549.406    92.394365    244.13755 
   30150    94.114671   -813.50092    73847.686   -17293.394    1272.5202   -18565.914    92.446335    240.37396 
   30200    91.962814   -938.85352    73883.469   -17293.018     1243.425   -18536.443    93.026599      234.878 
   30250    95.081051   -1221.1564    73872.976   -17253.925    1285.5866   -18539.511    93.340435    242.84214 
   30300    94.073611   -1138.6967     73846.06   -17224.724     1271.965   -18496.689    93.592005    240.26909 
   30350    98.191532   -771.59562    73878.939   -17201.751    1327.6432   -18529.394    93.459783    250.78648 
   30400    94.129633   -846.50197    73941.475   -17229.822    1272.7225   -18502.544    93.483841    240.41217 
   30450    95.394481   -693.04371    74010.943   -17215.296    1289.8244    -18505.12    93.775287    243.64266 
   30500    94.169613    -1062.184    74053.037   -17213.458     1273.263   -18486.721    94.063523    240.51428 
   30550    93.530457   -1056.9546    74006.241   -17241.712     1264.621   -18506.333    94.251704    238.88184 
   30600    92.328894   -853.68474    73978.242   -17223.646    1248.3748   -18472.021     94.74005    235.81299 
   30650     96.54533   -1061.2388    74002.691     -17233.9     1305.385   -18539.285    94.967976    246.58199 
   30700    92.757007   -678.05248    74081.727   -17268.999    1254.1633   -18523.162    95.097927    236.90641 
   30750    92.558447   -828.75599    74242.503   -17285.019    1251.4785   -18536.497    95.357113    236.39928 
   30800    94.119477   -863.46324    74267.395    -17291.48    1272.5852   -18564.065    95.445262    240.38623 
   30850    93.745281   -1074.9681    74255.723    -17275.16    1267.5257   -18542.686    95.823474    239.43052 
   30900    93.706004    -728.4933    74207.981     -17244.9    1266.9946   -18511.894    95.638896     239.3302 
   30950    96.271064   -490.59546    74236.323   -17216.024    1301.6767   -18517.701     96.02812     245.8815 
   31000    94.429516   -1058.4231     74245.05   -17272.271    1276.7772   -18549.048     96.09546    241.17809 
   31050    95.962817   -913.53922    74255.805   -17236.982    1297.5089    -18534.49    95.780446    245.09422 
   31100    94.348064   -844.67247    74310.787   -17237.679    1275.6759   -18513.355    95.933403    240.97006 
   31150    94.886942   -652.66582     74343.79   -17222.565     1282.962   -18505.527    96.244545    242.34638 
   31200    95.103358    -903.4946     74310.53   -17273.874    1285.8882   -18559.762    96.118782    242.89912 
   31250    90.889401   -916.54927    74319.793   -17285.915    1228.9114   -18514.826    96.386968    232.13644 
   31300     93.38817   -1050.3484    74241.704   -17286.459    1262.6972   -18549.156    96.412838    238.51843 
   31350    96.001632   -966.86749    74243.533    -17277.32    1298.0337   -18575.354    96.585837    245.19336 
   31400    93.825593   -1088.8107    74212.143   -17294.276    1268.6116   -18562.888    96.553323    239.63564 
   31450    94.463894   -1049.9876     74155.19   -17265.885     1277.242   -18543.127    96.954968    241.26589 
   31500    94.941803    -671.9615    74137.149   -17245.028    1283.7038   -18528.732    97.036073     242.4865 
   31550     98.12149   -627.85676    74182.699   -17224.161    1326.6962   -18550.857    96.910566    250.60759 
   31600    98.861461   -797.57573     74219.37   -17208.665    1336.7013   -18545.367    96.950859    252.49751 
   31650     96.54979   -885.79103    74262.667   -17239.914    1305.4453    -18545.36    97.060624    246.59338 
   31700    97.215801   -1090.9305    74172.918   -17233.034    1314.4504   -18547.485    97.298461    248.29441 
   31750    93.797811   -984.08658    74160.257   -17252.701    1268.2359   -18520.937    97.590726    239.56468 
   31800    94.699018   -1010.9622    74121.603   -17257.822    1280.4211   -18538.243    97.909714    241.86641 
   31850    94.721874   -1256.1847    74000.016   -17238.452    1280.7301   -18519.182    97.870317    241.92479 
   31900    95.526529   -747.20069    74009.708   -17232.064    1291.6098   -18523.674    97.973592    243.97992 
   31950     94.71149   -1194.0236    73998.978   -17234.378    1280.5897   -18514.968     98.31278    241.89826 
   32000    93.905816   -768.69988    73929.899   -17238.684    1269.6963    -18508.38    98.381297    239.84053 
   32050    94.669521   -921.12152     73892.65   -17251.547    1280.0223   -18531.569    98.725608    241.79107 
   32100    92.565425   -1332.3607    73867.154   -17274.565    1251.5729   -18526.138    99.117199     236.4171 
   32150     93.78699   -1012.4221    73788.315   -17250.609    1268.0896   -18518.699    99.175791    239.53704 
   32200    94.631441   -997.89097    73731.012   -17290.391    1279.5074   -18569.898    98.986689    241.69382 
   32250    91.601676   -823.60131    73758.429    -17282.97    1238.5421   -18521.513    98.964157    233.95563 
   32300    93.256205   -640.68146    73744.943    -17313.95    1260.9129   -18574.863    98.657729    238.18139 
   32350    95.103103   -916.51344    73763.796   -17318.082    1285.8847   -18603.966     99.22775    242.89847 
   32400    94.173012   -680.39936    73798.729   -17302.117     1273.309   -18575.426    99.315732    240.52296 
   32450     90.22389   -907.18592    73829.148    -17338.96    1219.9131   -18558.873    99.738322    230.43669 
   32500    92.434681    -714.5118    73844.687    -17330.22    1249.8051   -18580.026    99.983066    236.08317 
   32550    94.224701   -1123.3817     73897.05   -17339.503    1274.0079   -18613.511    100.26573    240.65498 
   32600    91.946146   -912.61341    73882.009   -17339.908    1243.1996   -18583.108    100.64605    234.83543 
   32650    92.574354   -798.16797    73887.819   -17299.924    1251.6936   -18551.618    100.95658     236.4399 
   32700    95.214764   -687.77918    73894.385    -17262.72    1287.3945   -18550.114    100.94399    243.18366 
   32750    96.615124   -564.88632    73911.749   -17279.628    1306.3287   -18585.957    101.18117    246.76025 
   32800    91.060201    -677.9491    73947.732   -17292.906    1231.2208   -18524.126    101.26101    232.57267 
   32850    93.413684   -1208.9839    74011.085   -17288.974    1263.0422   -18552.016     101.4329     238.5836 
   32900    92.379306   -1075.9648    74061.205   -17279.781    1249.0564   -18528.838    101.37929    235.94174 
   32950    93.940379    -969.0108    74045.409   -17295.951    1270.1636   -18566.115    101.37422    239.92881 
   33000    91.865455   -890.86961    74080.104   -17275.944    1242.1086   -18518.053    101.49777    234.62934 
   33050    89.388128   -793.85264    74079.838   -17305.904    1208.6128   -18514.516    101.56117    228.30211 
   33100    92.064067   -1069.6101     74080.32   -17316.497    1244.7941   -18561.291     101.6601     235.1366 
   33150    94.101347   -1057.5885    74066.656   -17317.008      1272.34   -18589.348    101.88008    240.33993 
   33200    90.582565   -1110.2309     74083.19   -17332.302    1224.7627   -18557.065     102.2574    231.35277 
   33250    93.219728   -1153.4876    74068.541   -17307.804    1260.4197   -18568.224    102.75624    238.08822 
   33300    95.421766   -911.33626    74054.804   -17289.155    1290.1933   -18579.348    102.90747    243.71235 
   33350    96.512854   -1133.2428    74033.098   -17273.443    1304.9459   -18578.389    102.97081    246.49905 
   33400     94.45608   -1066.5885    74067.256   -17282.494    1277.1364    -18559.63    103.07781    241.24593 
   33450    94.864848   -873.88997    74077.929   -17288.859    1282.6633   -18571.522    103.09786    242.28995 
   33500    95.344457   -1249.2059    74055.886   -17279.916    1289.1481   -18569.064    103.59805     243.5149 
   33550    96.944556   -887.02751    74059.093   -17249.004    1310.7829   -18559.787    104.27055    247.60164 
   33600    95.465993   -547.02572    74088.823   -17215.882    1290.7913   -18506.673    104.44409    243.82531 
   33650    97.150984   -740.22151    74081.714   -17197.935     1313.574   -18511.509    104.36447    248.12886 
   33700    93.069216   -941.91089    74102.198    -17201.17    1258.3846   -18459.555    104.47785    237.70381 
   33750    96.881096   -707.47064    74158.861    -17183.02    1309.9249   -18492.945     104.7684    247.43956 
   33800    94.441612   -918.09641    74198.557   -17203.285    1276.9407   -18480.225     104.7009    241.20898 
   33850    98.118246   -666.32925    74224.862   -17209.056    1326.6523   -18535.709    105.05687     250.5993 
   33900    95.459556   -1113.9889    74249.123   -17228.063    1290.7043   -18518.767    105.52438    243.80887 
   33950    94.404135   -792.24438    74215.626   -17279.502     1276.434   -18555.936    105.37405    241.11326 
[...]
   92000    93.132567   -975.37655    74025.242   -17256.185    1259.2412   -18515.426    244.07826    237.86561 
   92050    93.045308    -988.3151    73964.333   -17266.005    1258.0614   -18524.067    244.34523    237.64275 
   92100    94.502752   -950.49172    73977.626   -17246.277    1277.7674   -18524.044    243.95643    241.36514 
   92150    93.260044   -626.36221    74051.025   -17232.217    1260.9648   -18493.181    244.18547    238.19119 
   92200    94.172059   -565.46501    74151.993   -17244.539    1273.2961   -18517.836     244.3866    240.52053 
   92250    94.891823   -866.89143     74135.22   -17260.791     1283.028   -18543.819    244.40047    242.35885 
   92300    95.975092   -671.34633    74189.063   -17237.046    1297.6748   -18534.721     244.6359    245.12557 
   92350    95.857417   -1042.0618    74217.062   -17217.718    1296.0838   -18513.802    244.46118    244.82503 
   92400     93.54997   -693.66285    74218.918   -17237.423    1264.8849   -18502.308    245.35356    238.93168 
   92450    93.916723   -1048.0195    74244.273   -17239.628    1269.8437   -18509.472    245.65928    239.86839 
   92500    97.082607    -821.2181    74273.448   -17241.971    1312.6495   -18554.621    246.12004    247.95423 
   92550    97.925204   -981.69167    74283.247   -17253.542    1324.0422   -18577.584    246.45596    250.10626 
   92600    95.881587   -1020.8441    74274.605   -17256.468    1296.4106   -18552.879    246.48993    244.88676 
   92650     92.35066   -929.97737    74249.004   -17274.985    1248.6691   -18523.654    246.26357    235.86858 
   92700    94.633132   -906.94873    74237.106   -17267.928    1279.5303   -18547.459    246.09839    241.69814 
   92750    94.216129   -1025.9948     74182.98    -17281.46     1273.892   -18555.352    246.11847    240.63309 
   92800    91.740282   -985.65059    74134.591    -17293.36    1240.4162   -18533.776    245.90082    234.30964 
   92850     93.27296   -1034.6926    74106.246   -17301.122    1261.1394   -18562.261    245.68045    238.22418 
   92900    94.299558    -1253.931     74054.23   -17284.123      1275.02   -18559.143    245.68029    240.84617 
   92950    93.012757   -1102.7419    73999.122   -17307.796    1257.6212   -18565.417    245.53743    237.55961 
   93000    91.269753   -923.38383    74017.069   -17350.843    1234.0542   -18584.897    245.56196    233.10788 
   93050    91.605936    -783.9278    74036.065   -17358.698    1238.5997   -18597.297    246.13017    233.96651 
   93100    88.871559   -1277.1147     74149.14   -17356.094    1201.6283   -18557.722    246.56697    226.98277 
   93150    91.189785   -1029.2552    74169.467   -17306.385    1232.9729   -18539.358    246.66548    232.90364 
   93200    94.006992   -973.52202    74109.016   -17254.118    1271.0642   -18525.182    247.06451    240.09894 
   93250    93.402931   -1036.3347    74082.357   -17257.522    1262.8968   -18520.419    247.06422    238.55613 
   93300    94.468687   -869.47275    73997.102   -17273.542    1277.3068   -18550.849    246.80836    241.27813 
   93350    92.870647   -858.52154    73942.334   -17276.456    1255.6998   -18532.156    246.70607    237.19665 
   93400    92.421764   -851.71479     73929.93   -17289.805    1249.6305   -18539.436    246.81314    236.05018 
   93450    92.879168    -895.6537    73901.942   -17296.404     1255.815   -18552.219    247.05361    237.21842 
   93500    93.736707   -939.77824    73876.863   -17307.943    1267.4097   -18575.353    247.26402    239.40862 
   93550    94.822027   -593.72996    73824.404   -17273.624    1282.0843   -18555.708    247.59509    242.18058 
   93600    93.748957   -696.38765    73794.713   -17295.551    1267.5754   -18563.127    247.75894     239.4399 
   93650    96.627648   -622.85488    73830.051   -17287.882     1306.498    -18594.38    247.62054    246.79224 
   93700    94.192438   -314.33371    73830.401   -17324.659    1273.5717   -18598.231     247.9418    240.57258 
   93750    89.834209    -728.4933    73845.276    -17333.78    1214.6442   -18548.424    248.24647    229.44143 
   93800    92.314179   -511.59956    73908.787   -17310.707    1248.1758   -18558.883    247.66044     235.7754 
   93850    95.248784   -604.70832    73962.278    -17294.72    1287.8545   -18582.575    248.11611    243.27054 
   93900    92.668854   -807.60767    73967.812   -17311.963    1252.9713   -18564.934    248.24519    236.68126 
   93950    95.301843   -668.45807     73995.65   -17295.872    1288.5719   -18584.444    248.90277    243.40606 
   94000    93.472442   -1077.3381    73943.454    -17316.36    1263.8366   -18580.197    249.15717    238.73367 
   94050    95.185538    -581.3887    74002.611   -17317.458    1286.9993   -18604.457    248.60914    243.10901 
   94100    95.036667   -708.92125    74067.742   -17303.207    1284.9864   -18588.193    249.28684    242.72879 
   94150    94.903617     -600.137    74061.842   -17298.726    1283.1875   -18581.914    249.21685    242.38897 
   94200    95.082235    -644.7951    74100.782    -17262.29    1285.6026   -18547.893    249.26726    242.84517 
   94250    91.317466   -997.87596    74118.783   -17336.412    1234.6993   -18571.111    249.69877    233.22975 
   94300    92.291283     -791.285    74108.272   -17291.293    1247.8662    -18539.16    249.74638    235.71693 
   94350    95.982014   -864.08153    74116.308   -17271.787    1297.7684   -18569.556    249.24489    245.14325 
   94400    95.681694   -806.68528    74113.349   -17249.375    1293.7078   -18543.083    249.90373    244.37622 
   94450    94.783615   -698.40564    74136.145   -17252.404    1281.5649   -18533.969    250.64055    242.08248 
   94500    95.757414   -491.79591    74198.782   -17270.897    1294.7316   -18565.629    250.30855    244.56961 
   94550    95.551456   -731.90276    74230.007   -17263.083    1291.9469   -18555.029    250.03418    244.04358 
   94600     93.20316   -760.02369    74209.631   -17295.675    1260.1957   -18555.871    249.35637    238.04591 
   94650     93.72555   -843.07464    74162.165   -17305.259    1267.2589   -18572.518    249.36159    239.38012 
   94700    94.225512   -642.78224    74137.401    -17305.12    1274.0189   -18579.139    249.75808    240.65705 
   94750    92.344649   -1148.4238    74146.327    -17333.96    1248.5878   -18582.547    249.74914    235.85322 
   94800    91.402478   -938.40286    74121.505    -17343.18    1235.8487   -18579.029    249.89328    233.44687 
   94850    91.314615   -909.10983    74124.626   -17334.798    1234.6607   -18569.459     250.6267    233.22246 
   94900     93.49076   -715.57444    74142.296   -17281.666    1264.0843   -18545.751    250.60379    238.78046 
   94950    93.684602   -760.45371    74193.509   -17276.591    1266.7052   -18543.296    250.31984    239.27554 
   95000    95.142854   -1332.7201    74203.037   -17298.767    1286.4222   -18585.189    250.25528    242.99999 
   95050    92.830962   -935.43111    74130.699   -17285.747    1255.1632    -18540.91    250.20576    237.09529 
   95100     94.92023   -1027.6781    74138.176   -17263.847    1283.4121   -18547.259    250.47692     242.4314 
   95150    94.898842   -674.16972    74108.368   -17269.401    1283.1229   -18552.524    250.72828    242.37677 
   95200    94.041228   -956.88257    74124.977   -17310.928    1271.5272   -18582.455    251.62864    240.18638 
   95250    91.425472   -639.94221    74120.321   -17343.238    1236.1596   -18579.398    251.21341     233.5056 
   95300    92.588591   -628.43278    74146.132   -17352.945    1251.8861   -18604.831    250.92668    236.47627 
   95350    94.264032   -810.02357    74140.123   -17350.839    1274.5397   -18625.378    250.72753    240.75543 
   95400    90.995897   -1114.2831    74100.674   -17360.029    1230.3514    -18590.38    251.09875    232.40844 
   95450     92.02336   -717.40774    74084.742   -17378.724    1244.2437   -18622.968     251.1418    235.03264 
   95500    91.277812   -610.98443    74056.004   -17378.119    1234.1631   -18612.282    250.98579    233.12847 
   95550    92.315315    -948.4158    74046.092   -17337.488    1248.1912    -18585.68    251.11124    235.77831 
   95600    93.832113   -725.05823    74077.676   -17294.361    1268.6997   -18563.061    251.73886    239.65229 
   95650    96.966566   -885.77407    74127.017    -17313.23    1311.0805   -18624.311    251.50173    247.65785 
   95700    93.480707   -1053.5699    74089.932   -17312.901    1263.9484   -18576.849    251.20291    238.75478 
   95750    94.731915   -1321.5798    74038.862   -17306.862    1280.8659   -18587.727    251.10326    241.95043 
   95800    91.785637   -815.44725    74038.541   -17337.085    1241.0294   -18578.114    251.13832    234.42548 
   95850    93.063756   -958.22384    74049.049   -17344.852    1258.3108   -18603.163    250.87507    237.68986 
   95900    94.429314   -1116.9877    74021.475   -17298.906    1276.7744    -18575.68    251.25992    241.17757 
   95950    95.786184   -676.27294    74060.749   -17275.071    1295.1206   -18570.192    251.32031    244.64309 
   96000    93.790626   -621.32984    74165.554    -17270.95    1268.1388   -18539.089    251.92789    239.54633 
   96050    95.942279   -576.92232    74260.649   -17305.449    1297.2312    -18602.68    252.14733    245.04177 
   96100    94.006204   -1302.8917    74292.938   -17324.529    1271.0536   -18595.582     251.9278    240.09693 
   96150     92.54244   -972.45258    74221.383   -17315.685    1251.2621   -18566.947     251.6289    236.35839 
   96200    92.578642     -913.523    74216.936   -17307.234    1251.7516   -18558.985    251.63364    236.45086 
   96250    89.804163   -925.41766    74248.919   -17354.974     1214.238   -18569.212    251.76013    229.36469 
   96300    93.629624   -1078.5464    74182.715   -17369.817    1265.9619   -18635.779    252.09682    239.13512 
   96350    91.195727   -849.56533    74133.158   -17363.427    1233.0533    -18596.48    252.13695    232.91882 
   96400    91.676332   -1080.2531    74130.208   -17389.109    1239.5515    -18628.66    252.30805    234.14631 
   96450    93.656398   -829.66545    74175.099   -17389.913    1266.3239   -18656.237    251.82742     239.2035 
   96500    93.098159   -753.05822    74288.438   -17361.644     1258.776    -18620.42       252.12    237.77773 
   96550    91.795635   -967.60642    74325.828   -17371.229    1241.1646   -18612.394     252.0525    234.45101 
   96600    90.441657   -1299.9269    74337.906   -17368.429    1222.8575   -18591.287    252.07996    230.99288 
   96650    90.772557   -1150.4878    74328.271   -17311.222    1227.3316   -18538.554     252.0848    231.83802 
   96700    91.928522   -776.80436    74331.721   -17335.831    1242.9614   -18578.793    252.25386    234.79042 
   96750    90.312762   -1060.4328     74348.31   -17347.038    1221.1147   -18568.153    252.32414    230.66368 
   96800    91.883984   -956.88745    74346.993    -17331.16    1242.3592   -18573.519    252.05105    234.67666 
   96850    92.546911   -689.89696    74291.741   -17352.379    1251.3226   -18603.701    252.08425    236.36981 
   96900    93.442262   -1118.5841    74252.478    -17330.95    1263.4286   -18594.379    252.05411    238.65659 
   96950     89.41043   -1070.8252    74216.187   -17327.928    1208.9144   -18536.842    252.05692    228.35907 
   97000    93.528549   -849.36293    74191.092    -17316.03    1264.5952   -18580.626    252.01423    238.87697 
   97050    96.063671   -1193.1211     74186.61   -17313.372    1298.8725   -18612.245    252.66555    245.35181 
   97100    93.292587   -729.14102    74233.443   -17326.622    1261.4048   -18588.027    252.58756    238.27431 
   97150    92.262418   -694.59339    74303.971   -17339.955    1247.4759   -18587.431    253.04899     235.6432 
   97200    91.167474   -1076.2632    74341.132   -17349.182    1232.6713   -18581.853    253.03232    232.84666 
   97250    93.197252   -791.42884    74374.262   -17361.826    1260.1158   -18621.941    252.91538    238.03082 
   97300    89.296155   -1070.4262    74397.922   -17400.902    1207.3692   -18608.272    253.44643    228.06721 
   97350    92.682926   -1095.2859     74410.22   -17386.855    1253.1616   -18640.016    253.75731     236.7172 
   97400    90.069172   -846.67126    74410.907   -17376.416    1217.8212   -18594.237    253.24381    230.04153 
   97450    92.581206   -624.78103    74456.515   -17354.081    1251.7863   -18605.867    253.11882     236.4574 
   97500     91.89134   -869.86306    74477.711   -17347.204    1242.4586   -18589.663    252.96883    234.69545 
   97550    94.641578   -1021.8179    74424.428   -17349.295    1279.6445    -18628.94    252.92574    241.71971 
   97600    91.839037   -1036.4209    74374.277   -17343.305    1241.7514   -18585.056    253.26117    234.56187 
   97650    94.348158   -866.05494    74370.885   -17328.767    1275.6771   -18604.445     252.8842     240.9703 
   97700    91.191081   -1004.6463    74381.389   -17366.906    1232.9904   -18599.896    253.49208    232.90695 
   97750    91.895089   -854.17993     74400.58   -17327.081    1242.5093    -18569.59    253.31197    234.70502 
   97800    92.159823   -816.32789    74469.533   -17319.196    1246.0888   -18565.284    253.76312    235.38117 
   97850     91.60866   -782.55969    74448.393   -17324.029    1238.6365   -18562.665    253.44855    233.97347 
   97900    95.117116   -1188.1243    74436.505   -17277.805    1286.0742   -18563.879    253.57068    242.93426 
   97950      96.0873   -1085.1962     74473.87   -17241.772     1299.192   -18540.964    253.60997    245.41216 
   98000    95.560274   -810.25325     74513.98   -17270.809    1292.0661   -18562.875    253.61828     244.0661 
   98050    93.993929   -782.01662     74491.19   -17251.959    1270.8876   -18522.846    253.39029    240.06557 
   98100    94.715497   -754.00214    74531.628   -17270.896    1280.6439    -18551.54     252.6292     241.9085 
   98150    91.693669   -1200.9317    74533.303   -17303.234    1239.7859    -18543.02    252.48186    234.19059 
   98200    93.914082   -1153.3954    74511.767   -17288.312     1269.808    -18558.12    252.72903    239.86164 
   98250    92.518263   -833.80918    74523.817   -17260.396    1250.9352   -18511.331     252.6695    236.29664 
   98300    94.800687   -1243.1324    74516.251   -17246.183    1281.7958   -18527.979    253.05799    242.12608 
   98350    91.362831   -940.75038    74444.777   -17287.937    1235.3127   -18523.249      253.217    233.34561 
   98400    91.660077   -1151.7243    74486.657   -17271.247    1239.3317   -18510.579    253.33541    234.10479 
   98450     96.21595   -1038.6568    74467.668   -17274.238    1300.9315    -18575.17    253.39347    245.74074 
   98500     94.01753   -990.26841    74498.215   -17247.537    1271.2067   -18518.744    253.25892    240.12585 
   98550     95.35924   -976.38259    74462.123   -17231.206    1289.3479   -18520.554    253.19619    243.55265 
   98600    97.231794   -797.51466     74410.34   -17205.728    1314.6667   -18520.394    253.21932    248.33526 
   98650     95.17206   -855.90036    74387.871   -17222.578    1286.8171   -18509.395    253.19774    243.07459 
   98700    93.871534   -907.87685    74382.567   -17244.627    1269.2327   -18513.859    253.18117    239.75297 
   98750    92.514821   -1157.6514    74363.235   -17217.083    1250.8887   -18467.972    253.54982    236.28785 
   98800      97.2735    -1037.819     74300.14   -17216.445    1315.2306   -18531.675    253.69695    248.44178 
   98850    92.383764   -972.71297    74290.766   -17256.714    1249.1167    -18505.83    254.01516    235.95313 
   98900    93.380278   -708.08211    74277.708   -17234.583    1262.5905   -18497.173    254.22614    238.49828 
   98950    94.157834   -1132.8467    74320.163   -17226.848    1273.1038   -18499.952     254.0493     240.4842 
   99000    94.899383    -862.0547    74246.241   -17211.316    1283.1302   -18494.447    254.36266    242.37815 
   99050    92.758983   -793.60177    74263.735   -17231.526      1254.19   -18485.716    255.04011    236.91146 
   99100    95.419104   -749.99221    74243.532   -17198.143    1290.1574     -18488.3    255.07335    243.70555 
   99150    95.112863   -1035.6868    74258.631   -17205.316    1286.0167   -18491.332    255.11797    242.92339 
   99200    94.246959   -1178.6091    74206.439   -17212.143    1274.3088   -18486.452    255.01114    240.71183 
   99250    94.397806   -796.60143    74166.181   -17230.562    1276.3484   -18506.911    255.20988     241.0971 
   99300    94.849848   -967.85249    74159.737   -17247.948    1282.4605   -18530.408    255.39643    242.25164 
   99350    93.356579   -852.06619    74131.398   -17253.418      1262.27   -18515.688    255.43102    238.43775 
   99400    93.319166   -1151.1799    74025.234   -17294.741    1261.7642   -18556.505    255.06741    238.34219 
   99450    93.980428   -968.65907    73997.059   -17279.935    1270.7051    -18550.64    255.81876    240.03109 
   99500    94.263608   -875.02082    73968.526   -17247.948    1274.5339   -18522.482    255.83673    240.75435 
   99550    92.968416   -756.29179    73930.571   -17259.685    1257.0217   -18516.706    256.16813    237.44636 
   99600    91.236139   -1084.9349    73910.972   -17256.141    1233.5997   -18489.741    256.26681    233.02203 
   99650    95.365622   -925.32311    73883.375   -17241.255    1289.4342   -18530.689    256.14748    243.56895 
   99700    92.220064   -516.00698      73886.7   -17256.158    1246.9033   -18503.061    256.63936    235.53503 
   99750    94.139947   -757.32985    73953.715   -17248.048    1272.8619    -18520.91    256.93348    240.43851 
   99800    96.298462   -663.02668    73971.558   -17235.159    1302.0471   -18537.206    256.53309    245.95148 
   99850    95.976008   -1222.9783    73979.889   -17252.145    1297.6872   -18549.832    256.58703    245.12791 
   99900    93.107003   -981.81736    73938.363   -17273.602    1258.8955   -18532.497    257.09641    237.80032 
   99950    96.617788   -1052.1169     73971.49   -17299.343    1306.3647   -18605.707     257.1069    246.76705 
  100000    92.242696   -913.28782     73937.16    -17321.44    1247.2093   -18568.649    257.33371    235.59283 
Loop time of 61.3094 on 60 procs for 100000 steps with 4537 atoms

Performance: 704.622 ns/day, 0.034 hours/ns, 1631.070 timesteps/s
100.0% CPU use with 60 MPI tasks x no OpenMP threads

MPI task timing breakdown:
Section |  min time  |  avg time  |  max time  |%varavg| %total
---------------------------------------------------------------
Pair    | 25.6       | 32.197     | 38.762     |  75.6 | 52.52
Neigh   | 0.69372    | 1.5307     | 3.3681     |  90.9 |  2.50
Comm    | 14.89      | 20.789     | 26.854     |  91.6 | 33.91
Output  | 0.11496    | 0.11797    | 0.12988    |   0.5 |  0.19
Modify  | 4.1422     | 5.9272     | 7.4762     |  34.9 |  9.67
Other   |            | 0.7477     |            |       |  1.22

Nlocal:    75.6167 ave 151 max 38 min
Histogram: 40 0 0 0 0 0 0 0 8 12
Nghost:    789.383 ave 850 max 738 min
Histogram: 16 4 3 7 10 0 0 0 7 13
Neighs:    0 ave 0 max 0 min
Histogram: 60 0 0 0 0 0 0 0 0 0
FullNghs:  7732.97 ave 19694 max 1771 min
Histogram: 40 0 0 0 0 0 0 0 4 16

Total # of neighbors = 463978
Ave neighs/atom = 102.265
Neighbor list builds = 5629
Dangerous builds = 0

write_data		${DIR}/data.eq-${NAME}-${TEMP}
write_data		run_14/data.eq-${NAME}-${TEMP}
write_data		run_14/data.eq-het_freeze_14-${TEMP}
write_data		run_14/data.eq-het_freeze_14-240
undump          1

reset_timestep  0

unfix           2
unfix           3
unfix           4


################################################
#######         Run Simulation         #########
################################################

log				${DIR}/log.run_${NAME}
log				run_14/log.run_${NAME}
log				run_14/log.run_het_freeze_14
