LAMMPS data file via write_data, version 16 Mar 2018, timestep = 100000

6328 atoms
2 atom types

0.0000000000000000e+00 4.9219999999999999e+01 xlo xhi
0.0000000000000000e+00 4.9019635930410494e+01 ylo yhi
3.6890544040771793e+00 5.6372945595923895e+01 zlo zhi

Masses

1 18.015
2 12.01

Atoms # atomic

1982 1 3.1838430466571528e+00 1.1462021042557740e+00 8.7228409943660523e+00 2 1 0
1734 1 3.5496719851628700e+00 2.3580584189988558e+00 4.8614428406266850e+00 1 1 1
4661 1 1.1946815885300909e+01 1.2514197460878462e+01 6.8086882410905396e+00 1 1 0
4679 1 4.8988009335968341e+00 2.5326530925779314e+00 7.0942846911406772e+00 0 1 1
2030 1 9.5934989103099504e+00 1.0873416956417776e+01 4.6282258339627571e+00 0 1 1
3629 1 3.4970192093120014e+00 6.8559457162351487e+00 4.1911622004489484e+00 1 1 1
3408 1 1.2141690493832945e+01 8.1576320684298036e+00 1.2532031312290281e+01 0 -1 0
5247 1 3.9413805191064637e+00 5.5237030997676762e+00 6.6530953457799651e+00 1 0 0
3351 1 9.5372455543687384e-01 7.3812402320641421e+00 6.2322237980405495e+00 1 1 0
1774 1 4.3410933688852058e+00 1.4074780421795202e+01 1.3198275488996559e+01 -1 0 0
355 1 6.6744193640210874e+00 4.4736612863106879e+00 5.5152806855965570e+00 1 0 0
2902 1 9.2824468396977178e+00 1.0536474207745032e+00 7.7272496536729616e+00 2 0 1
327 1 1.2151825291099787e+01 3.0467927332753884e+00 4.2289886114634658e+00 0 0 0
3435 1 2.5660077222292741e+00 9.1092615061907320e+00 7.8694759981261706e+00 0 0 1
1335 1 8.8278514798911072e+00 1.4053282309686837e+01 1.3364307136927991e+01 0 0 1
453 1 9.7741594028845447e-01 1.1047860070381949e+01 5.4540671340118836e+00 0 1 1
4784 1 4.1918435209146487e+00 9.3877004283124172e+00 5.0039464358063155e+00 1 1 0
3031 1 9.2061993432220159e+00 1.6064467326766474e+00 1.3857883647572368e+01 0 1 1
1615 1 5.4419853538145935e-01 1.5814010581536669e+01 6.2569815890493246e+00 0 0 0
5097 1 6.1329491229663775e+00 1.6124530675339474e-01 1.0964976321463343e+01 1 1 0
5199 1 4.1315021105757399e+00 1.3863122148622180e+01 4.9684342327865760e+00 1 0 0
506 1 1.0671444122519343e+01 7.0965106763446446e+00 1.0302060234256952e+01 -1 2 0
1406 1 1.8096588250204253e+00 1.1634648524463449e+01 1.4136279240631412e+01 1 1 1
5150 1 7.2145991734915134e+00 1.2316870252602879e+01 5.4719992298042648e+00 1 0 1
6229 1 8.3371607818522921e+00 1.5079779001316995e+01 5.2321093915428261e+00 -1 0 1
3628 1 1.0484928222772741e+01 1.4819478504847353e+01 7.2278142810111543e+00 0 1 0
2114 1 1.0779796343943577e+00 1.3761491505635824e+01 8.1042648037818736e+00 0 0 1
1705 1 6.9742134194212353e+00 2.0306107831706250e+00 9.0143777868278683e+00 1 0 0
308 1 1.5643745626684995e+00 5.1704972421568094e+00 8.0342639708963866e+00 0 0 1
271 1 4.2016726343022986e-01 6.0104104465926396e+00 1.3560761332310335e+01 0 0 0
5177 1 4.4624478329156307e+00 1.4733981779921351e+01 1.0606485708984216e+01 0 -1 0
178 1 2.4233330380786229e+00 3.4746038067602050e+00 1.0315856250052359e+01 0 1 0
5178 1 1.0077524017111839e+01 1.4154488469412129e+01 1.0819818219501981e+01 0 1 0
4532 1 4.9561662042591825e+00 7.3066329273575610e+00 8.5471223840774719e+00 0 0 1
69 1 7.0013643183663534e+00 4.8903952677410381e+00 9.3154438273016815e+00 1 2 0
6074 1 1.1488011042017208e+00 1.3866215168813181e+01 4.4419356050644732e+00 -1 0 1
6210 1 1.8748916165881577e+00 1.2003932909218696e+01 1.1362936716042801e+01 1 0 0
5242 1 6.6977489278320963e+00 7.5025479552979029e+00 5.6460485068542319e+00 1 1 0
4740 1 7.0944696277625976e+00 1.2275263894292999e+01 8.2478410521296830e+00 1 0 0
1794 1 4.5826339465962755e+00 1.1920405622004598e+01 9.5243415064875663e+00 1 0 1
1404 1 6.3716112763821826e+00 1.0088254332394971e+01 1.0849479095833544e+01 2 0 0
6042 1 9.9710533716769199e+00 9.5346773033537957e+00 8.9028348339895675e+00 0 1 1
6312 1 7.2500377599811916e+00 9.2880272892155276e+00 8.1085886973454517e+00 0 0 1
4850 1 3.0536428481725677e+00 1.2070220841976404e+01 7.0161785324035852e+00 0 -1 1
4773 1 1.1697452339924881e+01 1.2542467115727023e+01 4.0488997852511703e+00 1 0 1
4511 1 8.9200853444073545e+00 5.9732484664631178e+00 7.4477574989498763e+00 0 0 1
4507 1 8.2385480692342838e+00 1.4695121001237128e+01 8.8778058476545283e+00 0 1 1
3322 1 9.6260793175991104e+00 3.5616548853715662e+00 6.3022753633386497e+00 1 1 0
432 1 1.0135364737848169e+00 3.0363178779693554e+00 1.2891641345224794e+01 0 1 0
70 1 8.1405134896863041e-01 2.6124145888938832e+00 7.4668975101328545e+00 1 0 1
4712 1 6.4299317519541148e+00 1.4649441457182657e+00 1.3189909659007055e+01 1 1 1
1351 1 1.0828410243912927e+01 4.8502327826043456e-01 1.0055983739710104e+01 -1 0 0
6266 1 1.0657414666402870e+01 2.5285982744581168e+00 1.1985369895554161e+01 0 0 1
1837 1 4.4765642492677005e+00 5.3397633622408822e+00 1.1391394882255465e+01 1 1 0
5256 1 5.6089610350765184e+00 4.0137799264785654e+00 1.3376862993027320e+01 1 0 1
3592 1 9.0549194666855630e+00 4.8830880228521538e+00 1.1144416998181583e+01 0 0 0
3073 1 1.2755073620613055e+00 9.5365608879224233e+00 1.0369513089752605e+01 0 0 1
3190 1 1.1375468971311728e+01 6.6513511565247285e-01 5.4113702363405487e+00 0 0 0
4839 1 5.0502872808087993e+00 8.1641607230129054e+00 1.2371508733127220e+01 1 0 1
5114 1 8.2062293330489080e+00 1.1334315590903490e+01 1.2556269279559986e+01 1 -1 1
520 1 1.0537054119196467e+01 1.1399733589246084e+01 1.0754121651747013e+01 1 2 1
1621 1 7.9718878739815864e+00 5.3133595712988715e+00 1.3660157827142491e+01 -1 0 0
5104 1 2.2293951169411281e+00 1.5535653664719773e-01 1.3042846292159915e+01 0 1 0
3367 1 2.1421321114749925e+00 7.4280612602235285e+00 1.1722894514850754e+01 1 0 0
6151 1 6.1071286988111551e-01 2.1706181947938954e+00 4.5313225167552780e+00 0 0 1
5014 1 2.1478534851897910e+00 1.5737526919388424e+01 1.0015045946679152e+01 1 0 0
1315 1 1.1331992436107283e+01 8.1868132691550350e+00 4.3814064514983144e+00 0 0 1
6150 1 2.1943352695504287e-01 1.4466834803833814e+01 1.1442044910791287e+01 0 0 0
1940 1 1.1797559813297800e+01 9.7202169749741358e+00 6.5728017603495097e+00 0 0 0
2931 1 1.1859127507912225e+01 5.5329962700309636e+00 5.9431591111301980e+00 1 1 1
5067 1 8.5777626951112644e+00 8.0676388788733355e+00 3.8956254291823971e+00 0 1 0
3230 1 5.1919533980937311e+00 1.6221173355575459e+01 5.5914768869544647e+00 1 0 0
2839 1 4.0196539830550488e+00 1.0220345149211566e+01 1.4189223522456931e+01 0 0 1
4474 1 1.2182534923176737e+01 4.1422295544023191e+00 1.4082901763183584e+01 1 0 1
3619 1 1.0197917164937820e+01 9.0223243058086648e+00 1.4214425479615201e+01 1 0 1
1264 1 5.1523217078086025e+00 1.1653115679888261e+01 3.6933890181488209e+00 0 0 1
4704 1 8.5201995175466134e+00 1.5873075457631090e+01 1.8821367848655946e+01 1 0 1
55 1 1.1703373758220470e+01 8.2176247472621142e+00 1.6351791647366078e+01 0 1 1
1667 1 9.8291739326214822e-01 1.0782683768198099e+01 2.4017757407458312e+01 0 1 0
2014 1 6.8271286764077477e+00 9.5329873147011945e-01 1.8271723456127841e+01 0 0 0
3068 1 9.5138399814319925e+00 1.4958591364694733e+00 1.6748938451147044e+01 0 -1 1
3610 1 6.0632883396170261e+00 1.1930716146466205e+01 1.4263828732331687e+01 -1 0 0
337 1 9.9985303004923125e+00 4.6595633882947514e+00 2.4260436293703869e+01 -1 0 0
4716 1 4.2863611746997723e+00 9.1983918747414481e+00 1.6808945694172252e+01 0 0 1
1558 1 6.1086433314505060e+00 8.1630212675617175e-01 2.1345428427105006e+01 0 1 0
285 1 6.3245452655680392e+00 7.4356341002161406e+00 1.6676690682755648e+01 -1 -1 0
3604 1 4.0793197552395117e+00 3.8660294337494694e+00 1.5445534840042974e+01 1 1 1
4796 1 1.0406738223521627e+01 9.4022419997353150e+00 1.8297340129243636e+01 0 0 1
4780 1 9.8555732798072277e+00 4.3783816947728091e+00 1.5392724625647032e+01 0 0 1
1486 1 6.6594245841929816e+00 1.0694562270045770e+01 2.3926090800869137e+01 0 0 1
3089 1 6.5891801289295833e+00 1.5472723404819707e+01 1.4366356806795304e+01 2 0 1
1638 1 5.8903012616389860e+00 3.8354333002126895e+00 2.3953346611015210e+01 1 0 0
278 1 1.0599001708209114e+01 1.1923789103893800e+01 1.4934636746846003e+01 0 0 0
1757 1 8.9745609171175484e+00 1.3010362864471173e+01 2.3883787461330158e+01 0 1 0
2850 1 9.2986101583026137e+00 1.1669391820086632e+01 1.7320773901925421e+01 0 1 0
6264 1 4.3644562878719686e+00 1.2528478164053605e+00 1.6762884479077165e+01 0 0 1
310 1 2.6782011401639028e+00 1.2564223801712384e+01 1.8638233389396056e+01 0 1 1
4479 1 1.4041831605270436e+00 1.3558946161812932e+01 1.6282614665638121e+01 1 0 1
1983 1 6.0685283936431587e+00 1.5678127466374129e+01 1.7177819547454234e+01 0 -1 1
5011 1 1.0906051549664303e+01 1.5539664787461369e+01 1.4613928435259968e+01 1 -1 1
2067 1 6.2919923837106206e-01 1.1962372843916222e+01 2.0653037885686871e+01 2 1 1
1936 1 1.5171540264076329e+00 3.5744734627678363e+00 1.8589391096459636e+01 1 0 0
4983 1 1.1896711761781701e+01 1.2862283865212744e+01 2.1356094026364747e+01 1 0 0
5960 1 1.9641158900413871e+00 9.6926501172059183e+00 2.1371371062546842e+01 0 0 1
1848 1 2.3766693572224380e+00 6.8507252476787373e-01 1.8407635034534824e+01 1 1 0
3111 1 7.6400147021782114e+00 3.4042890617798527e+00 1.8125065219365673e+01 0 0 1
3002 1 5.3114643681784788e+00 5.0947838358422457e+00 1.7686341527393267e+01 1 0 0
3473 1 8.6460052258008577e+00 2.7727940036002416e+00 2.0932634386621871e+01 1 0 0
3335 1 8.2348189832801069e+00 1.5814138466515942e+01 2.4072298147557671e+01 0 -1 0
6141 1 3.9908707824913474e+00 5.2758743411268361e+00 2.0215952118406442e+01 2 0 1
180 1 1.0056620628478424e+01 5.2422888937041581e+00 1.8168812148243404e+01 0 0 0
1504 1 8.3269122009593133e+00 7.3749240937335845e+00 1.8638769536243302e+01 0 1 0
326 1 9.9707513717738170e+00 6.8140652079440338e+00 2.2235579075623800e+01 1 0 1
302 1 1.8453870455139108e+00 8.0593756336550531e+00 1.7137282573054961e+01 0 0 0
395 1 5.0354406997247070e+00 1.1117375497263941e+01 1.8688460944224524e+01 1 0 0
116 1 2.0393108744835780e+00 1.4305272633500561e+01 2.1695426898123699e+01 1 1 1
3558 1 1.0161559085397027e+01 1.3509389981735287e+01 1.9342164127326132e+01 1 0 0
4432 1 8.4873757945905091e+00 8.3880761403126236e+00 2.4441132859207350e+01 0 0 1
3530 1 4.0300917077770206e+00 1.5079230893752875e+01 1.9175867046028195e+01 0 0 0
1823 1 6.4880902131093414e+00 1.2826558970124767e+01 1.6927058169631142e+01 0 0 0
362 1 1.0508484969806517e+01 3.5181060980669132e-01 2.4004047668443814e+01 0 -1 0
1334 1 7.7881373419092039e+00 1.2955028635463554e+01 2.1235519643400377e+01 0 0 0
331 1 1.9025143223288086e+00 3.2156594177315649e+00 2.1842240162680895e+01 0 1 0
1663 1 2.9271486945283320e+00 3.4984472355381744e+00 2.4301230384681340e+01 2 -1 0
1634 1 3.3748469266443299e+00 4.2956529545714400e-01 2.1312710681667834e+01 0 1 0
223 1 2.5562885866308038e+00 3.9846630738743966e-01 2.4337635958400725e+01 1 0 1
3056 1 1.2147557194051872e+01 8.8673112270275445e-01 1.8360532341241928e+01 -1 0 1
3679 1 5.3752576504505925e+00 1.5340338893381421e+01 2.4036940060765861e+01 1 1 0
1550 1 1.2258496191602056e+01 9.2465818845223247e+00 2.0582540744567552e+01 1 -2 1
1628 1 8.4780963138594192e+00 2.5799800643472515e+00 2.3727820291893689e+01 0 1 0
4413 1 1.0776505585217686e+01 4.5679595984083319e+00 2.0745904038721012e+01 1 0 1
1864 1 6.2255702776796671e+00 4.5911134084230847e+00 2.1370473068940225e+01 2 1 0
1514 1 7.3668149610852867e+00 7.1680420334194421e+00 2.1342868079673337e+01 1 2 1
5162 1 6.1429991721371584e+00 6.6152634410592848e+00 2.4421328872360615e+01 0 0 0
3625 1 8.6122123147096119e-01 7.9101701966411699e+00 1.9724382890216233e+01 1 0 1
4890 1 5.3871839624013633e+00 1.4550842978276112e+01 2.1447659401256420e+01 1 0 0
4593 1 8.9893359626199820e-02 5.3882856428614128e+00 2.0891582500276058e+01 0 2 1
4845 1 2.3444316031850123e+00 6.3487213365990653e+00 2.4492492749622791e+01 1 0 1
5180 1 1.1797169549845337e+01 1.4765182634356952e+01 1.7222751753751936e+01 1 -1 1
4456 1 1.2182576994561581e+01 2.2610602629792096e+00 2.1497216832105710e+01 1 1 0
5031 1 4.1980102211851333e+00 1.1787284780978394e+01 2.1682715893262312e+01 1 1 0
1957 1 4.1823070292673057e+00 7.2140657717231855e+00 2.2435004469297258e+01 2 1 0
3025 1 6.6574294766210356e+00 1.0166373028311211e+01 2.0949751654170630e+01 0 0 1
1725 1 5.3346503516001178e+00 9.2247445032616071e-01 2.4338784967328696e+01 2 2 0
5053 1 1.1480929547388843e+01 1.2043032975519226e+01 2.4011412068642510e+01 1 1 0
6241 1 1.5051154884523250e+00 5.2233642122645163e+00 1.6313486024571347e+01 1 1 0
3448 1 4.4755067828002524e+00 1.2822531741002667e+01 2.4622698485875354e+01 1 1 0
2963 1 1.1464390239240311e+01 9.5991000092918171e+00 2.3292610726413233e+01 -1 0 1
6248 1 2.3135314097994981e+00 1.5524606455133808e+01 1.4793350030986945e+01 0 0 2
2075 1 1.7441683801652965e+00 1.3447076426535363e+01 2.4255791884578688e+01 1 1 1
1851 1 4.1160491022247916e+00 9.7242367091204258e+00 2.3936797455597187e+01 0 1 1
6155 1 7.4655991874362240e+00 7.9833358146128948e+00 1.4226692305996828e+01 1 1 1
552 2 0.0000000000000000e+00 2.8417180249513345e+00 2.6887080687668369e+01 0 0 0
554 2 0.0000000000000000e+00 0.0000000000000000e+00 2.6887080687668369e+01 0 0 0
556 2 1.2305000000000001e+00 7.1042950623783474e-01 2.6887080687668369e+01 0 0 0
563 2 1.2305000000000001e+00 2.1312885187134998e+00 2.6887080687668369e+01 0 0 0
565 2 2.4610000000000003e+00 2.8417180249513345e+00 2.6887080687668369e+01 0 0 0
567 2 2.4610000000000003e+00 0.0000000000000000e+00 2.6887080687668369e+01 0 0 0
569 2 3.6915000000000004e+00 7.1042950623783474e-01 2.6887080687668369e+01 0 0 0
584 2 3.6914999999999996e+00 2.1312885187134998e+00 2.6887080687668369e+01 0 0 0
586 2 4.9220000000000006e+00 2.8417180249513332e+00 2.6887080687668369e+01 0 0 0
588 2 4.9220000000000006e+00 0.0000000000000000e+00 2.6887080687668369e+01 0 0 0
590 2 6.1524999999999999e+00 7.1042950623783407e-01 2.6887080687668369e+01 0 0 0
613 2 6.1524999999999999e+00 2.1312885187134989e+00 2.6887080687668369e+01 0 0 0
615 2 7.3829999999999991e+00 2.8417180249513345e+00 2.6887080687668369e+01 0 0 0
617 2 7.3829999999999991e+00 0.0000000000000000e+00 2.6887080687668369e+01 0 0 0
619 2 8.6134999999999984e+00 7.1042950623783407e-01 2.6887080687668369e+01 0 0 0
650 2 8.6134999999999984e+00 2.1312885187135002e+00 2.6887080687668369e+01 0 0 0
652 2 9.8440000000000012e+00 2.8417180249513332e+00 2.6887080687668369e+01 0 0 0
654 2 9.8440000000000012e+00 0.0000000000000000e+00 2.6887080687668369e+01 0 0 0
656 2 1.1074500000000002e+01 7.1042950623783330e-01 2.6887080687668369e+01 0 0 0
695 2 1.1074500000000002e+01 2.1312885187135002e+00 2.6887080687668369e+01 0 0 0
559 2 0.0000000000000000e+00 4.2625770374269996e+00 2.6887080687668369e+01 0 0 0
561 2 1.2305000000000001e+00 4.9730065436648339e+00 2.6887080687668369e+01 0 0 0
576 2 1.2305000000000001e+00 6.3938655561404980e+00 2.6887080687668369e+01 0 0 0
580 2 2.4610000000000003e+00 4.2625770374269996e+00 2.6887080687668369e+01 0 0 0
582 2 3.6914999999999996e+00 4.9730065436648339e+00 2.6887080687668369e+01 0 0 0
605 2 3.6914999999999996e+00 6.3938655561404980e+00 2.6887080687668369e+01 0 0 0
557 2 0.0000000000000000e+00 7.1042950623783341e+00 2.6887080687668369e+01 0 0 0
578 2 2.4610000000000003e+00 7.1042950623783341e+00 2.6887080687668369e+01 0 0 0
609 2 4.9220000000000006e+00 4.2625770374269978e+00 2.6887080687668369e+01 0 0 0
611 2 6.1524999999999999e+00 4.9730065436648339e+00 2.6887080687668369e+01 0 0 0
642 2 6.1524999999999999e+00 6.3938655561404980e+00 2.6887080687668369e+01 0 0 0
646 2 7.3829999999999991e+00 4.2625770374269996e+00 2.6887080687668369e+01 0 0 0
607 2 4.9220000000000006e+00 7.1042950623783341e+00 2.6887080687668369e+01 0 0 0
644 2 7.3830000000000009e+00 7.1042950623783341e+00 2.6887080687668369e+01 0 0 0
648 2 8.6135000000000002e+00 4.9730065436648339e+00 2.6887080687668369e+01 0 0 0
687 2 8.6135000000000002e+00 6.3938655561404980e+00 2.6887080687668369e+01 0 0 0
691 2 9.8440000000000012e+00 4.2625770374270004e+00 2.6887080687668369e+01 0 0 0
693 2 1.1074500000000002e+01 4.9730065436648339e+00 2.6887080687668369e+01 0 0 0
734 2 1.1074500000000002e+01 6.3938655561404980e+00 2.6887080687668369e+01 0 0 0
689 2 9.8440000000000012e+00 7.1042950623783341e+00 2.6887080687668369e+01 0 0 0
572 2 0.0000000000000000e+00 8.5251540748539991e+00 2.6887080687668369e+01 0 0 0
574 2 1.2305000000000001e+00 9.2355835810918343e+00 2.6887080687668369e+01 0 0 0
601 2 2.4610000000000003e+00 8.5251540748539991e+00 2.6887080687668369e+01 0 0 0
603 2 3.6915000000000004e+00 9.2355835810918343e+00 2.6887080687668369e+01 0 0 0
570 2 0.0000000000000000e+00 1.1366872099805333e+01 2.6887080687668369e+01 0 0 0
597 2 1.2305000000000001e+00 1.0656442593567498e+01 2.6887080687668369e+01 0 0 0
599 2 2.4610000000000003e+00 1.1366872099805333e+01 2.6887080687668369e+01 0 0 0
634 2 3.6914999999999996e+00 1.0656442593567499e+01 2.6887080687668369e+01 0 0 0
638 2 4.9220000000000006e+00 8.5251540748539991e+00 2.6887080687668369e+01 0 0 0
640 2 6.1524999999999999e+00 9.2355835810918343e+00 2.6887080687668369e+01 0 0 0
683 2 7.3830000000000009e+00 8.5251540748539991e+00 2.6887080687668369e+01 0 0 0
636 2 4.9220000000000006e+00 1.1366872099805333e+01 2.6887080687668369e+01 0 0 0
679 2 6.1524999999999999e+00 1.0656442593567499e+01 2.6887080687668369e+01 0 0 0
681 2 7.3829999999999991e+00 1.1366872099805333e+01 2.6887080687668369e+01 0 0 0
685 2 8.6134999999999984e+00 9.2355835810918343e+00 2.6887080687668369e+01 0 0 0
730 2 9.8440000000000012e+00 8.5251540748539956e+00 2.6887080687668369e+01 0 0 0
732 2 1.1074500000000002e+01 9.2355835810918343e+00 2.6887080687668369e+01 0 0 0
726 2 8.6134999999999984e+00 1.0656442593567498e+01 2.6887080687668369e+01 0 0 0
728 2 9.8440000000000012e+00 1.1366872099805333e+01 2.6887080687668369e+01 0 0 0
773 2 1.1074500000000002e+01 1.0656442593567498e+01 2.6887080687668369e+01 0 0 0
775 2 1.2304999999999998e+01 1.1366872099805333e+01 2.6887080687668369e+01 0 0 0
593 2 0.0000000000000000e+00 1.2787731112280996e+01 2.6887080687668369e+01 0 0 0
595 2 1.2305000000000001e+00 1.3498160618518829e+01 2.6887080687668369e+01 0 0 0
630 2 2.4610000000000003e+00 1.2787731112280996e+01 2.6887080687668369e+01 0 0 0
632 2 3.6915000000000004e+00 1.3498160618518829e+01 2.6887080687668369e+01 0 0 0
591 2 0.0000000000000000e+00 1.5629449137232333e+01 2.6887080687668369e+01 0 0 0
626 2 1.2305000000000001e+00 1.4919019630994494e+01 2.6887080687668369e+01 0 0 0
628 2 2.4610000000000003e+00 1.5629449137232328e+01 2.6887080687668369e+01 0 0 0
671 2 3.6915000000000004e+00 1.4919019630994494e+01 2.6887080687668369e+01 0 0 0
675 2 4.9220000000000006e+00 1.2787731112280996e+01 2.6887080687668369e+01 0 0 0
677 2 6.1524999999999990e+00 1.3498160618518829e+01 2.6887080687668369e+01 0 0 0
722 2 7.3829999999999991e+00 1.2787731112280996e+01 2.6887080687668369e+01 0 0 0
673 2 4.9220000000000006e+00 1.5629449137232333e+01 2.6887080687668369e+01 0 0 0
718 2 6.1524999999999990e+00 1.4919019630994494e+01 2.6887080687668369e+01 0 0 0
720 2 7.3829999999999991e+00 1.5629449137232333e+01 2.6887080687668369e+01 0 0 0
724 2 8.6135000000000002e+00 1.3498160618518835e+01 2.6887080687668369e+01 0 0 0
769 2 9.8440000000000012e+00 1.2787731112280996e+01 2.6887080687668369e+01 0 0 0
771 2 1.1074500000000002e+01 1.3498160618518829e+01 2.6887080687668369e+01 0 0 0
765 2 8.6135000000000002e+00 1.4919019630994494e+01 2.6887080687668369e+01 0 0 0
767 2 9.8440000000000012e+00 1.5629449137232328e+01 2.6887080687668369e+01 0 0 0
807 2 1.1074500000000002e+01 1.4919019630994494e+01 2.6887080687668369e+01 0 0 0
553 2 0.0000000000000000e+00 1.4208590124756650e+00 3.0031000000000599e+01 0 0 0
555 2 0.0000000000000000e+00 0.0000000000000000e+00 3.0031000000000599e+01 0 0 0
564 2 1.2305000000000001e+00 2.1312885187134998e+00 3.0031000000000599e+01 0 0 0
566 2 2.4610000000000003e+00 1.4208590124756650e+00 3.0031000000000599e+01 0 0 0
568 2 2.4610000000000003e+00 0.0000000000000000e+00 3.0031000000000599e+01 0 0 0
585 2 3.6914999999999996e+00 2.1312885187134998e+00 3.0031000000000599e+01 0 0 0
562 2 1.2305000000000001e+00 3.5521475311891644e+00 3.0031000000000599e+01 0 0 0
583 2 3.6914999999999996e+00 3.5521475311891644e+00 3.0031000000000599e+01 0 0 0
587 2 4.9220000000000006e+00 1.4208590124756650e+00 3.0031000000000599e+01 0 0 0
589 2 4.9220000000000006e+00 0.0000000000000000e+00 3.0031000000000599e+01 0 0 0
614 2 6.1524999999999999e+00 2.1312885187134989e+00 3.0031000000000599e+01 0 0 0
616 2 7.3829999999999991e+00 1.4208590124756659e+00 3.0031000000000599e+01 0 0 0
618 2 7.3829999999999991e+00 0.0000000000000000e+00 3.0031000000000599e+01 0 0 0
612 2 6.1524999999999999e+00 3.5521475311891644e+00 3.0031000000000599e+01 0 0 0
651 2 8.6134999999999984e+00 2.1312885187135002e+00 3.0031000000000599e+01 0 0 0
653 2 9.8440000000000012e+00 1.4208590124756659e+00 3.0031000000000599e+01 0 0 0
655 2 9.8440000000000012e+00 0.0000000000000000e+00 3.0031000000000599e+01 0 0 0
696 2 1.1074500000000002e+01 2.1312885187135002e+00 3.0031000000000599e+01 0 0 0
649 2 8.6134999999999984e+00 3.5521475311891657e+00 3.0031000000000599e+01 0 0 0
694 2 1.1074500000000002e+01 3.5521475311891644e+00 3.0031000000000599e+01 0 0 0
558 2 0.0000000000000000e+00 5.6834360499026637e+00 3.0031000000000599e+01 0 0 0
560 2 0.0000000000000000e+00 4.2625770374269996e+00 3.0031000000000599e+01 0 0 0
577 2 1.2305000000000001e+00 6.3938655561404980e+00 3.0031000000000599e+01 0 0 0
579 2 2.4610000000000003e+00 5.6834360499026637e+00 3.0031000000000599e+01 0 0 0
581 2 2.4610000000000003e+00 4.2625770374269996e+00 3.0031000000000599e+01 0 0 0
606 2 3.6914999999999996e+00 6.3938655561404980e+00 3.0031000000000599e+01 0 0 0
575 2 1.2305000000000001e+00 7.8147245686161639e+00 3.0031000000000599e+01 0 0 0
604 2 3.6914999999999996e+00 7.8147245686161639e+00 3.0031000000000599e+01 0 0 0
608 2 4.9220000000000006e+00 5.6834360499026637e+00 3.0031000000000599e+01 0 0 0
610 2 4.9220000000000006e+00 4.2625770374269978e+00 3.0031000000000599e+01 0 0 0
643 2 6.1524999999999999e+00 6.3938655561404980e+00 3.0031000000000599e+01 0 0 0
645 2 7.3829999999999991e+00 5.6834360499026637e+00 3.0031000000000599e+01 0 0 0
647 2 7.3829999999999991e+00 4.2625770374269996e+00 3.0031000000000599e+01 0 0 0
641 2 6.1524999999999999e+00 7.8147245686161639e+00 3.0031000000000599e+01 0 0 0
688 2 8.6135000000000002e+00 6.3938655561404980e+00 3.0031000000000599e+01 0 0 0
690 2 9.8440000000000012e+00 5.6834360499026637e+00 3.0031000000000599e+01 0 0 0
692 2 9.8440000000000012e+00 4.2625770374270004e+00 3.0031000000000599e+01 0 0 0
735 2 1.1074500000000002e+01 6.3938655561404980e+00 3.0031000000000599e+01 0 0 0
686 2 8.6135000000000002e+00 7.8147245686161639e+00 3.0031000000000599e+01 0 0 0
733 2 1.1074500000000002e+01 7.8147245686161639e+00 3.0031000000000599e+01 0 0 0
571 2 0.0000000000000000e+00 9.9460130873296642e+00 3.0031000000000599e+01 0 0 0
573 2 0.0000000000000000e+00 8.5251540748539991e+00 3.0031000000000599e+01 0 0 0
600 2 2.4610000000000003e+00 9.9460130873296642e+00 3.0031000000000599e+01 0 0 0
602 2 2.4610000000000003e+00 8.5251540748539991e+00 3.0031000000000599e+01 0 0 0
596 2 1.2305000000000001e+00 1.2077301606043163e+01 3.0031000000000599e+01 0 0 0
598 2 1.2305000000000001e+00 1.0656442593567498e+01 3.0031000000000599e+01 0 0 0
633 2 3.6914999999999996e+00 1.2077301606043163e+01 3.0031000000000599e+01 0 0 0
635 2 3.6914999999999996e+00 1.0656442593567499e+01 3.0031000000000599e+01 0 0 0
637 2 4.9220000000000006e+00 9.9460130873296642e+00 3.0031000000000599e+01 0 0 0
639 2 4.9220000000000006e+00 8.5251540748539991e+00 3.0031000000000599e+01 0 0 0
682 2 7.3830000000000009e+00 9.9460130873296642e+00 3.0031000000000599e+01 0 0 0
684 2 7.3830000000000009e+00 8.5251540748539991e+00 3.0031000000000599e+01 0 0 0
678 2 6.1524999999999999e+00 1.2077301606043163e+01 3.0031000000000599e+01 0 0 0
680 2 6.1524999999999999e+00 1.0656442593567499e+01 3.0031000000000599e+01 0 0 0
729 2 9.8440000000000012e+00 9.9460130873296642e+00 3.0031000000000599e+01 0 0 0
731 2 9.8440000000000012e+00 8.5251540748539956e+00 3.0031000000000599e+01 0 0 0
725 2 8.6135000000000002e+00 1.2077301606043163e+01 3.0031000000000599e+01 0 0 0
727 2 8.6134999999999984e+00 1.0656442593567498e+01 3.0031000000000599e+01 0 0 0
772 2 1.1074500000000002e+01 1.2077301606043163e+01 3.0031000000000599e+01 0 0 0
774 2 1.1074500000000002e+01 1.0656442593567498e+01 3.0031000000000599e+01 0 0 0
594 2 0.0000000000000000e+00 1.2787731112280996e+01 3.0031000000000599e+01 0 0 0
631 2 2.4610000000000003e+00 1.2787731112280996e+01 3.0031000000000599e+01 0 0 0
592 2 0.0000000000000000e+00 1.4208590124756663e+01 3.0031000000000599e+01 0 0 0
627 2 1.2305000000000001e+00 1.4919019630994494e+01 3.0031000000000599e+01 0 0 0
629 2 2.4610000000000003e+00 1.4208590124756663e+01 3.0031000000000599e+01 0 0 0
672 2 3.6915000000000004e+00 1.4919019630994494e+01 3.0031000000000599e+01 0 0 0
676 2 4.9220000000000006e+00 1.2787731112280996e+01 3.0031000000000599e+01 0 0 0
723 2 7.3829999999999991e+00 1.2787731112280996e+01 3.0031000000000599e+01 0 0 0
674 2 4.9220000000000006e+00 1.4208590124756663e+01 3.0031000000000599e+01 0 0 0
719 2 6.1524999999999990e+00 1.4919019630994494e+01 3.0031000000000599e+01 0 0 0
721 2 7.3830000000000009e+00 1.4208590124756663e+01 3.0031000000000599e+01 0 0 0
770 2 9.8440000000000012e+00 1.2787731112280996e+01 3.0031000000000599e+01 0 0 0
766 2 8.6135000000000002e+00 1.4919019630994494e+01 3.0031000000000599e+01 0 0 0
768 2 9.8440000000000012e+00 1.4208590124756663e+01 3.0031000000000599e+01 0 0 0
806 2 1.1074500000000002e+01 1.6339878643470161e+01 3.0031000000000599e+01 0 0 0
808 2 1.1074500000000002e+01 1.4919019630994494e+01 3.0031000000000599e+01 0 0 0
810 2 1.2304999999999998e+01 1.4208590124756658e+01 3.0031000000000599e+01 0 0 0
881 2 0.0000000000000000e+00 2.8417180249513345e+00 3.3174919312331127e+01 0 0 0
882 2 0.0000000000000000e+00 0.0000000000000000e+00 3.3174919312331127e+01 0 0 0
883 2 1.2305000000000001e+00 7.1042950623783474e-01 3.3174919312331127e+01 0 0 0
887 2 1.2305000000000001e+00 2.1312885187134998e+00 3.3174919312331127e+01 0 0 0
888 2 2.4610000000000003e+00 2.8417180249513345e+00 3.3174919312331127e+01 0 0 0
889 2 2.4610000000000003e+00 0.0000000000000000e+00 3.3174919312331127e+01 0 0 0
890 2 3.6915000000000004e+00 7.1042950623783474e-01 3.3174919312331127e+01 0 0 0
898 2 3.6914999999999996e+00 2.1312885187134998e+00 3.3174919312331127e+01 0 0 0
899 2 4.9220000000000006e+00 2.8417180249513332e+00 3.3174919312331127e+01 0 0 0
900 2 4.9220000000000006e+00 0.0000000000000000e+00 3.3174919312331127e+01 0 0 0
901 2 6.1524999999999999e+00 7.1042950623783407e-01 3.3174919312331127e+01 0 0 0
913 2 6.1524999999999999e+00 2.1312885187134989e+00 3.3174919312331127e+01 0 0 0
914 2 7.3829999999999991e+00 2.8417180249513345e+00 3.3174919312331127e+01 0 0 0
915 2 7.3829999999999991e+00 0.0000000000000000e+00 3.3174919312331127e+01 0 0 0
916 2 8.6134999999999984e+00 7.1042950623783407e-01 3.3174919312331127e+01 0 0 0
932 2 8.6134999999999984e+00 2.1312885187135002e+00 3.3174919312331127e+01 0 0 0
933 2 9.8440000000000012e+00 2.8417180249513332e+00 3.3174919312331127e+01 0 0 0
934 2 9.8440000000000012e+00 0.0000000000000000e+00 3.3174919312331127e+01 0 0 0
935 2 1.1074500000000002e+01 7.1042950623783330e-01 3.3174919312331127e+01 0 0 0
955 2 1.1074500000000002e+01 2.1312885187135002e+00 3.3174919312331127e+01 0 0 0
885 2 0.0000000000000000e+00 4.2625770374269996e+00 3.3174919312331127e+01 0 0 0
886 2 1.2305000000000001e+00 4.9730065436648339e+00 3.3174919312331127e+01 0 0 0
894 2 1.2305000000000001e+00 6.3938655561404980e+00 3.3174919312331127e+01 0 0 0
896 2 2.4610000000000003e+00 4.2625770374269996e+00 3.3174919312331127e+01 0 0 0
897 2 3.6914999999999996e+00 4.9730065436648339e+00 3.3174919312331127e+01 0 0 0
909 2 3.6914999999999996e+00 6.3938655561404980e+00 3.3174919312331127e+01 0 0 0
884 2 0.0000000000000000e+00 7.1042950623783341e+00 3.3174919312331127e+01 0 0 0
895 2 2.4610000000000003e+00 7.1042950623783341e+00 3.3174919312331127e+01 0 0 0
911 2 4.9220000000000006e+00 4.2625770374269978e+00 3.3174919312331127e+01 0 0 0
912 2 6.1524999999999999e+00 4.9730065436648339e+00 3.3174919312331127e+01 0 0 0
928 2 6.1524999999999999e+00 6.3938655561404980e+00 3.3174919312331127e+01 0 0 0
930 2 7.3829999999999991e+00 4.2625770374269996e+00 3.3174919312331127e+01 0 0 0
910 2 4.9220000000000006e+00 7.1042950623783341e+00 3.3174919312331127e+01 0 0 0
929 2 7.3830000000000009e+00 7.1042950623783341e+00 3.3174919312331127e+01 0 0 0
931 2 8.6135000000000002e+00 4.9730065436648339e+00 3.3174919312331127e+01 0 0 0
951 2 8.6135000000000002e+00 6.3938655561404980e+00 3.3174919312331127e+01 0 0 0
953 2 9.8440000000000012e+00 4.2625770374270004e+00 3.3174919312331127e+01 0 0 0
954 2 1.1074500000000002e+01 4.9730065436648339e+00 3.3174919312331127e+01 0 0 0
975 2 1.1074500000000002e+01 6.3938655561404980e+00 3.3174919312331127e+01 0 0 0
952 2 9.8440000000000012e+00 7.1042950623783341e+00 3.3174919312331127e+01 0 0 0
892 2 0.0000000000000000e+00 8.5251540748539991e+00 3.3174919312331127e+01 0 0 0
893 2 1.2305000000000001e+00 9.2355835810918343e+00 3.3174919312331127e+01 0 0 0
907 2 2.4610000000000003e+00 8.5251540748539991e+00 3.3174919312331127e+01 0 0 0
908 2 3.6915000000000004e+00 9.2355835810918343e+00 3.3174919312331127e+01 0 0 0
891 2 0.0000000000000000e+00 1.1366872099805333e+01 3.3174919312331127e+01 0 0 0
905 2 1.2305000000000001e+00 1.0656442593567498e+01 3.3174919312331127e+01 0 0 0
906 2 2.4610000000000003e+00 1.1366872099805333e+01 3.3174919312331127e+01 0 0 0
924 2 3.6914999999999996e+00 1.0656442593567499e+01 3.3174919312331127e+01 0 0 0
926 2 4.9220000000000006e+00 8.5251540748539991e+00 3.3174919312331127e+01 0 0 0
927 2 6.1524999999999999e+00 9.2355835810918343e+00 3.3174919312331127e+01 0 0 0
949 2 7.3830000000000009e+00 8.5251540748539991e+00 3.3174919312331127e+01 0 0 0
925 2 4.9220000000000006e+00 1.1366872099805333e+01 3.3174919312331127e+01 0 0 0
947 2 6.1524999999999999e+00 1.0656442593567499e+01 3.3174919312331127e+01 0 0 0
948 2 7.3829999999999991e+00 1.1366872099805333e+01 3.3174919312331127e+01 0 0 0