LAMMPS data file via write_data, version 16 Mar 2018, timestep = 8000000

6328 atoms
2 atom types

0.0000000000000000e+00 4.9219999999999999e+01 xlo xhi
0.0000000000000000e+00 4.9019635930410494e+01 ylo yhi
2.0005818116192522e+00 5.8061418188377537e+01 zlo zhi

Masses

1 18.015
2 12.01

Atoms # atomic

3439 1 1.6488143441101579e+00 2.7625665298232032e+00 3.0036835123248671e+00 -2 1 0
242 1 1.2120605830756312e+00 2.2965063249669089e+00 5.6552776692490152e+00 4 0 0
5061 1 5.9747415910741255e+00 3.2674626591818821e+00 2.3762098498231530e+00 3 2 0
1472 1 1.0622920361998558e+01 3.9270699255829502e+00 2.4390050724004002e+00 1 1 0
5174 1 1.0247201945330307e+01 3.8984976016568051e+00 5.2149966720120791e+00 1 3 0
4840 1 2.8814558526393159e+00 6.9063066967309217e+00 2.6874421497865928e+00 -2 0 1
1804 1 2.8018694358032685e+00 6.5431098676718831e+00 5.3934707277677720e+00 2 0 0
4983 1 6.5061383541069109e+00 1.2395367371960610e+01 9.7643749758425411e+00 0 6 0
4640 1 7.0258119245152537e+00 7.5810473478584681e+00 2.6042774298929352e+00 -3 -3 1
81 1 7.2078328683169346e+00 7.3124911779539987e+00 5.2895410741350677e+00 -1 1 -1
1706 1 1.1603044070998356e+01 8.2028206654073337e+00 2.6923389597402330e+00 2 0 1
3056 1 1.1759302424050722e+01 8.3888322002938889e+00 5.4830318834102396e+00 0 -2 1
2995 1 4.3756006439023594e+00 1.0857812240345526e+01 5.0915220559590164e+00 3 -1 1
4841 1 4.4633956962338655e+00 1.1263473600184831e+01 2.5034576437289071e+00 -3 1 1
1672 1 9.0344963028356116e+00 1.1689903211805589e+01 2.6983751694798870e+00 -1 -5 1
1700 1 8.7657143310886649e+00 1.1450808690519693e+01 5.4000963753797890e+00 2 -4 1
1733 1 1.5016584455957012e+00 1.4574693457545653e+01 3.2061129912961022e+00 -1 1 0
4869 1 1.6179911280829828e+00 1.4644661908615209e+01 5.7698251722084333e+00 -3 3 1
1965 1 5.7317734160678393e+00 1.5295474215139697e+01 5.6142796087825646e+00 1 -1 1
5150 1 6.0906664649067128e+00 1.5373070440529217e+01 2.9645361519344404e+00 2 -3 1
2003 1 6.2952326292435599e+00 1.2555700096717874e+01 1.2504575156519465e+01 -1 3 0
6186 1 1.0277766261450653e+01 1.5703753652145018e+01 5.3038677723675560e+00 1 4 0
4991 1 4.0356759322856242e+00 1.2880304389649357e+00 9.2504200382120061e+00 -2 -1 0
1927 1 3.7180536717036090e+00 1.4404255877793561e+00 6.4071957404558768e+00 3 1 0
5092 1 5.6229806322659188e+00 3.1410086924817335e+00 5.3153775255151432e+00 -2 1 -1
1366 1 8.2084418395401890e+00 2.4037641345340752e+00 8.9814721941778046e+00 2 -3 0
5193 1 7.9476947720047715e+00 2.1474037459202742e+00 6.2926511877814155e+00 2 -3 0
6126 1 6.3304169839830238e-01 4.7366035398514761e+00 6.2683961046037266e+00 -1 8 1
1678 1 1.3604059951619825e+00 5.1940157354113641e+00 8.9925845589582138e+00 5 1 0
3243 1 5.3899041597842459e+00 5.7829646518049964e+00 6.1564896019095929e+00 2 2 0
2988 1 5.8468990786060875e+00 5.7573684399862932e+00 8.8958047397726112e+00 1 0 1
3587 1 9.7585886870184915e+00 6.5939190117452533e+00 6.1925726080301047e+00 -1 3 1
3112 1 9.9768498914568244e+00 6.9087638554918449e+00 9.1182782667446585e+00 4 -1 0
207 1 2.4209159324955043e+00 8.9997068886568403e+00 6.0163257694080619e+00 3 -3 1
499 1 2.6996704007413679e+00 9.1220847598769872e+00 8.7782271180890561e+00 -2 1 0
4650 1 6.5965463855823572e+00 9.8661198198355233e+00 6.2432820226396792e+00 -2 1 1
3317 1 6.8520774579065309e+00 9.8770727900598150e+00 8.9468117751076424e+00 3 -4 1
3122 1 1.1076945723587238e+01 1.0803443896877043e+01 6.3544008149463416e+00 0 0 1
6153 1 1.1410914712633808e+01 1.1047015953427682e+01 9.0459491299443719e+00 3 -2 0
5030 1 4.1577574499550067e+00 1.3255450035300274e+01 6.2685363000519736e+00 1 -3 1
504 1 4.2668265349997396e+00 1.3453935163561429e+01 9.2274776607028013e+00 2 -1 0
3366 1 8.1130798643531783e+00 1.4298190912055261e+01 6.5630929677976537e+00 1 2 0
1892 1 8.3310128990288419e+00 1.4305215554428088e+01 9.2222730161614912e+00 -2 2 0
4900 1 1.0705718778115733e+01 1.3487472532508409e+01 1.0226374358879120e+01 -1 0 0
5166 1 3.6398305233921269e+00 4.0859937357720622e+00 9.9665548746916492e+00 0 3 1
102 1 3.7103334354494799e+00 1.6168371569251086e+01 1.0028445385149995e+01 0 -2 0
3630 1 2.4173537939020657e+00 2.7683371707096416e-01 2.1539870833063786e+00 0 2 0
5074 1 6.2044290457262763e+00 3.4516619319724251e-01 1.2766504297440182e+01 0 -4 0
1485 1 1.0543380324384678e+01 1.1715055112954051e+00 1.2797139183840674e+01 3 1 1
546 1 1.0798818346326538e+01 1.3415507012625869e+00 9.8253483497265286e+00 1 -5 0
264 1 1.0165110641700993e+01 1.6151777369576845e+01 2.5912735148797266e+00 2 -5 0
1588 1 9.2479961721334780e-01 7.6972479927484159e+00 9.7361233877534907e+00 1 2 1
1362 1 8.2384715422078525e+00 4.7479029782279696e+00 1.0146636362756324e+01 3 -4 0
493 1 7.9487911253252603e+00 4.8899121668236196e+00 1.2915086658966535e+01 2 0 1
3192 1 4.9722561357473163e+00 8.3444923121044727e+00 1.2627316899877105e+01 0 0 1
6225 1 6.4214511164128689e+00 4.0902354691937126e-01 1.0151238108907277e+01 0 3 0
1244 1 1.9602443695356848e+00 1.1842157382962213e+01 1.2720294673997246e+01 -2 -1 1
4452 1 1.0675775172647230e+01 1.3477833824612940e+01 1.2942599698305248e+01 2 1 1
277 1 2.3234600611329492e+00 1.1706956477095034e+01 9.9067365232677389e+00 0 1 0
2128 1 5.1566735269928259e+00 8.2554874924151083e+00 9.8294719891396412e+00 0 4 0
228 1 9.6034804320583866e+00 9.2051413137396327e+00 1.2449184309464915e+01 -2 -2 0
4528 1 9.5519389330351139e+00 9.3769432684685725e+00 9.8052117337370106e+00 -2 0 1
3429 1 5.1654646074619816e-02 1.0331161067908356e+01 5.2723132592571291e+00 0 -1 0
1408 1 3.5724929780957848e+00 4.2842011543167189e+00 1.2832071100600190e+01 0 -4 0
1414 1 8.2827990798452855e-01 7.7095025006092692e+00 1.2538754918445226e+01 2 2 0
4842 1 9.1216186046290684e+00 9.0867554439817209e+00 2.2081414836924251e+00 -3 2 0
452 1 3.2995230974371315e+00 1.6299352424586314e+01 2.1720708450583879e+00 1 5 1
4719 1 7.0923744290598592e+00 1.0003131361080751e+01 1.3165029767015753e+01 0 4 0
3480 1 3.7987025229624254e+00 1.5434019173053952e+00 1.3631094592610530e+01 2 -1 0
4466 1 3.7416716773071848e+00 1.2954096619823912e+00 1.6284197749716533e+01 -1 0 1
4693 1 8.1398763070515479e+00 1.8623930599257019e+00 1.6445561192040024e+01 4 3 0
85 1 1.1381194552069992e+01 1.0895664627495380e+01 1.3750887954685963e+01 0 -2 0
1544 1 1.0170196444918205e+00 4.9187080388910598e+00 1.6361414824714711e+01 1 -3 1
4896 1 1.1276900803677035e+00 4.9840437768675283e+00 1.3686383455018232e+01 3 0 0
2831 1 2.7116360926821752e+00 4.3110140493459603e+00 2.4069343631130391e+01 -1 4 1
4769 1 5.1441244165432538e+00 5.4009401886429984e+00 1.6530333504086570e+01 5 3 1
6088 1 9.5641256698534125e+00 6.2126366047026345e+00 1.6465028797987948e+01 -3 3 1
2094 1 3.2758747912890174e+00 1.6040471239030300e+01 1.9891559378640750e+01 2 2 0
4771 1 2.5220660918772588e+00 9.0576022831003886e+00 1.6138054141206240e+01 -4 -3 1
1240 1 2.5405151184624915e+00 9.1484613041838649e+00 1.3513420245591998e+01 -5 3 0
4756 1 6.8430584210418868e+00 1.0006530554447187e+01 1.6157210335970671e+01 -3 1 1
4413 1 1.1563613531492816e+01 5.3938580673235359e+00 2.0033805255230909e+01 -2 -2 1
3181 1 1.1138753167825497e+01 1.0866124054022393e+01 1.6491175071578915e+01 -5 1 1
6293 1 1.2108951975734414e+01 4.9881761703933671e+00 1.7423304982210027e+01 2 2 0
5004 1 3.9435565667742187e+00 1.3515174424782330e+01 1.6440095044029949e+01 0 2 0
170 1 1.2292899631698434e+01 2.8140560246585165e+00 2.1012570231990431e+01 -1 1 0
6233 1 4.0207369408013829e+00 1.3648692920744322e+01 1.3538098709580101e+01 2 0 1
1445 1 8.2280545132315073e+00 1.4475639536759919e+01 1.6260535002618084e+01 0 0 1
4964 1 8.4594197349595224e-01 1.1366602088365596e-02 2.3630148926360068e+01 -1 -1 1
3095 1 3.1305269187555305e+00 3.8450780435253225e+00 1.7528350555745405e+01 -3 -2 0
1274 1 2.9345526918467861e+00 4.0615433407689832e+00 2.0279683979625361e+01 1 3 1
3554 1 1.2269693035233553e+01 3.1748830524733402e+00 2.3541870021288297e+01 4 -1 0
1484 1 6.1630452389012893e+00 8.1173063336823212e-02 1.7287759617755242e+01 -2 1 1
2888 1 1.0837305343584315e+01 1.0827634489174525e+00 1.7531721939112629e+01 1 -4 1
4953 1 1.0647284700139812e+01 7.7409686774599640e-01 2.0132801081777046e+01 3 -4 0
355 1 3.5725853564400789e-01 7.4744858739661044e+00 2.0099420953835544e+01 -1 -1 0
4614 1 4.8521318777248962e-01 7.5639006644674440e+00 1.7374867112269463e+01 4 -2 0
5129 1 7.7622769419068431e+00 4.4977493209430355e+00 1.7425602408951651e+01 2 6 1
6116 1 7.3512671486864187e+00 4.4328578169916852e+00 2.0135578624998960e+01 -1 4 0
5239 1 4.7380851280713090e+00 8.0333917337293617e+00 2.0114006329564148e+01 2 4 0
3274 1 5.5609965177251599e+00 5.7989785435565668e+00 1.3905054543029728e+01 3 -4 1
4539 1 3.5555358496900298e+00 1.6052518116210447e+01 1.7184228661719388e+01 1 4 1
469 1 1.9629112129149306e+00 1.1728261114778830e+01 1.6819780347994765e+01 -2 4 0
1269 1 1.7979638584132465e+00 1.2218224214199024e+01 1.9807660727130283e+01 -3 0 1
6323 1 5.0660542220539719e+00 8.1504251359034914e+00 1.7231660645950683e+01 -2 2 1
3173 1 9.3079945580404697e+00 8.8873494495638372e+00 1.7345195873334212e+01 3 0 0
1307 1 9.2220237681995663e+00 9.0594655960706731e+00 2.0079822753511326e+01 2 -2 1
1590 1 4.0117550093937870e+00 1.3480852048427613e+01 2.1009840349249359e+01 1 -1 0
2082 1 6.1875166995415327e+00 1.2270793791079930e+01 1.7146585707223714e+01 -1 1 1
6122 1 6.3394129239857193e+00 1.2225286532508504e+01 1.9971139733699889e+01 0 -4 1
78 1 1.0528789296381987e+01 1.3246150661563737e+01 1.7265296271029861e+01 0 3 1
3253 1 1.0755355877484201e+01 1.3430885792537721e+01 1.9987598294104885e+01 0 -2 1
4920 1 4.1610322023927777e+00 1.4754183583587439e+00 2.1023362986581549e+01 -1 -1 0
3019 1 3.0405295763327076e+00 1.5620679295609925e+00 2.3638630656634490e+01 -2 -1 1
2914 1 7.8691491909499511e+00 2.0048354402564379e+00 2.3526012625158327e+01 4 -1 0
1640 1 1.0581894042580169e+01 1.3204802574935522e+01 2.4423114347174810e+01 -3 -2 0
3414 1 9.7208538136775307e+00 6.7142281136959658e+00 1.3757856590942113e+01 4 -2 0
1440 1 8.1450467913965419e+00 1.4435878335388125e+01 1.3654284459755077e+01 -2 5 1
2040 1 8.2968036250280672e+00 1.6252751741407914e+00 2.1043499119667338e+01 2 1 0
6029 1 8.0902456273449772e+00 1.4551402671588969e+01 2.3656810249159285e+01 -4 -3 1
1683 1 7.3308314117013840e-01 6.7093558279825567e+00 2.4072172612425451e+01 1 2 0
224 1 5.7831608915369603e-01 5.0285538489089969e+00 2.1578762794820722e+01 1 0 0
4915 1 8.1221582305868765e+00 2.0335773510317878e+00 1.3743372929157392e+01 1 1 0
3387 1 4.9995047053060944e+00 5.4609054499050895e+00 2.0969208782603456e+01 0 0 0
3188 1 5.2394787009092463e+00 5.4843247385180494e+00 2.3799261923485986e+01 1 -1 0
427 1 9.3658848710995048e+00 6.4996633312181826e+00 2.0807337918784263e+01 -1 -3 0
2958 1 9.4903738531347983e+00 6.4385509885578758e+00 2.3511738142477732e+01 -4 1 1
3304 1 8.2198469558413301e+00 1.4315049708606436e+01 2.0856470478544004e+01 4 1 1
2839 1 2.1999840356708362e+00 9.2533581007043910e+00 2.0891405328841003e+01 0 2 1
1701 1 2.1207787525538602e+00 9.0450559655047762e+00 2.3535714864957569e+01 2 0 1
5157 1 6.7847134555125690e+00 9.7606606001029039e+00 2.0743761040001189e+01 1 1 0
3183 1 6.4020861905350088e+00 1.0340606700691334e+01 2.3403220198914202e+01 -1 0 1
4579 1 1.0830347310279111e+01 1.0800659083356949e+01 2.3529632791027893e+01 4 0 0
3407 1 1.1325431343144773e+01 1.0900311667757316e+01 2.0760570322571457e+01 0 4 0
1373 1 3.8004445285998494e+00 1.3472911424124359e+01 2.3776557724369034e+01 0 5 1
1562 1 1.8807366824010243e+00 1.1607948456529730e+01 2.4285819966098071e+01 4 -1 1
360 1 1.1973382894731731e+01 5.6850381286515592e+00 2.4386268576836915e+01 -1 1 0
3177 1 4.8088136087657025e+00 8.1315199401023577e+00 2.3829766805861436e+01 0 0 0
6156 1 8.8661921306844231e+00 9.0983528027605907e+00 2.4246295220226266e+01 3 0 1
3076 1 5.7890644107413838e+00 5.4040307407548249e-01 2.4171713024836475e+01 -1 -3 0
552 2 0.0000000000000000e+00 2.8417180249513345e+00 2.6685560964207699e+01 0 0 0
554 2 0.0000000000000000e+00 0.0000000000000000e+00 2.6685560964207699e+01 0 0 0
556 2 1.2305000000000001e+00 7.1042950623783474e-01 2.6685560964207699e+01 0 0 0
563 2 1.2305000000000001e+00 2.1312885187134998e+00 2.6685560964207699e+01 0 0 0
565 2 2.4610000000000003e+00 2.8417180249513345e+00 2.6685560964207699e+01 0 0 0
567 2 2.4610000000000003e+00 0.0000000000000000e+00 2.6685560964207699e+01 0 0 0
569 2 3.6915000000000004e+00 7.1042950623783474e-01 2.6685560964207699e+01 0 0 0
584 2 3.6914999999999996e+00 2.1312885187134998e+00 2.6685560964207699e+01 0 0 0
586 2 4.9220000000000006e+00 2.8417180249513332e+00 2.6685560964207699e+01 0 0 0
588 2 4.9220000000000006e+00 0.0000000000000000e+00 2.6685560964207699e+01 0 0 0
590 2 6.1524999999999999e+00 7.1042950623783407e-01 2.6685560964207699e+01 0 0 0
613 2 6.1524999999999999e+00 2.1312885187134989e+00 2.6685560964207699e+01 0 0 0
615 2 7.3829999999999991e+00 2.8417180249513345e+00 2.6685560964207699e+01 0 0 0
617 2 7.3829999999999991e+00 0.0000000000000000e+00 2.6685560964207699e+01 0 0 0
619 2 8.6134999999999984e+00 7.1042950623783407e-01 2.6685560964207699e+01 0 0 0
650 2 8.6134999999999984e+00 2.1312885187135002e+00 2.6685560964207699e+01 0 0 0
652 2 9.8440000000000012e+00 2.8417180249513332e+00 2.6685560964207699e+01 0 0 0
654 2 9.8440000000000012e+00 0.0000000000000000e+00 2.6685560964207699e+01 0 0 0
656 2 1.1074500000000002e+01 7.1042950623783330e-01 2.6685560964207699e+01 0 0 0
695 2 1.1074500000000002e+01 2.1312885187135002e+00 2.6685560964207699e+01 0 0 0
559 2 0.0000000000000000e+00 4.2625770374269996e+00 2.6685560964207699e+01 0 0 0
561 2 1.2305000000000001e+00 4.9730065436648339e+00 2.6685560964207699e+01 0 0 0
576 2 1.2305000000000001e+00 6.3938655561404980e+00 2.6685560964207699e+01 0 0 0
580 2 2.4610000000000003e+00 4.2625770374269996e+00 2.6685560964207699e+01 0 0 0
582 2 3.6914999999999996e+00 4.9730065436648339e+00 2.6685560964207699e+01 0 0 0
605 2 3.6914999999999996e+00 6.3938655561404980e+00 2.6685560964207699e+01 0 0 0
557 2 0.0000000000000000e+00 7.1042950623783341e+00 2.6685560964207699e+01 0 0 0
578 2 2.4610000000000003e+00 7.1042950623783341e+00 2.6685560964207699e+01 0 0 0
609 2 4.9220000000000006e+00 4.2625770374269978e+00 2.6685560964207699e+01 0 0 0
611 2 6.1524999999999999e+00 4.9730065436648339e+00 2.6685560964207699e+01 0 0 0
642 2 6.1524999999999999e+00 6.3938655561404980e+00 2.6685560964207699e+01 0 0 0
646 2 7.3829999999999991e+00 4.2625770374269996e+00 2.6685560964207699e+01 0 0 0
607 2 4.9220000000000006e+00 7.1042950623783341e+00 2.6685560964207699e+01 0 0 0
644 2 7.3830000000000009e+00 7.1042950623783341e+00 2.6685560964207699e+01 0 0 0
1012 2 1.1074500000000002e+01 1.4919019630994494e+01 3.3376439035764768e+01 0 0 0
648 2 8.6135000000000002e+00 4.9730065436648339e+00 2.6685560964207699e+01 0 0 0
687 2 8.6135000000000002e+00 6.3938655561404980e+00 2.6685560964207699e+01 0 0 0
691 2 9.8440000000000012e+00 4.2625770374270004e+00 2.6685560964207699e+01 0 0 0
693 2 1.1074500000000002e+01 4.9730065436648339e+00 2.6685560964207699e+01 0 0 0
734 2 1.1074500000000002e+01 6.3938655561404980e+00 2.6685560964207699e+01 0 0 0
689 2 9.8440000000000012e+00 7.1042950623783341e+00 2.6685560964207699e+01 0 0 0
572 2 0.0000000000000000e+00 8.5251540748539991e+00 2.6685560964207699e+01 0 0 0
574 2 1.2305000000000001e+00 9.2355835810918343e+00 2.6685560964207699e+01 0 0 0
601 2 2.4610000000000003e+00 8.5251540748539991e+00 2.6685560964207699e+01 0 0 0
603 2 3.6915000000000004e+00 9.2355835810918343e+00 2.6685560964207699e+01 0 0 0
570 2 0.0000000000000000e+00 1.1366872099805333e+01 2.6685560964207699e+01 0 0 0
597 2 1.2305000000000001e+00 1.0656442593567498e+01 2.6685560964207699e+01 0 0 0
599 2 2.4610000000000003e+00 1.1366872099805333e+01 2.6685560964207699e+01 0 0 0
634 2 3.6914999999999996e+00 1.0656442593567499e+01 2.6685560964207699e+01 0 0 0
994 2 1.1074500000000002e+01 1.3498160618518829e+01 3.3376439035764768e+01 0 0 0
638 2 4.9220000000000006e+00 8.5251540748539991e+00 2.6685560964207699e+01 0 0 0
640 2 6.1524999999999999e+00 9.2355835810918343e+00 2.6685560964207699e+01 0 0 0
683 2 7.3830000000000009e+00 8.5251540748539991e+00 2.6685560964207699e+01 0 0 0
636 2 4.9220000000000006e+00 1.1366872099805333e+01 2.6685560964207699e+01 0 0 0
679 2 6.1524999999999999e+00 1.0656442593567499e+01 2.6685560964207699e+01 0 0 0
681 2 7.3829999999999991e+00 1.1366872099805333e+01 2.6685560964207699e+01 0 0 0
685 2 8.6134999999999984e+00 9.2355835810918343e+00 2.6685560964207699e+01 0 0 0
730 2 9.8440000000000012e+00 8.5251540748539956e+00 2.6685560964207699e+01 0 0 0
732 2 1.1074500000000002e+01 9.2355835810918343e+00 2.6685560964207699e+01 0 0 0
726 2 8.6134999999999984e+00 1.0656442593567498e+01 2.6685560964207699e+01 0 0 0
728 2 9.8440000000000012e+00 1.1366872099805333e+01 2.6685560964207699e+01 0 0 0
773 2 1.1074500000000002e+01 1.0656442593567498e+01 2.6685560964207699e+01 0 0 0
775 2 1.2304999999999998e+01 1.1366872099805333e+01 2.6685560964207699e+01 0 0 0
593 2 0.0000000000000000e+00 1.2787731112280996e+01 2.6685560964207699e+01 0 0 0
595 2 1.2305000000000001e+00 1.3498160618518829e+01 2.6685560964207699e+01 0 0 0
630 2 2.4610000000000003e+00 1.2787731112280996e+01 2.6685560964207699e+01 0 0 0
632 2 3.6915000000000004e+00 1.3498160618518829e+01 2.6685560964207699e+01 0 0 0
591 2 0.0000000000000000e+00 1.5629449137232333e+01 2.6685560964207699e+01 0 0 0
626 2 1.2305000000000001e+00 1.4919019630994494e+01 2.6685560964207699e+01 0 0 0
628 2 2.4610000000000003e+00 1.5629449137232328e+01 2.6685560964207699e+01 0 0 0
671 2 3.6915000000000004e+00 1.4919019630994494e+01 2.6685560964207699e+01 0 0 0
991 2 8.6135000000000002e+00 1.4919019630994494e+01 3.3376439035764768e+01 0 0 0
675 2 4.9220000000000006e+00 1.2787731112280996e+01 2.6685560964207699e+01 0 0 0
677 2 6.1524999999999990e+00 1.3498160618518829e+01 2.6685560964207699e+01 0 0 0
722 2 7.3829999999999991e+00 1.2787731112280996e+01 2.6685560964207699e+01 0 0 0
673 2 4.9220000000000006e+00 1.5629449137232333e+01 2.6685560964207699e+01 0 0 0
718 2 6.1524999999999990e+00 1.4919019630994494e+01 2.6685560964207699e+01 0 0 0
720 2 7.3829999999999991e+00 1.5629449137232333e+01 2.6685560964207699e+01 0 0 0
724 2 8.6135000000000002e+00 1.3498160618518835e+01 2.6685560964207699e+01 0 0 0
769 2 9.8440000000000012e+00 1.2787731112280996e+01 2.6685560964207699e+01 0 0 0
771 2 1.1074500000000002e+01 1.3498160618518829e+01 2.6685560964207699e+01 0 0 0
765 2 8.6135000000000002e+00 1.4919019630994494e+01 2.6685560964207699e+01 0 0 0
767 2 9.8440000000000012e+00 1.5629449137232328e+01 2.6685560964207699e+01 0 0 0
807 2 1.1074500000000002e+01 1.4919019630994494e+01 2.6685560964207699e+01 0 0 0
553 2 0.0000000000000000e+00 1.4208590124756650e+00 3.0030999999998464e+01 0 0 0
555 2 0.0000000000000000e+00 0.0000000000000000e+00 3.0030999999998464e+01 0 0 0
564 2 1.2305000000000001e+00 2.1312885187134998e+00 3.0030999999998464e+01 0 0 0
566 2 2.4610000000000003e+00 1.4208590124756650e+00 3.0030999999998464e+01 0 0 0
568 2 2.4610000000000003e+00 0.0000000000000000e+00 3.0030999999998464e+01 0 0 0
585 2 3.6914999999999996e+00 2.1312885187134998e+00 3.0030999999998464e+01 0 0 0
562 2 1.2305000000000001e+00 3.5521475311891644e+00 3.0030999999998464e+01 0 0 0
583 2 3.6914999999999996e+00 3.5521475311891644e+00 3.0030999999998464e+01 0 0 0
587 2 4.9220000000000006e+00 1.4208590124756650e+00 3.0030999999998464e+01 0 0 0
589 2 4.9220000000000006e+00 0.0000000000000000e+00 3.0030999999998464e+01 0 0 0
614 2 6.1524999999999999e+00 2.1312885187134989e+00 3.0030999999998464e+01 0 0 0
616 2 7.3829999999999991e+00 1.4208590124756659e+00 3.0030999999998464e+01 0 0 0
618 2 7.3829999999999991e+00 0.0000000000000000e+00 3.0030999999998464e+01 0 0 0
612 2 6.1524999999999999e+00 3.5521475311891644e+00 3.0030999999998464e+01 0 0 0
651 2 8.6134999999999984e+00 2.1312885187135002e+00 3.0030999999998464e+01 0 0 0
653 2 9.8440000000000012e+00 1.4208590124756659e+00 3.0030999999998464e+01 0 0 0
655 2 9.8440000000000012e+00 0.0000000000000000e+00 3.0030999999998464e+01 0 0 0
696 2 1.1074500000000002e+01 2.1312885187135002e+00 3.0030999999998464e+01 0 0 0
649 2 8.6134999999999984e+00 3.5521475311891657e+00 3.0030999999998464e+01 0 0 0
694 2 1.1074500000000002e+01 3.5521475311891644e+00 3.0030999999998464e+01 0 0 0
558 2 0.0000000000000000e+00 5.6834360499026637e+00 3.0030999999998464e+01 0 0 0
560 2 0.0000000000000000e+00 4.2625770374269996e+00 3.0030999999998464e+01 0 0 0
577 2 1.2305000000000001e+00 6.3938655561404980e+00 3.0030999999998464e+01 0 0 0
579 2 2.4610000000000003e+00 5.6834360499026637e+00 3.0030999999998464e+01 0 0 0
581 2 2.4610000000000003e+00 4.2625770374269996e+00 3.0030999999998464e+01 0 0 0
606 2 3.6914999999999996e+00 6.3938655561404980e+00 3.0030999999998464e+01 0 0 0
575 2 1.2305000000000001e+00 7.8147245686161639e+00 3.0030999999998464e+01 0 0 0
604 2 3.6914999999999996e+00 7.8147245686161639e+00 3.0030999999998464e+01 0 0 0
608 2 4.9220000000000006e+00 5.6834360499026637e+00 3.0030999999998464e+01 0 0 0
610 2 4.9220000000000006e+00 4.2625770374269978e+00 3.0030999999998464e+01 0 0 0
643 2 6.1524999999999999e+00 6.3938655561404980e+00 3.0030999999998464e+01 0 0 0
645 2 7.3829999999999991e+00 5.6834360499026637e+00 3.0030999999998464e+01 0 0 0
647 2 7.3829999999999991e+00 4.2625770374269996e+00 3.0030999999998464e+01 0 0 0
641 2 6.1524999999999999e+00 7.8147245686161639e+00 3.0030999999998464e+01 0 0 0
688 2 8.6135000000000002e+00 6.3938655561404980e+00 3.0030999999998464e+01 0 0 0
690 2 9.8440000000000012e+00 5.6834360499026637e+00 3.0030999999998464e+01 0 0 0
692 2 9.8440000000000012e+00 4.2625770374270004e+00 3.0030999999998464e+01 0 0 0
735 2 1.1074500000000002e+01 6.3938655561404980e+00 3.0030999999998464e+01 0 0 0
686 2 8.6135000000000002e+00 7.8147245686161639e+00 3.0030999999998464e+01 0 0 0
733 2 1.1074500000000002e+01 7.8147245686161639e+00 3.0030999999998464e+01 0 0 0
571 2 0.0000000000000000e+00 9.9460130873296642e+00 3.0030999999998464e+01 0 0 0
573 2 0.0000000000000000e+00 8.5251540748539991e+00 3.0030999999998464e+01 0 0 0
600 2 2.4610000000000003e+00 9.9460130873296642e+00 3.0030999999998464e+01 0 0 0
602 2 2.4610000000000003e+00 8.5251540748539991e+00 3.0030999999998464e+01 0 0 0
596 2 1.2305000000000001e+00 1.2077301606043163e+01 3.0030999999998464e+01 0 0 0
598 2 1.2305000000000001e+00 1.0656442593567498e+01 3.0030999999998464e+01 0 0 0
633 2 3.6914999999999996e+00 1.2077301606043163e+01 3.0030999999998464e+01 0 0 0
635 2 3.6914999999999996e+00 1.0656442593567499e+01 3.0030999999998464e+01 0 0 0
637 2 4.9220000000000006e+00 9.9460130873296642e+00 3.0030999999998464e+01 0 0 0
639 2 4.9220000000000006e+00 8.5251540748539991e+00 3.0030999999998464e+01 0 0 0
682 2 7.3830000000000009e+00 9.9460130873296642e+00 3.0030999999998464e+01 0 0 0
684 2 7.3830000000000009e+00 8.5251540748539991e+00 3.0030999999998464e+01 0 0 0
678 2 6.1524999999999999e+00 1.2077301606043163e+01 3.0030999999998464e+01 0 0 0
680 2 6.1524999999999999e+00 1.0656442593567499e+01 3.0030999999998464e+01 0 0 0
729 2 9.8440000000000012e+00 9.9460130873296642e+00 3.0030999999998464e+01 0 0 0
731 2 9.8440000000000012e+00 8.5251540748539956e+00 3.0030999999998464e+01 0 0 0
725 2 8.6135000000000002e+00 1.2077301606043163e+01 3.0030999999998464e+01 0 0 0
727 2 8.6134999999999984e+00 1.0656442593567498e+01 3.0030999999998464e+01 0 0 0
772 2 1.1074500000000002e+01 1.2077301606043163e+01 3.0030999999998464e+01 0 0 0
774 2 1.1074500000000002e+01 1.0656442593567498e+01 3.0030999999998464e+01 0 0 0
594 2 0.0000000000000000e+00 1.2787731112280996e+01 3.0030999999998464e+01 0 0 0
631 2 2.4610000000000003e+00 1.2787731112280996e+01 3.0030999999998464e+01 0 0 0
592 2 0.0000000000000000e+00 1.4208590124756663e+01 3.0030999999998464e+01 0 0 0
627 2 1.2305000000000001e+00 1.4919019630994494e+01 3.0030999999998464e+01 0 0 0
629 2 2.4610000000000003e+00 1.4208590124756663e+01 3.0030999999998464e+01 0 0 0
672 2 3.6915000000000004e+00 1.4919019630994494e+01 3.0030999999998464e+01 0 0 0
676 2 4.9220000000000006e+00 1.2787731112280996e+01 3.0030999999998464e+01 0 0 0
723 2 7.3829999999999991e+00 1.2787731112280996e+01 3.0030999999998464e+01 0 0 0
674 2 4.9220000000000006e+00 1.4208590124756663e+01 3.0030999999998464e+01 0 0 0
719 2 6.1524999999999990e+00 1.4919019630994494e+01 3.0030999999998464e+01 0 0 0
721 2 7.3830000000000009e+00 1.4208590124756663e+01 3.0030999999998464e+01 0 0 0
770 2 9.8440000000000012e+00 1.2787731112280996e+01 3.0030999999998464e+01 0 0 0
766 2 8.6135000000000002e+00 1.4919019630994494e+01 3.0030999999998464e+01 0 0 0
768 2 9.8440000000000012e+00 1.4208590124756663e+01 3.0030999999998464e+01 0 0 0
806 2 1.1074500000000002e+01 1.6339878643470161e+01 3.0030999999998464e+01 0 0 0
808 2 1.1074500000000002e+01 1.4919019630994494e+01 3.0030999999998464e+01 0 0 0
810 2 1.2304999999999998e+01 1.4208590124756658e+01 3.0030999999998464e+01 0 0 0
881 2 0.0000000000000000e+00 2.8417180249513345e+00 3.3376439035764768e+01 0 0 0
882 2 0.0000000000000000e+00 0.0000000000000000e+00 3.3376439035764768e+01 0 0 0
883 2 1.2305000000000001e+00 7.1042950623783474e-01 3.3376439035764768e+01 0 0 0
887 2 1.2305000000000001e+00 2.1312885187134998e+00 3.3376439035764768e+01 0 0 0
888 2 2.4610000000000003e+00 2.8417180249513345e+00 3.3376439035764768e+01 0 0 0
889 2 2.4610000000000003e+00 0.0000000000000000e+00 3.3376439035764768e+01 0 0 0
890 2 3.6915000000000004e+00 7.1042950623783474e-01 3.3376439035764768e+01 0 0 0
898 2 3.6914999999999996e+00 2.1312885187134998e+00 3.3376439035764768e+01 0 0 0
899 2 4.9220000000000006e+00 2.8417180249513332e+00 3.3376439035764768e+01 0 0 0
900 2 4.9220000000000006e+00 0.0000000000000000e+00 3.3376439035764768e+01 0 0 0
901 2 6.1524999999999999e+00 7.1042950623783407e-01 3.3376439035764768e+01 0 0 0
913 2 6.1524999999999999e+00 2.1312885187134989e+00 3.3376439035764768e+01 0 0 0
914 2 7.3829999999999991e+00 2.8417180249513345e+00 3.3376439035764768e+01 0 0 0
915 2 7.3829999999999991e+00 0.0000000000000000e+00 3.3376439035764768e+01 0 0 0
916 2 8.6134999999999984e+00 7.1042950623783407e-01 3.3376439035764768e+01 0 0 0
932 2 8.6134999999999984e+00 2.1312885187135002e+00 3.3376439035764768e+01 0 0 0
933 2 9.8440000000000012e+00 2.8417180249513332e+00 3.3376439035764768e+01 0 0 0
934 2 9.8440000000000012e+00 0.0000000000000000e+00 3.3376439035764768e+01 0 0 0
935 2 1.1074500000000002e+01 7.1042950623783330e-01 3.3376439035764768e+01 0 0 0
955 2 1.1074500000000002e+01 2.1312885187135002e+00 3.3376439035764768e+01 0 0 0
885 2 0.0000000000000000e+00 4.2625770374269996e+00 3.3376439035764768e+01 0 0 0
886 2 1.2305000000000001e+00 4.9730065436648339e+00 3.3376439035764768e+01 0 0 0
894 2 1.2305000000000001e+00 6.3938655561404980e+00 3.3376439035764768e+01 0 0 0
896 2 2.4610000000000003e+00 4.2625770374269996e+00 3.3376439035764768e+01 0 0 0
897 2 3.6914999999999996e+00 4.9730065436648339e+00 3.3376439035764768e+01 0 0 0
909 2 3.6914999999999996e+00 6.3938655561404980e+00 3.3376439035764768e+01 0 0 0
884 2 0.0000000000000000e+00 7.1042950623783341e+00 3.3376439035764768e+01 0 0 0
895 2 2.4610000000000003e+00 7.1042950623783341e+00 3.3376439035764768e+01 0 0 0
911 2 4.9220000000000006e+00 4.2625770374269978e+00 3.3376439035764768e+01 0 0 0
912 2 6.1524999999999999e+00 4.9730065436648339e+00 3.3376439035764768e+01 0 0 0
928 2 6.1524999999999999e+00 6.3938655561404980e+00 3.3376439035764768e+01 0 0 0
930 2 7.3829999999999991e+00 4.2625770374269996e+00 3.3376439035764768e+01 0 0 0
910 2 4.9220000000000006e+00 7.1042950623783341e+00 3.3376439035764768e+01 0 0 0
929 2 7.3830000000000009e+00 7.1042950623783341e+00 3.3376439035764768e+01 0 0 0
970 2 8.6135000000000002e+00 1.3498160618518835e+01 3.3376439035764768e+01 0 0 0
931 2 8.6135000000000002e+00 4.9730065436648339e+00 3.3376439035764768e+01 0 0 0
951 2 8.6135000000000002e+00 6.3938655561404980e+00 3.3376439035764768e+01 0 0 0
953 2 9.8440000000000012e+00 4.2625770374270004e+00 3.3376439035764768e+01 0 0 0
954 2 1.1074500000000002e+01 4.9730065436648339e+00 3.3376439035764768e+01 0 0 0
975 2 1.1074500000000002e+01 6.3938655561404980e+00 3.3376439035764768e+01 0 0 0
952 2 9.8440000000000012e+00 7.1042950623783341e+00 3.3376439035764768e+01 0 0 0
892 2 0.0000000000000000e+00 8.5251540748539991e+00 3.3376439035764768e+01 0 0 0
893 2 1.2305000000000001e+00 9.2355835810918343e+00 3.3376439035764768e+01 0 0 0
907 2 2.4610000000000003e+00 8.5251540748539991e+00 3.3376439035764768e+01 0 0 0
908 2 3.6915000000000004e+00 9.2355835810918343e+00 3.3376439035764768e+01 0 0 0
891 2 0.0000000000000000e+00 1.1366872099805333e+01 3.3376439035764768e+01 0 0 0
905 2 1.2305000000000001e+00 1.0656442593567498e+01 3.3376439035764768e+01 0 0 0
906 2 2.4610000000000003e+00 1.1366872099805333e+01 3.3376439035764768e+01 0 0 0
924 2 3.6914999999999996e+00 1.0656442593567499e+01 3.3376439035764768e+01 0 0 0
993 2 9.8440000000000012e+00 1.2787731112280996e+01 3.3376439035764768e+01 0 0 0
926 2 4.9220000000000006e+00 8.5251540748539991e+00 3.3376439035764768e+01 0 0 0
927 2 6.1524999999999999e+00 9.2355835810918343e+00 3.3376439035764768e+01 0 0 0
949 2 7.3830000000000009e+00 8.5251540748539991e+00 3.3376439035764768e+01 0 0 0
925 2 4.9220000000000006e+00 1.1366872099805333e+01 3.3376439035764768e+01 0 0 0
947 2 6.1524999999999999e+00 1.0656442593567499e+01 3.3376439035764768e+01 0 0 0
948 2 7.3829999999999991e+00 1.1366872099805333e+01 3.3376439035764768e+01 0 0 0
950 2 8.6134999999999984e+00 9.2355835810918343e+00 3.3376439035764768e+01 0 0 0
973 2 9.8440000000000012e+00 8.5251540748539956e+00 3.3376439035764768e+01 0 0 0
974 2 1.1074500000000002e+01 9.2355835810918343e+00 3.3376439035764768e+01 0 0 0
971 2 8.6134999999999984e+00 1.0656442593567498e+01 3.3376439035764768e+01 0 0 0
972 2 9.8440000000000012e+00 1.1366872099805333e+01 3.3376439035764768e+01 0 0 0
995 2 1.1074500000000002e+01 1.0656442593567498e+01 3.3376439035764768e+01 0 0 0