LAMMPS data file via write_data, version 16 Mar 2018, timestep = 100000

6736 atoms
2 atom types

7.9116393278191310e-02 4.9140883606721573e+01 xlo xhi
7.8794327399389630e-02 4.8940841603011599e+01 ylo yhi
5.6805286776892672e-02 6.0005194713222032e+01 zlo zhi

Masses

1 18.015
2 12.01

Atoms # atomic

5546 1 1.8924319881148442e+01 5.0888734392768651e+00 1.0543277236830018e+01 0 0 0
6215 1 2.2389519424180451e+00 1.6189545011697677e+00 7.2410825557970977e+00 2 1 1
1886 1 1.2872563676698084e+01 5.4274067185656207e+00 1.1068245763774870e+01 0 0 1
4459 1 1.4991795756903098e+01 1.2525205576301528e+00 1.0258237492692880e+01 1 2 1
853 1 7.3718038699133652e+00 6.5073642380809300e+00 4.2007255733751432e+00 0 0 1
2696 1 1.0308042079179049e+01 1.9874564256497571e+00 1.4859502945510872e+01 -1 2 1
5937 1 8.4816298174848956e+00 4.2685730131317277e+00 1.0739953645466418e+00 -1 -1 1
1715 1 8.3142536472653958e+00 1.5621599879074657e+00 7.2205771504202287e+00 1 2 1
6154 1 1.2063476758483077e+01 8.0041111657345709e+00 1.3357378631957773e+00 -1 1 1
5276 1 5.8357780317609462e+00 1.4800153854772750e+01 9.0550370055541562e-01 -1 0 0
1756 1 2.2238326579894700e+01 4.3514157118980501e+00 8.5263637602247968e+00 -1 1 0
3708 1 2.3108697038717921e+01 2.3816755941672383e+01 6.2950817259857716e+00 0 2 0
4437 1 1.8258003228264041e+01 5.6925612244659067e+00 1.3867268315849923e-01 1 2 1
6152 1 1.1783106898411475e+01 1.5033752404479406e+00 3.8572372597862929e+00 0 2 1
1759 1 6.5732790775228498e+00 4.3907586062421702e+00 5.8411026687999072e+00 0 2 0
1766 1 1.2397319878241444e+01 2.6680317639512228e+00 1.0798302900484073e+01 0 1 0
171 1 7.1040865177974792e+00 8.4715788991311385e+00 6.0103214770205957e+00 0 0 1
6214 1 4.1818997104796232e+00 1.6085430420224970e+01 6.6346367126133892e+00 0 0 1
250 1 3.2452867171180562e+00 5.9442288235279745e+00 5.4774459433304941e+00 2 0 0
4506 1 2.2873243187688193e+01 2.2739241787650059e+01 3.5331019542257667e+00 1 1 1
141 1 8.2419351459007846e+00 4.3368322393859531e+00 9.3618432747691447e+00 0 -1 0
3715 1 1.8245472271928371e+01 1.8337131490202896e+01 3.1889709725991908e+00 0 3 0
3760 1 1.0541746044071198e+01 2.3156371772577500e+00 6.5549581632186893e+00 2 0 0
1954 1 1.8225800004839137e+01 5.7423696998615759e+00 4.2353852088059245e+00 0 -1 0
5400 1 1.0014810231465351e+01 6.6613242646981341e+00 5.7810224937519399e+00 1 0 0
1878 1 9.9712255799919181e+00 2.4494952212678409e-01 9.4370788571097588e+00 0 2 1
6103 1 2.3561782068247460e+01 1.3262031731196304e+01 9.0026478660575258e+00 1 1 0
1859 1 2.2600932605802093e+01 1.1097424869996972e+00 4.4420005294148961e+00 0 1 0
5894 1 1.1579952355584995e+01 7.2603970035972702e+00 1.2864099783702896e+01 -2 1 1
150 1 1.7282023504206588e+01 7.5002599650173369e+00 9.0206376827410431e+00 0 1 0
1931 1 6.1018408149323182e+00 1.3731980484343373e+00 9.1414093639125547e+00 2 2 0
1173 1 1.2578822089064607e+01 2.3872828833935125e-01 6.6903859698382977e+00 1 3 1
917 1 3.9550029242371916e+00 9.0943276552915684e+00 5.3637471743325493e+00 -1 0 1
1972 1 5.7632960486123945e+00 1.2419919265464006e+01 2.3007391388345737e+00 -1 1 0
17 1 2.1523613045914960e+00 5.4854717846763501e+00 1.6312280795943324e+00 -1 -1 0
2757 1 1.7713515566361371e+00 8.1493466439108708e+00 3.1076285483540786e+00 1 -1 1
3683 1 9.4632962290718172e+00 1.1915669820860320e+01 3.6452042362582309e+00 0 0 1
3551 1 7.4092715291577269e+00 1.4933052069991845e+01 3.9984291622429358e+00 1 0 1
412 1 9.6733941220565960e+00 2.0044413972207792e+01 2.1362869984150392e+00 0 -1 0
1784 1 1.1464327702422658e+01 7.9535166152588559e+00 1.0045010341111812e+01 2 1 0
4364 1 2.4206487104319187e+01 1.0361424957952920e+01 9.3445405600819615e+00 1 1 1
4272 1 1.4805307569574889e+01 1.2361551638486615e+01 3.5626084910882566e-01 1 0 1
1746 1 1.7615055205175487e+01 1.2611051576293862e+01 8.0818268669875071e+00 1 1 0
2069 1 2.0638195563457270e+01 2.3899380840095191e+01 9.6341381808479767e+00 2 -1 0
3764 1 2.0568403881755636e+01 8.4625601791205796e+00 1.1523192531705080e+01 0 0 0
3388 1 1.6559826436424199e+01 9.1194743716656870e+00 5.8389760630760028e+00 1 0 0
2771 1 2.2290133965733090e+00 2.3477118376479925e+01 4.1305775468849104e+00 0 2 1
3698 1 1.8834232546843506e+01 7.9540639215395661e+00 2.2125331968826960e+00 2 1 0
4517 1 2.2567679502352394e+01 1.6536397506346329e+01 3.3090416563017446e+00 1 -1 1
2422 1 2.0414504461676401e+01 1.7492709695869024e+01 6.7480527597413760e+00 0 1 0
3519 1 4.0263041119877920e+00 1.6856798625912891e+01 2.5570735680631023e+00 0 1 0
2631 1 5.6135907974930035e+00 2.3049307642533698e+01 1.0506228821146681e+01 -1 -1 1
368 1 1.9083183300719046e+01 1.6682650123510461e+00 1.1631700349266580e+01 0 2 0
4399 1 5.1194552301333651e+00 8.6571929298349737e+00 2.8814058932247546e+00 2 0 1
1742 1 1.2694506330468597e+01 6.9684620753707760e+00 4.9143242673817804e+00 1 0 0
1146 1 1.5987248029714229e+01 2.2432275339783455e+01 1.0491124094922151e+01 2 0 1
2805 1 9.9329460278781951e+00 2.2997309529803527e+01 1.3309010507512868e+00 0 0 1
1089 1 2.4427578960511806e+01 8.9632049298327878e+00 1.4840705592089284e+01 1 0 1
4138 1 1.0183530426327508e+01 2.0598825639821197e+00 1.1300528059664094e+00 1 1 1
1052 1 1.8362831398472256e+01 1.9127068513842115e+01 7.6184831183456234e+00 0 0 1
2117 1 2.3471238162125328e+01 8.9056208778031909e+00 1.1658480342253894e+01 -1 1 0
822 1 1.7152858271160401e+01 1.2585476975624349e+01 3.4960325425291727e+00 -2 1 1
1140 1 1.7318292347381405e+01 7.8236066616217066e+00 1.4384935316206354e+01 2 0 0
5990 1 2.0827408992316808e+01 4.3185023453743758e+00 9.1849694673555721e-02 1 1 0
3582 1 2.1288752294298234e+01 1.3352596305584390e+01 6.7671839439042101e+00 0 3 0
1877 1 2.2386777529825949e+01 6.1428848180922904e+00 2.0373920644862284e+00 1 0 0
249 1 1.2124430209807951e+01 2.1927983502416769e+01 1.1883833197491368e+01 1 -1 0
1894 1 1.7210275818832518e+01 1.9761452257740284e+01 1.4795608175888411e+01 2 2 0
2896 1 2.5609105618696910e+00 1.3888370369660549e+01 8.0347234376048942e+00 1 -1 1
803 1 6.7055354159538911e+00 1.7647797948326165e+01 3.2517227683374812e+00 1 0 1
234 1 9.4810858254130359e+00 1.5532271920028498e+01 6.1027301746983671e+00 -2 0 1
5806 1 8.2645128372483647e+00 2.2932864711141097e+01 3.3402764870713351e+00 2 1 0
2136 1 1.0337558350888566e+01 2.1616544716023917e+01 5.2671240047538737e+00 0 -1 0
5293 1 1.2365953884574083e+01 1.9500857069363050e+01 3.4086481911049309e+00 -1 1 0
37 1 1.4281981264624298e+01 1.7371147421583661e+01 2.4118924701369933e+00 1 1 0
6234 1 1.6345566737181439e+01 1.5882321376594589e+01 6.1412735748481380e+00 0 0 1
1043 1 1.5638699616951902e+01 1.8676298349279882e+01 6.4766704011923650e+00 0 1 1
4144 1 2.0677028566673510e+01 1.0612227957509588e+00 1.4876503865215815e+01 -1 2 1
1241 1 2.0789407064277750e+01 1.8683886767508952e+01 1.3480823426891545e+01 1 2 1
2573 1 2.4541730046387165e+00 1.1132398666068042e+01 2.4315690690795346e+00 1 -1 1
6292 1 1.2095072136731247e+01 1.5233910775302840e+01 2.6047410556585744e+00 -1 1 1
5442 1 2.4102768894532350e+01 3.2786497768612270e+00 5.4236834186417173e+00 0 1 0
2686 1 6.5691362298973033e+00 2.0324828550324607e+01 3.0958667547297400e+00 -1 -1 1
2870 1 2.0221447362475875e+01 1.5260006017779277e+01 8.1821621501735660e+00 3 1 1
4617 1 2.2709313440792183e+01 1.8363338742970871e+01 7.8673843939009496e+00 1 0 1
1976 1 6.0420406768436035e+00 2.3491593161561664e+01 7.4480580521164121e+00 0 2 0
4202 1 2.5505638885599931e+00 1.4300744898582121e+01 2.4998850761994684e+00 1 0 1
5508 1 4.9597099391867951e+00 1.5860627788629158e+00 6.6091108526811029e+00 1 0 0
4119 1 2.4005518421553345e+00 2.0026863631502206e+01 1.2030787981314288e+00 -1 1 1
6243 1 1.3710514078158921e+01 8.8999388695805539e+00 3.1574599097246301e+00 -1 1 1
5532 1 1.7297219578038142e+01 3.1243857584265418e+00 8.4558326211214805e+00 -2 0 0
2181 1 1.0145122762905496e+01 4.1047548934168612e+00 4.2508740995744398e+00 0 -1 0
5590 1 2.4391964366462442e+01 1.2526153882426286e+01 1.2225305521736876e+01 -1 0 0
4515 1 1.2880223112490851e+01 2.0130423162321556e+01 5.7218513654666872e+00 -1 2 0
3456 1 1.8073730561113148e+00 6.3638796940884634e-01 3.3554463139171862e+00 2 0 0
2015 1 1.7352594667210067e+01 1.6366053829213712e+01 3.5802731868406817e-01 -1 0 0
5992 1 7.9257697367337432e+00 1.7774165455122368e+01 3.8601540583366045e-01 -1 1 1
1918 1 2.3419539642444787e+00 1.2431094447071715e+01 5.2410705572448677e+00 0 0 0
2039 1 1.6643228754596237e+01 1.5792624586698729e+01 3.2235497997971199e+00 -1 0 0
3851 1 2.0437232765239031e+01 1.7923048044011722e+01 4.2119182544088289e+00 1 -2 0
767 1 1.6909262010082752e+01 2.4912967670478579e+00 1.4552818176924758e+00 0 -2 0
1210 1 2.0040916878941207e+01 1.8991693205920509e+01 7.6230592123068686e-01 1 -2 1
2506 1 7.7467866210739542e+00 1.2084228336353926e+01 6.2766703901460206e+00 -1 -1 1
6144 1 1.1969403440199631e+01 2.3854065932172077e+01 3.3228381076956959e+00 0 1 1
54 1 1.5548334465621439e+01 3.0277450733909466e+00 1.2159868054056599e+01 1 0 1
5383 1 5.5204282445946173e+00 4.5132332139143161e+00 9.1848794997446408e+00 2 0 1
506 1 7.6264931303265140e+00 7.8105073047906028e+00 9.5963626817323799e+00 1 1 0
1133 1 1.1190948104930711e+00 1.6784631978075502e+01 7.3314616577936755e+00 0 1 1
216 1 1.8085699493125773e+01 2.7225916292270256e+00 4.0649977076214343e+00 -2 -1 0
219 1 4.8532922541226480e+00 2.2402497259483695e+01 1.7047958114813727e-01 1 1 0
869 1 5.2979551761622510e+00 1.8784505916350934e+01 3.6483605309453976e-01 2 -1 1
2663 1 1.2278721339525839e+01 3.7199764276528597e+00 8.2446598729193887e+00 1 2 1
1968 1 1.5282333463865964e+01 2.5448343956662467e+00 4.7926678097101414e+00 -1 0 0
2019 1 6.4968142026301801e-01 3.1624677350885437e+00 9.7802039428570477e+00 1 1 0
2903 1 2.3600508211908924e+01 9.6844666213990713e+00 6.6702509960510303e+00 1 1 0
2154 1 1.1765963024047529e+01 1.1169005765303925e+01 4.3054840422889127e+00 0 1 0
4393 1 1.8541362919603877e+01 1.3870113386966990e+01 1.5541645610067305e+00 0 -1 1
4579 1 2.2125064388360101e+01 6.1266239101612481e+00 6.0272018987078919e+00 1 0 0
875 1 2.2284984257189368e+01 3.6039961335426596e+00 1.4947165665481140e+01 0 2 1
4123 1 1.8493199614073934e+01 2.1713190883523637e+01 9.0999385939476412e+00 0 0 1
2719 1 1.6990930275792554e+01 2.4235458391382153e+01 2.7517441292545821e+00 0 1 1
6132 1 1.3142479960913052e+01 4.3822577496610320e+00 3.2777876389097438e+00 0 1 1
6174 1 1.5570648868586874e+00 7.7506971042727351e+00 7.6470964650398692e+00 1 0 1
1808 1 3.2503383010405971e+00 2.0228994525274713e+00 9.6371409490489039e+00 1 0 0
6164 1 3.3342394381404250e+00 6.1455359091658064e+00 1.0084946092981799e+01 2 0 1
1844 1 5.2509831378778404e+00 6.8073959554084968e+00 7.2949087415937157e+00 1 -1 0
5181 1 5.1105326175847656e+00 1.1223598194294299e+01 6.6599919939730645e+00 0 0 0
5321 1 9.0032868671438173e+00 1.0019744326746697e+01 7.7623834350259049e+00 0 0 1
4549 1 9.6482280719962095e+00 1.1101415944806940e+01 1.0454777620293699e+01 2 0 0
5956 1 7.9669880520426419e+00 2.6583885258540607e+00 3.9348704248261459e+00 1 3 1
347 1 1.4787383441642955e+01 6.8217256964754025e+00 6.8988222524873155e+00 1 0 0
5284 1 1.1360045359182372e+01 1.0995303902953854e+01 7.3281198304384301e+00 2 3 0
5879 1 1.6795582939867298e+01 9.7844280183381969e+00 3.0695536539475983e+00 0 -1 1
5955 1 2.1124776366031320e+01 3.5527147173292728e+00 3.8968694206918206e+00 0 3 1
784 1 1.9969526849056724e+01 1.8031213523157956e+00 6.2228226094248003e+00 -1 2 0
2788 1 4.7878263494808637e+00 2.4019509541423435e+01 1.3826496834279782e+01 0 -2 1
1803 1 2.1362261878609893e+01 8.1198825641268773e+00 3.7673490891210566e+00 1 0 1
4540 1 8.2396248604392086e-01 1.0046166296816386e+01 6.1158771521611053e+00 1 1 1
5918 1 5.0122818254619910e+00 8.4093411901834667e+00 1.1433431754242566e+01 2 -1 0
223 1 3.6319024732433047e+00 1.2079137129857397e+01 1.0118805771512493e+01 1 -1 0
5497 1 6.4587395080827443e+00 1.4709206569456748e+01 7.4990226753863549e+00 -1 0 0
5971 1 3.6991363780427267e+00 1.0172443282547379e+01 1.3345777483591638e+01 1 1 1
6156 1 4.9830446234541723e+00 1.3477876311676694e+01 4.7315694635195875e+00 0 0 1
2547 1 2.1887326121455132e+01 1.7974313002696980e+00 8.6555720959378277e+00 0 2 1
944 1 8.6949832458400582e+00 1.9244402572339009e+01 5.0702737139265350e+00 1 -2 1
287 1 9.9012596947551224e+00 1.3803850705421878e+01 7.8624795070982252e+00 1 1 0
6231 1 1.3689678165757750e+01 1.8560771405754885e+01 1.0937237838252997e+01 1 0 1
5306 1 1.4766973699511244e+01 1.3506843986657355e+01 5.2846938752124553e+00 -1 1 0
3816 1 1.0322888204118968e+01 5.9506603704680172e+00 8.3716847925467643e+00 0 -2 0
5490 1 1.5005825155865846e+01 3.6933988723805489e+00 7.2137608097027170e+00 0 0 0
840 1 2.1146046615645833e+01 1.0781676726606920e+01 9.1500894695988251e+00 1 1 0
2482 1 1.5519613112207720e+01 2.3616470461680645e+01 1.4608840245746386e+01 1 0 1
4125 1 7.9637006887720876e+00 2.3451696189859920e+01 1.4813951175856504e+01 2 0 1
3787 1 1.0536600108125154e+00 5.2067267347575914e+00 1.1656545036961768e+01 1 1 0
5457 1 2.1352201523140319e+00 1.6057528452898346e+01 1.0635447158873006e+01 0 2 0
4418 1 1.5188394049759202e+00 3.1523048401423499e+00 4.7770162621849623e+00 -2 0 1
4148 1 6.7819732432437938e+00 2.0830811943921859e+01 6.3954060451265802e+00 0 0 1
6176 1 5.6440011448607450e+00 1.2709092866082386e+01 1.2380471691919801e+01 0 1 1
5189 1 4.0657330923256776e+00 1.8349774184507432e+01 8.6394719370729689e+00 0 0 0
4378 1 9.1718190419712311e+00 1.7285568635669595e+01 9.8928794712347070e+00 2 1 1
1957 1 1.0488377811465352e+01 1.7756852752437361e+01 6.9778778031874342e+00 0 1 0
42 1 1.3359853878148654e+01 1.7994321509045509e+01 8.3344917458963259e+00 1 1 0
974 1 7.3847760008993504e+00 1.3571274216665749e+01 9.9270604114768268e+00 0 0 1
6149 1 2.1805476677865951e+01 2.0273339610184944e+01 9.6563162783879228e+00 0 1 0
3501 1 8.4799822347896736e+00 2.0319443315524147e+01 8.3203224435377212e+00 -1 -1 1
5892 1 2.3572649139873036e+01 1.9856218031851459e+01 5.9310011648039120e+00 2 1 1
3390 1 2.0672727644690987e+01 1.5691986373313352e+01 1.0876473888305544e+01 -1 2 1
390 1 1.6018980668881778e+01 8.0457277051483729e+00 1.1823184495664595e+01 -1 1 0
2922 1 1.1944555749915067e+00 1.7685077941145249e+01 1.9923135926992178e-01 2 0 1
404 1 3.0409752207510932e-01 1.8777859711631034e+01 3.8045810511148406e+00 1 0 0
4488 1 7.2307772936214283e+00 1.0265450062618571e+01 2.1529063412425775e+00 0 1 1
5163 1 2.1939002409047180e+01 1.0334461776170391e+01 4.7926278328501386e+00 1 1 0
5192 1 2.1721886359728067e+01 7.8526452828047049e+00 8.8095552257086815e+00 0 -1 0
5817 1 1.4073195653831037e+01 2.1247072435215724e+01 1.3901637347299697e+01 1 2 0
269 1 6.5407498587313757e+00 1.8014780660578257e+01 9.5558451523826839e+00 0 -1 0
2147 1 1.9237092164994738e+01 9.5600007639029450e+00 6.4249459811981779e+00 -1 -1 0
5109 1 1.8125760385285016e+01 5.0670654104717325e+00 1.3272407348964924e+01 0 2 0
328 1 3.0080746411994106e+00 1.8488180281022622e+01 4.9671810460834562e+00 1 0 0
1054 1 9.5463642723480913e+00 1.0000257513564792e+01 5.2197251471756956e-01 0 0 1
5294 1 1.0819068241666937e+01 1.9450531773611317e+01 1.0980707839354016e+01 -3 0 0
1741 1 4.1106718037733829e+00 2.0455174337587504e+01 6.8309910948935375e+00 1 -2 1
2061 1 2.1338325008267727e+01 2.2112594787642941e+01 7.0569372567242530e+00 0 0 0
4512 1 1.9567560702514818e+01 2.1257365648264720e+01 4.9941382573390660e+00 3 1 0
200 1 1.2450711225047968e+01 1.0869556649344196e+01 4.3555258095779931e-01 -1 -1 0
73 1 2.2628696591158146e+01 1.0976395024750817e+01 1.3497958659944613e+01 -1 1 0
854 1 5.7713799961339189e+00 6.6859021481141196e+00 1.3881726151017261e+01 1 -1 0
1083 1 2.9558329398696874e+00 2.2143143816757611e+01 8.4514125343307533e+00 1 -1 1
296 1 2.1478805351863208e+01 4.6066708387149164e+00 1.2374197550402542e+01 1 1 1
2829 1 1.9473220459766715e+01 2.3438317243138109e+00 8.8087964285752374e-01 -1 0 0
2468 1 8.9282753734854623e+00 2.2787537587523222e+01 1.2283016489733665e+01 2 -1 0
2439 1 6.4747724519592618e+00 7.4603014686745350e-01 2.1163187467500522e+00 0 1 1
1767 1 2.4080676719427203e+01 4.3230746858461986e+00 1.1462837474217958e+01 1 2 0
1090 1 1.3490213310172022e+01 1.3056350637665723e+01 3.1713137178446895e+00 -2 0 0
2734 1 5.6992006551498831e+00 6.1377176525630635e+00 1.8484532250866885e+00 -1 1 1
2886 1 7.5925112942248196e-01 2.0804510610789723e+01 9.7905069941466962e+00 -1 1 1
4219 1 3.5152449221904800e+00 2.0784579095336014e+01 3.3351252804862237e+00 1 -2 1
2111 1 1.1644322255011645e+00 1.0710408757288452e+01 1.2643153090558405e+01 1 -1 0
4255 1 1.3665961242641343e+01 2.1567917758123770e+01 9.2896178533275791e+00 0 1 1
1791 1 1.7179328398927591e+01 1.0931015279963207e+01 2.1204275841240500e-01 -2 0 0
3863 1 9.4620752414661951e+00 1.5744994148346510e+01 1.3414484789945872e+01 0 -1 0
2782 1 4.3738072844262925e+00 4.3623362385991848e+00 3.1836913760643410e+00 0 2 0
2034 1 1.6916455887372539e+01 2.1758220915086504e+01 6.4590315271457603e+00 0 -3 1
19 1 9.2988854394609033e-01 2.6348870029640605e+00 1.3395380080235741e+01 -1 -2 0
5545 1 1.4201229682922540e+01 2.2396559674341820e+01 5.5771021906166434e+00 -1 -1 0
481 1 1.5873989200492675e+01 1.9779372582384383e+01 1.2181705768994012e+01 0 0 0
3587 1 1.4635670842139097e+01 2.2853794641673815e+01 3.0424467671965374e+00 0 0 0
430 1 3.9955691383561693e+00 2.5599302491258080e+00 1.2653855550485963e+01 0 1 0
2469 1 2.0801421943245160e+01 1.3299462578786159e+01 3.5019460494528154e+00 -1 1 1
5214 1 2.2087599951311422e+01 2.0079133894544512e+01 3.1431538448070406e+00 0 2 0
1212 1 8.0148937287691737e+00 8.3339212764758255e+00 1.2368592338563250e+01 3 1 0
6230 1 1.6641321374935409e+01 1.9338650712429899e+01 2.8439077655169243e-01 0 1 1
2700 1 1.9125912331395650e+01 1.9206651238611091e+01 1.1095809247012534e+01 2 1 1
3400 1 9.8134707212134149e+00 3.3697041180379728e+00 1.1575630252349631e+01 0 2 0
1820 1 7.4502872540427676e+00 1.7920349119295928e+01 1.4723638304747345e+01 -1 2 0
5402 1 1.4221951877928573e+01 2.0422294787777005e+01 1.2214345909313458e+00 1 1 0
2629 1 2.2146927701373365e+01 8.6250757709085046e-01 1.8235111745580124e+00 0 0 1
5845 1 1.3359219739659608e+01 9.5484761434329659e+00 8.3679490998394730e+00 -1 1 0
6084 1 2.2593165895220158e+00 1.3660564941432437e+01 1.2622910735392876e+01 1 0 1
5233 1 1.7557440031377656e+01 1.3970024308545355e+00 1.4223787787414846e+01 0 -1 0
1031 1 1.5558431237759610e+01 5.0279832243951699e+00 1.5327497995495742e+00 2 -2 1
6240 1 2.3916457813515834e+01 2.3683269439213234e+01 1.0993261502208945e+01 -1 -1 1
237 1 1.5211072441643886e+01 1.3163489770882739e+01 1.2702603619941941e+01 0 0 0
1721 1 2.3878600015639446e+01 1.0156398098846529e+00 1.3220254342974597e+01 0 1 0
4413 1 5.6945829000272474e-01 2.4605971374165359e+00 1.1277142922043062e+00 0 1 1
2535 1 1.5070977022692830e+01 1.6222167578446740e+01 1.4090406626742231e+01 1 1 1
4104 1 2.1507743877096699e+00 4.8815555483476123e+00 1.4813217602594612e+01 0 -1 1
3491 1 5.8924833667502972e+00 1.0316103820407019e+01 9.0992188574322483e+00 1 0 0
176 1 2.3088978080683816e+01 1.7033370381563920e+01 2.8899571585681899e-01 -1 0 0
5113 1 1.5307645528586956e+01 9.1242622576598792e-02 7.4184753561294743e+00 1 1 1
1129 1 4.3992498871681995e+00 1.4938438641162448e+00 3.6151784457043989e+00 -1 1 1
5225 1 1.2616226129795125e+01 3.0050445184015810e+00 5.5254150935702362e-01 0 0 0
2661 1 1.4989162340798046e+01 5.2243213831901896e+00 1.3681728131206118e+01 -2 2 0
186 1 1.4078166001261621e+01 1.0031218831674005e+01 1.1444772784786744e+01 -1 2 0
5178 1 1.9846848413985384e+01 4.3869167375602647e+00 7.1083239831301972e+00 -1 1 0
5972 1 1.5555657799182983e+01 1.1216723957074089e+01 7.1546152227672977e+00 0 1 1
5289 1 6.0463991122692784e+00 2.4991010250228034e+00 1.4470218460560421e+01 0 1 0
1772 1 1.9220302948880487e+01 1.0536488619260778e+01 1.4632112456910866e+01 2 0 0
4504 1 1.2801957013772164e+01 9.2831338265505021e+00 1.4117005191129261e+01 -1 1 1
4198 1 1.8266453816808170e+01 6.9247736626778149e+00 6.6334605167176113e+00 0 0 1
2071 1 1.9274544636813872e+01 1.1137811674221908e+01 1.1748222327529087e+01 0 1 0
2908 1 8.1179432286779925e+00 2.2448619426252826e+01 9.7173302484826607e+00 -1 1 1
5935 1 9.0759875507115562e-01 2.3610688998906518e+01 1.1319000746036464e+01 0 0 1
6023 1 2.4017008460299920e+01 1.4411711704885365e+01 1.8820906262242516e+00 1 1 1
36 1 2.4075428059843160e+00 9.5702975754946600e+00 9.9231006379106361e+00 2 2 0
3706 1 1.1354044013384957e+01 2.0782165165266335e+01 8.1332535802286952e+00 0 0 0
2615 1 9.2904844207164938e+00 6.0295752476906683e+00 1.3211356086490419e+01 1 0 0
6018 1 1.2318467440458281e+01 1.1830467158790494e+01 1.0588196612055604e+01 0 0 1
1172 1 7.6584885525133917e+00 1.1055546600208602e+01 1.2800589084995714e+01 2 -1 1
456 1 2.2421976060074655e+00 2.2174565179554499e+01 1.3547936182605083e+01 1 2 0
3497 1 9.2001163833063000e+00 1.4039838707723932e+01 2.1565398259038480e+00 1 0 0
1865 1 1.6897035805268587e+01 1.2043163301108637e+01 1.0967536618553950e+01 -1 1 0
3805 1 2.1676945240768376e+01 1.3202404717848097e+01 1.1124708783629840e+01 1 0 1
4568 1 1.7461852821683859e+01 1.5025501281683008e+01 8.4664874645839916e+00 1 0 1
4115 1 2.3947814935509136e+01 1.5188835301432189e+01 5.9764015457146256e+00 1 -1 1
2457 1 1.2372934884591938e+01 3.3386791695284213e-01 1.3443622954474675e+01 0 1 0
4520 1 5.8440683889785017e-01 1.6025008039147266e+01 1.9694500986027850e+00 1 3 1
1907 1 5.0196249552807926e+00 1.5665325393374726e+01 1.0683895541160968e+01 2 0 0
3543 1 1.0526092272419925e+01 1.0937369253218952e+01 1.3560231137011057e+01 0 2 1
5314 1 1.7918640400854041e+01 2.4385403180875404e+01 5.4939749920458114e+00 1 0 1
4353 1 2.3571922984857071e+01 1.1821139641788180e+01 2.4345536125314955e+00 1 -1 1
9 1 9.8038959283605660e+00 1.4606584866460967e+01 1.0850309669391287e+01 3 0 1
482 1 1.4095140933249018e+01 1.9050059196257163e+00 1.4537865719093261e+01 0 2 0
5473 1 1.0105489803430430e+01 6.2032223764448062e+00 1.6829595880738435e-01 0 -1 0
1200 1 1.7189072391145643e+01 1.4113408550993768e+01 1.4567038004273407e+01 1 0 1
6224 1 1.2739293745362906e+01 1.3576941658609783e+01 8.1807859378828169e+00 -1 0 0
5254 1 1.2356784409359946e+01 1.7286070189003311e+01 1.3246600602505669e+01 2 1 0
2042 1 1.9083656696091403e+01 1.5652520708133073e+01 1.3083754680058908e+01 2 0 0
4599 1 1.8904785553041744e+01 1.2239986799647477e+01 5.6461937427004285e+00 1 0 0
6245 1 8.3467112561040793e+00 1.4077949259181255e+00 1.3130954831766884e+01 1 0 1
2781 1 1.2902042355690364e+01 1.4411534419996089e+01 1.1265165363707577e+01 0 -1 1
3712 1 2.6641345676951373e+00 1.9323998430427519e+01 1.0727765255791063e+01 -1 -1 0
1227 1 2.5257431245061941e+00 1.7907699607379659e+01 1.3545272153893119e+01 1 -1 0
913 1 1.9380428776457475e+01 2.2218835204293494e+01 2.2129191991490247e+00 1 0 1
3557 1 2.7691935066418529e+00 2.4429956611911617e+01 1.6612693587458145e+00 0 0 0
2003 1 6.9216055317978880e+00 1.9108401243776711e+01 1.2145396735887671e+01 2 0 0
323 1 4.6238925437732163e+00 2.0601061443143326e+01 1.2120770779223692e+01 1 1 0
3418 1 1.6380335546315177e+01 2.0038910885219476e+01 3.8874786291178043e+00 1 2 1
5587 1 4.3045081781297352e+00 1.5578676353135199e+01 1.3679836770094436e+01 1 0 0
133 1 2.1833719128101446e+01 1.9181690669181244e+00 1.1486064311896381e+01 0 2 1
12 1 2.2524101572510173e+01 1.7964059742594397e+01 1.1574498371209160e+01 0 -2 0
2749 1 1.6817199835727710e+01 1.7146003244996095e+01 1.1690598373504729e+01 -1 -1 1
2625 1 2.2209287892292945e+01 2.1514301929014291e+01 1.2225436264846726e+01 1 1 1
3421 1 3.2867401579679045e+00 1.1544036854469317e+00 6.6423820550624080e-01 0 0 0
271 1 6.6473231571706726e-01 4.6232529237764766e+00 7.1487991120441272e+00 0 1 0
155 1 1.9907635398332207e+01 6.8526112004131647e+00 1.3894544344478701e+01 1 0 0
3753 1 2.0503212614729641e+01 2.3843879165273233e+01 1.3124797276881456e+01 2 0 0
857 1 1.5067701560628736e+01 1.5709580284696967e+01 9.8242161250342672e+00 -1 0 1
5989 1 2.0964754671796975e+01 1.2320055522203052e+01 9.7071843338255803e-02 -1 1 1
2878 1 2.0173381567332855e+00 1.7280016415203331e+01 1.8835969206021485e+01 2 1 1
2718 1 5.1315491632506252e+00 1.9761828114033733e+01 1.5283163196139059e+01 2 -1 1
500 2 1.9703823278655562e+01 2.4155745158861784e+01 2.6727171841972471e+01 0 0 0
4494 1 2.2271195168066691e+00 1.3244711035895786e+01 1.5388372898231768e+01 -1 0 1
947 1 2.9042165148953729e+00 8.2701732957673784e+00 2.0894224122102138e+01 2 0 1
493 2 2.0930367458991707e+01 2.2031308320790195e+01 2.6727171841972471e+01 0 0 0
6253 1 5.8412635965785746e+00 1.5920777248813138e+01 1.6264604418117351e+01 -2 1 1
6118 1 9.8761170589539162e+00 2.0425992696381892e+00 1.7977214449874651e+01 0 -2 0
209 1 8.7744915114765796e+00 6.9632576828975470e+00 2.1272576978309321e+01 0 1 0
5286 1 8.0948877567537210e+00 1.9439041789627275e+01 1.7727465701018964e+01 2 0 0
64 1 2.0724191958108307e+01 7.8979487960210522e+00 2.0180504228035996e+01 0 1 0
2670 1 1.8063159662171973e+01 3.3205179175329995e+00 1.6101474222617458e+01 1 -1 1
2865 1 1.8138718921693542e+01 1.2906234677278389e+01 2.4016190773356485e+01 1 1 1
75 2 2.3383455819663826e+01 2.2031308320790195e+01 2.6727171841972471e+01 0 0 0
2606 1 3.3780558372229614e+00 1.8789776858980630e+01 1.7410204999675337e+01 3 0 1
5867 1 1.5494506085096079e+01 9.2489439292893483e-01 2.0034856122209131e+01 1 0 1
2707 1 1.0302305365053092e+01 5.6041956109544175e+00 1.7301197701228013e+01 -2 1 1
5429 1 2.0632967395866395e+01 4.4069800645270973e+00 1.7212556149138358e+01 1 1 0
5115 1 3.3806930382998472e+00 3.1400944184884478e+00 1.6953463956491110e+01 0 1 0
3392 1 2.3404086070948384e+01 7.2442664021796483e+00 2.0695900966503466e+01 0 0 0
4294 1 5.5204177025009011e+00 4.8711303430469952e+00 1.6460801879448962e+01 0 -1 1
4530 1 2.4583404581018236e+01 9.3204816394129910e+00 1.7507724621044289e+01 0 -2 0
5328 1 4.7708173260249502e+00 7.2584379955200751e-01 1.6190342894059096e+01 1 0 0
3682 1 1.2206185516051036e+01 9.8182178767246608e-01 1.8389392715782620e+01 0 0 0
6270 1 1.4534741063553174e+01 6.2001348685853115e+00 1.8044278533641386e+01 0 3 0
823 1 5.7773513171757447e+00 6.5581551713744286e+00 2.0668168814377896e+01 2 0 1
3850 1 1.9347693295035313e+01 1.6319980082217505e+00 2.1039486326088731e+01 -2 0 0
2802 1 2.0811448124649552e+01 3.7727331571096712e+00 1.9909234580167684e+01 0 2 1
2476 1 9.5128353969566799e+00 1.3985571802011451e+01 1.5546284981071626e+01 0 -1 1
2816 1 1.2769607473103395e+01 7.9157942502880063e-01 2.4258220253583254e+01 0 1 1
1149 1 6.0068657248582289e+00 2.1843636125864759e+01 2.3224410816836087e+01 1 1 1
5360 1 1.9970200887846925e+01 8.7861727229274997e+00 2.3411917654858087e+01 0 2 0
2898 1 2.0649223199348715e+01 5.8222326782348981e+00 2.2439457252456968e+01 0 2 1
904 1 3.1386298981978542e+00 1.5097082049512736e+01 1.7223832992297673e+01 1 -1 0
6267 1 5.7860142994136927e+00 4.1466848254481672e+00 1.9843980862654856e+01 0 1 1
5223 1 1.9811150475593422e+01 7.1834639320875979e+00 1.7218744742428612e+01 2 -1 1
16 1 9.3412025074648408e+00 2.7761548872502517e-01 2.2717143868333981e+01 -1 0 0
1977 1 1.5227276363058577e+01 2.4399949331805949e+01 2.2863801785686825e+01 -1 -1 0
1986 1 4.4829541481688402e+00 8.4665804754027718e+00 1.5836165906105990e+01 -1 -1 0
437 1 1.2684352715975011e+01 1.0184897784188450e+01 1.6832848894394573e+01 0 1 0
6218 1 7.6044402488202696e+00 4.1656966062349001e+00 1.7829369522665765e+01 1 -1 1
189 1 1.0166081838560206e+01 8.6464238403210381e+00 1.7471535104480271e+01 1 2 0
6027 1 1.2264399246439183e+01 1.2719080985346281e+01 1.5861515182582727e+01 1 0 1
2169 1 2.3129533914216008e+01 1.1968978583160464e+01 1.7284791803828295e+01 0 -1 0
3778 1 1.2106448219220283e+01 1.4384690275313631e+01 1.8133839549690226e+01 0 -1 0
2167 1 1.4639387825744459e+01 1.1450167939705462e+01 1.8853811484437042e+01 1 0 0
352 2 2.0930367458991707e+01 2.3447599546170363e+01 2.6727171841972471e+01 0 0 0
1802 1 2.1755094386365897e+01 2.3302245716290479e+01 1.8406071419736023e+01 0 0 0
914 1 1.8255922173547500e+01 6.3417042882435473e+00 1.9542712844950280e+01 1 2 1
1132 1 5.2294269496765244e-01 7.6046191177486628e+00 1.9140907280373284e+01 3 0 1
5539 1 1.6614718714744050e+01 1.1670290601884647e+01 1.5622264717012952e+01 -1 1 0
754 1 5.1868563417769691e+00 8.2632197773569285e+00 1.8713369528807565e+01 0 1 1
3617 1 2.8187756245140001e+00 1.4297320087835587e+01 2.0229419531257996e+01 0 -1 0
4431 1 5.0528930427089298e+00 1.2231653205151924e+01 2.0937768611266222e+01 0 1 1
3474 1 4.0000996658002039e+00 1.6620224920733634e+01 2.0874779426746318e+01 0 -3 1
1921 1 1.0295183107351352e+01 1.5267264723985578e+01 2.0589407569123654e+01 0 0 0
2774 1 1.2838087895458942e+01 9.7839601994928458e+00 2.1180268588880413e+01 0 1 1
55 2 2.3383455819663826e+01 2.3447599546170363e+01 2.6727171841972471e+01 0 0 0
4609 1 9.7872630262763494e-02 5.1437936844370178e+00 2.3137244953783171e+01 -1 0 1
5488 1 1.7824922705335528e+01 1.3587041371330871e+01 2.1160070388353834e+01 0 -1 0
2597 1 1.5815906591466863e+01 1.1555917719854278e+01 2.1760493514140709e+01 0 -1 1
5970 1 2.0987050580942277e+01 1.6240600253304411e+01 1.8249131253689715e+01 -1 1 1
6121 1 2.0421674694273502e+01 2.0600327285605452e+01 2.1127752747014711e+01 -1 2 1
21 1 1.9429079825617219e+01 1.5774542914384773e+01 2.3737038264122916e+01 2 -1 0
760 1 2.3375997609896896e+01 1.2628579567910084e+01 1.9868333228727689e+01 0 -1 1
3563 1 1.6568027361590410e+01 1.3104145353568828e+01 1.7923151531385649e+01 0 -1 0
501 2 1.8477279098318821e+01 2.3447599546170363e+01 2.6727171841972471e+01 0 0 0
3810 1 6.5207058542381242e+00 1.0743596899132889e+01 1.5413480395232719e+01 -1 -2 0
5273 1 1.7662305245932970e+01 2.3006454520794577e+01 1.5992530960418193e+01 1 0 0
309 1 1.8680731205674796e+01 2.2514069931331260e+01 2.4212285101300296e+01 1 1 0
3462 1 2.8675127667622826e+00 2.0881550798015645e+01 1.9334240717642547e+01 0 -1 0
4606 1 5.3249144495175154e+00 2.1826054315311524e+01 1.9696003397808557e+01 0 1 1
726 2 1.8477279098318821e+01 2.2031308320790195e+01 2.6727171841972471e+01 0 0 0