LAMMPS data file via write_data, version 16 Mar 2018, timestep = 6000000

6736 atoms
2 atom types

1.3482697437202518e-01 4.9085173025617820e+01 xlo xhi
1.3427812265237549e-01 4.8885357807743510e+01 ylo yhi
1.2487783694621157e-01 5.9937122163041465e+01 zlo zhi

Masses

1 18.015
2 12.01

Atoms # atomic

4291 1 1.7887070994935550e-01 1.8549057933367287e+01 3.9920816538880213e+00 -4 2 1
6217 1 1.2638873591167997e+01 1.7002111919123948e+01 3.0814338456517349e+00 3 -16 1
468 1 2.4549455762988572e+01 1.7847857391925370e+01 5.6404710702321914e+00 4 -8 0
3372 1 3.8656559609410888e+00 9.2437976121239753e+00 4.6088782047541255e+00 11 -3 1
1799 1 1.5897081667861737e+00 2.2067447259532635e+01 1.3028739678702852e+01 -8 -11 1
5891 1 1.0984918816181192e+01 4.7442242853750596e+00 3.0769949896046009e+00 -4 -4 0
2674 1 1.5931283190571627e+01 2.5031094874029933e+00 1.0874482303541795e+01 7 -5 1
4308 1 1.2158429524518562e+01 1.5869820818220119e+00 5.4410250592528362e+00 0 -4 0
994 1 2.0089061262775186e+01 1.8606483907170954e+01 6.3683056426198705e+00 -1 -9 0
5953 1 1.9488815619980194e+01 3.6722463574751885e+00 6.5024874540867472e+00 -4 7 1
1225 1 7.3103139645106854e+00 3.3240502517167649e+00 1.2866178306475808e+01 1 5 1
3671 1 1.4267134158244865e+01 1.5587677117496908e+00 8.7914226909704158e+00 -7 4 0
1210 1 1.5981095866582766e+01 6.1678957375259751e+00 7.7351452527800975e+00 11 8 1
2135 1 1.0340332110913739e+00 1.9862664851662117e+01 6.3990798776114834e+00 6 0 0
3693 1 1.3915585519955615e+01 2.0907227659085002e+01 3.3584441072812061e+00 -5 -9 0
5517 1 2.0138276519412017e+01 1.9121265172516459e+01 1.2253024088313971e+01 -2 -2 0
1133 1 1.0086692937635133e+00 1.1878054891854751e+01 1.4074123394237510e+00 15 -6 1
3376 1 1.7954411615474999e+01 2.2498422921773173e+01 7.9262262567550739e+00 -2 1 0
3419 1 8.7059655349030618e-01 7.7507856037444656e+00 1.0585503279298494e+00 5 -7 1
5496 1 1.0373045766597061e+01 1.0500610057894260e+01 1.1770576420596859e+01 -3 -3 0
5855 1 1.5339264469201206e+01 8.8876879061595577e+00 1.3275281287701857e+01 -10 8 0
4250 1 1.0325127402739815e+01 2.1393283134382084e+01 7.8103738384117536e+00 1 -16 1
2586 1 1.8093173781945993e+00 2.3478343358618208e+01 1.0450128706638182e+01 3 -1 1
5239 1 1.4120041116875039e+00 1.5350944284524395e+01 1.1539948916573939e+01 4 5 1
2097 1 8.4272082300981683e+00 1.3346605252042748e+01 1.3374205379704767e+01 -3 -10 0
4307 1 7.0215604097781181e+00 5.3683190521814952e+00 1.0272513827219257e+01 -13 2 1
5482 1 1.7946805967874287e+01 2.0885163291242179e+00 2.1442046443521763e+00 -5 -4 0
5289 1 2.3175053243922573e+01 2.9747731422079369e+00 4.4332259101396652e+00 -12 -2 0
3516 1 2.2246843124939126e+01 7.8318711468333957e+00 7.9824413590759642e+00 -3 4 0
2441 1 1.6903468930238898e+01 9.0906083136007432e+00 5.8109078780725865e+00 0 -6 1
4481 1 7.9358317947206727e+00 1.0405949197166569e+01 1.1032022827594201e+01 -9 -1 1
234 1 2.3182136385333745e+01 1.5593096481149756e+01 2.3922011298704797e+00 6 0 1
2912 1 3.2597106346730760e+00 9.1275503862882772e+00 1.2063292658354269e+01 -2 -3 1
3383 1 1.5913448170812021e+01 7.1987303529367557e+00 3.6174361782036479e+00 1 18 0
5485 1 3.0699259105980001e+00 2.0545816376015932e+01 9.8300588819910164e+00 -2 -13 0
2159 1 2.3830601955662466e+01 2.0286694591005588e+01 6.0325110934310180e+00 -11 -6 0
2039 1 2.2287854227821784e+00 1.3725077305821497e+01 2.9819088037521255e+00 4 -15 0
1039 1 9.8681524923127792e+00 2.2660570645584734e+01 1.0573024751044880e+01 -8 2 1
6301 1 4.4613368675210925e+00 7.7339064215919926e+00 7.0231440384857784e+00 -10 -10 0
1740 1 4.2208319088416424e+00 1.7466897682544293e+01 1.2403687229077385e+00 5 8 0
4142 1 4.1061198210953460e+00 9.7477200858450459e+00 1.9658497358436102e+00 -2 12 1
1227 1 6.6303965430629290e+00 9.9410313067940077e+00 6.8941060940370775e+00 3 -4 0
3834 1 1.3809992790332867e+01 1.3152453662084826e+01 7.2171060843091981e+00 -5 21 0
1016 1 4.5310583101568547e+00 2.8496766919037322e+00 1.0409401524407199e+01 -9 5 1
3590 1 8.3553758965717542e+00 7.4789302468777823e+00 2.0479556454428045e+00 12 3 0
3790 1 1.9595340126673420e+01 1.2140025934849954e+01 5.1032229986944877e+00 -7 12 0
6074 1 1.4764670600403123e+01 5.4399487040972243e+00 5.1947712923417457e+00 3 -9 1
5193 1 2.0379733340012532e+01 2.3357524208130513e+01 1.3979059491789172e+01 5 3 0
1840 1 1.7620163787099575e+01 2.1717274053990867e+01 4.2730856034832243e+00 3 -11 0
2657 1 1.5010002671407628e+01 1.2095090742627789e+01 2.2352405534378850e+00 -4 9 1
3634 1 8.9788747368752304e+00 6.2959724850377996e-01 1.2542725759532608e+01 1 12 0
2654 1 1.2120647776466630e+01 2.2994843996570957e+01 5.3124952578245976e-01 4 -9 1
5429 1 6.0904715987782216e+00 7.9029109879223061e+00 6.2824295102086969e-01 -4 3 0
1173 1 6.5012722885477698e+00 2.9083844451283642e+00 1.6583227137979295e+00 9 14 1
6073 1 8.6335901367770855e+00 3.3296780948738669e+00 4.2485965837508664e+00 6 -6 1
5299 1 1.4410529321046868e+01 1.2903510768485091e+01 1.1619902814518269e+01 -9 -12 0
6234 1 1.2183353071162779e+01 1.9852104610776706e+00 2.2739110243034277e+00 -6 -1 1
356 1 2.2898135766160181e+01 1.5979832431008807e+01 1.2778725888731518e+01 -3 -8 0
4412 1 2.1742284033999645e+01 1.7886353172617390e+01 4.0069633501095669e+00 -3 3 1
3454 1 1.0757880366966269e+01 1.0737790754838150e+01 7.0634197021512195e+00 7 -2 1
4449 1 7.8383375967605196e-01 4.5353791771188083e+00 6.2635678467590132e+00 -5 1 1
4169 1 1.5470000935712685e+01 8.7051576273826932e+00 9.1737645929498033e+00 23 -5 1
1816 1 2.0685632445234567e+01 8.3929994892296254e+00 4.1198154284668584e+00 17 -8 0
3449 1 1.6445013207749788e+01 1.7199972703797840e+01 7.9734762564513639e+00 16 -3 0
5385 1 2.3149120594835544e+01 8.4825300616148827e+00 4.0280309234259910e+00 -1 -4 0
5156 1 4.3012917444154484e+00 1.8529223061386479e-01 3.6303396677399791e+00 1 6 0
2590 1 1.6485055546931726e+01 1.9990127252822340e+01 1.1300464047544608e+01 -6 -3 1
953 1 1.9199137552794920e+01 1.4433343110377791e+01 7.5908704080182354e-01 1 4 1
6265 1 3.5214847477896747e+00 1.5870125258793891e+01 9.1001025096797932e+00 5 -3 1
2878 1 2.2218304415763086e+01 2.0206789094204442e+01 3.0741783874913806e+00 11 13 1
3622 1 2.1103831027401949e+01 9.3180698623960567e-01 1.4182889972065345e+00 9 1 0
3635 1 4.1478123732783025e+00 2.1226735190834965e+01 6.3168181238891892e+00 23 -3 0
3785 1 1.5803316603030977e+01 2.4136801295696745e+01 4.6724771687699516e+00 -11 -12 0
6277 1 1.9586565440689125e+01 1.7414893559985074e+01 1.6822749178722526e-01 2 -3 1
3836 1 1.8631860324021577e+01 1.4279472583038157e+01 1.0055916214627901e+01 4 -4 0
2656 1 1.6827055747515089e+01 1.7355881539875874e+01 1.6358795241007247e+00 7 9 0
978 1 6.0615122979817340e+00 1.8784306010064533e+01 1.3067277993016450e+01 -3 -8 1
3716 1 5.3788292992275555e-01 9.4954333579405219e+00 3.2277390400685269e+00 -9 -5 0
4128 1 1.6517770625024284e+01 1.6110677485250569e+01 5.5780612072627633e+00 7 4 0
982 1 5.2942993872212876e+00 1.5323591544013329e+01 1.2139628935327680e+01 0 13 0
990 1 1.2405311898520669e+01 1.3979384341032539e+01 2.5642537492378241e+00 6 -1 0
893 1 4.0134875241796525e-01 1.9399960228423204e+01 1.0573742671530237e+01 6 -4 1
478 1 1.8491150761346592e+01 7.2268916094036673e+00 2.2553875160393573e+00 2 6 0
3595 1 2.2557086789883115e+01 1.6613534018872361e+01 7.3163806238662747e+00 4 11 0
3665 1 1.4080429707629149e+01 7.3526949831137154e+00 1.1082115461724397e+01 3 -14 0
4296 1 1.4317357788149208e+01 2.3879179068321928e+01 7.0070790136650398e+00 1 -14 1
36 1 4.8063737741941539e+00 1.4806095009610067e+01 2.4874771384138050e+00 -11 8 0
254 1 1.8742193729180165e+00 1.1644270790804418e+01 1.2184242571074176e+01 10 -8 0
1987 1 2.0554545340770808e+01 1.0225324876239588e+01 1.2067937762725565e+01 1 6 0
47 1 2.2801861322899502e+01 2.3441751340709732e+01 1.6065981371133844e+00 2 1 0
923 1 5.2549168068140439e-01 1.0227789323484819e+01 8.0794929118115366e+00 -11 0 1
4251 1 1.0083089447312572e+01 1.2536059721164440e+01 7.1518543655663602e-01 3 -8 1
399 1 7.3272317555162738e+00 1.4306289179702883e+01 9.1888183815751068e-01 0 1 0
2137 1 2.1388521517023687e+01 1.1568174107049360e+00 4.2076881800435650e+00 1 6 0
215 1 6.4998394839839708e+00 1.7543524440696432e+00 6.2568191949048781e+00 -6 5 0
423 1 1.1377784493588901e+01 1.5241866643887592e+01 1.0430324173182983e+01 6 -1 0
846 1 1.2719957311632459e+01 2.1595734604919230e+01 1.0899214557714332e+01 5 0 1
3574 1 1.3934471349201615e+01 9.5921261449716777e+00 2.7046407613882115e+00 1 8 0
4482 1 7.6540912375722225e+00 2.0468038700268334e+01 4.5742198123283142e+00 -16 4 1
2022 1 7.4830242775050626e-01 5.6726247360408655e+00 1.0458900521811938e+01 -1 3 0
5996 1 2.0015715311425404e+00 6.7198742082279148e+00 6.3018228580096363e+00 11 -3 1
2168 1 4.2161066770443991e+00 4.8120668187948246e+00 7.8723926137028633e+00 7 2 0
5917 1 2.0005470485813358e+01 1.6527655256611144e+01 1.3184331158253901e+01 7 -16 1
3519 1 8.5242852708010908e+00 2.5301920283935555e+00 1.0284832370926386e+01 -16 -2 0
6094 1 1.2967720897289162e+01 1.7999301351765308e+01 4.7990763381566637e-01 -12 -3 1
5291 1 2.4092351744904960e+01 2.4716987884549781e+00 1.0592839384006259e+01 -7 -10 0
4274 1 3.6954426787925891e+00 1.2604807753911098e+00 1.2712741594329220e+01 8 9 1
1166 1 1.0664778262072561e+01 2.1070993536548652e+01 1.3452360427692060e+01 8 6 1
5403 1 3.8289578360697916e+00 5.8367467391903025e+00 1.3867861123328453e+01 -1 6 0
4218 1 1.6584625848618739e+01 8.1659120038371269e-01 1.3792170961390418e+01 -10 -2 0
2765 1 9.4508943174886220e+00 2.1463823569751943e+00 1.5045464898657057e+01 -6 -2 1
3413 1 6.4357387137595916e+00 1.0645357228398256e+00 8.9113596596174300e+00 2 -6 0
2165 1 1.7671172537322182e+01 2.2086240946347321e+01 1.4391652887330521e+01 -10 -6 0
5225 1 3.8419179081668857e+00 1.8139327720649003e+01 1.1567817795496758e+01 -5 3 0
6034 1 2.0367536030702251e+01 2.1160107132655597e+01 6.6685922161264282e+00 -7 1 1
4255 1 5.5485402965195894e+00 1.2444863377010597e+01 1.2902516567519839e+01 -4 -7 1
180 1 2.1690417713435752e+00 1.8755095519575811e+01 1.4205398109956221e+01 3 -2 0
4303 1 2.0355541648531855e+01 2.3995967854795639e+00 1.0423618718747845e+01 4 5 1
141 1 1.1448447042233759e+01 4.1482000406101989e+00 1.4413846347174388e+01 1 -2 0
378 1 1.8478552613168062e+00 7.9028177132934889e+00 9.2283600715723821e+00 0 -9 0
2000 1 2.0420713628993102e+01 5.0094928644710714e+00 4.2496622989519155e+00 3 2 1
5191 1 2.3595873917297485e+01 1.4269856530760556e+01 5.7451474544413310e+00 -7 -5 0
6204 1 7.6440097097558324e+00 6.7706237747240969e+00 6.1998095816940006e+00 -1 4 0
2881 1 2.0178388770599117e+01 2.0191825281163322e+01 1.0546329249270352e+00 2 -7 1
5884 1 7.9493284918896290e+00 7.5084280727389219e+00 1.2000049477225295e+01 4 9 1
3694 1 4.6298327664687617e+00 6.1094607145668798e+00 1.0599349824245071e+01 3 8 0
5118 1 7.7225452058910644e+00 2.3009168959526850e+01 4.8022446696638293e-01 10 11 1
5331 1 1.4128667684272255e+01 4.8117950225984352e+00 9.0923397395165431e+00 2 0 0
4371 1 1.8156741253839130e+01 4.2799995087464735e+00 1.0304968490746711e+01 -2 -7 1
2738 1 7.2524279874719069e+00 4.2416197490748884e+00 7.2014384477912774e+00 -15 10 0
2673 1 7.1730229169427262e-01 1.1989327697673865e+01 1.4928826714770985e+01 -8 -3 1
1146 1 9.4489285329330919e+00 2.3886071920495677e+00 9.1478759399263565e-01 -8 -2 1
5353 1 1.8726634891869157e+01 6.3867004645375056e+00 7.7156976944201707e+00 5 -9 1
2839 1 1.8080260886499964e+01 6.6054817008528310e-01 9.2796626723571709e+00 -15 -5 1
3466 1 1.4059516857770024e+01 1.4766287083663890e+01 9.5611300499619780e+00 9 7 1
5802 1 4.2247037180316376e+00 1.2128000185210754e+01 5.2682141492863490e+00 -7 -2 0
106 1 2.1136939039705130e+01 6.8284258309728028e+00 1.1904411363552880e+00 1 4 0
6202 1 2.0004662850515547e+01 8.6224270950495665e+00 1.4175706645256611e+01 -3 -2 1
6240 1 1.0371716818245870e+01 2.0405661379063865e+01 4.2038055320245036e+00 -9 7 1
5839 1 1.1760747289628547e+01 1.9603064466394358e+01 8.7735855147366593e+00 5 -1 0
267 1 2.1013655533735690e+01 1.4309812702720681e+01 4.6819026591556163e+00 6 -12 0
4237 1 1.1175288047550817e+01 1.2992667506319730e+01 1.2791549201403255e+01 8 -17 1
3580 1 1.0682127439876755e+01 6.5461414779276677e+00 1.3169100382830909e+01 4 -11 0
2903 1 1.9947987890972826e+01 4.0179836216828093e+00 2.0030373093534313e+00 -1 7 0
338 1 2.1645370897424176e+01 2.1411571243443537e+00 7.7672380712080376e+00 19 11 0
1922 1 3.9144144718799652e+00 5.8634306994565115e+00 3.8695156776729012e+00 0 -6 1
5219 1 1.5782151417756818e+01 3.6589321088654878e+00 3.2818929027157733e+00 5 16 0
2041 1 1.2408148049577610e+01 5.0552575570251541e+00 5.5515499764527672e+00 0 1 0
4302 1 1.7856029433994991e+01 6.6022883310523346e+00 1.1061294756663003e+01 8 11 1
3682 1 9.9261925200260226e+00 7.4099482739097606e+00 8.2476370795291984e+00 5 -5 0
5382 1 2.3105676123031728e+01 1.3396040763836339e+01 1.1491216551958507e+01 -8 5 0
4444 1 1.9538218771950397e+01 1.6406952789559138e+01 3.4870779548189135e+00 -1 4 1
2740 1 2.0459674688006068e+01 2.2091146103693216e+01 4.2070672221810490e+00 -10 11 1
4157 1 1.2545605916357811e+01 1.1076836201130213e+01 9.8323653651464245e+00 0 -9 1
3512 1 1.9759730539586663e+01 8.7026709251906933e+00 6.3336526214471673e+00 12 -3 1
2069 1 1.3478326795924312e+01 3.0983746225828055e+00 1.2315687771565729e+01 5 -8 0
4592 1 7.2137143548289959e+00 1.1207028576888606e+01 4.1775101272199358e+00 -3 16 0
6121 1 1.1469150676531344e+01 1.3514898319400706e+01 5.5045247310789467e+00 6 -3 1
5538 1 3.9932218900049152e+00 1.8578507230019394e+01 6.5625114898294239e+00 -7 -3 0
1094 1 7.4407915668514741e+00 1.4310132866389468e+01 6.9336906040584001e+00 -6 -3 1
2462 1 6.9945826567842841e+00 5.6966137875837246e+00 3.4057965479069643e+00 -3 -3 0
1093 1 5.0015335166129775e+00 2.2488838788669216e+01 1.1998859455108851e+01 0 -16 1
1744 1 3.6484444632792057e+00 2.2433635849353628e+01 3.7259127173966058e+00 -4 7 1
5133 1 8.9427072514303401e+00 1.0061890790114303e+01 2.4358247826267716e+00 21 11 0
1918 1 8.7860838392480005e+00 1.3642198197281527e+01 4.8870212791708569e+00 -6 -7 0
3602 1 1.1818742532818403e+01 1.6064382612951526e+01 6.8818042431379762e+00 -12 -3 0
308 1 1.3688781431208858e+01 2.1067929453515958e+01 6.2637290108183805e+00 10 -1 0
1770 1 9.1153950405744357e+00 1.5327192499086095e+01 3.0283193685106071e+00 6 -4 0
126 1 1.4464708250875218e+00 1.8022213842217038e+01 1.1320853448794530e+00 -16 10 0
3840 1 1.9230531949474301e+01 1.7003597498070516e+01 8.7942322558231929e+00 4 -5 0
2859 1 1.6577976406285856e+01 1.4669015163062550e+01 1.1591264820547934e+01 -8 14 1
4605 1 3.2174928484786545e+00 6.8495131786675847e+00 6.8602077800729899e-01 2 0 1
3642 1 1.7793306525782473e+01 1.2502944354561622e+01 8.2317060685455221e+00 -3 -6 0
2445 1 1.2102223788220055e+01 2.0419782726512217e+01 1.4731586311754330e+00 7 -1 0
1763 1 1.7437112932313273e+01 1.8536349689906160e+01 3.9382858309787121e+00 -10 -7 0
1823 1 3.5079458651163975e+00 2.3513710433185853e+01 7.9967422948646787e+00 -2 -1 0
2808 1 1.3497035964239933e+01 1.1891696419723814e+01 1.4247167371185895e+01 -9 -3 0
3736 1 7.4409798385049948e+00 1.7056168320098397e+01 5.4807523507243667e+00 -2 2 0
1747 1 2.2236982625642383e+01 1.7183685675180946e+01 1.8726165709063694e-01 -4 12 1
3737 1 2.3845980176132677e+01 5.9849712340716055e+00 2.7292383329748775e+00 -10 1 0
1720 1 1.2873442471440796e+01 1.0771916588834330e+01 4.9290954420916080e+00 -18 12 0
832 1 1.3756583196594176e+01 1.8265931647791621e+01 7.2989009142730374e+00 9 6 1
3447 1 1.6439691252150052e+01 2.0335669391515932e+01 7.3379544854282486e+00 -4 4 1
4374 1 6.7948141200503356e+00 2.4361212033384746e+01 1.2926073862348966e+01 -2 -6 1
2115 1 1.9957134269956793e+01 1.3020989749390223e+01 1.2566180910440549e+01 -4 4 0
5493 1 1.6262835599658143e+01 1.7138517231162247e+01 1.3326564148666931e+01 -4 -10 0
2049 1 2.3035619226106277e+01 2.3070117240696803e+01 1.2580182500525094e+01 5 6 0
2763 1 1.2657093688756841e+01 5.4591015056645995e+00 1.0406351510240783e+00 4 1 1
3536 1 5.1008309685769895e+00 1.6959849476187014e+01 4.7821174161142856e+00 -7 1 1
2124 1 1.1350032404484274e+01 7.7921794176083390e+00 1.1094731061205513e+01 0 3 0
5951 1 2.3800581137246667e+01 4.7168853226668803e+00 7.2296020630631785e+00 7 -9 1
6212 1 1.2310261983251076e+01 1.7736042589777675e+01 1.1587260222305899e+01 -21 9 1
1872 1 2.4450332735114515e+01 8.0091253645990914e+00 6.3124738508261160e+00 2 4 0
1010 1 1.0769775279230906e+01 2.3388813303013411e+01 4.8013271544086056e+00 -8 13 0
4407 1 3.9931681302602309e+00 3.1321475788364155e+00 3.0568228031361580e+00 1 0 1
3390 1 1.1762922684762094e+01 3.3380759472864217e+00 7.7999698269269544e+00 2 -10 1
445 1 9.3765829368980622e+00 1.7353255154562728e+01 7.8573475289059811e+00 5 1 0
3695 1 5.4832629697150717e+00 1.8007278509435796e+01 9.1238666114779612e+00 1 -3 0
1049 1 9.6877116356661528e+00 1.7881243517876772e+01 3.0968937588808907e+00 -1 -14 1
5161 1 1.9257466769296856e+00 2.4023707030133213e+01 4.1604609674833375e+00 -1 7 0
2514 1 1.4200296287519578e+01 1.8483944031855280e+01 4.8124980969001188e+00 -11 2 1
5882 1 6.9277198191733467e+00 1.9669840867368247e+01 7.0367829813490017e+00 7 6 1
912 1 1.6967217118395581e+00 5.9902680039605993e-01 5.9195238464862969e+00 -2 -3 1
256 1 2.1623442667454679e+01 2.0807171363493048e+01 9.4965622680076525e+00 5 -8 0
483 1 2.2808038016595393e+00 2.3970911494068528e-01 1.5129191060836018e+00 4 7 0
5363 1 2.2269990580975740e+01 1.7860700784905600e+01 1.0272312772300753e+01 8 -13 0
1858 1 2.3522922116131237e+01 2.2927905485393122e+01 8.9118405151399429e+00 -4 3 0
4532 1 1.9907542142925234e+01 1.0417621829251019e+01 2.6855711704591823e+00 3 -13 1
2725 1 1.4561405235359051e+00 2.4078165325536620e+01 1.4608266772019768e+01 10 10 1
1796 1 1.7264718938607192e+01 2.2900540868129106e+01 1.1198311015957263e+01 5 -7 0
1051 1 7.5334338541640937e+00 1.6388854553757632e+01 1.2457760467195463e+01 -6 4 1
825 1 9.4081650703791464e+00 7.6347276607599968e-01 4.9114733725019946e+00 1 -2 0
3457 1 8.6406294487690847e+00 9.8963935080708403e+00 8.3360727717986638e+00 -2 -12 0
5861 1 2.1804065047779826e+01 1.3962743848518539e+01 1.4655881863872088e+01 -7 4 1
6011 1 1.4920234048416910e+01 2.3422664467728289e+01 9.8619428851419393e+00 -8 -4 1
211 1 1.1484083221565180e+01 2.3914299683884646e+01 7.3532491528511539e+00 -9 -3 0
5848 1 1.0230967358278548e+01 1.6134674110465376e+01 1.4343482468977363e+01 -4 0 1
2648 1 1.4537110026648461e+01 3.3117319726992012e+00 1.1047157447052895e+00 3 -4 1
766 1 4.2104141739796921e+00 1.3241508886054191e+01 1.0014277256832241e+01 0 -8 0
6052 1 5.4988815666296329e+00 8.8801511864119664e+00 1.0047451609818131e+01 -15 0 1
5870 1 6.0041240297101792e+00 1.2015637644805730e+01 1.7472294850577128e+00 -3 12 0
5865 1 1.8836630373489932e+01 9.3822856680306490e+00 1.0309422650979389e+01 -4 -5 1
2061 1 1.8377994818883344e+01 1.1770996806183249e+00 5.1610104576726723e+00 -8 -3 0
170 1 2.0453257543653702e+01 2.3102076973635775e+01 1.1197990543831345e+01 -12 0 0
4581 1 1.6756923050312398e+01 1.0938396786950932e+01 1.0970544034670361e+01 -1 4 1
5847 1 1.6889085936485912e+01 6.8098297190730790e+00 1.3514686626594850e+01 16 8 1
4357 1 3.9447630432334830e+00 1.0871605053109318e+01 8.3391563279216090e+00 -4 -1 1
2541 1 4.2464847790207516e-01 3.1074826130015660e+00 3.6253486525107164e+00 -7 6 1
1768 1 2.6862716109875686e+00 1.6187401366152162e+01 1.4008300589999559e+01 -14 6 0
60 1 1.4639755590632767e+01 1.0773852816314140e+01 7.3680758858022166e+00 3 10 0
5396 1 8.0511684387285865e+00 2.0270263328498388e+01 1.1870183139014756e+01 -5 -7 0
4467 1 1.7192827825878908e+01 1.1276169891157377e+01 4.1140757568323822e+00 -13 -7 1
5395 1 2.0851908021241908e+01 6.5188026563508705e+00 1.1613100989171295e+01 14 -5 0
5214 1 1.5376141102422789e+01 1.9797670389294471e+01 3.2845522719185599e-01 14 6 0
473 1 2.2799594537391073e+01 4.8122708603509450e+00 1.2639766520336551e+01 13 9 0
963 1 6.1206131761576774e+00 2.0990270580570130e+01 9.9435008274570098e+00 -5 13 1
6164 1 2.3317141983981524e-01 1.5464416946195643e+01 1.0280144137018696e+00 6 1 1
1163 1 1.0621859369690162e+01 8.2476091169278138e+00 4.6084887226185227e+00 -1 1 1
2835 1 1.0100327850333869e+01 1.3238529660773288e+01 8.6760625576597974e+00 -1 -8 1
2075 1 5.2149334079873295e+00 7.7958885210688500e+00 1.4961171745309848e+01 3 -7 0
5356 1 1.1419351820143412e+01 2.5231539157352096e+00 1.0435394493667173e+01 -7 6 0
4431 1 1.7906851116233511e+01 2.2903196803172158e+01 2.4464801925989460e-01 -4 0 1
2780 1 1.7576465857680013e+01 3.5416934326328460e+00 1.3548677040762966e+01 -3 4 1
2652 1 4.1562801783516177e+00 2.6478675368771065e+00 5.9581849196051433e+00 6 9 1
5235 1 1.6410880500123820e+01 1.3350604170480970e+01 5.4867712293961119e+00 4 -5 0
3690 1 1.2086809872219204e+01 7.6630980716480606e+00 6.9832558553455755e+00 -6 -8 0
6278 1 7.5567998273990051e+00 1.6143120680774917e+01 9.3938462194830432e+00 -12 -4 0
3504 1 4.7405684529716163e+00 1.4174702099739408e+01 6.9590070863068485e+00 -3 1 1
4295 1 1.5109306235808965e+01 1.5195709762899597e+01 2.6645506782205648e+00 -1 0 1
2481 1 2.2968103816061110e+01 9.1649475970217082e+00 1.0862232293613987e+01 -9 13 1
5344 1 4.6546071299902767e+00 3.0876093511904177e+00 1.4272341581833478e+01 8 -4 0
4331 1 1.3108576703422989e+01 2.3540524528144811e+01 3.5096751380916795e+00 -4 7 1
6161 1 9.5847214858180383e+00 1.8225099400073830e+01 1.1085139481955524e+01 5 -8 1
5564 1 7.1063271969576611e+00 2.3121187449755965e+01 5.1499666035859004e+00 -5 -18 0
6173 1 3.8907819309054448e+00 2.1589650857758553e+01 1.4435000597106946e+01 1 8 1
5843 1 5.1100735665623569e+00 1.9622461337662660e+01 3.0647047498157693e+00 0 -4 0
1939 1 2.1587856200249959e+01 1.2777918692611731e+01 2.2802999998571121e+00 -8 14 0
5184 1 7.7327893225740700e+00 2.2532152818702254e+01 8.0311722746204985e+00 6 -5 0
4256 1 7.9816240463444821e+00 5.9204502714388543e+00 1.4163007347362042e+01 10 -6 1
5147 1 7.2466866830257608e+00 1.2977516465483577e+01 1.0105970570683834e+01 6 4 0
1001 1 1.1788054322471956e+01 8.1175202302491183e+00 2.1730340461128419e+00 -3 8 1
3549 1 1.5149129969107172e+01 1.5255670090621221e+00 4.7079288214419979e+00 -4 -6 1
3481 1 1.5137368425712681e+00 1.1352518369853392e+01 5.5098117275232648e+00 15 -16 0
892 1 2.0111655922510526e+01 1.0802927978954544e+01 7.9982305138949101e+00 -2 5 1
3378 1 2.4437295532767398e+00 3.7371293701317501e+00 7.9357092134290985e-01 4 2 1
510 1 2.4302408059309677e+01 8.0794808814921968e+00 4.3400754549350484e-01 -8 -7 0
3608 1 3.0946825688885422e+00 2.0926170554487193e+01 1.6530302974122595e+00 1 -10 0
5518 1 2.1164182093716363e+01 5.2598803682845725e+00 9.3335224143058007e+00 2 3 0
3777 1 1.8675438885458252e+01 1.0843338154423078e+01 3.0784360108836872e-01 -5 -6 0
789 1 1.4925661030210138e+01 1.7622374277405630e+01 1.0553570928328547e+01 -6 -7 1
2778 1 2.2628652911467828e+01 1.1513141029021027e+01 9.1553016577617541e+00 1 9 0
319 1 2.2933612648508333e+01 1.1503421311125475e+01 4.1944615439975825e+00 5 -8 0
903 1 5.1129673645080009e-01 8.2625406147338847e+00 1.4840880465144879e+01 2 8 1
5572 1 1.8725614135057029e+01 1.9632649079391161e+01 9.5617235726151009e+00 -8 8 0
4534 1 1.9885649833944095e+00 1.6765226192384599e+01 6.8249622393126845e+00 0 3 0
4224 1 2.4478525529244610e+01 2.1276166876994967e+01 9.7426514337954218e-01 14 0 1
224 1 6.7830995012869639e+00 1.7455253239178575e+01 2.5938152036174134e-01 -1 0 0
1943 1 1.3636777082204917e+01 2.0745493136277993e+01 1.3737242677429252e+01 10 8 1
5471 1 2.2864075374007815e+01 2.0146657880054192e+01 1.2666781048414210e+01 4 0 0
3799 1 3.6933117096376025e+00 1.0533709602247830e+01 1.4915009148359562e+01 11 -5 0
1808 1 1.6328613150126753e+01 2.3586624055075323e-01 7.2848368439115188e+00 -1 6 0
1228 1 1.7252927738378936e+01 2.0950219041378222e+01 1.7288704677442417e+00 -1 2 1
988 1 1.7471518121979596e+01 1.0652096054029665e+01 1.4076243349411056e+01 5 -1 1
1755 1 1.7833118773913924e+01 1.4030605950953511e+01 1.4133722681824958e+01 -10 10 0
5138 1 2.2824861934936813e+01 2.5756939884927887e+00 1.4366332054405184e+01 -3 7 0
4370 1 7.6030840998265097e+00 2.0210109882189904e+01 1.2089412710206116e+00 -2 1 1
362 1 9.8777631319477184e+00 9.0776773246856806e+00 1.4612766560984600e+01 15 -13 0
841 1 1.8701368354189507e+00 6.8819988026720935e+00 1.2906973988397015e+01 -5 9 1
6284 1 1.7788540289522988e+01 1.9718178296555045e+01 1.3844423375008143e+01 -3 -6 1
2614 1 1.4254940608198179e+00 2.9881205707913265e+00 9.2035253350434747e+00 21 -8 1
1712 1 2.2264570428137997e+01 2.3375386617704528e+01 6.6806937933357062e+00 -2 -3 1
235 1 2.2964719207084261e+01 1.1053735220334964e+01 1.3600802266419725e+01 -17 -12 0
1842 1 5.9288109834716227e+00 2.4334358813783620e+01 2.3334368336806177e+00 4 2 0
5182 1 8.1816227145571430e-01 1.5272490610516579e+01 4.7393669653100732e+00 4 4 1
4453 1 1.1644048467563369e+01 1.8393057309176001e+01 1.4247367573676208e+01 5 -14 1
226 1 1.3540520539475144e+01 6.1771373176514244e+00 1.5017249283778012e+01 -9 -2 1
152 1 2.4747085851250827e+00 3.5746301232380734e-01 1.5002445100345426e+01 -15 -14 0
352 2 2.0938724046152526e+01 2.3450011885087147e+01 2.6734674962901288e+01 0 0 0
675 2 1.4819930789746518e+01 2.1330399724868926e+01 2.6734674962901288e+01 0 0 0
5379 1 2.0386967569351686e+01 1.5811122497482559e+01 1.6214226751555611e+01 2 0 0
2085 1 2.3466322268799420e+01 2.0436063322182072e+01 2.4468166300710834e+01 5 8 0
5993 1 2.2045575560697444e+01 1.4630531854301555e+01 1.7896375504959511e+01 0 2 1
1109 1 4.1385305897935432e+00 7.9906654306255671e+00 2.4015329648228718e+01 -9 8 1
3925 2 2.4609999999994915e+01 2.1330399724868926e+01 2.6734674962901288e+01 0 0 0
6207 1 2.4585802860004581e+01 2.2730994449207245e+00 2.3300343861493761e+01 -7 -3 1
2928 1 1.8343058043558354e+01 2.3953465474503663e+01 2.2979717208727102e+01 -3 10 1
5255 1 1.8325272066130602e+00 1.0289630370094544e+01 2.1423670345759060e+01 11 3 0
4369 1 2.1567241629376174e+01 1.9371835340626966e+01 1.9038742471514617e+01 -2 7 1
6090 1 2.3374617317096900e+00 1.3534646044044887e+01 1.6411411076289408e+01 -4 1 1
3801 1 1.9490230970404816e+01 3.1787440733398076e-01 2.1083554945234727e+01 0 1 0
3641 1 7.0068071266211280e+00 6.7532639365769089e+00 2.1000535981575272e+01 1 7 0
1733 1 3.6826234280147956e+00 2.2354323888934513e+01 2.1136900191734895e+01 -1 10 0
674 2 1.4819930789746518e+01 2.4156549271835669e+01 2.6734674962901288e+01 0 0 0
969 1 1.9768617459238786e+01 5.7145599043702537e+00 2.0754220979767787e+01 12 -2 1
214 2 2.2162482697441519e+01 2.1330399724868926e+01 2.6734674962901288e+01 0 0 0
1822 1 1.0539942544486198e+01 1.7888043679641868e+01 1.8035543540429185e+01 -1 -10 0
2791 1 2.3941720736618546e+01 2.0658758307767620e+01 1.9740351300235965e+01 -9 -4 1
6271 1 2.3345606205420575e+00 8.8914055232536224e+00 1.6729401856058644e+01 9 -2 1
815 1 2.0945776554177005e+01 1.3501973683323969e+00 2.4590281757503234e+01 -3 -4 1
3679 1 9.6130122168184968e+00 2.0467207899168013e+01 1.8709949059477921e+01 -3 9 0
5248 1 1.4482542577941794e+01 1.1159676402927041e+00 2.4290521926615927e+01 12 8 0
1784 1 1.5714142095165329e+01 2.3633247272558272e+01 1.5709593628611460e+01 -1 -8 0
2066 1 1.0950631512231951e+01 1.4001630242819717e+01 1.9357466079482208e+01 3 -12 0
4473 1 1.2988428466293927e+01 2.2633749316230965e+01 1.5576981840956851e+01 1 8 0
3369 1 6.3339727729072326e+00 5.7345149276446978e+00 2.4003135965711092e+01 11 -1 1
488 1 1.4878293954437588e+01 5.7119065545628986e+00 2.3411905210342574e+01 -1 5 0
2685 1 4.7928417426300935e+00 7.7898898026212471e-01 2.0082435266342454e+01 -6 -13 1
185 1 2.4123169392201497e+01 2.3096809859018130e+01 2.1059503330635422e+01 -8 -1 0
5309 1 2.1440886144518942e+01 2.0561115167703495e+01 2.2416090771557332e+01 -2 -3 0
1715 1 9.2308903733038292e+00 5.7259305965451066e+00 1.6694297078680549e+01 3 13 1
898 1 1.0260051230438446e+01 1.2532553912191153e+01 1.7043653129985437e+01 4 0 1
5374 1 5.6588028956052829e+00 1.0902658770110088e+01 2.4054465397503943e+01 -2 -11 0
5275 1 1.7286634278477628e+01 8.5063290579276352e+00 1.8337253168321077e+01 -9 -24 0
381 1 1.7565704772929196e+00 1.3855420387366555e+01 2.0883891696404586e+01 -1 4 0
5994 1 8.2035691002016744e+00 8.7032118737743307e+00 1.6904001865810031e+01 3 -3 1
3691 1 1.1771087806922269e+01 6.9613763393655699e+00 1.7481719532113935e+01 -9 21 0
248 1 2.0827550496403475e+01 2.2038581272967924e+01 1.6556442676897451e+01 -4 -3 0
55 2 2.3386241348712716e+01 2.3450011885087147e+01 2.6734674962901288e+01 0 0 0
3767 1 1.6317646181643827e+01 1.2422095322248152e+01 1.5386566082705301e+01 11 -3 0
397 1 2.3716104905711695e+01 1.2351279017873422e+01 1.7349117509145454e+01 6 2 0
3924 2 2.4609999999994915e+01 2.4156549271835669e+01 2.6734674962901288e+01 0 0 0
5271 1 1.3190225191006549e+01 9.7913085360054293e+00 2.0908138463629026e+01 -1 0 0
2643 1 2.3505886246539243e+00 1.9497956498866427e+00 2.0813635077519304e+01 4 -8 1
3468 1 1.6205576806379757e+01 6.5934733138499446e+00 2.0256922118426079e+01 4 7 0
1007 1 1.3519645804188791e+01 6.9651956335861698e+00 2.0858536625002362e+01 3 -4 1
3506 1 1.9166123280766627e+00 1.2638689031226573e+01 2.3073884224963461e+01 -5 -2 1
2894 1 1.5968866866623538e+01 7.9880081522685025e+00 2.3329986771369946e+01 -7 15 1
6160 1 1.8016828909171672e+01 4.7018744941856294e+00 1.7756558576420627e+01 5 -6 1
1967 1 1.8485523202372672e+01 2.4151935994311252e+01 2.0330275914439898e+01 -3 -9 0
1132 1 2.2712416723674313e+01 1.0774505320957438e+01 2.0228498322433129e+01 4 7 1
2490 1 2.1371518836547633e+01 8.7121527242668630e+00 2.3801253925492880e+01 -8 3 1
291 2 2.2162482697441519e+01 2.4156549271835669e+01 2.6734674962901288e+01 0 0 0
2898 1 1.3136206393473294e+01 9.6989639553622329e+00 2.3926604858135430e+01 -4 1 1
4535 1 1.3468647101138407e+01 1.5045947198516792e+01 1.8928914095431114e+01 -10 6 1
3465 1 1.9796384705595820e+01 2.7278674922414288e+00 1.9639834260767650e+01 5 0 0
4497 1 3.3407880453640222e+00 1.6265079658486258e+01 2.0082532357907546e+01 -5 -2 1
2706 1 8.2379923629891607e+00 2.9239005402566920e+00 1.7786826117779885e+01 -4 8 0