LAMMPS data file via write_data, version 16 Mar 2018, timestep = 100000

6589 atoms
2 atom types

0.0000000000000000e+00 4.9219999999999999e+01 xlo xhi
0.0000000000000000e+00 4.9019635930410494e+01 ylo yhi
1.5062654358760987e+00 5.8555734564125515e+01 zlo zhi

Masses

1 18.015
2 12.01

Atoms # atomic

5298 1 4.3689101672979946e+00 3.3346736206806589e+00 4.6882974337535526e+00 0 0 0
3651 1 6.5516712478719104e+00 3.0568579638057938e+00 6.6228317409160073e+00 0 1 0
3603 1 1.0847129010745492e+01 1.3633191463259934e+01 1.0397883090686703e+01 1 0 1
6515 1 2.7826725807394284e+00 2.9523063501465403e+00 7.1118618281989372e+00 0 1 0
5022 1 8.3181063766910430e+00 1.7347255661961716e+00 4.3195315318404637e+00 0 1 0
4920 1 6.6049468294634499e+00 4.5474648948067999e+00 9.1042775604048423e+00 0 1 1
6531 1 3.2359728113879953e+00 1.4339777876913904e+00 3.0485584098832685e+00 -1 0 1
3587 1 6.6649275455907739e+00 3.8223535224539837e+00 3.1924271862005966e+00 0 1 0
1865 1 9.2037455820778309e+00 1.5097636329030877e+01 1.9392100141556690e+00 0 0 1
3420 1 9.3894977849799552e+00 4.4529363600652623e+00 5.2430755233108197e+00 -1 -1 0
101 1 4.0525139388475989e-01 7.1530217431509611e+00 4.0752226683241268e+00 1 1 0
188 1 1.2301452837570171e+01 3.1575748234191829e+00 4.3759742826291923e+00 3 0 1
184 1 1.0142537997433994e+01 1.0002428996530512e+01 1.0883170383163339e+01 0 0 0
250 1 3.6355671015514273e+00 5.8097287731316536e+00 3.5978968083217504e+00 2 1 0
1906 1 3.1313228293765891e+00 7.4795725354780478e+00 5.5604664768622101e+00 1 0 0
410 1 3.6335327515195130e+00 5.8093718074667136e+00 1.2100111057591995e+01 1 0 1
3424 1 2.4676972062656475e+00 5.6205194542704495e+00 7.7664932759069494e+00 1 1 0
5071 1 5.9916864113290211e+00 8.2444095024860644e+00 5.8995952347831260e+00 1 0 0
4845 1 7.3614509497074367e+00 6.4774652092652678e+00 4.2854114527459650e+00 0 -1 0
2925 1 7.2975017851506569e+00 7.2624282232141280e+00 8.2235410558863720e+00 0 0 1
438 1 6.6219974311351502e+00 1.3347761304341105e+01 1.1558048316301969e+01 2 0 1
5360 1 1.0922193869555493e+01 6.6269754098769837e+00 4.3998857232203363e+00 0 0 0
4769 1 1.1822781067505776e+01 9.9956669875322781e+00 6.3386251891906094e+00 0 1 1
1674 1 7.3235254153544496e+00 1.5177863680657435e+00 1.1623363183873996e+01 1 0 1
3827 1 3.9344797832818590e+00 1.5215136653192387e+01 7.8741344007943779e+00 0 0 1
2171 1 1.2713602033851403e+00 1.0888003045650690e+01 3.6420529521238292e+00 -1 -1 0
6569 1 1.1965960263899988e+00 9.7718765021775678e+00 5.9995314817086500e+00 0 1 0
405 1 6.4416763518772813e+00 1.1424974308276139e+01 2.6938137554054151e+00 0 1 0
5238 1 4.0024958326195499e+00 1.2382546033061271e+01 5.2842529547529953e+00 1 0 0
221 1 6.7226660368300815e+00 1.0660097981362144e+01 5.3492675604490287e+00 1 1 0
1305 1 9.5043237998984136e+00 8.7949250447072860e+00 5.0685411921613737e+00 1 2 1
3227 1 1.0269781832399358e+01 1.0219394854095555e+01 2.9998012735644575e+00 -1 -1 0
441 1 8.6048387064959169e+00 1.2245688068027890e+01 9.7064041278236353e+00 0 1 0
3194 1 8.6124411597986725e+00 7.1001450728380711e+00 1.5883497598318397e+00 2 2 0
2162 1 2.0605361150305863e+00 1.4960566636407343e+01 2.8484140643001901e+00 0 0 0
5139 1 4.8654726547870188e+00 1.1343226953354474e+01 8.0366670450032167e+00 1 1 0
5158 1 4.6142985609685472e-01 1.5557494286018656e+01 1.0012054219685709e+01 1 0 0
5216 1 5.9380957616976895e+00 1.4296133124182848e+01 6.1131206384831671e+00 0 0 0
1890 1 4.8418951819615152e+00 1.5285079519033241e+01 3.8505215575765437e+00 1 1 0
1958 1 1.2103746302087586e+00 2.9613083733416170e+00 1.0078862235930812e+01 1 1 0
3228 1 1.0373118283884352e+01 1.3927734100928964e+01 6.1257051192664100e+00 0 1 0
3217 1 1.0768620188615865e+01 1.3197449000315203e+01 3.4998062699617085e+00 -1 1 0
5446 1 4.7138146335191466e+00 1.4431604039073258e+00 1.1734856901660713e+01 0 1 0
3413 1 1.5190730096727287e+00 1.4087038236081453e+01 6.2548418085031630e+00 -1 0 0
6574 1 4.4278610383077348e+00 1.3412530454812217e+01 1.0035822827213286e+01 1 1 1
273 1 1.5060183775893227e-01 2.1055361866079041e+00 6.1734331704118279e+00 1 0 0
6514 1 2.2334121040764321e-01 2.4866463551578616e-01 8.8422547269845104e+00 1 0 1
3280 1 8.3953692427845539e+00 1.8577869820236774e+00 9.1494304409808720e+00 0 1 0
1686 1 4.0303597137680089e+00 3.7281217084901908e+00 1.0141701009012150e+01 0 1 0
306 1 5.4208380037106139e+00 8.8643659294096828e+00 1.2348543413044617e+01 0 -1 0
6390 1 2.1755441065329086e+00 1.3882158355912461e+01 1.1550300786540419e+01 0 0 1
1284 1 9.7161944182434450e+00 4.1206138283638136e+00 7.9274282624844874e+00 1 1 0
282 1 1.1441079924060894e+01 1.9245604630628049e-01 5.3916866766066107e+00 2 0 0
3652 1 3.5373908447454485e+00 7.1121847302441692e+00 9.8038563104517031e+00 2 0 0
5202 1 1.6630252806971217e+00 9.5465608917053775e+00 1.0277969703300567e+01 0 0 0
4742 1 8.0441176279455302e+00 1.2424734686654032e+01 6.9590374916630644e+00 2 1 1
6273 1 5.5124391405586035e+00 8.8044747453768348e+00 9.4722188627501787e+00 0 1 1
6296 1 3.8899679991932996e+00 5.8931164529273805e-01 8.3317977410147428e+00 1 1 1
3383 1 6.5135834787800091e+00 1.6141860247898205e+01 1.0718079792132247e+01 0 0 0
2131 1 1.0923710395403450e+01 6.1832671698054922e+00 9.4854172088987099e+00 1 0 1
4969 1 9.8783174752081333e+00 8.4333779849148023e+00 8.3590138650735089e+00 1 0 1
2049 1 6.1504015899515097e-01 2.5742892039068925e+00 3.3346944749527516e+00 1 1 0
3799 1 2.0145059548405606e+00 1.1094235810379487e+01 8.0255642882560227e+00 1 1 1
2957 1 8.6125555313540858e-01 1.1468034920759935e+01 1.2317708152274307e+01 0 1 1
3685 1 2.5794812901677155e-01 8.5525660288156207e+00 1.8990019917763961e+00 0 1 0
4623 1 1.0485182320324462e+01 1.6308143244367721e+00 2.6635009563619274e+00 0 0 0
5241 1 6.6378421215889798e+00 4.2521161213921538e-01 7.4975328433944650e+00 0 1 0
3378 1 6.3780368008176627e+00 1.3903073362837114e+01 2.1151733599147766e+00 1 -1 0
6291 1 6.6049750153257281e-01 4.9798052376825561e+00 2.3801486991310794e+00 0 0 0
4901 1 7.7844600983766368e+00 4.7975360779407632e+00 1.2003269317308110e+01 1 1 1
419 1 1.0316078674205896e+01 5.8931754932664200e+00 1.2028954816912739e+01 -1 0 0
22 1 2.6600028419333243e-02 1.3230869819978091e+01 8.4588844091498068e+00 0 1 0
6454 1 8.5457331743205565e+00 8.5373554177922575e+00 1.2576383809017404e+01 1 0 0
6446 1 3.7309065350351460e+00 1.1429500389237532e+01 2.2969603459934307e+00 0 0 0
5141 1 1.2132674911719969e+01 2.8764193516236669e+00 7.0132920329690878e+00 0 1 0
91 1 1.0351538803482015e+01 1.6336989124667262e+01 9.4205036924936323e+00 1 1 1
5385 1 1.0503925881799228e+00 7.4681458049087244e+00 1.2464000664170650e+01 0 0 0
3471 1 1.0837433665797249e+00 2.8206175629314134e+00 1.2883581210362303e+01 0 1 0
1278 1 1.1415543170141103e+01 6.6412860827274747e+00 1.8681012202039966e+00 -1 0 1
4964 1 3.1709945284682264e+00 2.6872694146891476e+00 1.8365222787255732e+01 2 2 0
1659 1 2.8375199878938782e+00 1.1053262598729010e+00 1.3949069671957250e+01 0 0 1
2974 1 4.3692538423374252e+00 1.0583746188349226e+00 1.6361989667281307e+01 0 1 1
3000 1 4.6102722108031475e+00 1.0236413009904881e+00 2.0584940414635739e+01 0 2 1
6332 1 9.5675678765434728e+00 3.4244759953110284e+00 1.7298187601942793e+01 0 0 1
357 1 1.1509716966601733e+01 5.2260404940681215e-01 1.9932290488254768e+01 0 1 1
3726 1 1.5466771886666080e+00 5.1138110225006486e+00 1.4208060271263513e+01 1 2 0
95 1 4.8219820646131692e+00 3.7912353926529145e+00 2.3796114627040183e+01 0 1 0
5268 1 3.0844094876630619e+00 5.0457679276752190e+00 1.6965984039765658e+01 0 1 0
3443 1 2.6807462819512291e+00 7.4988494805388388e+00 1.7992345469684512e+01 1 0 0
2069 1 6.9922069616983853e+00 3.1060128297313225e+00 1.6105289002843520e+01 0 1 1
97 1 5.7545859099400118e+00 5.7180125437499072e+00 1.6143822156784061e+01 1 0 0
1631 1 9.2949567983993120e-03 1.7441729060855948e-02 1.4512037715523999e+01 2 -1 1
593 1 5.8557731889368814e+00 6.3949987346434245e+00 1.3363023621000330e+01 1 1 0
3320 1 1.0471240250209274e+01 6.6127717101075394e+00 1.7764726166539397e+01 0 0 0
3152 1 1.1807011738905548e+01 7.6703864058720450e+00 1.3778956629744103e+01 0 0 1
1930 1 2.0793912475502596e+00 9.8233477472054140e+00 1.6350634317011938e+01 0 0 0
1908 1 2.7259965096865870e+00 1.2616313202767280e+01 1.8161324552038703e+01 -2 0 0
2031 1 2.7590065506988335e+00 9.6816407019959208e+00 1.3705393678700506e+01 1 0 0
1949 1 6.1569104985901353e+00 1.0255652341986828e+01 1.4697369635006462e+01 1 0 1
6415 1 7.0023814048928834e+00 8.4477938329543054e+00 1.6339729286262632e+01 1 1 1
1942 1 8.6133721522608493e+00 1.2181800805724192e+01 1.7833372402349330e+01 -1 1 0
6472 1 9.4848969668765211e+00 8.1290969529101602e+00 1.5497515354695981e+01 0 -2 1
1549 1 7.6070565080427510e+00 1.5257759914964538e+01 2.0727196887837735e+01 0 0 0
5506 1 1.0435668865093557e+01 1.0428927328600324e+01 1.6758850343557704e+01 1 1 1
1395 1 7.0960772254443896e+00 1.5528235719203373e+01 1.5820959142493118e+01 2 1 1
4938 1 3.3451511955253932e+00 1.4663264590614368e+01 1.3940570141868905e+01 2 0 1
56 1 3.2045019014326204e-01 1.7149930947810179e+00 2.1105610586402200e+01 0 1 1
2156 1 3.5606691787013962e+00 1.2186131265858744e+01 1.5405371680039734e+01 2 0 0
5079 1 6.4310198818766002e+00 1.2723422388404391e+01 1.6349825607055990e+01 1 0 1
4715 1 5.0273494251286257e+00 1.4073661412008457e+01 1.8405568474126973e+01 1 0 1
6483 1 1.0050605227192461e+01 1.2764108238797897e+01 1.4576834418415435e+01 1 1 1
5194 1 8.6490310376004249e+00 2.7706537692796416e+00 1.3685639821604765e+01 1 1 0
5046 1 1.0892128910621373e+01 1.5205363318182327e+01 1.3196597877612252e+01 1 -1 0
3868 1 6.8394594693823016e+00 1.6285085370510444e+01 2.3101443374596862e+01 0 -1 0
4759 1 2.8421647515845891e+00 1.6116910409652000e+01 1.7810146964043273e+01 1 1 1
6283 1 9.2742824437693894e-01 7.2566437107553483e+00 2.2450734290414292e+01 0 0 1
4577 1 4.6794826039873980e+00 3.9232443286323022e+00 2.1124848394062898e+01 0 -1 1
1336 1 1.7866500847641618e+00 4.2607283200261641e+00 2.0623963178735149e+01 0 1 1
580 1 8.0314267745071977e+00 1.1440848843125876e+01 1.3199909289787916e+01 0 0 0
3620 1 7.5865410954439207e+00 2.4364782951260571e+00 2.0504589888742341e+01 1 1 0
3662 1 1.0169422416326916e+00 4.0405791398007764e+00 2.3436490276939200e+01 2 0 0
1785 1 7.3459085247295901e+00 2.1217506733920821e+00 2.3456847463622886e+01 0 1 1
5137 1 1.1299449938533980e+01 3.5032499700254847e+00 1.3075370229074441e+01 1 0 0
4799 1 5.6078022767608604e-01 1.3833615213777616e+01 1.9307249243744049e+01 1 1 1
3264 1 5.0195139399279816e+00 7.1314173680785755e+00 2.3898033655542903e+01 0 2 1
3225 1 7.1415798214486266e+00 1.2276731837629963e+01 2.0580373450784947e+01 2 1 0
6512 1 5.8575872732818794e+00 6.5303686774150451e+00 2.1325300645448230e+01 0 1 1
3244 1 9.3144423461618207e+00 7.4489491480642378e-01 1.8075025817960356e+01 0 0 0
1641 1 4.5423577356027538e+00 8.5506504411090987e+00 1.9922366289090039e+01 1 0 1
1521 1 8.5003199269208753e+00 6.4054189850365342e+00 2.1337385085730574e+01 -1 1 1
1747 1 9.9842717775834036e+00 1.4830377262157121e+01 1.6582507679403605e+01 1 0 0
1407 1 1.0386948764175717e+01 1.6281501752301757e+01 2.1201878017587049e+01 0 -1 0
1883 1 1.2214832168093505e+01 2.9956784119382251e+00 2.0656901920190069e+01 1 1 0
36 1 9.7758512294963662e+00 4.2614493106281763e+00 1.9912455381453764e+01 0 0 1
6525 1 9.1966926579551451e+00 7.0496554354749277e+00 2.3896017868021762e+01 1 -1 1
3533 1 8.7742792694896965e-01 1.5117821494961547e+01 1.5239147011620268e+01 0 1 1
5181 1 1.0021471187844350e+01 1.2916027226000535e+01 2.0809895331515818e+01 1 -1 0
320 1 4.3696210591734381e+00 1.2404772241491374e+01 2.2160150585825740e+01 1 -1 1
3816 1 2.3162203495484499e-01 2.3544041758383827e+00 1.8506561513782472e+01 1 0 0
50 1 8.5448019147380627e-01 1.0025267875855757e+01 2.2168195391367071e+01 1 0 1
1919 1 5.5054618646481079e-01 6.6096506639658479e+00 1.9766731164083520e+01 1 0 0
552 1 7.1583535764090032e+00 1.1371503776222946e+01 2.3302109266355586e+01 1 0 1
41 1 3.0127815430185465e+00 1.0903374709500344e+01 2.0366152180215852e+01 1 0 1
3342 1 7.2142456747007682e+00 9.5466575312076269e+00 1.8930024274779043e+01 1 0 0
4867 1 1.0574155665795589e+01 1.3849501740301982e+01 2.3638675939587916e+01 2 0 0
185 1 9.6051513756402311e+00 8.2841716846122626e+00 1.9874584418282140e+01 1 1 1
230 1 1.0819282224443430e+01 1.0332451716368251e+01 2.1582287349812724e+01 0 1 1
9 1 1.1834540158651677e+01 2.9376430994067806e+00 2.3616601047838728e+01 1 0 0
4693 1 1.1744279979746624e+01 2.6898541455345901e+00 1.5632429061400282e+01 0 2 0
2094 1 2.9570072689006626e+00 1.4586997647571787e+01 2.2831049925852852e+01 0 -1 0
2963 1 1.2139434090907393e+01 1.2813163655821569e-01 1.5456616549734143e+01 0 1 1
5091 1 2.0444705237667384e+00 1.5992254749493140e+01 2.0666213410567895e+01 1 1 1
3079 1 1.1613925192524404e+01 1.4891985220426106e+01 1.9018923324585295e+01 2 0 1
3689 1 7.8972241840766308e+00 1.3925863517655033e+01 2.4140159563073524e+01 1 1 1
3161 1 1.1641846147358148e+01 5.7601682121456186e+00 2.4004939044149705e+01 0 1 1
4831 1 2.6427408758213025e+00 1.1219866236853381e+01 2.4179903863313584e+01 1 0 1
6576 1 9.7496394836800260e+00 1.2088637851046624e+00 2.4135792976009203e+01 2 1 1
29 1 3.7279012128209388e-02 1.1856513126290444e+00 2.4306416101384887e+01 0 -1 1
1752 1 4.4392515499444629e+00 1.6285334312466009e+01 2.4308331302044930e+01 0 -2 0
254 1 9.1812401281411127e+00 9.8201940768377884e+00 2.4323646727793282e+01 1 1 1
594 2 0.0000000000000000e+00 2.8417180249513345e+00 2.6829270561435330e+01 0 0 0
596 2 0.0000000000000000e+00 0.0000000000000000e+00 2.6829270561435330e+01 0 0 0
598 2 1.2305000000000001e+00 7.1042950623783474e-01 2.6829270561435330e+01 0 0 0
605 2 1.2305000000000001e+00 2.1312885187134998e+00 2.6829270561435330e+01 0 0 0
607 2 2.4610000000000003e+00 2.8417180249513345e+00 2.6829270561435330e+01 0 0 0
609 2 2.4610000000000003e+00 0.0000000000000000e+00 2.6829270561435330e+01 0 0 0
611 2 3.6915000000000004e+00 7.1042950623783474e-01 2.6829270561435330e+01 0 0 0
626 2 3.6914999999999996e+00 2.1312885187134998e+00 2.6829270561435330e+01 0 0 0
628 2 4.9220000000000006e+00 2.8417180249513332e+00 2.6829270561435330e+01 0 0 0
630 2 4.9220000000000006e+00 0.0000000000000000e+00 2.6829270561435330e+01 0 0 0
632 2 6.1524999999999999e+00 7.1042950623783407e-01 2.6829270561435330e+01 0 0 0
655 2 6.1524999999999999e+00 2.1312885187134989e+00 2.6829270561435330e+01 0 0 0
657 2 7.3829999999999991e+00 2.8417180249513345e+00 2.6829270561435330e+01 0 0 0
659 2 7.3829999999999991e+00 0.0000000000000000e+00 2.6829270561435330e+01 0 0 0
661 2 8.6134999999999984e+00 7.1042950623783407e-01 2.6829270561435330e+01 0 0 0
692 2 8.6134999999999984e+00 2.1312885187135002e+00 2.6829270561435330e+01 0 0 0
694 2 9.8440000000000012e+00 2.8417180249513332e+00 2.6829270561435330e+01 0 0 0
696 2 9.8440000000000012e+00 0.0000000000000000e+00 2.6829270561435330e+01 0 0 0
698 2 1.1074500000000002e+01 7.1042950623783330e-01 2.6829270561435330e+01 0 0 0
737 2 1.1074500000000002e+01 2.1312885187135002e+00 2.6829270561435330e+01 0 0 0
599 2 0.0000000000000000e+00 7.1042950623783341e+00 2.6829270561435330e+01 0 0 0
601 2 0.0000000000000000e+00 4.2625770374269996e+00 2.6829270561435330e+01 0 0 0
603 2 1.2305000000000001e+00 4.9730065436648339e+00 2.6829270561435330e+01 0 0 0
618 2 1.2305000000000001e+00 6.3938655561404980e+00 2.6829270561435330e+01 0 0 0
620 2 2.4610000000000003e+00 7.1042950623783341e+00 2.6829270561435330e+01 0 0 0
622 2 2.4610000000000003e+00 4.2625770374269996e+00 2.6829270561435330e+01 0 0 0
624 2 3.6914999999999996e+00 4.9730065436648339e+00 2.6829270561435330e+01 0 0 0
647 2 3.6914999999999996e+00 6.3938655561404980e+00 2.6829270561435330e+01 0 0 0
649 2 4.9220000000000006e+00 7.1042950623783341e+00 2.6829270561435330e+01 0 0 0
651 2 4.9220000000000006e+00 4.2625770374269978e+00 2.6829270561435330e+01 0 0 0
653 2 6.1524999999999999e+00 4.9730065436648339e+00 2.6829270561435330e+01 0 0 0
684 2 6.1524999999999999e+00 6.3938655561404980e+00 2.6829270561435330e+01 0 0 0
686 2 7.3830000000000009e+00 7.1042950623783341e+00 2.6829270561435330e+01 0 0 0
688 2 7.3829999999999991e+00 4.2625770374269996e+00 2.6829270561435330e+01 0 0 0
690 2 8.6135000000000002e+00 4.9730065436648339e+00 2.6829270561435330e+01 0 0 0
729 2 8.6135000000000002e+00 6.3938655561404980e+00 2.6829270561435330e+01 0 0 0
731 2 9.8440000000000012e+00 7.1042950623783341e+00 2.6829270561435330e+01 0 0 0
733 2 9.8440000000000012e+00 4.2625770374270004e+00 2.6829270561435330e+01 0 0 0
735 2 1.1074500000000002e+01 4.9730065436648339e+00 2.6829270561435330e+01 0 0 0
776 2 1.1074500000000002e+01 6.3938655561404980e+00 2.6829270561435330e+01 0 0 0
1034 2 9.8440000000000012e+00 1.5629449137232328e+01 3.3232729438568306e+01 0 0 0
612 2 0.0000000000000000e+00 1.1366872099805333e+01 2.6829270561435330e+01 0 0 0
614 2 0.0000000000000000e+00 8.5251540748539991e+00 2.6829270561435330e+01 0 0 0
616 2 1.2305000000000001e+00 9.2355835810918343e+00 2.6829270561435330e+01 0 0 0
639 2 1.2305000000000001e+00 1.0656442593567498e+01 2.6829270561435330e+01 0 0 0
641 2 2.4610000000000003e+00 1.1366872099805333e+01 2.6829270561435330e+01 0 0 0
643 2 2.4610000000000003e+00 8.5251540748539991e+00 2.6829270561435330e+01 0 0 0
645 2 3.6915000000000004e+00 9.2355835810918343e+00 2.6829270561435330e+01 0 0 0
676 2 3.6914999999999996e+00 1.0656442593567499e+01 2.6829270561435330e+01 0 0 0
678 2 4.9220000000000006e+00 1.1366872099805333e+01 2.6829270561435330e+01 0 0 0
680 2 4.9220000000000006e+00 8.5251540748539991e+00 2.6829270561435330e+01 0 0 0
682 2 6.1524999999999999e+00 9.2355835810918343e+00 2.6829270561435330e+01 0 0 0
721 2 6.1524999999999999e+00 1.0656442593567499e+01 2.6829270561435330e+01 0 0 0
723 2 7.3829999999999991e+00 1.1366872099805333e+01 2.6829270561435330e+01 0 0 0
725 2 7.3830000000000009e+00 8.5251540748539991e+00 2.6829270561435330e+01 0 0 0
727 2 8.6134999999999984e+00 9.2355835810918343e+00 2.6829270561435330e+01 0 0 0
768 2 8.6134999999999984e+00 1.0656442593567498e+01 2.6829270561435330e+01 0 0 0
770 2 9.8440000000000012e+00 1.1366872099805333e+01 2.6829270561435330e+01 0 0 0
772 2 9.8440000000000012e+00 8.5251540748539956e+00 2.6829270561435330e+01 0 0 0
774 2 1.1074500000000002e+01 9.2355835810918343e+00 2.6829270561435330e+01 0 0 0
815 2 1.1074500000000002e+01 1.0656442593567498e+01 2.6829270561435330e+01 0 0 0
817 2 1.2304999999999998e+01 1.1366872099805333e+01 2.6829270561435330e+01 0 0 0
633 2 0.0000000000000000e+00 1.5629449137232333e+01 2.6829270561435330e+01 0 0 0
635 2 0.0000000000000000e+00 1.2787731112280996e+01 2.6829270561435330e+01 0 0 0
637 2 1.2305000000000001e+00 1.3498160618518829e+01 2.6829270561435330e+01 0 0 0
668 2 1.2305000000000001e+00 1.4919019630994494e+01 2.6829270561435330e+01 0 0 0
670 2 2.4610000000000003e+00 1.5629449137232328e+01 2.6829270561435330e+01 0 0 0
672 2 2.4610000000000003e+00 1.2787731112280996e+01 2.6829270561435330e+01 0 0 0
674 2 3.6915000000000004e+00 1.3498160618518829e+01 2.6829270561435330e+01 0 0 0
713 2 3.6915000000000004e+00 1.4919019630994494e+01 2.6829270561435330e+01 0 0 0
1033 2 8.6135000000000002e+00 1.4919019630994494e+01 3.3232729438568306e+01 0 0 0
1054 2 1.1074500000000002e+01 1.4919019630994494e+01 3.3232729438568306e+01 0 0 0
715 2 4.9220000000000006e+00 1.5629449137232333e+01 2.6829270561435330e+01 0 0 0
717 2 4.9220000000000006e+00 1.2787731112280996e+01 2.6829270561435330e+01 0 0 0
719 2 6.1524999999999990e+00 1.3498160618518829e+01 2.6829270561435330e+01 0 0 0
760 2 6.1524999999999990e+00 1.4919019630994494e+01 2.6829270561435330e+01 0 0 0
762 2 7.3829999999999991e+00 1.5629449137232333e+01 2.6829270561435330e+01 0 0 0
764 2 7.3829999999999991e+00 1.2787731112280996e+01 2.6829270561435330e+01 0 0 0
1012 2 8.6135000000000002e+00 1.3498160618518835e+01 3.3232729438568306e+01 0 0 0
766 2 8.6135000000000002e+00 1.3498160618518835e+01 2.6829270561435330e+01 0 0 0
807 2 8.6135000000000002e+00 1.4919019630994494e+01 2.6829270561435330e+01 0 0 0
809 2 9.8440000000000012e+00 1.5629449137232328e+01 2.6829270561435330e+01 0 0 0
811 2 9.8440000000000012e+00 1.2787731112280996e+01 2.6829270561435330e+01 0 0 0
813 2 1.1074500000000002e+01 1.3498160618518829e+01 2.6829270561435330e+01 0 0 0
849 2 1.1074500000000002e+01 1.4919019630994494e+01 2.6829270561435330e+01 0 0 0
595 2 0.0000000000000000e+00 1.4208590124756650e+00 3.0031000000000823e+01 0 0 0
597 2 0.0000000000000000e+00 0.0000000000000000e+00 3.0031000000000823e+01 0 0 0
604 2 1.2305000000000001e+00 3.5521475311891644e+00 3.0031000000000823e+01 0 0 0
606 2 1.2305000000000001e+00 2.1312885187134998e+00 3.0031000000000823e+01 0 0 0
608 2 2.4610000000000003e+00 1.4208590124756650e+00 3.0031000000000823e+01 0 0 0
610 2 2.4610000000000003e+00 0.0000000000000000e+00 3.0031000000000823e+01 0 0 0
625 2 3.6914999999999996e+00 3.5521475311891644e+00 3.0031000000000823e+01 0 0 0
627 2 3.6914999999999996e+00 2.1312885187134998e+00 3.0031000000000823e+01 0 0 0
923 2 0.0000000000000000e+00 2.8417180249513345e+00 3.3232729438568306e+01 0 0 0
924 2 0.0000000000000000e+00 0.0000000000000000e+00 3.3232729438568306e+01 0 0 0
925 2 1.2305000000000001e+00 7.1042950623783474e-01 3.3232729438568306e+01 0 0 0
929 2 1.2305000000000001e+00 2.1312885187134998e+00 3.3232729438568306e+01 0 0 0
930 2 2.4610000000000003e+00 2.8417180249513345e+00 3.3232729438568306e+01 0 0 0
931 2 2.4610000000000003e+00 0.0000000000000000e+00 3.3232729438568306e+01 0 0 0
932 2 3.6915000000000004e+00 7.1042950623783474e-01 3.3232729438568306e+01 0 0 0
940 2 3.6914999999999996e+00 2.1312885187134998e+00 3.3232729438568306e+01 0 0 0
850 2 1.1074500000000002e+01 1.4919019630994494e+01 3.0031000000000823e+01 0 0 0
629 2 4.9220000000000006e+00 1.4208590124756650e+00 3.0031000000000823e+01 0 0 0
631 2 4.9220000000000006e+00 0.0000000000000000e+00 3.0031000000000823e+01 0 0 0
654 2 6.1524999999999999e+00 3.5521475311891644e+00 3.0031000000000823e+01 0 0 0
656 2 6.1524999999999999e+00 2.1312885187134989e+00 3.0031000000000823e+01 0 0 0
658 2 7.3829999999999991e+00 1.4208590124756659e+00 3.0031000000000823e+01 0 0 0
660 2 7.3829999999999991e+00 0.0000000000000000e+00 3.0031000000000823e+01 0 0 0
941 2 4.9220000000000006e+00 2.8417180249513332e+00 3.3232729438568306e+01 0 0 0
942 2 4.9220000000000006e+00 0.0000000000000000e+00 3.3232729438568306e+01 0 0 0
943 2 6.1524999999999999e+00 7.1042950623783407e-01 3.3232729438568306e+01 0 0 0
955 2 6.1524999999999999e+00 2.1312885187134989e+00 3.3232729438568306e+01 0 0 0
956 2 7.3829999999999991e+00 2.8417180249513345e+00 3.3232729438568306e+01 0 0 0
957 2 7.3829999999999991e+00 0.0000000000000000e+00 3.3232729438568306e+01 0 0 0
691 2 8.6134999999999984e+00 3.5521475311891657e+00 3.0031000000000823e+01 0 0 0
693 2 8.6134999999999984e+00 2.1312885187135002e+00 3.0031000000000823e+01 0 0 0
695 2 9.8440000000000012e+00 1.4208590124756659e+00 3.0031000000000823e+01 0 0 0
697 2 9.8440000000000012e+00 0.0000000000000000e+00 3.0031000000000823e+01 0 0 0
736 2 1.1074500000000002e+01 3.5521475311891644e+00 3.0031000000000823e+01 0 0 0
738 2 1.1074500000000002e+01 2.1312885187135002e+00 3.0031000000000823e+01 0 0 0
958 2 8.6134999999999984e+00 7.1042950623783407e-01 3.3232729438568306e+01 0 0 0
974 2 8.6134999999999984e+00 2.1312885187135002e+00 3.3232729438568306e+01 0 0 0
975 2 9.8440000000000012e+00 2.8417180249513332e+00 3.3232729438568306e+01 0 0 0
976 2 9.8440000000000012e+00 0.0000000000000000e+00 3.3232729438568306e+01 0 0 0
977 2 1.1074500000000002e+01 7.1042950623783330e-01 3.3232729438568306e+01 0 0 0
997 2 1.1074500000000002e+01 2.1312885187135002e+00 3.3232729438568306e+01 0 0 0
600 2 0.0000000000000000e+00 5.6834360499026637e+00 3.0031000000000823e+01 0 0 0
602 2 0.0000000000000000e+00 4.2625770374269996e+00 3.0031000000000823e+01 0 0 0
617 2 1.2305000000000001e+00 7.8147245686161639e+00 3.0031000000000823e+01 0 0 0
619 2 1.2305000000000001e+00 6.3938655561404980e+00 3.0031000000000823e+01 0 0 0
621 2 2.4610000000000003e+00 5.6834360499026637e+00 3.0031000000000823e+01 0 0 0
623 2 2.4610000000000003e+00 4.2625770374269996e+00 3.0031000000000823e+01 0 0 0
646 2 3.6914999999999996e+00 7.8147245686161639e+00 3.0031000000000823e+01 0 0 0
648 2 3.6914999999999996e+00 6.3938655561404980e+00 3.0031000000000823e+01 0 0 0
926 2 0.0000000000000000e+00 7.1042950623783341e+00 3.3232729438568306e+01 0 0 0
927 2 0.0000000000000000e+00 4.2625770374269996e+00 3.3232729438568306e+01 0 0 0
928 2 1.2305000000000001e+00 4.9730065436648339e+00 3.3232729438568306e+01 0 0 0
936 2 1.2305000000000001e+00 6.3938655561404980e+00 3.3232729438568306e+01 0 0 0
937 2 2.4610000000000003e+00 7.1042950623783341e+00 3.3232729438568306e+01 0 0 0
938 2 2.4610000000000003e+00 4.2625770374269996e+00 3.3232729438568306e+01 0 0 0
939 2 3.6914999999999996e+00 4.9730065436648339e+00 3.3232729438568306e+01 0 0 0
951 2 3.6914999999999996e+00 6.3938655561404980e+00 3.3232729438568306e+01 0 0 0
650 2 4.9220000000000006e+00 5.6834360499026637e+00 3.0031000000000823e+01 0 0 0
652 2 4.9220000000000006e+00 4.2625770374269978e+00 3.0031000000000823e+01 0 0 0
683 2 6.1524999999999999e+00 7.8147245686161639e+00 3.0031000000000823e+01 0 0 0
685 2 6.1524999999999999e+00 6.3938655561404980e+00 3.0031000000000823e+01 0 0 0
687 2 7.3829999999999991e+00 5.6834360499026637e+00 3.0031000000000823e+01 0 0 0
689 2 7.3829999999999991e+00 4.2625770374269996e+00 3.0031000000000823e+01 0 0 0
952 2 4.9220000000000006e+00 7.1042950623783341e+00 3.3232729438568306e+01 0 0 0
953 2 4.9220000000000006e+00 4.2625770374269978e+00 3.3232729438568306e+01 0 0 0
954 2 6.1524999999999999e+00 4.9730065436648339e+00 3.3232729438568306e+01 0 0 0
970 2 6.1524999999999999e+00 6.3938655561404980e+00 3.3232729438568306e+01 0 0 0
971 2 7.3830000000000009e+00 7.1042950623783341e+00 3.3232729438568306e+01 0 0 0
972 2 7.3829999999999991e+00 4.2625770374269996e+00 3.3232729438568306e+01 0 0 0
728 2 8.6135000000000002e+00 7.8147245686161639e+00 3.0031000000000823e+01 0 0 0
730 2 8.6135000000000002e+00 6.3938655561404980e+00 3.0031000000000823e+01 0 0 0
732 2 9.8440000000000012e+00 5.6834360499026637e+00 3.0031000000000823e+01 0 0 0
734 2 9.8440000000000012e+00 4.2625770374270004e+00 3.0031000000000823e+01 0 0 0
775 2 1.1074500000000002e+01 7.8147245686161639e+00 3.0031000000000823e+01 0 0 0
777 2 1.1074500000000002e+01 6.3938655561404980e+00 3.0031000000000823e+01 0 0 0
973 2 8.6135000000000002e+00 4.9730065436648339e+00 3.3232729438568306e+01 0 0 0
993 2 8.6135000000000002e+00 6.3938655561404980e+00 3.3232729438568306e+01 0 0 0
994 2 9.8440000000000012e+00 7.1042950623783341e+00 3.3232729438568306e+01 0 0 0
995 2 9.8440000000000012e+00 4.2625770374270004e+00 3.3232729438568306e+01 0 0 0
996 2 1.1074500000000002e+01 4.9730065436648339e+00 3.3232729438568306e+01 0 0 0
1017 2 1.1074500000000002e+01 6.3938655561404980e+00 3.3232729438568306e+01 0 0 0
613 2 0.0000000000000000e+00 9.9460130873296642e+00 3.0031000000000823e+01 0 0 0
615 2 0.0000000000000000e+00 8.5251540748539991e+00 3.0031000000000823e+01 0 0 0
638 2 1.2305000000000001e+00 1.2077301606043163e+01 3.0031000000000823e+01 0 0 0
640 2 1.2305000000000001e+00 1.0656442593567498e+01 3.0031000000000823e+01 0 0 0
642 2 2.4610000000000003e+00 9.9460130873296642e+00 3.0031000000000823e+01 0 0 0
644 2 2.4610000000000003e+00 8.5251540748539991e+00 3.0031000000000823e+01 0 0 0
675 2 3.6914999999999996e+00 1.2077301606043163e+01 3.0031000000000823e+01 0 0 0
677 2 3.6914999999999996e+00 1.0656442593567499e+01 3.0031000000000823e+01 0 0 0
933 2 0.0000000000000000e+00 1.1366872099805333e+01 3.3232729438568306e+01 0 0 0
934 2 0.0000000000000000e+00 8.5251540748539991e+00 3.3232729438568306e+01 0 0 0
935 2 1.2305000000000001e+00 9.2355835810918343e+00 3.3232729438568306e+01 0 0 0
947 2 1.2305000000000001e+00 1.0656442593567498e+01 3.3232729438568306e+01 0 0 0
948 2 2.4610000000000003e+00 1.1366872099805333e+01 3.3232729438568306e+01 0 0 0
949 2 2.4610000000000003e+00 8.5251540748539991e+00 3.3232729438568306e+01 0 0 0
950 2 3.6915000000000004e+00 9.2355835810918343e+00 3.3232729438568306e+01 0 0 0
966 2 3.6914999999999996e+00 1.0656442593567499e+01 3.3232729438568306e+01 0 0 0
810 2 9.8440000000000012e+00 1.4208590124756663e+01 3.0031000000000823e+01 0 0 0
679 2 4.9220000000000006e+00 9.9460130873296642e+00 3.0031000000000823e+01 0 0 0
681 2 4.9220000000000006e+00 8.5251540748539991e+00 3.0031000000000823e+01 0 0 0
720 2 6.1524999999999999e+00 1.2077301606043163e+01 3.0031000000000823e+01 0 0 0
722 2 6.1524999999999999e+00 1.0656442593567499e+01 3.0031000000000823e+01 0 0 0
724 2 7.3830000000000009e+00 9.9460130873296642e+00 3.0031000000000823e+01 0 0 0
726 2 7.3830000000000009e+00 8.5251540748539991e+00 3.0031000000000823e+01 0 0 0
967 2 4.9220000000000006e+00 1.1366872099805333e+01 3.3232729438568306e+01 0 0 0
968 2 4.9220000000000006e+00 8.5251540748539991e+00 3.3232729438568306e+01 0 0 0
969 2 6.1524999999999999e+00 9.2355835810918343e+00 3.3232729438568306e+01 0 0 0
989 2 6.1524999999999999e+00 1.0656442593567499e+01 3.3232729438568306e+01 0 0 0
990 2 7.3829999999999991e+00 1.1366872099805333e+01 3.3232729438568306e+01 0 0 0
991 2 7.3830000000000009e+00 8.5251540748539991e+00 3.3232729438568306e+01 0 0 0
767 2 8.6135000000000002e+00 1.2077301606043163e+01 3.0031000000000823e+01 0 0 0
769 2 8.6134999999999984e+00 1.0656442593567498e+01 3.0031000000000823e+01 0 0 0
771 2 9.8440000000000012e+00 9.9460130873296642e+00 3.0031000000000823e+01 0 0 0
773 2 9.8440000000000012e+00 8.5251540748539956e+00 3.0031000000000823e+01 0 0 0
814 2 1.1074500000000002e+01 1.2077301606043163e+01 3.0031000000000823e+01 0 0 0
816 2 1.1074500000000002e+01 1.0656442593567498e+01 3.0031000000000823e+01 0 0 0
992 2 8.6134999999999984e+00 9.2355835810918343e+00 3.3232729438568306e+01 0 0 0
1013 2 8.6134999999999984e+00 1.0656442593567498e+01 3.3232729438568306e+01 0 0 0
1014 2 9.8440000000000012e+00 1.1366872099805333e+01 3.3232729438568306e+01 0 0 0