LAMMPS data file via write_data, version 16 Mar 2018, timestep = 6000000

6589 atoms
2 atom types

0.0000000000000000e+00 4.9219999999999999e+01 xlo xhi
0.0000000000000000e+00 4.9019635930410494e+01 ylo yhi
-2.7730837891965621e-02 6.0089730837883877e+01 zlo zhi

Masses

1 18.015
2 12.01

Atoms # atomic

1425 1 3.2169146496045369e+00 1.2308541380148630e+00 3.1635190012793291e+00 0 -1 1
3380 1 7.7926087032438274e-01 1.0409235914585455e+00 1.9019238910100846e+00 -1 0 0
4997 1 4.7574399027981080e+00 3.3368082109607244e+00 1.9560133958383139e+00 -1 1 0
140 1 7.5346768736046670e+00 3.5064948572462504e+00 3.0455632335026408e+00 1 -1 0
1315 1 8.3360609518458268e+00 9.0754347768450838e-01 2.2750449988172803e+00 0 -1 1
563 1 9.4306340796624000e-01 5.5788665570521578e+00 1.5587508474219751e+00 0 3 1
1522 1 3.4973043084203947e+00 5.7016665714886514e+00 2.7735540435491521e+00 1 0 1
5015 1 7.7809226424447058e+00 7.8928029318676991e+00 2.7548120219248551e+00 1 -2 1
3672 1 5.1632953733713096e+00 7.6169283765544433e+00 1.6328007128843842e+00 -1 0 0
4963 1 8.9846534727519227e+00 5.6369088815724417e+00 2.0279104976036777e+00 2 -1 1
201 1 1.1833724670782159e+01 5.7037815370125937e+00 3.0543950136394153e+00 1 0 0
3275 1 1.1537258314407766e+00 1.0033862919107035e+01 1.8627949432056994e+00 0 2 0
3512 1 6.5558896401386404e+00 1.4685677180088181e+01 9.0614916252156590e+00 2 -1 0
3269 1 3.6242751126009587e+00 9.5928847534337223e+00 2.8663640427915253e+00 -2 1 0
3343 1 8.9780676480840427e+00 1.0057941391031555e+01 1.5268663195410352e+00 0 -1 0
3052 1 1.1616028107474024e+01 1.0178222765802030e+01 2.7292513813200561e+00 1 1 1
1469 1 9.2608133811701432e+00 1.4816227369350292e+01 9.6758383294289718e+00 1 1 1
1653 1 1.4437269638125469e+00 1.4805889386539562e+01 1.7133536288773872e+00 0 2 1
4571 1 4.2436101478648141e+00 1.4799445093278493e+01 2.4951506903391834e+00 -1 1 1
3799 1 7.7764676498753973e+00 1.2164189726971056e+01 2.8393725218312240e+00 0 2 1
1792 1 5.0962205234855587e+00 1.2014397935885206e+01 1.9041173324178571e+00 0 -1 0
1331 1 9.2179243121587007e+00 1.4266241157965636e+01 1.8167931454428066e+00 -1 1 1
1617 1 2.9997511969233198e-01 1.2423772138400652e+01 5.5561071683035790e+00 0 0 0
4745 1 3.3715888911468426e+00 9.3363036299450641e-01 5.6953616461671137e+00 3 1 1
1392 1 1.8866547423761859e+00 3.4383216752966299e+00 6.3943066794788486e+00 0 0 1
1342 1 6.1720706545477650e+00 9.7180908086028284e-01 6.6949722405570897e+00 0 -1 1
4738 1 7.4041032478089628e+00 3.3512982185695255e+00 5.8686807667512824e+00 0 1 1
1866 1 1.1477251998752305e+01 5.9334782608056424e-01 5.9726696322239290e+00 1 1 0
2051 1 1.0434987460436453e+01 3.2421587971263008e+00 6.2683400831734177e+00 -1 1 0
3051 1 3.5695959816042002e+00 5.4316386114347281e+00 5.5490059822971745e+00 0 1 1
3386 1 2.4413995596977278e+00 7.7910057990657657e+00 6.3499579006519449e+00 0 1 1
3688 1 6.3114514950339204e+00 5.7474266999746684e+00 6.4147954873629232e+00 1 1 0
6410 1 7.7900414617379914e+00 7.9273939411371686e+00 5.6750685886597427e+00 1 2 1
6195 1 1.0311263840987346e+01 1.2254515928318144e+01 8.7858985725725454e+00 1 2 1
6493 1 1.0392965917751249e+01 7.5747886895557084e+00 6.3109398154583074e+00 4 0 1
1359 1 3.9421928845872558e+00 9.9971622515056637e+00 5.3725365719575118e+00 1 2 1
1776 1 6.5879559007965165e+00 9.9637771842323914e+00 6.6060200297414520e+00 0 -1 0
5502 1 1.2189658028948648e+01 5.3302580603751526e+00 6.0257558171997054e+00 2 1 1
3104 1 2.9841003010563147e+00 1.2686052077749391e+01 5.8641370349794295e+00 -1 2 0
1973 1 1.1611805835358522e+01 9.8306006014584106e+00 5.5428556988341162e+00 0 0 0
6485 1 4.1918949877280127e+00 1.5146699949740031e+01 5.2311218657598362e+00 1 1 1
295 1 6.9369099305873956e+00 1.4680210024419024e+01 6.0646088874299551e+00 1 -1 0
552 1 7.9232919984571177e+00 1.2234896566290921e+01 5.4848708394592958e+00 1 1 1
1482 1 1.0642122125335785e+01 1.2302844668239441e+01 6.1103406277401486e+00 -1 1 1
3034 1 5.2873266149080118e+00 1.2260769963877326e+01 9.8044685452588229e+00 1 3 1
1843 1 9.5840411277998128e-01 1.2483909503486466e+00 1.0150211214255050e+01 1 2 0
557 1 2.3920777977497591e+00 3.3508287618400709e+00 9.1444667386545468e+00 3 1 1
3800 1 6.0623489137610580e+00 7.6413864607102444e-01 9.4177068137148119e+00 1 2 1
4924 1 5.1702259270446707e+00 3.3266274239775173e+00 9.8527785855517305e+00 1 1 1
3012 1 8.8020310128978618e+00 7.5348627803148893e-01 1.0015180970035331e+01 0 2 1
6384 1 1.0023797626347456e+01 3.0033686828381754e+00 9.0597803710734937e+00 2 0 1
3263 1 9.5903286992879822e-01 5.6443818885058956e+00 9.9233123272733046e+00 -1 1 1
4815 1 6.4310126031027561e+00 5.5127521984833985e+00 9.2595331487561268e+00 -1 0 1
3814 1 8.9891101847517323e+00 5.4187516616976339e+00 9.8564331307409123e+00 0 1 1
3116 1 1.0355888371609563e+01 7.5889626511737687e+00 8.8637115155745931e+00 -1 1 1
1402 1 2.2307325033659917e+00 7.8645042213314804e+00 8.9926220947996249e+00 0 1 1
1739 1 1.2239964552255935e+00 1.0355543269310258e+01 9.6820023303795963e+00 -1 3 0
5529 1 5.1319710318759642e+00 7.7853255650872226e+00 9.9372856685717306e+00 0 1 0
6396 1 6.6197791224316163e+00 1.0020955606021779e+01 9.2351221983164269e+00 1 0 1
4884 1 9.2538445696851159e+00 9.8831111052241347e+00 9.6500768802457149e+00 1 1 0
5389 1 1.7138527950375764e+00 1.4949428890234071e+01 9.6878108815843831e+00 0 3 0
3733 1 2.8003153456089449e+00 1.2351030594677708e+01 8.7436586691719018e+00 0 0 0
1845 1 3.4948333579701008e-02 1.2613374481842865e+01 2.7496688355965326e+00 3 0 0
3142 1 1.1920654380133902e+01 1.4593610882828440e+01 2.7441883233743978e+00 -2 -1 1
1592 1 1.1919054751192192e+01 1.4493758959246778e+01 5.4989466402336129e+00 0 0 1
4785 1 3.5023292757505682e+00 1.1715242205082894e+00 1.3822044941977303e+01 2 1 1
1353 1 8.5887798266942128e-01 1.5774847985443834e+00 1.2963952300241070e+01 2 0 1
1443 1 7.7433467803322058e+00 3.1708724781967481e+00 1.3484721655670375e+01 0 2 1
536 1 5.0928164807209066e+00 3.2965752638989692e+00 1.2689582908751284e+01 3 -1 1
1380 1 8.6414045816341556e+00 7.9589057753361525e-01 1.2504250090172523e+01 1 0 0
3694 1 1.1323330249960312e+01 6.4354813095742325e-01 1.3236023662679838e+01 1 0 0
6258 1 1.3637134906071728e+00 5.6936996645860338e+00 1.2697891676981204e+01 2 3 0
520 1 4.0485563756725096e+00 5.7414907659470629e+00 1.3465546522228376e+01 0 2 0
3323 1 7.9389276578904067e+00 7.8830828668105193e+00 1.3270643499455430e+01 2 1 0
1683 1 9.0697334023048484e+00 5.3337159533685847e+00 1.2624472031095261e+01 -2 0 0
5440 1 1.1883697836453814e+01 5.3540094737835986e+00 1.3393779728811957e+01 -3 0 0
418 1 1.3910360676449076e+00 1.0376100997481682e+01 1.2267573833333630e+01 1 0 0
5122 1 4.2642172499242790e+00 1.0304758044471503e+01 1.3470790461215644e+01 1 0 1
3342 1 5.2414392719159908e+00 7.9995418190475966e+00 1.2673865632619698e+01 0 0 0
1872 1 9.5335012010469011e+00 9.8236581628065007e+00 1.2400159081405796e+01 1 1 1
4754 1 1.1681578682431022e+01 1.4323147885467694e+01 2.3348999056897384e+01 -1 -1 1
1764 1 2.0765124619862445e+00 1.4965538158964915e+01 1.2351224918479058e+01 0 1 0
85 1 1.9886704353394910e-01 1.3245224294003673e+01 2.3110183251824655e+01 0 -1 0
4955 1 5.5876913441247726e+00 1.2487805128000131e+01 1.2656413987859864e+01 1 -2 1
5146 1 4.5784208410282048e+00 1.4648315924689296e+01 1.3669795626264447e+01 -1 2 0
6 1 8.3134264637971373e+00 1.2236486849758359e+01 1.3279914975383555e+01 -1 -1 0
5194 1 3.9110696111128282e+00 5.8591489087521911e+00 2.3489562665737864e+01 2 0 0
4558 1 9.0729947019000043e+00 1.4804015030135631e+01 1.2360288636855522e+01 0 1 0
1656 1 3.6329014166771243e+00 1.1973405822710523e+00 1.6633334498054204e+01 0 1 1
3461 1 2.2235740927975911e+00 3.6855505307888601e+00 1.7015880550532124e+01 1 2 0
3291 1 7.6320378657085266e+00 3.2726544066312058e+00 1.6148858973998458e+01 1 0 1
4976 1 6.2747083200486786e+00 9.8629421237564951e-01 1.7553205786569823e+01 1 1 0
5522 1 1.1054657124183501e+01 6.8019301947060606e-01 1.6017166926748192e+01 1 1 1
484 1 1.0183507894232989e+01 3.2395823550684599e+00 1.7020203143861117e+01 1 -1 1
6498 1 3.8762581087494632e+00 5.7601787167944805e+00 1.6274786684267276e+01 1 -1 1
6513 1 6.6992410983438724e+00 5.6814151717754395e+00 1.7058700607950559e+01 1 2 1
4726 1 7.9107023188346366e+00 8.0099098955130845e+00 1.5979510985312587e+01 -1 1 1
1919 1 1.1513525375633680e+01 5.5302395687603347e+00 1.6168639026338326e+01 0 2 0
2106 1 1.0416282150724443e+01 7.9882858610305139e+00 1.7117185916940400e+01 2 2 0
3131 1 1.0557777353501551e+01 7.5255638504145033e+00 1.9626717749127707e+01 1 1 1
3728 1 4.3831719066070622e+00 1.0264905032864512e+01 1.6209681685450803e+01 2 1 0
525 1 2.7413514775903893e+00 8.1872643501310574e+00 1.6924410561662604e+01 0 -1 1
4802 1 6.8768885740985031e+00 1.0223192237426979e+01 1.7048675250937723e+01 2 -2 1
315 1 7.1892482592035556e+00 1.0471779781588348e+01 1.9874435521102587e+01 3 -1 0
449 1 1.1696306839873440e+00 1.5902427362785536e+00 2.3364354115373619e+01 1 0 0
3531 1 1.6695096512123642e-01 8.1622092843357059e+00 1.3135534332681758e+01 0 -2 0
3463 1 3.0311798715415406e+00 1.2743155811425313e+01 1.6872867330738213e+01 0 -1 1
54 1 3.1300097143666599e+00 1.2911116621440698e+01 1.9520663502785769e+01 0 -2 1
6341 1 4.5876214219180875e+00 1.4909934541331459e+01 1.6325095692238335e+01 1 -1 1
6294 1 7.3044470851992482e+00 1.4613533850344764e+01 1.7026012053252877e+01 0 0 0
2959 1 8.3419658552265474e+00 1.2326369773470919e+01 1.6016396375912876e+01 0 1 1
439 1 1.1287308007345171e+01 1.2200387106137264e+01 1.9485667299184950e+01 -1 0 0
5148 1 1.0882307824254859e+01 1.2425437056658346e+01 1.6809846695274512e+01 0 1 0
1773 1 8.4673563065811663e+00 1.2601530911329288e+01 2.0738124175583909e+01 2 0 0
3318 1 8.2918141487110972e+00 1.2521357753143430e+01 2.3495665687382051e+01 -1 -2 0
3072 1 1.0800828238637574e+00 1.5666402940400375e+00 2.0650193213277891e+01 1 0 1
5204 1 5.3809899102540415e-01 1.2494319483004084e+01 1.5821786668479081e+01 0 1 1
3213 1 1.2067082041673370e+01 9.6979666662759101e+00 2.0362435212298163e+01 0 -2 0
84 1 7.5767884058421293e+00 3.1335323402556083e+00 2.0945133058152152e+01 -2 0 1
574 1 3.9838353371174290e-01 8.5168371630926529e+00 2.3438547625471159e+01 1 -2 1
5450 1 1.0007385041569012e+01 3.4568790401845626e+00 1.9824203782865492e+01 -2 1 0
3036 1 1.1217691110007621e+01 1.2105525422141987e+00 2.0522521555060326e+01 -1 2 1
3330 1 1.1374474276204904e+01 8.1686542886685043e-01 2.3308216931667737e+01 1 1 1
6245 1 1.1995810448122228e+01 1.4844387297670012e+01 1.5991994894983247e+01 0 0 1
26 1 2.1156532415998512e+00 4.0290013773621718e+00 1.9795968111907065e+01 -1 1 1
6373 1 4.0396101091918126e+00 6.0585804467162099e+00 2.0651254189616171e+01 2 -1 1
115 1 7.3110212010280824e+00 2.9502029169211723e+00 2.3995332022671001e+01 -1 2 0
155 1 6.6191410254097427e+00 5.4873671784413078e+00 1.9971265109673755e+01 0 0 1
4624 1 7.9226627995657255e+00 8.0812710521625899e+00 2.3538758065196930e+01 0 -1 1
3738 1 8.0690085870544106e+00 7.9286032188228983e+00 2.0793232133344674e+01 2 1 1
6405 1 7.1060389090461173e+00 3.9086652259191434e-01 2.0099401523243159e+01 1 0 1
3222 1 1.1565408249013695e+01 5.3994218189160588e+00 2.0821904184744337e+01 0 -1 1
6570 1 1.1406183890537649e+01 5.5153549383626999e+00 2.3534036874304835e+01 0 0 0
3371 1 2.9474721884621742e+00 8.5196438224666533e+00 1.9713626630256048e+01 2 0 1
1915 1 4.3126945863491910e+00 1.0565223211055072e+01 2.0426440203929282e+01 0 0 0
5460 1 4.0682099449086921e+00 1.0704180079953263e+01 2.3170003455929546e+01 2 1 1
33 1 1.2207099961637402e+01 9.8012726309413924e+00 1.3243718647835800e+01 0 -1 1
5428 1 1.2041409050211314e+01 1.0168670186360984e+01 1.5936817254699783e+01 -1 2 0
5481 1 1.1801518858554063e+01 1.4864683758527187e+01 1.3274907749423212e+01 1 2 0
1922 1 5.0022591587752241e-01 1.2821991777054716e+01 1.3094915024456867e+01 -3 0 0
2171 1 4.5992181530075014e+00 1.5080205677094931e+01 2.3114094140412259e+01 0 0 0
5165 1 7.1383170813253125e+00 1.4768728165063985e+01 1.9711416960465847e+01 1 0 0
1644 1 4.5534270622567306e+00 1.5018813173070695e+01 2.0535146767470948e+01 -1 -2 1
534 1 1.1999490340182442e+01 9.8234757186078099e+00 2.3172907073926687e+01 -2 2 1
3190 1 5.1957040401906174e-01 1.2890288391168731e+01 2.0363669124729864e+01 1 -1 0
2254 1 3.7930411981985618e-01 8.1336232845049974e+00 2.0628364166128971e+01 -2 0 1
411 1 3.0065347995001129e-01 8.1672697895450295e+00 1.5767761526306629e+01 3 0 0
3266 1 9.9296614660613045e+00 3.2538652095659213e+00 2.3844341042728910e+01 0 -4 0
1650 1 3.0102039262777183e+00 1.2959726424823490e+01 2.3961472847339845e+01 1 -2 1
594 2 0.0000000000000000e+00 2.8417180249513345e+00 2.6657088730345247e+01 0 0 0
596 2 0.0000000000000000e+00 0.0000000000000000e+00 2.6657088730345247e+01 0 0 0
598 2 1.2305000000000001e+00 7.1042950623783474e-01 2.6657088730345247e+01 0 0 0
605 2 1.2305000000000001e+00 2.1312885187134998e+00 2.6657088730345247e+01 0 0 0
607 2 2.4610000000000003e+00 2.8417180249513345e+00 2.6657088730345247e+01 0 0 0
609 2 2.4610000000000003e+00 0.0000000000000000e+00 2.6657088730345247e+01 0 0 0
611 2 3.6915000000000004e+00 7.1042950623783474e-01 2.6657088730345247e+01 0 0 0
626 2 3.6914999999999996e+00 2.1312885187134998e+00 2.6657088730345247e+01 0 0 0
628 2 4.9220000000000006e+00 2.8417180249513332e+00 2.6657088730345247e+01 0 0 0
630 2 4.9220000000000006e+00 0.0000000000000000e+00 2.6657088730345247e+01 0 0 0
632 2 6.1524999999999999e+00 7.1042950623783407e-01 2.6657088730345247e+01 0 0 0
655 2 6.1524999999999999e+00 2.1312885187134989e+00 2.6657088730345247e+01 0 0 0
657 2 7.3829999999999991e+00 2.8417180249513345e+00 2.6657088730345247e+01 0 0 0
659 2 7.3829999999999991e+00 0.0000000000000000e+00 2.6657088730345247e+01 0 0 0
661 2 8.6134999999999984e+00 7.1042950623783407e-01 2.6657088730345247e+01 0 0 0
692 2 8.6134999999999984e+00 2.1312885187135002e+00 2.6657088730345247e+01 0 0 0
694 2 9.8440000000000012e+00 2.8417180249513332e+00 2.6657088730345247e+01 0 0 0
696 2 9.8440000000000012e+00 0.0000000000000000e+00 2.6657088730345247e+01 0 0 0
698 2 1.1074500000000002e+01 7.1042950623783330e-01 2.6657088730345247e+01 0 0 0
737 2 1.1074500000000002e+01 2.1312885187135002e+00 2.6657088730345247e+01 0 0 0
5314 1 6.6132075478767849e+00 5.8738902152164796e+00 2.4308403862266349e+01 1 -1 0
599 2 0.0000000000000000e+00 7.1042950623783341e+00 2.6657088730345247e+01 0 0 0
601 2 0.0000000000000000e+00 4.2625770374269996e+00 2.6657088730345247e+01 0 0 0
603 2 1.2305000000000001e+00 4.9730065436648339e+00 2.6657088730345247e+01 0 0 0
618 2 1.2305000000000001e+00 6.3938655561404980e+00 2.6657088730345247e+01 0 0 0
620 2 2.4610000000000003e+00 7.1042950623783341e+00 2.6657088730345247e+01 0 0 0
622 2 2.4610000000000003e+00 4.2625770374269996e+00 2.6657088730345247e+01 0 0 0
624 2 3.6914999999999996e+00 4.9730065436648339e+00 2.6657088730345247e+01 0 0 0
647 2 3.6914999999999996e+00 6.3938655561404980e+00 2.6657088730345247e+01 0 0 0
649 2 4.9220000000000006e+00 7.1042950623783341e+00 2.6657088730345247e+01 0 0 0
651 2 4.9220000000000006e+00 4.2625770374269978e+00 2.6657088730345247e+01 0 0 0
653 2 6.1524999999999999e+00 4.9730065436648339e+00 2.6657088730345247e+01 0 0 0
684 2 6.1524999999999999e+00 6.3938655561404980e+00 2.6657088730345247e+01 0 0 0
686 2 7.3830000000000009e+00 7.1042950623783341e+00 2.6657088730345247e+01 0 0 0
688 2 7.3829999999999991e+00 4.2625770374269996e+00 2.6657088730345247e+01 0 0 0
690 2 8.6135000000000002e+00 4.9730065436648339e+00 2.6657088730345247e+01 0 0 0
729 2 8.6135000000000002e+00 6.3938655561404980e+00 2.6657088730345247e+01 0 0 0
731 2 9.8440000000000012e+00 7.1042950623783341e+00 2.6657088730345247e+01 0 0 0
733 2 9.8440000000000012e+00 4.2625770374270004e+00 2.6657088730345247e+01 0 0 0
735 2 1.1074500000000002e+01 4.9730065436648339e+00 2.6657088730345247e+01 0 0 0
776 2 1.1074500000000002e+01 6.3938655561404980e+00 2.6657088730345247e+01 0 0 0
6246 1 6.6408789559436165e+00 1.0424322897708679e+01 2.4284552993792737e+01 1 2 1
612 2 0.0000000000000000e+00 1.1366872099805333e+01 2.6657088730345247e+01 0 0 0
614 2 0.0000000000000000e+00 8.5251540748539991e+00 2.6657088730345247e+01 0 0 0
616 2 1.2305000000000001e+00 9.2355835810918343e+00 2.6657088730345247e+01 0 0 0
639 2 1.2305000000000001e+00 1.0656442593567498e+01 2.6657088730345247e+01 0 0 0
641 2 2.4610000000000003e+00 1.1366872099805333e+01 2.6657088730345247e+01 0 0 0
643 2 2.4610000000000003e+00 8.5251540748539991e+00 2.6657088730345247e+01 0 0 0
645 2 3.6915000000000004e+00 9.2355835810918343e+00 2.6657088730345247e+01 0 0 0
676 2 3.6914999999999996e+00 1.0656442593567499e+01 2.6657088730345247e+01 0 0 0
678 2 4.9220000000000006e+00 1.1366872099805333e+01 2.6657088730345247e+01 0 0 0
680 2 4.9220000000000006e+00 8.5251540748539991e+00 2.6657088730345247e+01 0 0 0
682 2 6.1524999999999999e+00 9.2355835810918343e+00 2.6657088730345247e+01 0 0 0
721 2 6.1524999999999999e+00 1.0656442593567499e+01 2.6657088730345247e+01 0 0 0
723 2 7.3829999999999991e+00 1.1366872099805333e+01 2.6657088730345247e+01 0 0 0
725 2 7.3830000000000009e+00 8.5251540748539991e+00 2.6657088730345247e+01 0 0 0
986 2 4.9220000000000006e+00 1.5629449137232333e+01 3.3404911269638653e+01 0 0 0
727 2 8.6134999999999984e+00 9.2355835810918343e+00 2.6657088730345247e+01 0 0 0
768 2 8.6134999999999984e+00 1.0656442593567498e+01 2.6657088730345247e+01 0 0 0
770 2 9.8440000000000012e+00 1.1366872099805333e+01 2.6657088730345247e+01 0 0 0
772 2 9.8440000000000012e+00 8.5251540748539956e+00 2.6657088730345247e+01 0 0 0
774 2 1.1074500000000002e+01 9.2355835810918343e+00 2.6657088730345247e+01 0 0 0
815 2 1.1074500000000002e+01 1.0656442593567498e+01 2.6657088730345247e+01 0 0 0
817 2 1.2304999999999998e+01 1.1366872099805333e+01 2.6657088730345247e+01 0 0 0
4684 1 1.0673839917455572e+01 7.8305336794147813e+00 2.4238075316774587e+01 1 2 1
633 2 0.0000000000000000e+00 1.5629449137232333e+01 2.6657088730345247e+01 0 0 0
635 2 0.0000000000000000e+00 1.2787731112280996e+01 2.6657088730345247e+01 0 0 0
637 2 1.2305000000000001e+00 1.3498160618518829e+01 2.6657088730345247e+01 0 0 0
668 2 1.2305000000000001e+00 1.4919019630994494e+01 2.6657088730345247e+01 0 0 0
670 2 2.4610000000000003e+00 1.5629449137232328e+01 2.6657088730345247e+01 0 0 0
672 2 2.4610000000000003e+00 1.2787731112280996e+01 2.6657088730345247e+01 0 0 0
674 2 3.6915000000000004e+00 1.3498160618518829e+01 2.6657088730345247e+01 0 0 0
713 2 3.6915000000000004e+00 1.4919019630994494e+01 2.6657088730345247e+01 0 0 0
715 2 4.9220000000000006e+00 1.5629449137232333e+01 2.6657088730345247e+01 0 0 0
717 2 4.9220000000000006e+00 1.2787731112280996e+01 2.6657088730345247e+01 0 0 0
719 2 6.1524999999999990e+00 1.3498160618518829e+01 2.6657088730345247e+01 0 0 0
760 2 6.1524999999999990e+00 1.4919019630994494e+01 2.6657088730345247e+01 0 0 0
762 2 7.3829999999999991e+00 1.5629449137232333e+01 2.6657088730345247e+01 0 0 0
764 2 7.3829999999999991e+00 1.2787731112280996e+01 2.6657088730345247e+01 0 0 0
766 2 8.6135000000000002e+00 1.3498160618518835e+01 2.6657088730345247e+01 0 0 0
807 2 8.6135000000000002e+00 1.4919019630994494e+01 2.6657088730345247e+01 0 0 0
809 2 9.8440000000000012e+00 1.5629449137232328e+01 2.6657088730345247e+01 0 0 0
811 2 9.8440000000000012e+00 1.2787731112280996e+01 2.6657088730345247e+01 0 0 0
813 2 1.1074500000000002e+01 1.3498160618518829e+01 2.6657088730345247e+01 0 0 0
849 2 1.1074500000000002e+01 1.4919019630994494e+01 2.6657088730345247e+01 0 0 0
595 2 0.0000000000000000e+00 1.4208590124756650e+00 3.0030999999995988e+01 0 0 0
597 2 0.0000000000000000e+00 0.0000000000000000e+00 3.0030999999995988e+01 0 0 0
604 2 1.2305000000000001e+00 3.5521475311891644e+00 3.0030999999995988e+01 0 0 0
606 2 1.2305000000000001e+00 2.1312885187134998e+00 3.0030999999995988e+01 0 0 0
608 2 2.4610000000000003e+00 1.4208590124756650e+00 3.0030999999995988e+01 0 0 0
610 2 2.4610000000000003e+00 0.0000000000000000e+00 3.0030999999995988e+01 0 0 0
625 2 3.6914999999999996e+00 3.5521475311891644e+00 3.0030999999995988e+01 0 0 0
627 2 3.6914999999999996e+00 2.1312885187134998e+00 3.0030999999995988e+01 0 0 0
629 2 4.9220000000000006e+00 1.4208590124756650e+00 3.0030999999995988e+01 0 0 0
631 2 4.9220000000000006e+00 0.0000000000000000e+00 3.0030999999995988e+01 0 0 0
654 2 6.1524999999999999e+00 3.5521475311891644e+00 3.0030999999995988e+01 0 0 0
656 2 6.1524999999999999e+00 2.1312885187134989e+00 3.0030999999995988e+01 0 0 0
658 2 7.3829999999999991e+00 1.4208590124756659e+00 3.0030999999995988e+01 0 0 0
660 2 7.3829999999999991e+00 0.0000000000000000e+00 3.0030999999995988e+01 0 0 0
691 2 8.6134999999999984e+00 3.5521475311891657e+00 3.0030999999995988e+01 0 0 0
693 2 8.6134999999999984e+00 2.1312885187135002e+00 3.0030999999995988e+01 0 0 0
695 2 9.8440000000000012e+00 1.4208590124756659e+00 3.0030999999995988e+01 0 0 0
697 2 9.8440000000000012e+00 0.0000000000000000e+00 3.0030999999995988e+01 0 0 0
736 2 1.1074500000000002e+01 3.5521475311891644e+00 3.0030999999995988e+01 0 0 0
738 2 1.1074500000000002e+01 2.1312885187135002e+00 3.0030999999995988e+01 0 0 0
600 2 0.0000000000000000e+00 5.6834360499026637e+00 3.0030999999995988e+01 0 0 0
602 2 0.0000000000000000e+00 4.2625770374269996e+00 3.0030999999995988e+01 0 0 0
617 2 1.2305000000000001e+00 7.8147245686161639e+00 3.0030999999995988e+01 0 0 0
619 2 1.2305000000000001e+00 6.3938655561404980e+00 3.0030999999995988e+01 0 0 0
621 2 2.4610000000000003e+00 5.6834360499026637e+00 3.0030999999995988e+01 0 0 0
623 2 2.4610000000000003e+00 4.2625770374269996e+00 3.0030999999995988e+01 0 0 0
646 2 3.6914999999999996e+00 7.8147245686161639e+00 3.0030999999995988e+01 0 0 0
648 2 3.6914999999999996e+00 6.3938655561404980e+00 3.0030999999995988e+01 0 0 0
650 2 4.9220000000000006e+00 5.6834360499026637e+00 3.0030999999995988e+01 0 0 0
652 2 4.9220000000000006e+00 4.2625770374269978e+00 3.0030999999995988e+01 0 0 0
683 2 6.1524999999999999e+00 7.8147245686161639e+00 3.0030999999995988e+01 0 0 0
685 2 6.1524999999999999e+00 6.3938655561404980e+00 3.0030999999995988e+01 0 0 0
687 2 7.3829999999999991e+00 5.6834360499026637e+00 3.0030999999995988e+01 0 0 0
689 2 7.3829999999999991e+00 4.2625770374269996e+00 3.0030999999995988e+01 0 0 0
728 2 8.6135000000000002e+00 7.8147245686161639e+00 3.0030999999995988e+01 0 0 0
730 2 8.6135000000000002e+00 6.3938655561404980e+00 3.0030999999995988e+01 0 0 0
732 2 9.8440000000000012e+00 5.6834360499026637e+00 3.0030999999995988e+01 0 0 0
734 2 9.8440000000000012e+00 4.2625770374270004e+00 3.0030999999995988e+01 0 0 0
775 2 1.1074500000000002e+01 7.8147245686161639e+00 3.0030999999995988e+01 0 0 0
777 2 1.1074500000000002e+01 6.3938655561404980e+00 3.0030999999995988e+01 0 0 0
613 2 0.0000000000000000e+00 9.9460130873296642e+00 3.0030999999995988e+01 0 0 0
615 2 0.0000000000000000e+00 8.5251540748539991e+00 3.0030999999995988e+01 0 0 0
638 2 1.2305000000000001e+00 1.2077301606043163e+01 3.0030999999995988e+01 0 0 0
640 2 1.2305000000000001e+00 1.0656442593567498e+01 3.0030999999995988e+01 0 0 0
642 2 2.4610000000000003e+00 9.9460130873296642e+00 3.0030999999995988e+01 0 0 0
644 2 2.4610000000000003e+00 8.5251540748539991e+00 3.0030999999995988e+01 0 0 0
675 2 3.6914999999999996e+00 1.2077301606043163e+01 3.0030999999995988e+01 0 0 0
677 2 3.6914999999999996e+00 1.0656442593567499e+01 3.0030999999995988e+01 0 0 0
679 2 4.9220000000000006e+00 9.9460130873296642e+00 3.0030999999995988e+01 0 0 0
681 2 4.9220000000000006e+00 8.5251540748539991e+00 3.0030999999995988e+01 0 0 0
720 2 6.1524999999999999e+00 1.2077301606043163e+01 3.0030999999995988e+01 0 0 0
722 2 6.1524999999999999e+00 1.0656442593567499e+01 3.0030999999995988e+01 0 0 0
724 2 7.3830000000000009e+00 9.9460130873296642e+00 3.0030999999995988e+01 0 0 0
726 2 7.3830000000000009e+00 8.5251540748539991e+00 3.0030999999995988e+01 0 0 0
767 2 8.6135000000000002e+00 1.2077301606043163e+01 3.0030999999995988e+01 0 0 0
769 2 8.6134999999999984e+00 1.0656442593567498e+01 3.0030999999995988e+01 0 0 0
771 2 9.8440000000000012e+00 9.9460130873296642e+00 3.0030999999995988e+01 0 0 0
773 2 9.8440000000000012e+00 8.5251540748539956e+00 3.0030999999995988e+01 0 0 0
814 2 1.1074500000000002e+01 1.2077301606043163e+01 3.0030999999995988e+01 0 0 0
816 2 1.1074500000000002e+01 1.0656442593567498e+01 3.0030999999995988e+01 0 0 0
634 2 0.0000000000000000e+00 1.4208590124756663e+01 3.0030999999995988e+01 0 0 0
636 2 0.0000000000000000e+00 1.2787731112280996e+01 3.0030999999995988e+01 0 0 0
669 2 1.2305000000000001e+00 1.4919019630994494e+01 3.0030999999995988e+01 0 0 0
671 2 2.4610000000000003e+00 1.4208590124756663e+01 3.0030999999995988e+01 0 0 0
673 2 2.4610000000000003e+00 1.2787731112280996e+01 3.0030999999995988e+01 0 0 0
714 2 3.6915000000000004e+00 1.4919019630994494e+01 3.0030999999995988e+01 0 0 0
716 2 4.9220000000000006e+00 1.4208590124756663e+01 3.0030999999995988e+01 0 0 0
718 2 4.9220000000000006e+00 1.2787731112280996e+01 3.0030999999995988e+01 0 0 0
761 2 6.1524999999999990e+00 1.4919019630994494e+01 3.0030999999995988e+01 0 0 0
763 2 7.3830000000000009e+00 1.4208590124756663e+01 3.0030999999995988e+01 0 0 0
765 2 7.3829999999999991e+00 1.2787731112280996e+01 3.0030999999995988e+01 0 0 0
808 2 8.6135000000000002e+00 1.4919019630994494e+01 3.0030999999995988e+01 0 0 0
850 2 1.1074500000000002e+01 1.4919019630994494e+01 3.0030999999995988e+01 0 0 0
848 2 1.1074500000000002e+01 1.6339878643470161e+01 3.0030999999995988e+01 0 0 0
812 2 9.8440000000000012e+00 1.2787731112280996e+01 3.0030999999995988e+01 0 0 0
852 2 1.2304999999999998e+01 1.4208590124756658e+01 3.0030999999995988e+01 0 0 0
810 2 9.8440000000000012e+00 1.4208590124756663e+01 3.0030999999995988e+01 0 0 0
923 2 0.0000000000000000e+00 2.8417180249513345e+00 3.3404911269638653e+01 0 0 0
924 2 0.0000000000000000e+00 0.0000000000000000e+00 3.3404911269638653e+01 0 0 0
925 2 1.2305000000000001e+00 7.1042950623783474e-01 3.3404911269638653e+01 0 0 0
929 2 1.2305000000000001e+00 2.1312885187134998e+00 3.3404911269638653e+01 0 0 0
930 2 2.4610000000000003e+00 2.8417180249513345e+00 3.3404911269638653e+01 0 0 0
931 2 2.4610000000000003e+00 0.0000000000000000e+00 3.3404911269638653e+01 0 0 0
932 2 3.6915000000000004e+00 7.1042950623783474e-01 3.3404911269638653e+01 0 0 0
940 2 3.6914999999999996e+00 2.1312885187134998e+00 3.3404911269638653e+01 0 0 0
1012 2 8.6135000000000002e+00 1.3498160618518835e+01 3.3404911269638653e+01 0 0 0
941 2 4.9220000000000006e+00 2.8417180249513332e+00 3.3404911269638653e+01 0 0 0
942 2 4.9220000000000006e+00 0.0000000000000000e+00 3.3404911269638653e+01 0 0 0
943 2 6.1524999999999999e+00 7.1042950623783407e-01 3.3404911269638653e+01 0 0 0
955 2 6.1524999999999999e+00 2.1312885187134989e+00 3.3404911269638653e+01 0 0 0
956 2 7.3829999999999991e+00 2.8417180249513345e+00 3.3404911269638653e+01 0 0 0
957 2 7.3829999999999991e+00 0.0000000000000000e+00 3.3404911269638653e+01 0 0 0
1034 2 9.8440000000000012e+00 1.5629449137232328e+01 3.3404911269638653e+01 0 0 0
958 2 8.6134999999999984e+00 7.1042950623783407e-01 3.3404911269638653e+01 0 0 0
974 2 8.6134999999999984e+00 2.1312885187135002e+00 3.3404911269638653e+01 0 0 0
975 2 9.8440000000000012e+00 2.8417180249513332e+00 3.3404911269638653e+01 0 0 0
976 2 9.8440000000000012e+00 0.0000000000000000e+00 3.3404911269638653e+01 0 0 0
977 2 1.1074500000000002e+01 7.1042950623783330e-01 3.3404911269638653e+01 0 0 0
997 2 1.1074500000000002e+01 2.1312885187135002e+00 3.3404911269638653e+01 0 0 0
926 2 0.0000000000000000e+00 7.1042950623783341e+00 3.3404911269638653e+01 0 0 0
927 2 0.0000000000000000e+00 4.2625770374269996e+00 3.3404911269638653e+01 0 0 0
928 2 1.2305000000000001e+00 4.9730065436648339e+00 3.3404911269638653e+01 0 0 0
936 2 1.2305000000000001e+00 6.3938655561404980e+00 3.3404911269638653e+01 0 0 0
937 2 2.4610000000000003e+00 7.1042950623783341e+00 3.3404911269638653e+01 0 0 0
938 2 2.4610000000000003e+00 4.2625770374269996e+00 3.3404911269638653e+01 0 0 0
939 2 3.6914999999999996e+00 4.9730065436648339e+00 3.3404911269638653e+01 0 0 0
951 2 3.6914999999999996e+00 6.3938655561404980e+00 3.3404911269638653e+01 0 0 0
1054 2 1.1074500000000002e+01 1.4919019630994494e+01 3.3404911269638653e+01 0 0 0
1036 2 1.1074500000000002e+01 1.3498160618518829e+01 3.3404911269638653e+01 0 0 0
952 2 4.9220000000000006e+00 7.1042950623783341e+00 3.3404911269638653e+01 0 0 0
953 2 4.9220000000000006e+00 4.2625770374269978e+00 3.3404911269638653e+01 0 0 0
954 2 6.1524999999999999e+00 4.9730065436648339e+00 3.3404911269638653e+01 0 0 0
970 2 6.1524999999999999e+00 6.3938655561404980e+00 3.3404911269638653e+01 0 0 0
971 2 7.3830000000000009e+00 7.1042950623783341e+00 3.3404911269638653e+01 0 0 0
972 2 7.3829999999999991e+00 4.2625770374269996e+00 3.3404911269638653e+01 0 0 0
973 2 8.6135000000000002e+00 4.9730065436648339e+00 3.3404911269638653e+01 0 0 0
993 2 8.6135000000000002e+00 6.3938655561404980e+00 3.3404911269638653e+01 0 0 0
994 2 9.8440000000000012e+00 7.1042950623783341e+00 3.3404911269638653e+01 0 0 0
995 2 9.8440000000000012e+00 4.2625770374270004e+00 3.3404911269638653e+01 0 0 0
996 2 1.1074500000000002e+01 4.9730065436648339e+00 3.3404911269638653e+01 0 0 0
1017 2 1.1074500000000002e+01 6.3938655561404980e+00 3.3404911269638653e+01 0 0 0
1033 2 8.6135000000000002e+00 1.4919019630994494e+01 3.3404911269638653e+01 0 0 0
933 2 0.0000000000000000e+00 1.1366872099805333e+01 3.3404911269638653e+01 0 0 0
934 2 0.0000000000000000e+00 8.5251540748539991e+00 3.3404911269638653e+01 0 0 0
935 2 1.2305000000000001e+00 9.2355835810918343e+00 3.3404911269638653e+01 0 0 0
947 2 1.2305000000000001e+00 1.0656442593567498e+01 3.3404911269638653e+01 0 0 0
948 2 2.4610000000000003e+00 1.1366872099805333e+01 3.3404911269638653e+01 0 0 0
949 2 2.4610000000000003e+00 8.5251540748539991e+00 3.3404911269638653e+01 0 0 0
950 2 3.6915000000000004e+00 9.2355835810918343e+00 3.3404911269638653e+01 0 0 0
966 2 3.6914999999999996e+00 1.0656442593567499e+01 3.3404911269638653e+01 0 0 0