LAMMPS data file via write_data, version 16 Mar 2018, timestep = 8000000

4545 atoms
2 atom types

0.0000000000000000e+00 4.9219999999999999e+01 xlo xhi
0.0000000000000000e+00 4.9019635930410494e+01 ylo yhi
5.0917454997670575e-01 3.3126165236545916e+01 zlo zhi

Masses

1 18.015
2 12.01

Atoms # atomic

91 2 0.0000000000000000e+00 2.8417180249513345e+00 2.1354014211364643e+00 0 0 0
93 2 0.0000000000000000e+00 0.0000000000000000e+00 2.1354014211364643e+00 0 0 0
95 2 1.2305000000000001e+00 7.1042950623783474e-01 2.1354014211364643e+00 0 0 0
102 2 1.2305000000000001e+00 2.1312885187134998e+00 2.1354014211364643e+00 0 0 0
104 2 2.4610000000000003e+00 2.8417180249513345e+00 2.1354014211364643e+00 0 0 0
106 2 2.4610000000000003e+00 0.0000000000000000e+00 2.1354014211364643e+00 0 0 0
108 2 3.6915000000000004e+00 7.1042950623783474e-01 2.1354014211364643e+00 0 0 0
123 2 3.6914999999999996e+00 2.1312885187134998e+00 2.1354014211364643e+00 0 0 0
125 2 4.9220000000000006e+00 2.8417180249513332e+00 2.1354014211364643e+00 0 0 0
127 2 4.9220000000000006e+00 0.0000000000000000e+00 2.1354014211364643e+00 0 0 0
129 2 6.1524999999999999e+00 7.1042950623783407e-01 2.1354014211364643e+00 0 0 0
152 2 6.1524999999999999e+00 2.1312885187134989e+00 2.1354014211364643e+00 0 0 0
154 2 7.3829999999999991e+00 2.8417180249513345e+00 2.1354014211364643e+00 0 0 0
156 2 7.3829999999999991e+00 0.0000000000000000e+00 2.1354014211364643e+00 0 0 0
158 2 8.6134999999999984e+00 7.1042950623783407e-01 2.1354014211364643e+00 0 0 0
189 2 8.6134999999999984e+00 2.1312885187135002e+00 2.1354014211364643e+00 0 0 0
191 2 9.8440000000000012e+00 2.8417180249513332e+00 2.1354014211364643e+00 0 0 0
193 2 9.8440000000000012e+00 0.0000000000000000e+00 2.1354014211364643e+00 0 0 0
195 2 1.1074500000000002e+01 7.1042950623783330e-01 2.1354014211364643e+00 0 0 0
234 2 1.1074500000000002e+01 2.1312885187135002e+00 2.1354014211364643e+00 0 0 0
98 2 0.0000000000000000e+00 4.2625770374269996e+00 2.1354014211364643e+00 0 0 0
100 2 1.2305000000000001e+00 4.9730065436648339e+00 2.1354014211364643e+00 0 0 0
115 2 1.2305000000000001e+00 6.3938655561404980e+00 2.1354014211364643e+00 0 0 0
119 2 2.4610000000000003e+00 4.2625770374269996e+00 2.1354014211364643e+00 0 0 0
121 2 3.6914999999999996e+00 4.9730065436648339e+00 2.1354014211364643e+00 0 0 0
144 2 3.6914999999999996e+00 6.3938655561404980e+00 2.1354014211364643e+00 0 0 0
96 2 0.0000000000000000e+00 7.1042950623783341e+00 2.1354014211364643e+00 0 0 0
117 2 2.4610000000000003e+00 7.1042950623783341e+00 2.1354014211364643e+00 0 0 0
148 2 4.9220000000000006e+00 4.2625770374269978e+00 2.1354014211364643e+00 0 0 0
150 2 6.1524999999999999e+00 4.9730065436648339e+00 2.1354014211364643e+00 0 0 0
181 2 6.1524999999999999e+00 6.3938655561404980e+00 2.1354014211364643e+00 0 0 0
185 2 7.3829999999999991e+00 4.2625770374269996e+00 2.1354014211364643e+00 0 0 0
146 2 4.9220000000000006e+00 7.1042950623783341e+00 2.1354014211364643e+00 0 0 0
183 2 7.3830000000000009e+00 7.1042950623783341e+00 2.1354014211364643e+00 0 0 0
187 2 8.6135000000000002e+00 4.9730065436648339e+00 2.1354014211364643e+00 0 0 0
226 2 8.6135000000000002e+00 6.3938655561404980e+00 2.1354014211364643e+00 0 0 0
230 2 9.8440000000000012e+00 4.2625770374270004e+00 2.1354014211364643e+00 0 0 0
232 2 1.1074500000000002e+01 4.9730065436648339e+00 2.1354014211364643e+00 0 0 0
273 2 1.1074500000000002e+01 6.3938655561404980e+00 2.1354014211364643e+00 0 0 0
228 2 9.8440000000000012e+00 7.1042950623783341e+00 2.1354014211364643e+00 0 0 0
111 2 0.0000000000000000e+00 8.5251540748539991e+00 2.1354014211364643e+00 0 0 0
113 2 1.2305000000000001e+00 9.2355835810918343e+00 2.1354014211364643e+00 0 0 0
140 2 2.4610000000000003e+00 8.5251540748539991e+00 2.1354014211364643e+00 0 0 0
142 2 3.6915000000000004e+00 9.2355835810918343e+00 2.1354014211364643e+00 0 0 0
109 2 0.0000000000000000e+00 1.1366872099805333e+01 2.1354014211364643e+00 0 0 0
136 2 1.2305000000000001e+00 1.0656442593567498e+01 2.1354014211364643e+00 0 0 0
138 2 2.4610000000000003e+00 1.1366872099805333e+01 2.1354014211364643e+00 0 0 0
173 2 3.6914999999999996e+00 1.0656442593567499e+01 2.1354014211364643e+00 0 0 0
177 2 4.9220000000000006e+00 8.5251540748539991e+00 2.1354014211364643e+00 0 0 0
179 2 6.1524999999999999e+00 9.2355835810918343e+00 2.1354014211364643e+00 0 0 0
222 2 7.3830000000000009e+00 8.5251540748539991e+00 2.1354014211364643e+00 0 0 0
175 2 4.9220000000000006e+00 1.1366872099805333e+01 2.1354014211364643e+00 0 0 0
218 2 6.1524999999999999e+00 1.0656442593567499e+01 2.1354014211364643e+00 0 0 0
220 2 7.3829999999999991e+00 1.1366872099805333e+01 2.1354014211364643e+00 0 0 0
224 2 8.6134999999999984e+00 9.2355835810918343e+00 2.1354014211364643e+00 0 0 0
269 2 9.8440000000000012e+00 8.5251540748539956e+00 2.1354014211364643e+00 0 0 0
271 2 1.1074500000000002e+01 9.2355835810918343e+00 2.1354014211364643e+00 0 0 0
265 2 8.6134999999999984e+00 1.0656442593567498e+01 2.1354014211364643e+00 0 0 0
267 2 9.8440000000000012e+00 1.1366872099805333e+01 2.1354014211364643e+00 0 0 0
312 2 1.1074500000000002e+01 1.0656442593567498e+01 2.1354014211364643e+00 0 0 0
314 2 1.2304999999999998e+01 1.1366872099805333e+01 2.1354014211364643e+00 0 0 0
92 2 0.0000000000000000e+00 1.4208590124756650e+00 5.3878551634504053e+00 0 0 0
94 2 0.0000000000000000e+00 0.0000000000000000e+00 5.3878551634504053e+00 0 0 0
103 2 1.2305000000000001e+00 2.1312885187134998e+00 5.3878551634504053e+00 0 0 0
105 2 2.4610000000000003e+00 1.4208590124756650e+00 5.3878551634504053e+00 0 0 0
107 2 2.4610000000000003e+00 0.0000000000000000e+00 5.3878551634504053e+00 0 0 0
124 2 3.6914999999999996e+00 2.1312885187134998e+00 5.3878551634504053e+00 0 0 0
420 2 0.0000000000000000e+00 2.8417180249513345e+00 8.6403089057648987e+00 0 0 0
421 2 0.0000000000000000e+00 0.0000000000000000e+00 8.6403089057648987e+00 0 0 0
422 2 1.2305000000000001e+00 7.1042950623783474e-01 8.6403089057648987e+00 0 0 0
426 2 1.2305000000000001e+00 2.1312885187134998e+00 8.6403089057648987e+00 0 0 0
427 2 2.4610000000000003e+00 2.8417180249513345e+00 8.6403089057648987e+00 0 0 0
428 2 2.4610000000000003e+00 0.0000000000000000e+00 8.6403089057648987e+00 0 0 0
429 2 3.6915000000000004e+00 7.1042950623783474e-01 8.6403089057648987e+00 0 0 0
437 2 3.6914999999999996e+00 2.1312885187134998e+00 8.6403089057648987e+00 0 0 0
101 2 1.2305000000000001e+00 3.5521475311891644e+00 5.3878551634504053e+00 0 0 0
122 2 3.6914999999999996e+00 3.5521475311891644e+00 5.3878551634504053e+00 0 0 0
126 2 4.9220000000000006e+00 1.4208590124756650e+00 5.3878551634504053e+00 0 0 0
128 2 4.9220000000000006e+00 0.0000000000000000e+00 5.3878551634504053e+00 0 0 0
153 2 6.1524999999999999e+00 2.1312885187134989e+00 5.3878551634504053e+00 0 0 0
155 2 7.3829999999999991e+00 1.4208590124756659e+00 5.3878551634504053e+00 0 0 0
157 2 7.3829999999999991e+00 0.0000000000000000e+00 5.3878551634504053e+00 0 0 0
438 2 4.9220000000000006e+00 2.8417180249513332e+00 8.6403089057648987e+00 0 0 0
439 2 4.9220000000000006e+00 0.0000000000000000e+00 8.6403089057648987e+00 0 0 0
440 2 6.1524999999999999e+00 7.1042950623783407e-01 8.6403089057648987e+00 0 0 0
452 2 6.1524999999999999e+00 2.1312885187134989e+00 8.6403089057648987e+00 0 0 0
453 2 7.3829999999999991e+00 2.8417180249513345e+00 8.6403089057648987e+00 0 0 0
454 2 7.3829999999999991e+00 0.0000000000000000e+00 8.6403089057648987e+00 0 0 0
151 2 6.1524999999999999e+00 3.5521475311891644e+00 5.3878551634504053e+00 0 0 0
190 2 8.6134999999999984e+00 2.1312885187135002e+00 5.3878551634504053e+00 0 0 0
192 2 9.8440000000000012e+00 1.4208590124756659e+00 5.3878551634504053e+00 0 0 0
194 2 9.8440000000000012e+00 0.0000000000000000e+00 5.3878551634504053e+00 0 0 0
235 2 1.1074500000000002e+01 2.1312885187135002e+00 5.3878551634504053e+00 0 0 0
455 2 8.6134999999999984e+00 7.1042950623783407e-01 8.6403089057648987e+00 0 0 0
471 2 8.6134999999999984e+00 2.1312885187135002e+00 8.6403089057648987e+00 0 0 0
472 2 9.8440000000000012e+00 2.8417180249513332e+00 8.6403089057648987e+00 0 0 0
473 2 9.8440000000000012e+00 0.0000000000000000e+00 8.6403089057648987e+00 0 0 0
474 2 1.1074500000000002e+01 7.1042950623783330e-01 8.6403089057648987e+00 0 0 0
494 2 1.1074500000000002e+01 2.1312885187135002e+00 8.6403089057648987e+00 0 0 0
188 2 8.6134999999999984e+00 3.5521475311891657e+00 5.3878551634504053e+00 0 0 0
233 2 1.1074500000000002e+01 3.5521475311891644e+00 5.3878551634504053e+00 0 0 0
97 2 0.0000000000000000e+00 5.6834360499026637e+00 5.3878551634504053e+00 0 0 0
99 2 0.0000000000000000e+00 4.2625770374269996e+00 5.3878551634504053e+00 0 0 0
116 2 1.2305000000000001e+00 6.3938655561404980e+00 5.3878551634504053e+00 0 0 0
118 2 2.4610000000000003e+00 5.6834360499026637e+00 5.3878551634504053e+00 0 0 0
120 2 2.4610000000000003e+00 4.2625770374269996e+00 5.3878551634504053e+00 0 0 0
145 2 3.6914999999999996e+00 6.3938655561404980e+00 5.3878551634504053e+00 0 0 0
424 2 0.0000000000000000e+00 4.2625770374269996e+00 8.6403089057648987e+00 0 0 0
425 2 1.2305000000000001e+00 4.9730065436648339e+00 8.6403089057648987e+00 0 0 0
433 2 1.2305000000000001e+00 6.3938655561404980e+00 8.6403089057648987e+00 0 0 0
435 2 2.4610000000000003e+00 4.2625770374269996e+00 8.6403089057648987e+00 0 0 0
436 2 3.6914999999999996e+00 4.9730065436648339e+00 8.6403089057648987e+00 0 0 0
448 2 3.6914999999999996e+00 6.3938655561404980e+00 8.6403089057648987e+00 0 0 0
114 2 1.2305000000000001e+00 7.8147245686161639e+00 5.3878551634504053e+00 0 0 0
143 2 3.6914999999999996e+00 7.8147245686161639e+00 5.3878551634504053e+00 0 0 0
423 2 0.0000000000000000e+00 7.1042950623783341e+00 8.6403089057648987e+00 0 0 0
434 2 2.4610000000000003e+00 7.1042950623783341e+00 8.6403089057648987e+00 0 0 0
147 2 4.9220000000000006e+00 5.6834360499026637e+00 5.3878551634504053e+00 0 0 0
149 2 4.9220000000000006e+00 4.2625770374269978e+00 5.3878551634504053e+00 0 0 0
182 2 6.1524999999999999e+00 6.3938655561404980e+00 5.3878551634504053e+00 0 0 0
184 2 7.3829999999999991e+00 5.6834360499026637e+00 5.3878551634504053e+00 0 0 0
186 2 7.3829999999999991e+00 4.2625770374269996e+00 5.3878551634504053e+00 0 0 0
450 2 4.9220000000000006e+00 4.2625770374269978e+00 8.6403089057648987e+00 0 0 0
451 2 6.1524999999999999e+00 4.9730065436648339e+00 8.6403089057648987e+00 0 0 0
467 2 6.1524999999999999e+00 6.3938655561404980e+00 8.6403089057648987e+00 0 0 0
469 2 7.3829999999999991e+00 4.2625770374269996e+00 8.6403089057648987e+00 0 0 0
180 2 6.1524999999999999e+00 7.8147245686161639e+00 5.3878551634504053e+00 0 0 0
449 2 4.9220000000000006e+00 7.1042950623783341e+00 8.6403089057648987e+00 0 0 0
468 2 7.3830000000000009e+00 7.1042950623783341e+00 8.6403089057648987e+00 0 0 0
227 2 8.6135000000000002e+00 6.3938655561404980e+00 5.3878551634504053e+00 0 0 0
229 2 9.8440000000000012e+00 5.6834360499026637e+00 5.3878551634504053e+00 0 0 0
231 2 9.8440000000000012e+00 4.2625770374270004e+00 5.3878551634504053e+00 0 0 0
274 2 1.1074500000000002e+01 6.3938655561404980e+00 5.3878551634504053e+00 0 0 0
470 2 8.6135000000000002e+00 4.9730065436648339e+00 8.6403089057648987e+00 0 0 0
490 2 8.6135000000000002e+00 6.3938655561404980e+00 8.6403089057648987e+00 0 0 0
492 2 9.8440000000000012e+00 4.2625770374270004e+00 8.6403089057648987e+00 0 0 0
493 2 1.1074500000000002e+01 4.9730065436648339e+00 8.6403089057648987e+00 0 0 0
514 2 1.1074500000000002e+01 6.3938655561404980e+00 8.6403089057648987e+00 0 0 0
225 2 8.6135000000000002e+00 7.8147245686161639e+00 5.3878551634504053e+00 0 0 0
272 2 1.1074500000000002e+01 7.8147245686161639e+00 5.3878551634504053e+00 0 0 0
491 2 9.8440000000000012e+00 7.1042950623783341e+00 8.6403089057648987e+00 0 0 0
110 2 0.0000000000000000e+00 9.9460130873296642e+00 5.3878551634504053e+00 0 0 0
112 2 0.0000000000000000e+00 8.5251540748539991e+00 5.3878551634504053e+00 0 0 0
139 2 2.4610000000000003e+00 9.9460130873296642e+00 5.3878551634504053e+00 0 0 0
141 2 2.4610000000000003e+00 8.5251540748539991e+00 5.3878551634504053e+00 0 0 0
431 2 0.0000000000000000e+00 8.5251540748539991e+00 8.6403089057648987e+00 0 0 0
432 2 1.2305000000000001e+00 9.2355835810918343e+00 8.6403089057648987e+00 0 0 0
446 2 2.4610000000000003e+00 8.5251540748539991e+00 8.6403089057648987e+00 0 0 0
447 2 3.6915000000000004e+00 9.2355835810918343e+00 8.6403089057648987e+00 0 0 0
135 2 1.2305000000000001e+00 1.2077301606043163e+01 5.3878551634504053e+00 0 0 0
137 2 1.2305000000000001e+00 1.0656442593567498e+01 5.3878551634504053e+00 0 0 0
172 2 3.6914999999999996e+00 1.2077301606043163e+01 5.3878551634504053e+00 0 0 0
174 2 3.6914999999999996e+00 1.0656442593567499e+01 5.3878551634504053e+00 0 0 0
430 2 0.0000000000000000e+00 1.1366872099805333e+01 8.6403089057648987e+00 0 0 0
444 2 1.2305000000000001e+00 1.0656442593567498e+01 8.6403089057648987e+00 0 0 0
445 2 2.4610000000000003e+00 1.1366872099805333e+01 8.6403089057648987e+00 0 0 0
463 2 3.6914999999999996e+00 1.0656442593567499e+01 8.6403089057648987e+00 0 0 0
176 2 4.9220000000000006e+00 9.9460130873296642e+00 5.3878551634504053e+00 0 0 0
178 2 4.9220000000000006e+00 8.5251540748539991e+00 5.3878551634504053e+00 0 0 0
221 2 7.3830000000000009e+00 9.9460130873296642e+00 5.3878551634504053e+00 0 0 0
223 2 7.3830000000000009e+00 8.5251540748539991e+00 5.3878551634504053e+00 0 0 0
465 2 4.9220000000000006e+00 8.5251540748539991e+00 8.6403089057648987e+00 0 0 0
466 2 6.1524999999999999e+00 9.2355835810918343e+00 8.6403089057648987e+00 0 0 0
488 2 7.3830000000000009e+00 8.5251540748539991e+00 8.6403089057648987e+00 0 0 0
217 2 6.1524999999999999e+00 1.2077301606043163e+01 5.3878551634504053e+00 0 0 0
219 2 6.1524999999999999e+00 1.0656442593567499e+01 5.3878551634504053e+00 0 0 0
464 2 4.9220000000000006e+00 1.1366872099805333e+01 8.6403089057648987e+00 0 0 0
486 2 6.1524999999999999e+00 1.0656442593567499e+01 8.6403089057648987e+00 0 0 0
487 2 7.3829999999999991e+00 1.1366872099805333e+01 8.6403089057648987e+00 0 0 0
268 2 9.8440000000000012e+00 9.9460130873296642e+00 5.3878551634504053e+00 0 0 0
270 2 9.8440000000000012e+00 8.5251540748539956e+00 5.3878551634504053e+00 0 0 0
489 2 8.6134999999999984e+00 9.2355835810918343e+00 8.6403089057648987e+00 0 0 0
512 2 9.8440000000000012e+00 8.5251540748539956e+00 8.6403089057648987e+00 0 0 0
513 2 1.1074500000000002e+01 9.2355835810918343e+00 8.6403089057648987e+00 0 0 0
264 2 8.6135000000000002e+00 1.2077301606043163e+01 5.3878551634504053e+00 0 0 0
266 2 8.6134999999999984e+00 1.0656442593567498e+01 5.3878551634504053e+00 0 0 0
311 2 1.1074500000000002e+01 1.2077301606043163e+01 5.3878551634504053e+00 0 0 0
313 2 1.1074500000000002e+01 1.0656442593567498e+01 5.3878551634504053e+00 0 0 0
510 2 8.6134999999999984e+00 1.0656442593567498e+01 8.6403089057648987e+00 0 0 0
511 2 9.8440000000000012e+00 1.1366872099805333e+01 8.6403089057648987e+00 0 0 0
534 2 1.1074500000000002e+01 1.0656442593567498e+01 8.6403089057648987e+00 0 0 0
535 2 1.2304999999999998e+01 1.1366872099805333e+01 8.6403089057648987e+00 0 0 0
2302 1 1.3611419090136514e+00 1.8908423424048186e+00 1.1031232099165344e+01 2 1 -1
3739 1 3.7176560688550842e+00 2.6905759378167873e+00 1.1550429709099138e+01 -3 1 0
3845 1 5.6633404920214900e+00 8.8515537594772054e-01 1.1000495701918851e+01 2 2 0
793 1 8.1232348294380028e+00 1.8794440938915171e+00 1.1406934252234509e+01 -2 -1 0
3770 1 1.0838350236543503e+01 6.3648646787300722e-01 1.1370250737555724e+01 1 2 -1
4508 1 1.5922983039662861e+00 7.2536597798841962e+00 1.1879639869175906e+01 -3 -1 0
2158 1 3.5897981413379836e+00 5.4471428662463826e+00 1.0961264266829851e+01 4 0 -1
4343 1 6.1199732529215174e+00 6.2572181423042119e+00 1.1320034454299766e+01 -1 6 -1
3895 1 8.3750216386483096e+00 4.6554984852373043e+00 1.1332267980420065e+01 3 0 0
2219 1 1.0878907226054450e+01 6.2483968873712099e+00 1.1249518481214013e+01 1 2 -1
2238 1 1.9973110649731989e+00 9.9528957985004674e+00 1.1125971695270394e+01 4 1 -1
2225 1 4.4842136743138790e+00 1.0986708015808899e+01 1.1296293877576316e+01 -3 -2 -1
658 1 6.7232148909184897e+00 9.0466985706190925e+00 1.1523184539309774e+01 -1 -1 0
3771 1 9.0630371500860729e+00 1.0346670334391781e+01 1.1432826454366587e+01 1 1 0
3072 1 1.1318840259997472e+01 9.1432995180673124e+00 1.1249504063486286e+01 6 1 0
2879 1 1.1239506682160234e+00 1.3375737045397593e+00 1.5205936477098982e+01 3 0 0
751 1 3.8777744626285675e+00 2.6120818603518945e+00 1.4451188852101447e+01 -2 0 -1
1499 1 6.1238137686026857e+00 1.3209852698902405e+00 1.5139348269122737e+01 0 1 -1
862 1 8.2988637864992647e+00 2.4013389592849546e+00 1.4204723894648540e+01 4 -4 0
604 1 1.0638010792624174e+01 8.0207373664615134e-01 1.5018515055249706e+01 2 -2 0
1368 1 1.5656569553845012e+00 7.0594163410560649e+00 1.4662860386014806e+01 0 -3 0
3005 1 3.9917165758414179e+00 5.4516677702619774e+00 1.4885903587651740e+01 1 -1 0
4421 1 6.4928477468463610e+00 6.3679908566919989e+00 1.4019033474364416e+01 -2 5 -1
1472 1 8.8097021095076453e+00 5.1020231450672497e+00 1.4726675136915775e+01 -4 -3 0
2898 1 1.1306493749452811e+01 6.4701674679242842e+00 1.4019425700101333e+01 -1 -2 0
3741 1 1.9666395138988890e+00 9.8869425404357614e+00 1.4845621569297153e+01 -1 1 0
3743 1 4.4600034381057911e+00 1.0728292792112654e+01 1.4007581892799511e+01 -1 0 -1
3826 1 6.6344856815874058e+00 9.1420284599358226e+00 1.4584901381737403e+01 1 4 0
738 1 9.1806028266890873e+00 1.0525927625089141e+01 1.4235323332838194e+01 -4 0 0
4477 1 1.1497613139291326e+01 9.1058812773934914e+00 1.4696839471545145e+01 -1 3 -1
1427 1 1.1137562108892607e+00 1.8132153441994530e+00 1.7859195509858012e+01 -4 2 -1
725 1 3.5987095707046222e+00 2.8578092447564312e+00 1.8651229439942625e+01 4 -2 0
3726 1 5.8991687439503062e+00 1.2226963796048456e+00 1.7785808429924476e+01 6 0 0
1497 1 8.2391535467547641e+00 2.5466707451829684e+00 1.8587552428860715e+01 -2 -3 0
60 1 1.0240563924397726e+01 7.9877031729509251e-01 1.7599025411164511e+01 2 1 0
4368 1 1.6115739522752501e+00 7.3125111339025306e+00 1.8295187965223533e+01 -1 2 0
3724 1 3.9034000703342278e+00 5.6656689862452874e+00 1.7502278103084965e+01 1 0 0
827 1 6.3219952617755846e+00 6.7929421751290571e+00 1.8350591094384026e+01 6 2 0
1489 1 8.5192413964969180e+00 5.0623871806838263e+00 1.7536004952598653e+01 2 -2 0
611 1 1.0937615461972621e+01 6.3722087707496611e+00 1.8183402544208811e+01 3 -1 0
3076 1 1.8221558212148321e+00 1.0054759983021176e+01 1.7466164111318310e+01 0 0 -1
1434 1 8.3058311686006672e+00 2.6432969025790365e-01 2.4766800538306562e+01 2 -2 -1
1548 1 1.9004500789715593e+00 1.0106426579055277e+01 3.2380866786103283e+01 -3 2 0
4476 1 4.3127429112648086e+00 1.1207152870921758e+01 1.8448754298907982e+01 5 -4 0
1 1 6.5337333148276091e+00 9.5697711375413981e+00 1.7475748827977867e+01 -3 -7 0
1607 1 9.3008100842643806e+00 1.0605166781168538e+01 1.7986883013563428e+01 2 2 0
3043 1 1.1488955845733436e+01 9.1284330857800011e+00 1.7205835602628273e+01 1 2 0
2847 1 3.3701043948174481e+00 2.9819277615442594e+00 2.1339518353719967e+01 6 -5 0
608 1 8.7975521281032147e+00 5.4952140505725868e+00 3.2280898208278273e+01 -2 -1 1
1429 1 6.0731605097738059e+00 3.9735276431604531e+00 2.2085308623035818e+01 3 -1 -1
1462 1 8.2396393250913693e+00 2.3283972777167015e+00 2.1356680517272753e+01 0 -2 0
3649 1 1.0754909707944915e+01 3.6926316415532021e+00 2.1771135591621981e+01 1 -2 0
3894 1 1.0639858438393048e+01 3.8013315765834896e+00 2.4643505340203280e+01 4 1 0
690 1 1.5840923801470874e+00 7.5014769104648353e+00 2.1126613069850460e+01 0 -1 1
3060 1 1.1011744007883995e+00 4.8859242081362160e+00 2.1989241383401140e+01 0 0 -1
2970 1 1.4882668681006777e+00 4.7349553281885326e+00 2.4705408120009984e+01 2 3 -1
3001 1 4.0649094277144053e+00 8.3894924642118021e+00 2.4248834520107184e+01 2 2 0
1393 1 4.3130448028955541e+00 8.4019576754818797e+00 2.1550907584483021e+01 0 -3 0
3645 1 5.9590791296622401e+00 4.1254993296408111e+00 2.4828800694651672e+01 3 0 0
2332 1 6.2207215251192247e+00 6.5191680596303225e+00 2.1059418040200956e+01 1 2 1
2187 1 1.0775164904117791e+01 6.3773990839627990e+00 2.0817310760372902e+01 0 1 0
4530 1 8.6175051814091237e+00 7.8475375353692884e+00 2.1889516284828442e+01 2 2 0
1421 1 8.9800132071373575e+00 7.9562927839240256e+00 2.4634218972444657e+01 -1 3 0
3142 1 4.2775874493505279e+00 1.1157457698205054e+01 2.1167694830957767e+01 0 1 0
2128 1 3.2608371919810004e+00 4.0258572100875856e-01 2.4993096266647552e+01 1 0 0
2960 1 8.5945008590170673e+00 8.0738281730308419e+00 3.1729422134531706e+01 -3 3 0
3614 1 8.8262965091895680e+00 1.0687661543125419e+01 2.0771139757609454e+01 -1 0 -1
4442 1 3.4421007058166468e+00 3.3224495391639053e-01 2.8897392362614141e+01 2 -3 0
1603 1 3.8771756811223228e+00 8.5771085612180151e+00 3.1530233029310921e+01 0 -1 0
3720 1 1.1701328967776359e+00 1.9287724254534027e+00 2.5745274563866889e+01 1 -4 0
1418 1 1.2879956110795876e+00 2.1758514123332731e+00 2.8541635911090104e+01 -7 2 1
800 1 5.8137803132237078e+00 1.6168727771811169e+00 2.5326919361653481e+01 -3 -4 0
2167 1 5.8923826586382759e+00 1.5260140606251658e+00 2.8051966374039925e+01 -1 0 -1
1514 1 6.0739868261846652e+00 4.1420499310293550e+00 2.8953503266677892e+01 2 -1 1
2855 1 1.0646028442128744e+01 1.1304004147919946e+00 2.5686842741243012e+01 3 -3 0
2358 1 1.0382352104315872e+01 1.0811099203397967e+00 2.8231993365065577e+01 4 0 1
864 1 3.7357154608706917e+00 5.5223576645501105e+00 2.7852105105436610e+01 -2 0 1
2380 1 3.8188270549227403e+00 5.8107140685223513e+00 2.5296631916296217e+01 2 4 0
4536 1 8.5602833650327650e+00 5.2961493963943882e+00 2.7924092355448142e+01 4 2 0
1447 1 8.4988260699423872e+00 5.2759437854663815e+00 2.5279144391324529e+01 4 -5 0
3748 1 8.5025989105424191e+00 7.9487046524462981e+00 2.8945280993619242e+01 5 1 -1
3810 1 1.8452491440755003e+00 9.8245564263787024e+00 2.5129975599126947e+01 0 1 0
49 1 1.7152728899537699e+00 9.7919088493950124e+00 2.8068434448810169e+01 -1 -3 1
87 1 3.9671845330458768e+00 8.3271600549788172e+00 2.8666685388807348e+01 1 3 1
2364 1 6.7326150480451092e+00 9.5597018340473081e+00 2.5251868265470605e+01 -1 1 1
1553 1 6.4635998827538730e+00 9.4287368341040434e+00 2.8000469985542104e+01 -1 3 0
2389 1 1.1164693054911805e+01 9.2392544900356040e+00 3.2228793552979710e+01 1 0 -1
4355 1 1.1251327241706980e+01 9.3286713935520602e+00 2.5518143010113114e+01 -1 1 -1
3016 1 1.1120174591154786e+01 9.2437073268230883e+00 2.8362171565845301e+01 0 0 1
854 1 1.1178092931829640e+01 1.1633117868287359e+01 2.4256378235268251e+01 0 0 0
1460 1 1.2459296117711289e+00 1.9153833963618248e+00 3.2034889020513560e+01 -1 2 -1
685 1 1.1355076420879994e+01 1.1947463730890274e+01 3.1545562025832247e+01 0 -3 0
1452 1 5.6883985034876741e+00 1.7546739167616117e+00 3.2176933670131149e+01 3 0 0
2953 1 6.3148661645784516e+00 9.6592352700789927e+00 3.2075279659266464e+01 2 0 0
2324 1 1.0803628915862300e+01 3.7394457131378513e+00 2.8888653093348822e+01 -1 0 0
734 1 1.0180958817456290e+01 1.5893265073321960e+00 3.2191062469113646e+01 -1 0 0
4449 1 1.4002968224532990e+00 4.6370296392556609e+00 2.9156713575266288e+01 -1 -1 0
2981 1 1.4948577946066948e+00 4.7969844489052553e+00 3.1924084144086887e+01 2 3 0
717 1 3.9942189845743044e+00 5.7739326401788462e+00 3.2410460724780307e+01 1 -4 -1
4437 1 6.3877407327951969e+00 4.4019424019511639e+00 3.1774075286417602e+01 0 4 -1
2301 1 1.0986695179391191e+01 4.1032408472618700e+00 3.1443265778832611e+01 -1 2 0
1554 1 3.3984536658127924e+00 2.3851532185637436e-01 3.1524961562822330e+01 0 -3 0
1482 1 1.1174386332597184e+01 1.1484084051223602e+01 2.1461322745385893e+01 0 1 0
3812 1 1.1400181149931829e+01 1.1984480543867711e+01 2.8677259522760810e+01 1 3 -1
645 1 3.3659324518449214e+00 4.5340466251556782e-01 2.2186895284650404e+01 1 0 0
52 1 7.8742231408624708e+00 2.7237406870977915e-01 3.1488460478768921e+01 -2 1 1
4346 1 6.3840468618587201e+00 1.1967326446285886e+01 2.8902230953489749e+01 3 4 1
2939 1 6.4347362877050438e+00 1.2164882774004880e+01 3.1626101514089836e+01 -1 -2 0
3727 1 6.7615895893220133e+00 1.2169601612207329e+01 2.4818246463642961e+01 2 4 0
132 2 0.0000000000000000e+00 1.2787731112280996e+01 2.1354014211364643e+00 0 0 0
134 2 1.2305000000000001e+00 1.3498160618518829e+01 2.1354014211364643e+00 0 0 0
169 2 2.4610000000000003e+00 1.2787731112280996e+01 2.1354014211364643e+00 0 0 0
171 2 3.6915000000000004e+00 1.3498160618518829e+01 2.1354014211364643e+00 0 0 0
130 2 0.0000000000000000e+00 1.5629449137232333e+01 2.1354014211364643e+00 0 0 0
165 2 1.2305000000000001e+00 1.4919019630994494e+01 2.1354014211364643e+00 0 0 0
167 2 2.4610000000000003e+00 1.5629449137232328e+01 2.1354014211364643e+00 0 0 0
210 2 3.6915000000000004e+00 1.4919019630994494e+01 2.1354014211364643e+00 0 0 0
214 2 4.9220000000000006e+00 1.2787731112280996e+01 2.1354014211364643e+00 0 0 0
216 2 6.1524999999999990e+00 1.3498160618518829e+01 2.1354014211364643e+00 0 0 0
261 2 7.3829999999999991e+00 1.2787731112280996e+01 2.1354014211364643e+00 0 0 0
212 2 4.9220000000000006e+00 1.5629449137232333e+01 2.1354014211364643e+00 0 0 0
257 2 6.1524999999999990e+00 1.4919019630994494e+01 2.1354014211364643e+00 0 0 0
259 2 7.3829999999999991e+00 1.5629449137232333e+01 2.1354014211364643e+00 0 0 0
263 2 8.6135000000000002e+00 1.3498160618518835e+01 2.1354014211364643e+00 0 0 0
308 2 9.8440000000000012e+00 1.2787731112280996e+01 2.1354014211364643e+00 0 0 0
310 2 1.1074500000000002e+01 1.3498160618518829e+01 2.1354014211364643e+00 0 0 0
304 2 8.6135000000000002e+00 1.4919019630994494e+01 2.1354014211364643e+00 0 0 0
306 2 9.8440000000000012e+00 1.5629449137232328e+01 2.1354014211364643e+00 0 0 0
346 2 1.1074500000000002e+01 1.4919019630994494e+01 2.1354014211364643e+00 0 0 0
161 2 0.0000000000000000e+00 1.7050308149707998e+01 2.1354014211364643e+00 0 0 0
206 2 2.4610000000000003e+00 1.7050308149707998e+01 2.1354014211364643e+00 0 0 0
159 2 0.0000000000000000e+00 1.9892026174659328e+01 2.1354014211364643e+00 0 0 0
163 2 1.2305000000000001e+00 1.7760737655945832e+01 2.1354014211364643e+00 0 0 0
202 2 1.2305000000000001e+00 1.9181596668421495e+01 2.1354014211364643e+00 0 0 0
204 2 2.4610000000000003e+00 1.9892026174659328e+01 2.1354014211364643e+00 0 0 0
208 2 3.6914999999999996e+00 1.7760737655945832e+01 2.1354014211364643e+00 0 0 0
249 2 3.6914999999999996e+00 1.9181596668421495e+01 2.1354014211364643e+00 0 0 0
253 2 4.9220000000000006e+00 1.7050308149707998e+01 2.1354014211364643e+00 0 0 0
300 2 7.3830000000000009e+00 1.7050308149707998e+01 2.1354014211364643e+00 0 0 0
251 2 4.9220000000000006e+00 1.9892026174659328e+01 2.1354014211364643e+00 0 0 0
255 2 6.1524999999999999e+00 1.7760737655945832e+01 2.1354014211364643e+00 0 0 0
296 2 6.1524999999999999e+00 1.9181596668421495e+01 2.1354014211364643e+00 0 0 0
298 2 7.3829999999999991e+00 1.9892026174659328e+01 2.1354014211364643e+00 0 0 0
342 2 9.8440000000000012e+00 1.7050308149707998e+01 2.1354014211364643e+00 0 0 0
376 2 1.2304999999999998e+01 1.7050308149707998e+01 2.1354014211364643e+00 0 0 0
302 2 8.6134999999999984e+00 1.7760737655945832e+01 2.1354014211364643e+00 0 0 0
338 2 8.6135000000000002e+00 1.9181596668421495e+01 2.1354014211364643e+00 0 0 0
340 2 9.8440000000000012e+00 1.9892026174659335e+01 2.1354014211364643e+00 0 0 0
344 2 1.1074500000000002e+01 1.7760737655945835e+01 2.1354014211364643e+00 0 0 0
372 2 1.1074500000000002e+01 1.9181596668421495e+01 2.1354014211364643e+00 0 0 0
196 2 0.0000000000000000e+00 2.4154603212086325e+01 2.1354014211364643e+00 0 0 0
198 2 0.0000000000000000e+00 2.1312885187134999e+01 2.1354014211364643e+00 0 0 0
200 2 1.2304999999999993e+00 2.2023314693372832e+01 2.1354014211364643e+00 0 0 0
241 2 1.2304999999999993e+00 2.3444173705848499e+01 2.1354014211364643e+00 0 0 0
243 2 2.4610000000000003e+00 2.4154603212086325e+01 2.1354014211364643e+00 0 0 0
245 2 2.4610000000000003e+00 2.1312885187134995e+01 2.1354014211364643e+00 0 0 0
247 2 3.6914999999999996e+00 2.2023314693372832e+01 2.1354014211364643e+00 0 0 0
288 2 3.6915000000000004e+00 2.3444173705848499e+01 2.1354014211364643e+00 0 0 0
290 2 4.9220000000000006e+00 2.4154603212086325e+01 2.1354014211364643e+00 0 0 0
292 2 4.9220000000000006e+00 2.1312885187134995e+01 2.1354014211364643e+00 0 0 0
294 2 6.1524999999999990e+00 2.2023314693372832e+01 2.1354014211364643e+00 0 0 0
330 2 6.1524999999999999e+00 2.3444173705848499e+01 2.1354014211364643e+00 0 0 0
332 2 7.3830000000000009e+00 2.4154603212086336e+01 2.1354014211364643e+00 0 0 0
334 2 7.3829999999999991e+00 2.1312885187134999e+01 2.1354014211364643e+00 0 0 0
336 2 8.6135000000000002e+00 2.2023314693372832e+01 2.1354014211364643e+00 0 0 0
364 2 8.6134999999999984e+00 2.3444173705848499e+01 2.1354014211364643e+00 0 0 0
366 2 9.8440000000000012e+00 2.4154603212086336e+01 2.1354014211364643e+00 0 0 0
368 2 9.8440000000000012e+00 2.1312885187134999e+01 2.1354014211364643e+00 0 0 0
370 2 1.1074500000000002e+01 2.2023314693372832e+01 2.1354014211364643e+00 0 0 0
390 2 1.1074500000000002e+01 2.3444173705848499e+01 2.1354014211364643e+00 0 0 0
133 2 0.0000000000000000e+00 1.2787731112280996e+01 5.3878551634504053e+00 0 0 0
170 2 2.4610000000000003e+00 1.2787731112280996e+01 5.3878551634504053e+00 0 0 0
442 2 0.0000000000000000e+00 1.2787731112280996e+01 8.6403089057648987e+00 0 0 0
443 2 1.2305000000000001e+00 1.3498160618518829e+01 8.6403089057648987e+00 0 0 0
461 2 2.4610000000000003e+00 1.2787731112280996e+01 8.6403089057648987e+00 0 0 0
462 2 3.6915000000000004e+00 1.3498160618518829e+01 8.6403089057648987e+00 0 0 0
131 2 0.0000000000000000e+00 1.4208590124756663e+01 5.3878551634504053e+00 0 0 0
166 2 1.2305000000000001e+00 1.4919019630994494e+01 5.3878551634504053e+00 0 0 0
168 2 2.4610000000000003e+00 1.4208590124756663e+01 5.3878551634504053e+00 0 0 0
211 2 3.6915000000000004e+00 1.4919019630994494e+01 5.3878551634504053e+00 0 0 0
441 2 0.0000000000000000e+00 1.5629449137232333e+01 8.6403089057648987e+00 0 0 0
459 2 1.2305000000000001e+00 1.4919019630994494e+01 8.6403089057648987e+00 0 0 0