LAMMPS data file via write_data, version 16 Mar 2018, timestep = 100000

4545 atoms
2 atom types

0.0000000000000000e+00 4.9219999999999999e+01 xlo xhi
0.0000000000000000e+00 4.9019635930410494e+01 ylo yhi
1.6922171242499378e+00 3.1943122662272401e+01 zlo zhi

Masses

1 18.015
2 12.01

Atoms # atomic

91 2 0.0000000000000000e+00 2.8417180249513345e+00 3.2004750728614590e+00 0 0 0
93 2 0.0000000000000000e+00 0.0000000000000000e+00 3.2004750728614590e+00 0 0 0
95 2 1.2305000000000001e+00 7.1042950623783474e-01 3.2004750728614590e+00 0 0 0
102 2 1.2305000000000001e+00 2.1312885187134998e+00 3.2004750728614590e+00 0 0 0
104 2 2.4610000000000003e+00 2.8417180249513345e+00 3.2004750728614590e+00 0 0 0
106 2 2.4610000000000003e+00 0.0000000000000000e+00 3.2004750728614590e+00 0 0 0
108 2 3.6915000000000004e+00 7.1042950623783474e-01 3.2004750728614590e+00 0 0 0
123 2 3.6914999999999996e+00 2.1312885187134998e+00 3.2004750728614590e+00 0 0 0
125 2 4.9220000000000006e+00 2.8417180249513332e+00 3.2004750728614590e+00 0 0 0
127 2 4.9220000000000006e+00 0.0000000000000000e+00 3.2004750728614590e+00 0 0 0
129 2 6.1524999999999999e+00 7.1042950623783407e-01 3.2004750728614590e+00 0 0 0
152 2 6.1524999999999999e+00 2.1312885187134989e+00 3.2004750728614590e+00 0 0 0
154 2 7.3829999999999991e+00 2.8417180249513345e+00 3.2004750728614590e+00 0 0 0
156 2 7.3829999999999991e+00 0.0000000000000000e+00 3.2004750728614590e+00 0 0 0
158 2 8.6134999999999984e+00 7.1042950623783407e-01 3.2004750728614590e+00 0 0 0
189 2 8.6134999999999984e+00 2.1312885187135002e+00 3.2004750728614590e+00 0 0 0
191 2 9.8440000000000012e+00 2.8417180249513332e+00 3.2004750728614590e+00 0 0 0
193 2 9.8440000000000012e+00 0.0000000000000000e+00 3.2004750728614590e+00 0 0 0
195 2 1.1074500000000002e+01 7.1042950623783330e-01 3.2004750728614590e+00 0 0 0
234 2 1.1074500000000002e+01 2.1312885187135002e+00 3.2004750728614590e+00 0 0 0
98 2 0.0000000000000000e+00 4.2625770374269996e+00 3.2004750728614590e+00 0 0 0
100 2 1.2305000000000001e+00 4.9730065436648339e+00 3.2004750728614590e+00 0 0 0
115 2 1.2305000000000001e+00 6.3938655561404980e+00 3.2004750728614590e+00 0 0 0
119 2 2.4610000000000003e+00 4.2625770374269996e+00 3.2004750728614590e+00 0 0 0
121 2 3.6914999999999996e+00 4.9730065436648339e+00 3.2004750728614590e+00 0 0 0
144 2 3.6914999999999996e+00 6.3938655561404980e+00 3.2004750728614590e+00 0 0 0
96 2 0.0000000000000000e+00 7.1042950623783341e+00 3.2004750728614590e+00 0 0 0
117 2 2.4610000000000003e+00 7.1042950623783341e+00 3.2004750728614590e+00 0 0 0
148 2 4.9220000000000006e+00 4.2625770374269978e+00 3.2004750728614590e+00 0 0 0
150 2 6.1524999999999999e+00 4.9730065436648339e+00 3.2004750728614590e+00 0 0 0
181 2 6.1524999999999999e+00 6.3938655561404980e+00 3.2004750728614590e+00 0 0 0
185 2 7.3829999999999991e+00 4.2625770374269996e+00 3.2004750728614590e+00 0 0 0
146 2 4.9220000000000006e+00 7.1042950623783341e+00 3.2004750728614590e+00 0 0 0
183 2 7.3830000000000009e+00 7.1042950623783341e+00 3.2004750728614590e+00 0 0 0
187 2 8.6135000000000002e+00 4.9730065436648339e+00 3.2004750728614590e+00 0 0 0
226 2 8.6135000000000002e+00 6.3938655561404980e+00 3.2004750728614590e+00 0 0 0
230 2 9.8440000000000012e+00 4.2625770374270004e+00 3.2004750728614590e+00 0 0 0
232 2 1.1074500000000002e+01 4.9730065436648339e+00 3.2004750728614590e+00 0 0 0
273 2 1.1074500000000002e+01 6.3938655561404980e+00 3.2004750728614590e+00 0 0 0
228 2 9.8440000000000012e+00 7.1042950623783341e+00 3.2004750728614590e+00 0 0 0
111 2 0.0000000000000000e+00 8.5251540748539991e+00 3.2004750728614590e+00 0 0 0
113 2 1.2305000000000001e+00 9.2355835810918343e+00 3.2004750728614590e+00 0 0 0
140 2 2.4610000000000003e+00 8.5251540748539991e+00 3.2004750728614590e+00 0 0 0
142 2 3.6915000000000004e+00 9.2355835810918343e+00 3.2004750728614590e+00 0 0 0
109 2 0.0000000000000000e+00 1.1366872099805333e+01 3.2004750728614590e+00 0 0 0
136 2 1.2305000000000001e+00 1.0656442593567498e+01 3.2004750728614590e+00 0 0 0
138 2 2.4610000000000003e+00 1.1366872099805333e+01 3.2004750728614590e+00 0 0 0
173 2 3.6914999999999996e+00 1.0656442593567499e+01 3.2004750728614590e+00 0 0 0
177 2 4.9220000000000006e+00 8.5251540748539991e+00 3.2004750728614590e+00 0 0 0
179 2 6.1524999999999999e+00 9.2355835810918343e+00 3.2004750728614590e+00 0 0 0
222 2 7.3830000000000009e+00 8.5251540748539991e+00 3.2004750728614590e+00 0 0 0
175 2 4.9220000000000006e+00 1.1366872099805333e+01 3.2004750728614590e+00 0 0 0
218 2 6.1524999999999999e+00 1.0656442593567499e+01 3.2004750728614590e+00 0 0 0
220 2 7.3829999999999991e+00 1.1366872099805333e+01 3.2004750728614590e+00 0 0 0
224 2 8.6134999999999984e+00 9.2355835810918343e+00 3.2004750728614590e+00 0 0 0
269 2 9.8440000000000012e+00 8.5251540748539956e+00 3.2004750728614590e+00 0 0 0
271 2 1.1074500000000002e+01 9.2355835810918343e+00 3.2004750728614590e+00 0 0 0
265 2 8.6134999999999984e+00 1.0656442593567498e+01 3.2004750728614590e+00 0 0 0
267 2 9.8440000000000012e+00 1.1366872099805333e+01 3.2004750728614590e+00 0 0 0
312 2 1.1074500000000002e+01 1.0656442593567498e+01 3.2004750728614590e+00 0 0 0
314 2 1.2304999999999998e+01 1.1366872099805333e+01 3.2004750728614590e+00 0 0 0
92 2 0.0000000000000000e+00 1.4208590124756650e+00 6.2169909700837076e+00 0 0 0
94 2 0.0000000000000000e+00 0.0000000000000000e+00 6.2169909700837076e+00 0 0 0
103 2 1.2305000000000001e+00 2.1312885187134998e+00 6.2169909700837076e+00 0 0 0
105 2 2.4610000000000003e+00 1.4208590124756650e+00 6.2169909700837076e+00 0 0 0
107 2 2.4610000000000003e+00 0.0000000000000000e+00 6.2169909700837076e+00 0 0 0
124 2 3.6914999999999996e+00 2.1312885187134998e+00 6.2169909700837076e+00 0 0 0
420 2 0.0000000000000000e+00 2.8417180249513345e+00 9.2335068673065699e+00 0 0 0
421 2 0.0000000000000000e+00 0.0000000000000000e+00 9.2335068673065699e+00 0 0 0
422 2 1.2305000000000001e+00 7.1042950623783474e-01 9.2335068673065699e+00 0 0 0
426 2 1.2305000000000001e+00 2.1312885187134998e+00 9.2335068673065699e+00 0 0 0
427 2 2.4610000000000003e+00 2.8417180249513345e+00 9.2335068673065699e+00 0 0 0
428 2 2.4610000000000003e+00 0.0000000000000000e+00 9.2335068673065699e+00 0 0 0
429 2 3.6915000000000004e+00 7.1042950623783474e-01 9.2335068673065699e+00 0 0 0
437 2 3.6914999999999996e+00 2.1312885187134998e+00 9.2335068673065699e+00 0 0 0
101 2 1.2305000000000001e+00 3.5521475311891644e+00 6.2169909700837076e+00 0 0 0
122 2 3.6914999999999996e+00 3.5521475311891644e+00 6.2169909700837076e+00 0 0 0
126 2 4.9220000000000006e+00 1.4208590124756650e+00 6.2169909700837076e+00 0 0 0
128 2 4.9220000000000006e+00 0.0000000000000000e+00 6.2169909700837076e+00 0 0 0
153 2 6.1524999999999999e+00 2.1312885187134989e+00 6.2169909700837076e+00 0 0 0
155 2 7.3829999999999991e+00 1.4208590124756659e+00 6.2169909700837076e+00 0 0 0
157 2 7.3829999999999991e+00 0.0000000000000000e+00 6.2169909700837076e+00 0 0 0
438 2 4.9220000000000006e+00 2.8417180249513332e+00 9.2335068673065699e+00 0 0 0
439 2 4.9220000000000006e+00 0.0000000000000000e+00 9.2335068673065699e+00 0 0 0
440 2 6.1524999999999999e+00 7.1042950623783407e-01 9.2335068673065699e+00 0 0 0
452 2 6.1524999999999999e+00 2.1312885187134989e+00 9.2335068673065699e+00 0 0 0
453 2 7.3829999999999991e+00 2.8417180249513345e+00 9.2335068673065699e+00 0 0 0
454 2 7.3829999999999991e+00 0.0000000000000000e+00 9.2335068673065699e+00 0 0 0
151 2 6.1524999999999999e+00 3.5521475311891644e+00 6.2169909700837076e+00 0 0 0
190 2 8.6134999999999984e+00 2.1312885187135002e+00 6.2169909700837076e+00 0 0 0
192 2 9.8440000000000012e+00 1.4208590124756659e+00 6.2169909700837076e+00 0 0 0
194 2 9.8440000000000012e+00 0.0000000000000000e+00 6.2169909700837076e+00 0 0 0
235 2 1.1074500000000002e+01 2.1312885187135002e+00 6.2169909700837076e+00 0 0 0
455 2 8.6134999999999984e+00 7.1042950623783407e-01 9.2335068673065699e+00 0 0 0
471 2 8.6134999999999984e+00 2.1312885187135002e+00 9.2335068673065699e+00 0 0 0
472 2 9.8440000000000012e+00 2.8417180249513332e+00 9.2335068673065699e+00 0 0 0
473 2 9.8440000000000012e+00 0.0000000000000000e+00 9.2335068673065699e+00 0 0 0
474 2 1.1074500000000002e+01 7.1042950623783330e-01 9.2335068673065699e+00 0 0 0
494 2 1.1074500000000002e+01 2.1312885187135002e+00 9.2335068673065699e+00 0 0 0
188 2 8.6134999999999984e+00 3.5521475311891657e+00 6.2169909700837076e+00 0 0 0
233 2 1.1074500000000002e+01 3.5521475311891644e+00 6.2169909700837076e+00 0 0 0
97 2 0.0000000000000000e+00 5.6834360499026637e+00 6.2169909700837076e+00 0 0 0
99 2 0.0000000000000000e+00 4.2625770374269996e+00 6.2169909700837076e+00 0 0 0
116 2 1.2305000000000001e+00 6.3938655561404980e+00 6.2169909700837076e+00 0 0 0
118 2 2.4610000000000003e+00 5.6834360499026637e+00 6.2169909700837076e+00 0 0 0
120 2 2.4610000000000003e+00 4.2625770374269996e+00 6.2169909700837076e+00 0 0 0
145 2 3.6914999999999996e+00 6.3938655561404980e+00 6.2169909700837076e+00 0 0 0
424 2 0.0000000000000000e+00 4.2625770374269996e+00 9.2335068673065699e+00 0 0 0
425 2 1.2305000000000001e+00 4.9730065436648339e+00 9.2335068673065699e+00 0 0 0
433 2 1.2305000000000001e+00 6.3938655561404980e+00 9.2335068673065699e+00 0 0 0
435 2 2.4610000000000003e+00 4.2625770374269996e+00 9.2335068673065699e+00 0 0 0
436 2 3.6914999999999996e+00 4.9730065436648339e+00 9.2335068673065699e+00 0 0 0
448 2 3.6914999999999996e+00 6.3938655561404980e+00 9.2335068673065699e+00 0 0 0
114 2 1.2305000000000001e+00 7.8147245686161639e+00 6.2169909700837076e+00 0 0 0
143 2 3.6914999999999996e+00 7.8147245686161639e+00 6.2169909700837076e+00 0 0 0
423 2 0.0000000000000000e+00 7.1042950623783341e+00 9.2335068673065699e+00 0 0 0
434 2 2.4610000000000003e+00 7.1042950623783341e+00 9.2335068673065699e+00 0 0 0
147 2 4.9220000000000006e+00 5.6834360499026637e+00 6.2169909700837076e+00 0 0 0
149 2 4.9220000000000006e+00 4.2625770374269978e+00 6.2169909700837076e+00 0 0 0
182 2 6.1524999999999999e+00 6.3938655561404980e+00 6.2169909700837076e+00 0 0 0
184 2 7.3829999999999991e+00 5.6834360499026637e+00 6.2169909700837076e+00 0 0 0
186 2 7.3829999999999991e+00 4.2625770374269996e+00 6.2169909700837076e+00 0 0 0
450 2 4.9220000000000006e+00 4.2625770374269978e+00 9.2335068673065699e+00 0 0 0
451 2 6.1524999999999999e+00 4.9730065436648339e+00 9.2335068673065699e+00 0 0 0
467 2 6.1524999999999999e+00 6.3938655561404980e+00 9.2335068673065699e+00 0 0 0
469 2 7.3829999999999991e+00 4.2625770374269996e+00 9.2335068673065699e+00 0 0 0
180 2 6.1524999999999999e+00 7.8147245686161639e+00 6.2169909700837076e+00 0 0 0
449 2 4.9220000000000006e+00 7.1042950623783341e+00 9.2335068673065699e+00 0 0 0
468 2 7.3830000000000009e+00 7.1042950623783341e+00 9.2335068673065699e+00 0 0 0
227 2 8.6135000000000002e+00 6.3938655561404980e+00 6.2169909700837076e+00 0 0 0
229 2 9.8440000000000012e+00 5.6834360499026637e+00 6.2169909700837076e+00 0 0 0
231 2 9.8440000000000012e+00 4.2625770374270004e+00 6.2169909700837076e+00 0 0 0
274 2 1.1074500000000002e+01 6.3938655561404980e+00 6.2169909700837076e+00 0 0 0
470 2 8.6135000000000002e+00 4.9730065436648339e+00 9.2335068673065699e+00 0 0 0
490 2 8.6135000000000002e+00 6.3938655561404980e+00 9.2335068673065699e+00 0 0 0
492 2 9.8440000000000012e+00 4.2625770374270004e+00 9.2335068673065699e+00 0 0 0
493 2 1.1074500000000002e+01 4.9730065436648339e+00 9.2335068673065699e+00 0 0 0
514 2 1.1074500000000002e+01 6.3938655561404980e+00 9.2335068673065699e+00 0 0 0
225 2 8.6135000000000002e+00 7.8147245686161639e+00 6.2169909700837076e+00 0 0 0
272 2 1.1074500000000002e+01 7.8147245686161639e+00 6.2169909700837076e+00 0 0 0
491 2 9.8440000000000012e+00 7.1042950623783341e+00 9.2335068673065699e+00 0 0 0
110 2 0.0000000000000000e+00 9.9460130873296642e+00 6.2169909700837076e+00 0 0 0
112 2 0.0000000000000000e+00 8.5251540748539991e+00 6.2169909700837076e+00 0 0 0
139 2 2.4610000000000003e+00 9.9460130873296642e+00 6.2169909700837076e+00 0 0 0
141 2 2.4610000000000003e+00 8.5251540748539991e+00 6.2169909700837076e+00 0 0 0
431 2 0.0000000000000000e+00 8.5251540748539991e+00 9.2335068673065699e+00 0 0 0
432 2 1.2305000000000001e+00 9.2355835810918343e+00 9.2335068673065699e+00 0 0 0
446 2 2.4610000000000003e+00 8.5251540748539991e+00 9.2335068673065699e+00 0 0 0
447 2 3.6915000000000004e+00 9.2355835810918343e+00 9.2335068673065699e+00 0 0 0
135 2 1.2305000000000001e+00 1.2077301606043163e+01 6.2169909700837076e+00 0 0 0
137 2 1.2305000000000001e+00 1.0656442593567498e+01 6.2169909700837076e+00 0 0 0
172 2 3.6914999999999996e+00 1.2077301606043163e+01 6.2169909700837076e+00 0 0 0
174 2 3.6914999999999996e+00 1.0656442593567499e+01 6.2169909700837076e+00 0 0 0
430 2 0.0000000000000000e+00 1.1366872099805333e+01 9.2335068673065699e+00 0 0 0
444 2 1.2305000000000001e+00 1.0656442593567498e+01 9.2335068673065699e+00 0 0 0
445 2 2.4610000000000003e+00 1.1366872099805333e+01 9.2335068673065699e+00 0 0 0
463 2 3.6914999999999996e+00 1.0656442593567499e+01 9.2335068673065699e+00 0 0 0
176 2 4.9220000000000006e+00 9.9460130873296642e+00 6.2169909700837076e+00 0 0 0
178 2 4.9220000000000006e+00 8.5251540748539991e+00 6.2169909700837076e+00 0 0 0
221 2 7.3830000000000009e+00 9.9460130873296642e+00 6.2169909700837076e+00 0 0 0
223 2 7.3830000000000009e+00 8.5251540748539991e+00 6.2169909700837076e+00 0 0 0
465 2 4.9220000000000006e+00 8.5251540748539991e+00 9.2335068673065699e+00 0 0 0
466 2 6.1524999999999999e+00 9.2355835810918343e+00 9.2335068673065699e+00 0 0 0
488 2 7.3830000000000009e+00 8.5251540748539991e+00 9.2335068673065699e+00 0 0 0
217 2 6.1524999999999999e+00 1.2077301606043163e+01 6.2169909700837076e+00 0 0 0
219 2 6.1524999999999999e+00 1.0656442593567499e+01 6.2169909700837076e+00 0 0 0
464 2 4.9220000000000006e+00 1.1366872099805333e+01 9.2335068673065699e+00 0 0 0
486 2 6.1524999999999999e+00 1.0656442593567499e+01 9.2335068673065699e+00 0 0 0
487 2 7.3829999999999991e+00 1.1366872099805333e+01 9.2335068673065699e+00 0 0 0
268 2 9.8440000000000012e+00 9.9460130873296642e+00 6.2169909700837076e+00 0 0 0
270 2 9.8440000000000012e+00 8.5251540748539956e+00 6.2169909700837076e+00 0 0 0
489 2 8.6134999999999984e+00 9.2355835810918343e+00 9.2335068673065699e+00 0 0 0
512 2 9.8440000000000012e+00 8.5251540748539956e+00 9.2335068673065699e+00 0 0 0
513 2 1.1074500000000002e+01 9.2355835810918343e+00 9.2335068673065699e+00 0 0 0
264 2 8.6135000000000002e+00 1.2077301606043163e+01 6.2169909700837076e+00 0 0 0
266 2 8.6134999999999984e+00 1.0656442593567498e+01 6.2169909700837076e+00 0 0 0
311 2 1.1074500000000002e+01 1.2077301606043163e+01 6.2169909700837076e+00 0 0 0
313 2 1.1074500000000002e+01 1.0656442593567498e+01 6.2169909700837076e+00 0 0 0
510 2 8.6134999999999984e+00 1.0656442593567498e+01 9.2335068673065699e+00 0 0 0
511 2 9.8440000000000012e+00 1.1366872099805333e+01 9.2335068673065699e+00 0 0 0
534 2 1.1074500000000002e+01 1.0656442593567498e+01 9.2335068673065699e+00 0 0 0
535 2 1.2304999999999998e+01 1.1366872099805333e+01 9.2335068673065699e+00 0 0 0
25 1 1.1614894833759433e+00 3.6670228702085150e-01 1.5932836948661835e+01 1 1 0
3778 1 3.9229751634713446e+00 2.3213733190908035e+00 1.2048958494821120e+01 1 1 -1
3620 1 4.1366616764710207e+00 5.1530774704337681e+00 1.1991021129252093e+01 0 1 0
2995 1 1.2221132306288855e+01 3.4641790056854003e+00 1.1953414822383509e+01 0 -1 0
1585 1 1.2663552554197559e+00 6.2430246875038273e+00 1.1781052156951834e+01 0 0 0
2368 1 3.6936894748641302e+00 8.2499658064070065e+00 1.1958744901596612e+01 1 1 0
4465 1 6.9149887707020143e+00 5.8682137837534540e+00 1.2035432243107081e+01 0 0 0
3817 1 1.0623503019311766e+01 7.1697022175734162e+00 1.2347787340448436e+01 0 -1 -1
2931 1 9.4885808385915347e+00 4.6547923690698534e+00 1.1861925737276497e+01 0 1 -1
3702 1 2.4971097861854061e+00 1.1144990748176275e+01 1.2122690865289144e+01 1 2 0
1644 1 6.6857478654405433e+00 8.7051911224095768e+00 1.1717272490124405e+01 0 1 0
4423 1 5.3220038261903913e+00 1.1259910031564537e+01 1.2220544955407508e+01 0 -1 1
1368 1 9.4236071259209755e+00 9.6396985153409869e+00 1.1990110440157236e+01 0 0 0
1573 1 1.1867231936639506e+01 4.1190509042286116e-01 1.1805704570320074e+01 0 1 0
2296 1 2.7688768250585789e+00 2.5795090957876301e+00 1.4757575992306485e+01 0 1 -1
3003 1 1.2543764415255809e+00 7.1099070207037238e+00 1.4434182070386841e+01 1 0 0
855 1 5.2086953844148365e+00 1.1536957866049919e+01 1.4822093953044345e+01 0 -1 0
2222 1 9.6762923919743997e+00 2.7595700461731312e+00 1.3956363930165642e+01 1 1 -1
2954 1 9.1470902158854965e+00 1.0047052073280225e+01 1.5772916644589671e+01 0 1 0
3092 1 1.3589824803804480e+00 1.6386939734462391e+00 1.1688387487193431e+01 -1 1 0
709 1 6.8979166807184527e+00 9.0725431699492187e+00 1.4482131998431605e+01 0 1 0
2300 1 8.6367590199627848e+00 5.1419071749335528e+00 1.5529564518784921e+01 -1 0 -1
661 1 3.3075925857756561e+00 9.1907218624658658e+00 1.4914635613424460e+01 1 1 0
1386 1 3.9368284581868700e+00 5.4017640869736079e+00 1.4824773824201282e+01 0 1 0
3807 1 6.5609745177790089e+00 6.5112354423021586e+00 1.4743404633770993e+01 0 1 0
3002 1 1.1058014619905233e+01 6.0689693722159470e+00 1.5893271874002115e+01 0 0 -1
3075 1 1.2293194031798352e+01 2.0320779415154142e+00 1.4861555942420457e+01 1 1 1
1589 1 1.0561716855167853e+00 1.1021552627034897e+01 1.4945840870440145e+01 0 1 0
2172 1 1.1966821547002416e+01 1.0475818933154347e+01 1.5436044357334797e+01 1 1 -1
3621 1 7.9288725785716281e+00 4.4166342613557785e-01 1.2612178159005857e+01 0 0 0
2870 1 8.3979619068665856e-01 4.9696498637715267e+00 1.6615517951833990e+01 1 0 -1
3150 1 1.0531832071736796e+01 1.1975456487409684e+01 1.3340076546689762e+01 2 0 1
3051 1 5.1729000233075269e+00 2.5677757187578019e+00 1.6508092732512608e+01 1 1 0
2253 1 9.4763771999818347e-01 2.2476027571168702e+00 1.7984426328147734e+01 0 0 0
79 1 6.0097848383734676e-01 1.1281625738473000e+01 1.7837062320979939e+01 0 -1 0
1518 1 8.6064089950475857e+00 8.7803000250580592e+00 3.0487444827871762e+01 0 1 0
2877 1 4.8266154261013847e+00 1.1363760509147070e+01 2.0398228224727049e+01 1 1 0
2171 1 2.1634524588994148e+00 1.1938855055937781e+01 2.3385470570556038e+01 0 0 -1
2212 1 2.8800887966728173e+00 5.7725311031698983e+00 1.8406548883648021e+01 1 0 -1
882 1 1.1586770941226522e+01 2.6341197336143165e+00 2.1432160633278940e+01 0 1 -1
4356 1 3.6482744239737372e+00 3.1969378187570388e+00 1.8880283230373315e+01 1 1 -1
1531 1 1.8546975803166379e+00 9.5306986549224035e+00 2.0776790272007688e+01 2 0 0
85 1 7.4807760523768598e+00 3.7383403350708853e+00 1.7712493254735612e+01 2 0 0
3826 1 4.5967075812299640e+00 7.6627146566281779e+00 1.7152302467129108e+01 0 1 0
3678 1 1.1013982729712612e+00 1.1911232590387932e+01 3.0592438851841550e+01 0 0 0
2231 1 9.6679226856515363e+00 4.2817211893912113e+00 2.0019126077501383e+01 0 0 0
3646 1 6.5124086664616687e+00 4.8375048242185992e+00 2.0572525571981686e+01 0 0 1
4511 1 1.0588714599751248e+00 1.5771925556073216e+00 3.0584362017520483e+01 0 1 0
2191 1 1.1526648160041978e+01 6.1764172770742469e+00 1.8879657418424031e+01 0 0 0
1512 1 6.8617815133709037e+00 7.3414782741785665e+00 1.9047419690114999e+01 1 1 -2
746 1 8.8749680244758746e+00 1.4602504742296125e+00 1.8748552526351773e+01 0 1 0
1521 1 9.2515474051717330e+00 7.9640399878676194e+00 1.7457078927520271e+01 0 1 0
4390 1 1.1138545035750832e+01 3.7353929947930249e+00 2.5586010144556091e+01 1 1 0
836 1 6.6363225092473632e+00 3.7579321611206751e-01 1.7103049865703461e+01 2 0 0
2281 1 1.7904886474483435e+00 1.6791347579551039e+00 2.1093851172377263e+01 0 1 0
3693 1 1.0779700383328906e+01 7.8820610175531662e+00 2.0987221663295529e+01 1 1 -1
1406 1 4.4694980645127247e+00 3.5322816994389514e+00 2.1463127757652138e+01 0 0 0
614 1 5.7007197779840713e+00 1.1312255482865654e+00 2.2380775566843774e+01 0 0 1
1650 1 7.7036107993729592e+00 1.5195172459857513e+00 2.4352786824026794e+01 0 1 0
2305 1 1.0267494926281945e+01 1.5856205010072777e+00 2.3801778355611809e+01 0 1 0
4464 1 5.3161870072051718e+00 1.1091108561099666e+01 2.8324942116456377e+01 0 0 0
1473 1 2.7420347148565205e+00 8.6059424530636903e+00 2.3328715123048987e+01 -1 1 0
1543 1 6.6668480783048008e+00 9.1580714961444940e+00 2.3188128545393077e+01 1 0 -1
2961 1 3.0675812670425451e+00 5.5698653351701424e+00 2.3121552923154844e+01 -1 1 0
1485 1 8.9321860980245145e+00 5.9243386351993870e+00 2.2128585270234716e+01 0 0 0
2398 1 5.4939435757607686e+00 8.6915952980665576e+00 3.0947230055171488e+01 0 0 0
1402 1 8.4942218490386856e-01 9.4709500273148706e+00 2.7483210804835188e+01 1 -1 0
2886 1 3.2814138247613887e+00 1.0020222694903113e+01 1.8456373019403841e+01 1 0 0
2142 1 4.6977174160091462e+00 1.0291785935473676e+01 2.4777311711907672e+01 -1 0 0
2986 1 1.6282873983089274e-01 5.5346775719815433e+00 3.0796119954834886e+01 1 0 -1
4520 1 6.7995377900708140e+00 9.3284260747692258e+00 2.0696950354935630e+01 2 0 -1
2173 1 3.9003501375319476e+00 1.1281573497787178e+01 3.0808772321137518e+01 0 1 0
1592 1 9.3860399286220151e+00 9.7801546187379671e+00 1.9628598908767749e+01 1 1 0
3891 1 1.1561091753901652e+01 1.1238044282154577e+01 2.7990556408326867e+01 0 0 0
4498 1 1.5476744146482284e+00 1.4842778415226945e+00 2.7642346387491656e+01 2 0 -1
3669 1 5.3377660495437385e-01 3.8620233104226442e+00 2.3013620747838615e+01 1 0 0
2922 1 4.0301714199544794e+00 2.0815373278892424e+00 2.6393865405577642e+01 0 0 1
740 1 7.1285263141321211e+00 9.6756594616112412e-01 3.0523847177182986e+01 1 0 -1
2352 1 7.6991983754929976e+00 4.1312163426665478e+00 2.5439736530331331e+01 0 1 0
2132 1 7.3343136867433687e+00 3.5419205271793759e+00 2.8181399615377032e+01 1 0 0
1488 1 4.1548660040196941e+00 4.9041144224407347e+00 2.5863643382337777e+01 2 0 0
38 1 1.0545113160060215e+00 5.3564475108232417e+00 2.5308629200695478e+01 1 1 0
1474 1 4.8905517794138220e-01 8.3644026057573893e+00 2.4942302339676480e+01 0 1 0
3815 1 2.7116885936887973e+00 7.6585303563988232e+00 2.8041416821942029e+01 1 0 0
3648 1 5.5648600230687215e+00 5.6929007379265579e+00 2.8126631435491305e+01 1 -1 0
1369 1 6.1346658612884735e+00 6.2545440948724487e+00 2.3541569854524290e+01 0 0 1
2361 1 1.1231543573027803e+01 9.3672875223174472e+00 2.3361619569128266e+01 0 0 0
2892 1 9.8637759724538050e+00 6.5295476100831520e+00 2.4931591014199611e+01 0 1 -1
678 1 9.2087196321952174e+00 9.6337260852939917e+00 2.7554057246804490e+01 0 1 0
2184 1 1.0540602093874403e+01 1.0819462450642032e+01 3.1121654130937145e+01 0 0 -1
2257 1 4.8837698217248340e+00 8.6019366360973262e+00 2.7065832750072133e+01 1 0 0
3760 1 7.2705603158394334e+00 7.2857128002322362e+00 2.6108206517626115e+01 0 0 -1
4442 1 1.2136952372529107e+01 2.3621236789347226e+00 3.0532560601836522e+01 1 -1 0
3077 1 8.7622479566448810e+00 1.0028729727711964e+01 2.4802329334831896e+01 0 0 1
1422 1 4.0020911892213169e+00 1.3568577025760633e+00 3.0973489675526253e+01 0 1 0
2362 1 6.3311923123118818e+00 7.0811500253549509e-01 2.7985780963272866e+01 0 1 1
2950 1 2.6843582749803709e+00 7.7340145568760974e+00 3.0732883310060416e+01 1 0 -1
4451 1 7.5339336714364133e+00 3.6341772162822084e+00 3.1002353118598982e+01 -1 2 -1
4368 1 1.0192537336943786e+01 4.2442223307433213e+00 3.0913613103558575e+01 -1 1 0
2205 1 1.0861437411781207e+01 7.0866306457222379e+00 2.7793129891742346e+01 1 1 0
4378 1 5.4505628347158197e-01 7.5527669141778206e+00 1.9526574670267202e+01 0 1 -1
690 1 2.1403999638734232e+00 4.3571909392540835e+00 2.8229498247835174e+01 1 0 1
1571 1 3.1676402139223807e+00 4.6040617672547404e+00 3.0965446256036721e+01 1 0 1
833 1 5.5778574570520316e+00 5.5955645159404730e+00 3.0946380350275881e+01 1 0 1
3816 1 1.0707812811084967e+01 6.9880537560716292e+00 3.0567860410395149e+01 0 1 0
4527 1 1.0129901007898736e+01 4.3742071275814673e+00 2.8237787587663284e+01 1 1 1
1654 1 2.6318303715866609e-01 9.0997262544079369e+00 3.0560566198521400e+01 1 0 0
3840 1 1.1994565269866611e+01 1.2210773898350112e+01 2.3787476325208821e+01 1 -1 1
1612 1 3.3352766428714862e+00 1.1218086099731295e-02 2.2964503737775601e+01 0 1 0
132 2 0.0000000000000000e+00 1.2787731112280996e+01 3.2004750728614590e+00 0 0 0
134 2 1.2305000000000001e+00 1.3498160618518829e+01 3.2004750728614590e+00 0 0 0
169 2 2.4610000000000003e+00 1.2787731112280996e+01 3.2004750728614590e+00 0 0 0
171 2 3.6915000000000004e+00 1.3498160618518829e+01 3.2004750728614590e+00 0 0 0
130 2 0.0000000000000000e+00 1.5629449137232333e+01 3.2004750728614590e+00 0 0 0
165 2 1.2305000000000001e+00 1.4919019630994494e+01 3.2004750728614590e+00 0 0 0
167 2 2.4610000000000003e+00 1.5629449137232328e+01 3.2004750728614590e+00 0 0 0
210 2 3.6915000000000004e+00 1.4919019630994494e+01 3.2004750728614590e+00 0 0 0
214 2 4.9220000000000006e+00 1.2787731112280996e+01 3.2004750728614590e+00 0 0 0
216 2 6.1524999999999990e+00 1.3498160618518829e+01 3.2004750728614590e+00 0 0 0
261 2 7.3829999999999991e+00 1.2787731112280996e+01 3.2004750728614590e+00 0 0 0
212 2 4.9220000000000006e+00 1.5629449137232333e+01 3.2004750728614590e+00 0 0 0
257 2 6.1524999999999990e+00 1.4919019630994494e+01 3.2004750728614590e+00 0 0 0
259 2 7.3829999999999991e+00 1.5629449137232333e+01 3.2004750728614590e+00 0 0 0
263 2 8.6135000000000002e+00 1.3498160618518835e+01 3.2004750728614590e+00 0 0 0
308 2 9.8440000000000012e+00 1.2787731112280996e+01 3.2004750728614590e+00 0 0 0
310 2 1.1074500000000002e+01 1.3498160618518829e+01 3.2004750728614590e+00 0 0 0
304 2 8.6135000000000002e+00 1.4919019630994494e+01 3.2004750728614590e+00 0 0 0
306 2 9.8440000000000012e+00 1.5629449137232328e+01 3.2004750728614590e+00 0 0 0
346 2 1.1074500000000002e+01 1.4919019630994494e+01 3.2004750728614590e+00 0 0 0
161 2 0.0000000000000000e+00 1.7050308149707998e+01 3.2004750728614590e+00 0 0 0
206 2 2.4610000000000003e+00 1.7050308149707998e+01 3.2004750728614590e+00 0 0 0
159 2 0.0000000000000000e+00 1.9892026174659328e+01 3.2004750728614590e+00 0 0 0
163 2 1.2305000000000001e+00 1.7760737655945832e+01 3.2004750728614590e+00 0 0 0
202 2 1.2305000000000001e+00 1.9181596668421495e+01 3.2004750728614590e+00 0 0 0
204 2 2.4610000000000003e+00 1.9892026174659328e+01 3.2004750728614590e+00 0 0 0
208 2 3.6914999999999996e+00 1.7760737655945832e+01 3.2004750728614590e+00 0 0 0
249 2 3.6914999999999996e+00 1.9181596668421495e+01 3.2004750728614590e+00 0 0 0
253 2 4.9220000000000006e+00 1.7050308149707998e+01 3.2004750728614590e+00 0 0 0
300 2 7.3830000000000009e+00 1.7050308149707998e+01 3.2004750728614590e+00 0 0 0
251 2 4.9220000000000006e+00 1.9892026174659328e+01 3.2004750728614590e+00 0 0 0
255 2 6.1524999999999999e+00 1.7760737655945832e+01 3.2004750728614590e+00 0 0 0
296 2 6.1524999999999999e+00 1.9181596668421495e+01 3.2004750728614590e+00 0 0 0
298 2 7.3829999999999991e+00 1.9892026174659328e+01 3.2004750728614590e+00 0 0 0
342 2 9.8440000000000012e+00 1.7050308149707998e+01 3.2004750728614590e+00 0 0 0
376 2 1.2304999999999998e+01 1.7050308149707998e+01 3.2004750728614590e+00 0 0 0
302 2 8.6134999999999984e+00 1.7760737655945832e+01 3.2004750728614590e+00 0 0 0
338 2 8.6135000000000002e+00 1.9181596668421495e+01 3.2004750728614590e+00 0 0 0
340 2 9.8440000000000012e+00 1.9892026174659335e+01 3.2004750728614590e+00 0 0 0
344 2 1.1074500000000002e+01 1.7760737655945835e+01 3.2004750728614590e+00 0 0 0
372 2 1.1074500000000002e+01 1.9181596668421495e+01 3.2004750728614590e+00 0 0 0
196 2 0.0000000000000000e+00 2.4154603212086325e+01 3.2004750728614590e+00 0 0 0
198 2 0.0000000000000000e+00 2.1312885187134999e+01 3.2004750728614590e+00 0 0 0
200 2 1.2304999999999993e+00 2.2023314693372832e+01 3.2004750728614590e+00 0 0 0
241 2 1.2304999999999993e+00 2.3444173705848499e+01 3.2004750728614590e+00 0 0 0
243 2 2.4610000000000003e+00 2.4154603212086325e+01 3.2004750728614590e+00 0 0 0
245 2 2.4610000000000003e+00 2.1312885187134995e+01 3.2004750728614590e+00 0 0 0
247 2 3.6914999999999996e+00 2.2023314693372832e+01 3.2004750728614590e+00 0 0 0
288 2 3.6915000000000004e+00 2.3444173705848499e+01 3.2004750728614590e+00 0 0 0
290 2 4.9220000000000006e+00 2.4154603212086325e+01 3.2004750728614590e+00 0 0 0
292 2 4.9220000000000006e+00 2.1312885187134995e+01 3.2004750728614590e+00 0 0 0
294 2 6.1524999999999990e+00 2.2023314693372832e+01 3.2004750728614590e+00 0 0 0
330 2 6.1524999999999999e+00 2.3444173705848499e+01 3.2004750728614590e+00 0 0 0
332 2 7.3830000000000009e+00 2.4154603212086336e+01 3.2004750728614590e+00 0 0 0
334 2 7.3829999999999991e+00 2.1312885187134999e+01 3.2004750728614590e+00 0 0 0
336 2 8.6135000000000002e+00 2.2023314693372832e+01 3.2004750728614590e+00 0 0 0
364 2 8.6134999999999984e+00 2.3444173705848499e+01 3.2004750728614590e+00 0 0 0
366 2 9.8440000000000012e+00 2.4154603212086336e+01 3.2004750728614590e+00 0 0 0
368 2 9.8440000000000012e+00 2.1312885187134999e+01 3.2004750728614590e+00 0 0 0
370 2 1.1074500000000002e+01 2.2023314693372832e+01 3.2004750728614590e+00 0 0 0
390 2 1.1074500000000002e+01 2.3444173705848499e+01 3.2004750728614590e+00 0 0 0
133 2 0.0000000000000000e+00 1.2787731112280996e+01 6.2169909700837076e+00 0 0 0
170 2 2.4610000000000003e+00 1.2787731112280996e+01 6.2169909700837076e+00 0 0 0
442 2 0.0000000000000000e+00 1.2787731112280996e+01 9.2335068673065699e+00 0 0 0
443 2 1.2305000000000001e+00 1.3498160618518829e+01 9.2335068673065699e+00 0 0 0
461 2 2.4610000000000003e+00 1.2787731112280996e+01 9.2335068673065699e+00 0 0 0
462 2 3.6915000000000004e+00 1.3498160618518829e+01 9.2335068673065699e+00 0 0 0
131 2 0.0000000000000000e+00 1.4208590124756663e+01 6.2169909700837076e+00 0 0 0
166 2 1.2305000000000001e+00 1.4919019630994494e+01 6.2169909700837076e+00 0 0 0
168 2 2.4610000000000003e+00 1.4208590124756663e+01 6.2169909700837076e+00 0 0 0
211 2 3.6915000000000004e+00 1.4919019630994494e+01 6.2169909700837076e+00 0 0 0
441 2 0.0000000000000000e+00 1.5629449137232333e+01 9.2335068673065699e+00 0 0 0
459 2 1.2305000000000001e+00 1.4919019630994494e+01 9.2335068673065699e+00 0 0 0
460 2 2.4610000000000003e+00 1.5629449137232328e+01 9.2335068673065699e+00 0 0 0