LAMMPS data file via write_data, version 29 Oct 2020, timestep = 300642

3155 atoms
1 atom types

0.0 49.22 xlo xhi
0.0 49.019635930410494 ylo yhi
-0.1545232454233556 40.15452324542589 zlo zhi

Masses

1 18.015

Atoms # atomic

2838 1 2.5784936700201193 1.9615239634187023 5.390073773096494 1 1 1
604 1 4.238377988067874 22.788361019795328 18.805268303881792 0 0 0
1815 1 9.238019302283554 1.1393862029020945 1.100459052597242 1 0 0
79 1 21.10378529613215 22.911088501953554 9.862825455665675 0 0 0
626 1 14.85928439146352 0.919620072930887 0.6581628187057564 0 0 1
711 1 0.8325456951103031 5.1500269618924595 7.429853138871085 0 0 1
2327 1 8.698063395284569 22.453530118177962 13.171829520116692 0 -1 0
317 1 19.0617391572668 23.791878849245695 0.7366764906458888 0 0 0
2318 1 1.7033605851064764 3.49034570166695 3.3350194166820253 0 0 1
1365 1 4.45187087231218 2.1332991754574553 2.423434183167247 0 1 1
3032 1 12.0131038579802 23.385268756845242 13.913818526080936 0 0 1
1776 1 1.4535233331886908 17.199276694177755 0.994230597489227 1 0 0
2894 1 12.970660107043456 3.253687837797589 2.9548934175825963 0 0 1
200 1 16.02086290501495 5.400969214558499 2.0354244429945085 0 0 0
34 1 19.584000634069785 7.74206499332345 2.275242519263806 0 0 0
284 1 22.16962898359903 5.630649812031545 1.5659052312987012 0 0 0
621 1 0.5084363727434048 15.162611387356497 19.587808882718306 0 0 0
1349 1 1.8610594933847122 6.442076455828611 3.319313251967909 0 0 1
1393 1 4.0807707965493085 4.827914966696362 1.492954378306943 0 0 1
1271 1 5.520788965827826 6.426389741490926 3.0136750477617062 0 1 1
3094 1 8.404676518922619 6.071954260352973 3.130851789864225 1 1 1
1191 1 10.611653184441668 7.072438146645923 1.264619862627267 0 1 0
3080 1 24.075276005584943 9.676462068114297 5.530907701958889 0 0 0
1000 1 12.75964966477499 8.297949166784207 2.5371091114153907 0 0 0
1208 1 17.798254071780168 8.720452537484876 0.5586637818350253 0 1 1
1626 1 18.033900738118735 7.7513949983833195 4.828465148341481 0 0 0
3141 1 8.760802325814195 4.012265239804527 0.857829380931941 1 0 1
2580 1 1.5246487928542267 9.162123378135023 1.9503495979430803 0 0 0
1760 1 4.504907341608642 8.815723670060885 2.634762783624945 1 1 0
2082 1 16.948069110886248 2.0023697063315815 18.73407581233376 0 0 1
806 1 14.2493134831991 10.528429220860206 1.616966768302078 0 1 0
1386 1 18.362379613300018 11.084891655873621 1.8495248128535546 0 0 1
473 1 20.307732759064027 10.967696383272651 4.283360044983906 0 0 1
3026 1 0.3455993049305722 13.777931431587163 0.003072179748050812 1 1 1
2976 1 24.442116620752557 21.49172319060139 12.202681566175773 0 0 1
2829 1 15.020996211316287 7.980056656287715 0.6931937662295502 1 1 1
1284 1 3.151322671259872 12.297899870881498 4.830530066180795 0 0 1
577 1 24.120228140320506 24.088059368285347 19.643604833602666 -1 0 0
1277 1 16.151491914559866 11.741058610510066 3.3715987055074756 0 0 2
781 1 17.621092639169873 14.605861322336974 2.647358821045032 1 1 0
143 1 22.336631101682144 13.903299577075543 2.364965142637081 0 0 1
910 1 0.38152689401613127 23.206375478640215 18.57425482491368 0 0 0
761 1 3.425797847892994 15.040676435037543 4.067140338681174 0 0 0
1895 1 3.4507563008982434 15.006636205631505 1.0711845319001336 1 0 0
399 1 5.91641988159073 16.229577109739086 1.0310880351898333 0 0 1
623 1 0.6757357125993667 7.199391795832205 11.445455372009592 0 0 0
44 1 9.659643272991081 16.044841090382615 2.801622658523183 0 0 0
435 1 12.001229753719056 17.456345827083187 4.15404887307525 0 0 1
840 1 14.003871564006294 17.801000241249557 2.284630078164296 0 0 0
2375 1 16.99137813614655 17.364714016302184 2.974650132863545 0 0 1
1157 1 18.753184884650228 19.100105437613912 1.1399887471334587 0 0 0
1061 1 22.708079149522508 0.07488858886800771 12.652505107993347 0 1 0
1115 1 3.2222785682285693 19.151246525654276 2.401718498977572 0 0 0
821 1 6.054227225110974 20.086041161621605 17.385363975264347 0 0 -1
828 1 7.204006476079116 20.339276342558893 1.4937025177420695 0 0 0
1440 1 10.190876976428275 19.134056995007082 2.223011054824203 0 0 1
2242 1 13.929005277331873 19.819850921135522 0.3957006650346316 0 0 1
1387 1 17.403179714629086 21.664249259019964 1.805185960590207 0 1 1
1155 1 21.3104024475924 19.308529744687267 2.729004260802279 0 0 0
113 1 22.49620681987668 21.78671468129849 1.8608531756719386 -1 0 0
1988 1 2.6991074992539996 22.468257745826904 2.863707970556293 1 0 1
2971 1 0.961137178870445 24.499358994751418 2.23048517775463 1 1 1
2184 1 4.760597081617743 23.836421241134076 1.3708214473358749 1 -1 0
749 1 1.9413941312408414 6.480182743220195 0.04537596331461185 0 1 1
593 1 4.76729172602212 23.97621859715482 15.978349827143203 0 0 0
2101 1 11.114045413205458 23.8041237776372 3.359686851677584 1 0 1
1375 1 6.7829430162376045 12.54229523804074 0.8807141817929954 0 0 1
418 1 18.500827187942228 22.89435582087119 4.311669934935467 0 0 1
1411 1 15.425853108008138 10.572823761156474 19.08956313807603 0 1 1
1716 1 1.4046646128046676 2.514042403827146 7.73566651474591 1 0 0
1532 1 5.146425910598555 2.6524082511144367 6.704186955964987 0 1 1
3089 1 23.671571448309738 18.90641443750031 12.086680037258864 0 0 0
669 1 4.3086072682097845 0.25437682732333167 18.454410178847876 0 0 0
178 1 10.782610884684 2.640794903077263 4.503548487396124 1 0 0
1319 1 18.32604070392761 2.2808341381305435 3.5855021070938817 0 1 1
3117 1 21.00523503206852 0.8982582366736346 2.7521226061344963 0 1 1
968 1 19.598147085579924 3.20991096189066 -0.13063914925979522 0 0 0
2863 1 5.328531132214109 5.324952487432098 5.729846559094995 1 1 1
2870 1 6.667158473865048 1.8629323996180527 4.400816917452661 1 1 1
3151 1 8.519501556466226 4.056683140621162 4.8938278546717315 1 1 1
1734 1 16.538109899627802 4.631335380337342 7.095797218857491 0 0 1
240 1 18.728782458137502 4.909414826228712 2.14132323396466 -1 0 0
667 1 18.422672595082073 6.60156447019047 7.365536906658597 0 0 1
1677 1 20.679757855679103 5.026813702893781 4.358126432682561 0 0 0
595 1 9.5120808867614 0.37748417741751544 3.777089459569059 0 0 1
385 1 2.7113823417736365 6.688678708832513 5.912402107240085 0 0 0
1889 1 11.64280371233269 4.581535627159819 0.7930316658608738 1 0 1
1824 1 8.538928120004444 4.894540575015084 7.871152296136786 1 0 0
2014 1 9.397035875900956 7.659424631804938 6.836879160103346 0 0 1
1984 1 14.986052027707409 4.946260320826279 4.592313850503802 1 0 1
2911 1 14.026969390011244 7.340180047328911 4.976751841453315 1 1 1
929 1 16.009657569320883 9.324448828993159 4.957176318726935 0 1 0
1903 1 21.971910950759625 6.510475892813861 7.231295766219307 0 0 0
916 1 24.159134496188493 7.577177692139227 2.2321682580219617 0 1 0
2969 1 0.9394765590993351 9.461762771883414 6.18072473660818 1 1 1
90 1 5.786229729073132 10.28214833778876 4.725265677704061 0 0 0
2700 1 8.467817062198657 8.549567897064446 4.45386099852596 0 1 0
2431 1 10.910010485358605 9.935231721258846 3.815290708091202 1 1 0
1282 1 16.117542316299875 11.021597858667462 7.262314431159944 0 1 1
253 1 18.83010669239278 13.051195034587165 6.370641195964275 0 0 0
1255 1 21.12796094750465 8.002394292668228 5.009133112148426 0 1 0
2439 1 1.7659298328928859 0.14313385794898892 0.40359781932469896 1 1 1
767 1 0.6817923639863814 11.132588821591957 3.9744766850970032 0 1 0
1209 1 3.1006798478870397 12.945497181292183 7.559231374401054 0 1 1
1905 1 6.1611047248314 12.647436120319032 3.549126933221206 1 0 1
1928 1 6.102606870028446 15.432438601963623 5.043342288228074 1 0 0
2193 1 10.426019544388504 12.576844702700878 3.0305506532882003 1 0 1
384 1 8.494663533371229 14.267816056101655 4.5604080604249155 0 0 0
211 1 12.96708035432266 12.905002719408865 2.815478692310108 0 0 0
521 1 13.700779118761538 13.150007369413856 5.757623961005616 0 0 0
1571 1 16.51868231601031 13.768640486875157 5.411646427282411 0 0 0
985 1 21.047621611649316 10.273450308057166 0.4052764983512165 0 1 0
2419 1 2.679576249911427 16.336959017994353 6.672699120312273 1 0 0
1470 1 7.361681249999366 17.660605042278828 2.724390760012236 0 0 1
1049 1 12.546299127899958 15.386436038410338 6.182530592175735 0 0 0
2103 1 16.563021607306556 16.498215382230658 6.297812068974505 0 0 1
2215 1 17.401080285554336 19.53695337856714 6.586360062493797 0 0 1
1179 1 19.20614827755317 17.373562804857215 4.811824335983552 0 0 0
1783 1 21.82972028969046 16.555298287247087 5.632592338525322 0 0 0
2151 1 4.5326039306914065 18.228389391686296 4.674478969392347 1 0 1
2139 1 7.490384489809894 18.432302569773167 5.672012410277136 1 0 1
2832 1 9.496076490317305 22.515557538337614 5.413330387273818 0 0 0
3064 1 12.332365101945097 21.085355055310153 3.1530345032182248 0 0 1
85 1 10.05231689175492 20.03440648998289 5.196990143814685 0 0 0
1768 1 13.316483932021532 19.84982069440723 5.847120120837904 0 0 1
341 1 15.709598304103022 19.16672417820213 4.469820488271861 0 0 0
1083 1 19.82216790762237 20.281600142541574 4.871694034151088 0 1 0
2852 1 3.854973849628072 22.53877450730364 5.469003816937052 1 0 0
2734 1 6.764383437511291 23.062442730837173 5.153953822041354 1 0 0
2350 1 7.167304318682827 22.94108101867743 2.2540339184740037 1 0 1
24 1 15.23607987762166 21.81883999779862 3.6326061733817188 0 0 0
2603 1 16.121051917252522 23.754653413041268 5.418399319873742 0 0 0
334 1 20.974593154774706 23.72521855041926 3.0546892664699663 0 0 0
1951 1 22.798798217415627 23.287964406568236 5.278320686145017 0 0 0
2711 1 5.206590201371842 23.78578477726406 13.136385306556445 0 0 0
3133 1 2.954758063038964 1.5541205316804 9.96209854435642 1 1 1
194 1 5.74501550300043 1.1513411274555205 10.493475100339131 0 0 0
2854 1 11.141731913000585 2.816398826958193 7.251503004632503 0 1 0
555 1 9.890841252240714 1.0388519984778262 9.172675958189824 0 0 1
3073 1 13.81585890766923 2.3799815839321545 7.873580168822305 0 1 0
1845 1 18.21067558162498 1.3191018142524982 9.38270368391012 1 0 0
2744 1 18.137009046935347 2.2853882022169834 6.639481262666594 0 1 0
2587 1 21.875779714862055 0.9998592718412527 5.3184945380549715 0 1 0
2016 1 24.426294357545274 3.824281399814815 9.55360104502607 0 0 0
1154 1 6.312727566080897 3.6908522020029237 9.476274855987883 0 1 0
2931 1 8.605307240466455 3.2206330746994047 10.822817314851536 1 1 1
1934 1 11.356729763371154 5.345704980023567 8.81263620332449 0 0 0
548 1 14.23001147069967 5.22496814331493 8.41400993136687 0 0 1
728 1 20.830392495303425 3.147143038740371 6.544500914288171 0 0 0
1171 1 23.498950681298357 4.160889964717416 7.168085541765873 0 0 1
2265 1 6.135916490998247 6.836072571119221 8.071450420812186 1 0 1
1529 1 6.00980716189859 10.135328243004137 8.909530077927485 0 1 1
573 1 12.314686087588285 7.790778861690539 7.163232440006873 0 0 1
972 1 17.46803219733898 8.806186969505708 8.81982908307595 0 1 0
22 1 15.26585673448243 7.4115766636332605 9.985726364486021 0 0 0
2073 1 20.472432379677475 5.115082781175699 8.781367464912869 0 0 1
2346 1 2.0323537006738635 9.852886342897808 11.079416258957655 1 0 1
450 1 4.614063347032689 8.873447701738746 6.751651057843912 0 0 1
382 1 8.698353930736925 9.716569892560393 8.601187979159118 0 0 0
1628 1 13.314116583211186 9.036219400458753 9.379828870652164 1 0 0
47 1 11.558394850565627 10.634023521543215 6.389676489488145 0 0 0
94 1 17.516857914542914 9.949305702620036 11.428748913511267 0 0 0
1663 1 19.08146804316397 11.498141738074422 8.892401459246672 0 0 0
870 1 22.925631617168975 12.78089275085731 9.740570034790085 -1 0 0
41 1 0.6290209740423022 14.414169272527632 8.127078923792613 0 0 0
66 1 2.7929213515396887 10.320259703460858 8.261247904260209 0 0 0
1676 1 9.805453390435156 12.18739245094901 8.384129433805779 0 0 0
2020 1 9.811235049231827 14.594268141472256 6.872980309721055 1 0 1
3102 1 14.206620778697335 15.791644782234181 8.343371468931844 1 1 1
532 1 13.865117067074296 11.43520731497458 8.515563395612476 0 0 1
257 1 18.925332624287947 13.060823232495304 11.274582991273602 0 0 0
1299 1 20.88915726625524 14.699424216790847 10.06119550389482 0 1 0
715 1 4.2767620809487505 16.254708174856464 9.097284677645943 0 0 1
466 1 5.379914018668729 14.393075397393813 7.505089549425862 0 0 1
1766 1 8.91333109511464 17.48501080254453 8.064650802944799 1 -1 0
2402 1 13.346200416208566 18.070417739754166 9.438672006121225 0 1 0
1642 1 17.9414522328267 17.33215870033911 8.736961330881778 0 0 0
1947 1 20.548060395746234 16.775123138960073 8.051416808207936 0 0 0
33 1 7.670255792237416 17.82289865342239 17.563773322942094 0 0 -1
1767 1 3.1891338434669794 19.319528654490462 6.777771952554734 1 -1 0
144 1 0.8225365566177854 20.866179251198556 6.594413778419802 0 -1 0
2609 1 5.911060153718049 20.755571257620616 6.698107396881783 1 0 0
1394 1 5.738823134658613 21.669161142298904 9.425281197551167 0 1 0
2990 1 11.160591609808781 18.91140860383117 7.705179175206158 0 0 1
3113 1 11.194691180813383 21.334650016444243 9.020976067979532 1 0 1
3052 1 15.817940443313525 19.31573053697624 9.968089814326655 0 0 0
276 1 21.360897695336927 19.385607481512434 9.038754900933649 0 0 0
1279 1 21.455100111061547 21.05323686451729 6.872390886332707 0 0 0
1456 1 15.080467157597916 22.194679377617398 19.941076674057925 0 0 0
3154 1 1.7937041244695289 23.445992672049986 6.718954187807545 1 1 0
69 1 3.883083637553741 23.647514160734 8.885367563634526 0 0 0
692 1 1.7169492577188092 3.0381206110208434 11.64764090186625 1 0 0
86 1 15.082201562683995 24.468466903310315 12.691476285411392 0 0 0
2239 1 10.469953641819975 23.69502070737978 7.834133781961853 1 0 1
1129 1 14.442369306930651 22.24886883136206 7.088674435502096 0 1 0
2825 1 13.78147866394381 22.455816861491527 9.873466726324612 1 0 0
1289 1 16.643185322395762 21.716003414932697 8.37373134428251 0 1 1
1974 1 19.3738945912474 22.69592529450346 7.345037223895771 0 0 0
1651 1 9.236205803224905 24.27790431652433 1.226845573602063 1 -1 0
2883 1 24.403436129144758 23.67178628061764 1.6946177518739876 1 0 1
1395 1 5.99728956185358 1.6831116158006292 13.27199673076895 0 1 0
492 1 8.603979751398489 2.3522448967934086 13.81749624865327 0 0 0
990 1 10.494735680109718 18.043793364715814 17.910704286067293 0 0 0
841 1 13.109089993140394 0.6134128247197945 9.859265980836046 0 1 0
1257 1 21.022969046212094 1.2241341571939284 10.646931971077729 0 1 0
654 1 15.83318553949664 7.965555114068705 19.228930004524518 0 0 0
2768 1 0.8531558630310236 0.2649114429207822 13.737866333555024 1 1 0
1714 1 2.7991890389021954 2.1741813433771826 14.365982848743393 1 0 0
678 1 2.5045397353770937 5.323414932674171 12.123514923693477 0 0 1
1065 1 5.284241128081445 4.3365317385863085 13.893253920806002 0 1 0
730 1 10.388905711474324 5.361642876613367 11.50754146013994 0 0 0
177 1 12.674378095480574 5.219069983457606 13.05017688820722 0 0 -1
182 1 14.269692833676554 1.8099801840206124 12.10628337399229 0 0 0
3020 1 15.56570845334412 4.157514474622481 10.797656110669163 1 1 0
2368 1 18.352020899420943 3.6118156906976937 11.35929128872293 0 0 0
3029 1 22.118633074051647 3.614832016851909 10.64437089263799 0 1 0
2090 1 22.70437742887335 4.874151781271862 13.327954740986282 0 0 0
181 1 5.083571248171174 5.532480188361151 10.847322630899326 0 0 0
633 1 8.13609173585323 9.619126779844693 12.519866431546543 0 0 0
520 1 13.9718741269375 9.007397434281255 12.666429325759276 0 0 0
377 1 9.605224982491864 8.351338119509148 10.782086388100076 -1 0 0
726 1 19.811861025889712 6.117673728538323 11.842427431007788 0 0 0
443 1 21.846163135341325 9.801773404289435 11.875588589693269 0 0 0
2310 1 22.511178604245195 6.862280008301523 11.717133802907844 0 0 1
2530 1 3.556324329909535 8.133498164011653 13.224254607608543 1 0 0
2862 1 5.562997725694999 8.490943665365013 11.047066414978499 1 1 1
1140 1 6.835116667350724 12.376711204738355 14.521220117637895 0 1 0
922 1 11.699456874603486 9.812144107845876 11.41281854611588 0 1 0
884 1 11.269951319777773 12.614244676492614 10.740312186145106 0 0 0
2063 1 19.60994636088974 10.239854627944892 13.297899699744574 0 0 0
2753 1 16.366263253041566 9.426965695866478 15.070738343957753 0 0 0
340 1 21.64549047059165 10.413875986576484 9.257657089388136 0 0 0
393 1 22.752582455115906 12.657364743150627 12.581746963338965 0 0 0
2917 1 0.9501411660475667 13.371455279933999 12.493795148699197 1 0 0
509 1 3.4425165669253115 11.879778478081153 12.866674477539345 0 0 1
971 1 6.224606370401933 11.877137711353136 11.800247980388963 0 0 0
776 1 7.233852216750996 12.910356472877249 8.861860426991214 0 0 0
2313 1 9.443280491658895 12.406139451978735 14.689820058501422 1 0 0
2285 1 15.321288102819397 11.405247610084851 11.860302931554191 0 0 1
2839 1 13.974754939317066 13.759427638606352 10.309175590972934 0 1 1
682 1 16.748565290802244 14.519168981881284 11.045391694811759 0 0 1
1708 1 20.316365202209195 13.264552168325027 13.824973018947835 1 0 0
2198 1 21.05753032832484 15.932083848476855 12.51674513171997 1 0 1
1150 1 4.790954058815207 20.107490759108398 0.25577514617633307 0 0 0
2326 1 1.9704762716481612 14.99088785268196 10.323280186698364 1 0 1
628 1 7.407111325229053 14.890676260908284 11.113292196841442 0 0 0
293 1 12.675678625491038 17.73839801412042 12.24543821338979 0 0 0
409 1 15.065838662721188 17.351597039695335 13.93010513049588 0 0 1
336 1 17.335968613628765 17.32597169906559 11.437172320066916 0 0 0
1317 1 16.245322729274847 14.677557345987939 13.971707644588832 0 1 1
1332 1 19.334289549882723 18.158456448947177 13.485872142556948 0 0 1
1226 1 20.01675290461996 19.29560401181457 15.849381680142297 0 0 0
448 1 2.2031747799354404 21.38304999070865 10.164362653303913 0 0 0
2440 1 2.5819727548477696 17.963551533324384 11.917094088990902 1 0 0
1248 1 4.284866429224793 19.092596306094258 9.575190008978696 0 1 0
588 1 6.968508743171355 17.530419412500816 10.036860372579909 0 0 1
2301 1 12.364885041942037 20.297176916844187 13.082916596074725 0 0 1
109 1 20.97528094201264 19.97423511750987 11.931295018004809 0 0 0
1409 1 22.79639020472526 9.78865220172395 3.1077125725178085 0 0 0
905 1 15.959136874164734 14.685259093002676 -0.02827356509584278 0 0 0
470 1 6.700120298769908 21.420712779273966 14.58046431133605 0 0 1
2002 1 2.156197872361233 8.035508188104977 15.887814004201672 1 0 1
1657 1 17.57280635544577 18.807684564137162 16.885771726489146 1 0 0
2136 1 10.16997495227752 20.619974994395676 11.64256567247827 0 0 0
290 1 16.889865532878652 23.165737444830512 10.912723981492391 0 0 0
2532 1 19.44480894874078 22.575477082829266 12.212343130324344 0 0 0
565 1 14.021670266754297 0.3233657881650154 5.793533645881737 0 0 1
1562 1 24.12004452301921 22.931690845645804 9.969912947168767 0 0 0
1128 1 9.961596364862363 0.3283024428581138 12.35832882819754 0 1 0
251 1 5.012844570478384 10.340217753302069 0.3687606828900219 0 0 1
576 1 3.064852398629128 2.4578102093113934 17.528102788884723 0 0 1
2280 1 14.984023553139044 19.4166852105777 18.04791231873985 0 0 0
3111 1 12.957147711397063 2.6002047850912953 14.755234451818673 1 0 1
2777 1 10.659371208957436 3.8183515359107325 15.802831759668763 0 1 0
1592 1 24.55058936044395 3.2067076868120745 16.42589620141293 0 0 0
755 1 19.203445279974044 0.24674677578555382 12.882476079325258 0 0 0
1989 1 8.407760944987324 15.186916109140938 -0.026138579021462056 0 0 1
2573 1 7.929910837259342 24.23766327221665 8.96072401795984 1 0 0
229 1 4.464137948069524 4.664246237288727 16.622283023184213 0 0 0
226 1 8.185552816534381 5.187463683775063 14.183247418775103 0 0 0
463 1 7.3537120218067775 3.759916184054812 16.789752738993414 0 0 0
2886 1 12.26191312362836 6.351815484643318 15.579211695323167 0 0 0
386 1 15.121503553402029 6.152734729685114 12.715655158482404 0 0 0
1711 1 17.11338396425835 5.547292951890024 14.925020699306128 0 0 0
175 1 20.146889598364147 2.9110593958136732 13.62415785985993 0 1 0
1979 1 21.06865465741871 4.465986704837249 17.316161771300163 0 0 0
1189 1 22.01742239819306 1.9443870295426946 15.880260018925203 0 1 1
285 1 9.821493020736536 23.110272728743286 19.235549429548364 0 0 0
708 1 2.1790470123298498 5.175884228845065 14.978728995520298 1 0 1
1326 1 5.203738558588757 7.422411774695511 17.45924368975449 0 1 1
8 1 7.056778850379489 7.869520151859708 14.274295266380854 0 0 0
1022 1 9.234380237557996 9.509264103834912 17.904661596909836 0 1 0
1803 1 9.724425605747001 7.4197639690779535 15.964575438945365 0 0 0
1904 1 18.863490876202768 7.348860025347778 14.191206245331239 0 0 -1
651 1 21.316619216969194 6.519069741943608 15.381785316735328 0 0 0
1611 1 23.81292315200644 7.814011279191472 15.69395146084478 0 -1 0
1474 1 3.3927125320916254 10.718757998284717 15.695033305787732 0 1 0
2598 1 5.761914474175969 9.766552781422368 16.108954842576892 1 1 0
3011 1 11.103656404029977 10.724957890145182 19.662836090113107 0 0 1
1804 1 10.390358350817754 9.972273325883986 14.367383732330044 0 0 0
1684 1 13.156342234498691 9.078078050450396 15.577839356931962 1 0 -1
2026 1 19.143701279599025 9.89934352887465 16.18625316590594 0 0 0
486 1 20.938704150585867 11.919854205308058 16.29368257818499 0 0 0
1557 1 23.61912656021348 10.779446532450459 15.7060880020259 1 0 0
1648 1 23.74069033415488 9.997742441041527 18.32097108141382 0 0 0
298 1 21.95309037525737 8.349513009246891 19.768888525634452 0 0 -1
2260 1 4.668295420165623 14.748946820974274 11.960360832271272 1 0 0
2921 1 5.745054173681106 14.784896165283953 15.537521286270538 1 0 0
2423 1 13.134692825132163 13.408124039869861 16.431943244938342 1 0 0
2370 1 10.522102063368308 13.793481389333722 16.85169440833718 1 0 0
1619 1 15.110742318339303 12.007337491710208 14.673583438227604 0 0 0
3103 1 0.5198099562396995 2.5688441357321614 1.039312771464447 1 1 1
2189 1 3.459560303669802 17.91433999970671 16.155388712085855 0 -1 0
574 1 4.169663806949522 16.733522660248138 13.737528922148476 0 0 0
2380 1 9.623968267944607 14.269287490529244 12.47823104126279 0 1 0
111 1 10.071160336819318 16.91068108517936 13.236131897703597 0 0 0
583 1 11.068217057274271 16.34205582331202 15.791493659013822 0 0 0
98 1 13.679690487442693 17.76304500390345 16.342026063143482 0 0 0
2538 1 18.611783579925632 16.315812258801483 17.22512570805277 0 0 0
2505 1 18.600937764832377 15.321962990826306 14.670687224784198 0 0 0
765 1 23.449482663246084 18.46107409306551 15.629558603568235 0 0 0
2117 1 4.325872278705489 0.18313887039887078 15.488671574162481 1 0 1
2510 1 3.6879894392732835 21.026531904088454 15.576310652178586 1 0 0
2096 1 8.251456518706103 18.819116327611983 12.186917172966142 1 0 1
88 1 6.270130825447533 18.570264405366693 14.067329392693102 0 0 -1
1756 1 14.866909300026874 21.204429283063178 12.248145127255178 0 0 -1
1124 1 16.878577809314876 19.606268507235264 14.205201777565897 0 0 0
624 1 20.257292631931538 22.06595208766641 14.645608110750745 0 0 0
1005 1 23.424556173918727 20.98834466146241 16.535510899890223 0 0 0
963 1 0.11317873413052837 16.99207413742549 10.823677698333583 0 0 0
233 1 21.44152744733514 13.835963628762675 5.052538353232398 0 0 0
485 1 24.029473727632407 16.46910946223075 13.114798111845214 0 0 1
2845 1 2.4275647865396666 22.241253125939167 12.947398308905465 1 0 0
2736 1 9.83508973920203 22.17737787548457 15.860453907763196 0 0 -1
2144 1 11.957603590296028 20.245969453629527 15.863818705858666 0 0 1
2657 1 15.798160935041452 22.57594696699605 14.975110176821241 0 0 0
107 1 18.13466447466642 23.81963863712684 15.737537874039372 0 0 0
1401 1 0.8506265809764717 18.43064481967544 16.03907398989347 0 0 1
1623 1 23.24504358470696 23.148264001355233 14.333708020623188 0 0 0
1206 1 24.368316021266857 11.77445643146873 1.7712066358501188 -1 1 0
1495 1 24.129089201870343 18.79417706611777 9.272502492788815 0 0 1
278 1 6.917166688988126 1.527902825770075 18.89122012238766 0 0 0
1481 1 14.349070344822238 2.566606243029929 17.549883898066778 0 1 0
1659 1 16.33185088515795 1.3981091458945325 15.625501741377755 0 0 0
227 1 20.067707263457244 1.1736570720382553 17.61640680083671 0 0 0
215 1 12.518712988777668 24.371067122288576 17.189683883022884 0 0 0
564 1 2.7484666266533826 7.855467171449364 18.57517415734414 1 0 1
1610 1 0.5943081980201256 2.9210036534239583 18.9030145339564 1 0 0
2890 1 19.92152557731252 14.564728911512345 0.8826232418261575 0 0 0
1330 1 4.65671362610501 3.4421197454299346 19.845498923399383 0 1 0
287 1 9.569691397690246 12.025320026565044 0.604585836436694 0 0 0
1566 1 13.696726742949282 5.048528812101582 18.24260197148255 1 0 0
724 1 18.51521051449483 3.0325133502676067 15.796777244600825 0 0 0
2978 1 19.02535531015523 4.300773311787209 19.11733372335062 1 1 0
65 1 8.935905142310245 1.2396744155858284 16.497179672812518 0 0 -1
1247 1 23.174374468108592 4.016507396548795 18.820383028834623 -1 1 1
1639 1 13.04889276302329 0.28028851491206436 18.61942121159325 0 0 0
791 1 7.795391587874361 6.3036671096743 18.121591331538397 0 1 0
559 1 10.722249290733616 5.110698338921458 18.187568218861337 0 0 0
1715 1 15.245246653753103 6.89906775683576 16.540167316919653 0 0 0
359 1 14.090281653343855 21.881000708422096 16.850108165233312 0 0 -1
2345 1 22.64506621520098 3.103998803905439 2.5066761080557396 0 0 1
883 1 1.3288685929115758 11.689358182192976 17.09108296441981 0 0 0
433 1 2.4811565968335194 10.880093148626864 19.235543452251385 0 0 0
101 1 4.7684255447425326 12.629900702857851 19.27099133985146 0 0 0
1537 1 6.8952649584108165 10.515468286561118 18.540735952902686 0 1 0
1827 1 10.118211613396557 13.413916158929116 19.765502279749835 0 0 0
546 1 13.094380379249586 10.663205175871942 17.70899632758165 0 0 0
2043 1 17.164655674107173 11.613911092743662 17.071173530049094 0 0 0
1863 1 24.09430703922254 0.9728630238898675 9.620174406467203 0 0 0
75 1 19.580579680287364 8.671144883032325 18.578638142637864 0 -1 0
937 1 2.538050052815261 12.25987468259756 1.2992132431720769 0 1 1
261 1 1.3724062280747797 14.291805172972557 17.037555118459004 0 0 0
162 1 21.37877099864895 21.1875629314805 18.277342750293677 0 0 0
2697 1 13.448319801335295 15.19451658653501 1.2862968223040867 1 0 0
2118 1 24.485128490057797 14.979157884514585 15.657766678695815 0 0 0
1351 1 17.233564788105763 14.461470188678351 18.465421172453283 0 1 1
2581 1 22.253842378695047 12.562584794481014 18.710823491578328 0 0 0
1939 1 18.523701082266804 21.718567019132614 17.648371153659852 0 0 0
977 1 23.21316403742566 15.052873757934565 17.942613653003495 0 0 0
625 1 3.8921585212181786 15.403058033879212 17.88110863683393 0 0 0
944 1 1.230940636245586 19.634443451953203 13.473107381993985 0 0 0
1372 1 7.923467890544397 16.62636013108636 15.115206872013314 1 0 1
2452 1 24.398453096142173 15.463192499427526 2.2652622454133575 0 0 0
1436 1 13.93480797122508 15.538442256196864 18.05816303083009 0 1 0
2211 1 21.783911491865705 18.744601670062288 19.84759294810963 0 0 1
416 1 21.538514924253718 17.295527950403496 17.54403113419486 0 0 0
1285 1 2.022764185518979 21.033070797509918 17.701148056306632 0 0 0
1880 1 17.8609785957866 1.175566822237619 1.0081972060497713 0 0 0
2273 1 14.925612743354396 22.42902303363947 0.4588381330462234 1 0 1
1544 1 24.387359297463043 16.697908029520107 7.354616059130997 0 0 0
440 1 14.717076791375638 3.644821731112109 0.4266733541804089 0 0 1
693 1 24.09922666000027 12.632351260555438 5.765580151327646 0 0 0
2523 1 24.28491929044535 21.225254344713225 7.83182661701711 0 0 0
209 1 6.032787252392113 16.608959801766822 19.21317393268663 0 0 0
2540 1 23.582419201754593 8.69160789049011 8.27437010925484 0 1 0
26 1 24.544208588357368 8.668341594338278 13.138403295874094 0 0 0
2647 1 0.5256668747606799 20.07381251851899 3.4293407367385504 1 0 0
1886 1 23.861798537875146 17.787029336252175 3.9036373564884097 0 0 0
2369 1 19.647212866109097 13.149400904235298 19.798905577982108 0 0 1
42 1 1.5826065073042035 19.087639174521364 19.68282686018353 0 0 0
2898 1 24.45062971819825 18.08362888942322 0.29533941297205973 0 0 1
2427 1 9.783954868005864 20.47439272052221 19.628578904668068 0 0 -1
2840 1 12.434383723305187 24.01221125128842 19.87249154466045 1 0 0
502 1 9.761790477385569 9.438611088313317 -0.11212581702003632 0 0 1
3030 1 22.783885535597214 1.4298451958390022 19.67726007617819 1 1 0
392 1 24.361804860908627 3.8300263984320924 0.13515548317386816 0 0 1
789 1 5.609062782634472 1.2420506815173356 21.901840948784955 0 0 0
969 1 2.757383882545751 2.0422593752037117 22.969852277791237 1 0 -1
2087 1 5.477813592057662 24.466930144715217 28.219395258456142 1 0 0
1152 1 11.206262420657724 0.8052186442989608 20.752185396704878 0 1 0
309 1 8.544082883750239 24.121533802530617 21.319004228311705 0 0 -1
134 1 17.227101948281593 0.6783941402083473 21.57447602520904 0 0 0
666 1 23.931622016458032 5.808708066227299 31.56535745895426 0 0 0
2880 1 2.021960094216772 4.671856761323658 22.817768080755773 1 0 0
237 1 4.426262242531554 5.921576138759979 23.231495924512032 0 0 0
1053 1 8.348584300588648 4.51411024085317 22.355087387873148 0 0 0
2585 1 6.320320286349072 3.962962547628688 24.33882978644068 0 1 0
787 1 10.96465384069973 3.584598453977072 22.585354820257866 0 1 0
1165 1 12.025177241519712 6.124027037556323 22.006081702226243 0 1 0
2924 1 13.598216044471057 2.0313624818328586 21.766266125760215 0 0 0
1103 1 15.880239927184622 3.600805994294029 20.92365413077953 0 0 0
1814 1 21.779417521303944 3.81496012618365 22.888416359304898 0 0 -1
2163 1 19.474140122788686 3.291298062724668 21.396698473204534 0 0 0
2963 1 23.767283450410034 1.7280116585274112 22.21775547183816 0 0 1
2715 1 4.48291030703048 7.807473956878187 20.867278866039737 1 0 0
11 1 8.366998700125622 7.521344978205383 21.9130163986641 0 0 0
1086 1 23.008454179222642 22.757376520721547 33.23533348414779 0 0 -1
1850 1 11.822341364654463 10.525680683147316 22.370499899645928 1 0 0
585 1 14.012156634568079 6.541084377303617 24.90587738170044 0 0 0
1923 1 24.467884841234078 11.674375150154642 35.38847644685063 0 0 -1
584 1 19.770570085903643 7.737586514773504 22.53853040736627 0 0 0
2414 1 18.321662543696405 22.14677964245828 20.22930136257698 0 0 0
2079 1 22.177045270297853 6.505634414008908 22.091783188151982 0 0 1
2205 1 2.9555582665698896 9.2832296916181 23.010563731075905 1 0 1
417 1 23.133404967074938 11.609284891087643 39.71595265730997 -1 0 0