
# Create simulation box of size 49.22 x 49.019 x 29.88 Angstrom
#
region 	     all block 0 ${XDIM} 0 ${YDIM} 0 ${ZDIM} units box
region 	     all block 0 49.22 0 ${YDIM} 0 ${ZDIM} units box
region 	     all block 0 49.22 0 49.019635930410494 0 ${ZDIM} units box
region 	     all block 0 49.22 0 49.019635930410494 0 40.0 units box
create_box          1 all
Created orthogonal box = (0.0000000 0.0000000 0.0000000) to (49.220000 49.019636 40.000000)
  2 by 2 by 2 MPI processor grid

# fill box with randomly distributed atoms of number density 0.0327 N/A**3
#  ~800 atoms will eventually be removed to insert the substrate
#
create_atoms        1 random 3155 63782 all
Created 3155 atoms
  create_atoms CPU = 0.001 seconds
mass                1 18.015

# Define potential
#
pair_style          sw
pair_coeff          * * ML.sw mW
Reading sw potential file ML.sw with DATE: 2019-02-27

# Run minimization
#
minimize            1.0e-8 1.0e-8 10000 1000
WARNING: Using 'neigh_modify every 1 delay 0 check yes' setting during minimization (../min.cpp:187)
Neighbor list info ...
  update every 1 steps, delay 0 steps, check yes
  max neighbors/atom: 2000, page size: 100000
  master list distance cutoff = 6.0032907
  ghost atom cutoff = 6.0032907
  binsize = 3.0016454, bins = 17 17 14
  1 neighbor lists, perpetual/occasional/extra = 1 0 0
  (1) pair sw, perpetual
      attributes: full, newton on
      pair build: full/bin/atomonly
      stencil: full/bin/3d
      bin: standard
Per MPI rank memory allocation (min/avg/max) = 4.220 | 4.221 | 4.222 Mbytes
Step Temp E_pair E_mol TotEng Press 
       0            0     10078816            0     10078816    9763492.3 
     642            0   -34050.434            0   -34050.434    -555.8791 
Loop time of 1.26805 on 8 procs for 642 steps with 3155 atoms

99.3% CPU use with 8 MPI tasks x no OpenMP threads

Minimization stats:
  Stopping criterion = max force evaluations
  Energy initial, next-to-last, final = 
      10078815.9893143  -34050.1559848401  -34050.4343049882
  Force two-norm initial, final = 3.8342191e+08 4.5814783
  Force max component initial, final = 1.9238706e+08 1.1034053
  Final line search alpha, max atom move = 0.077122065 0.085096896
  Iterations, force evaluations = 642 1000

MPI task timing breakdown:
Section |  min time  |  avg time  |  max time  |%varavg| %total
---------------------------------------------------------------
Pair    | 0.84616    | 0.97495    | 1.1503     |   8.6 | 76.89
Neigh   | 0.02167    | 0.023235   | 0.024854   |   0.7 |  1.83
Comm    | 0.0669     | 0.24192    | 0.37056    |  17.3 | 19.08
Output  | 0          | 0          | 0          |   0.0 |  0.00
Modify  | 0          | 0          | 0          |   0.0 |  0.00
Other   |            | 0.02795    |            |       |  2.20

Nlocal:        394.375 ave         416 max         379 min
Histogram: 1 1 1 1 2 1 0 0 0 1
Nghost:        1001.88 ave        1017 max         985 min
Histogram: 2 0 2 0 0 0 0 1 1 2
Neighs:        0.00000 ave           0 max           0 min
Histogram: 8 0 0 0 0 0 0 0 0 0
FullNghs:      11090.0 ave       12179 max       10431 min
Histogram: 2 0 2 0 2 1 0 0 0 1

Total # of neighbors = 88720
Ave neighs/atom = 28.120444
Neighbor list builds = 25
Dangerous builds = 0

# Add velocity/set timestep
#
velocity            all create ${TEMP} 120593 rot yes dist gaussian
velocity            all create 240 120593 rot yes dist gaussian
timestep            5.0

# Define output
#
compute	            1 all msd
thermo	            100
thermo_style        custom step temp press vol etotal ke pe c_1[4] density

# Neighbor lists
#
neigh_modify        delay 0 every 1 check yes

# Set fixes
#
fix                 1 all momentum 10 linear 1 1 1 rescale
fix                 2 all nve

# Run 0.5 ns equilibration in NVE ensemble
#
dump                1 all custom 1000 nve.${NAME}.dump id type x y z vx vy vz
dump                1 all custom 1000 nve.ML_m500atm_240K.dump id type x y z vx vy vz
run                 100000
Per MPI rank memory allocation (min/avg/max) = 3.470 | 3.471 | 3.472 Mbytes
Step Temp Press Volume TotEng KinEng PotEng c_1[4] Density 
     642          240    512.85189    96509.859    -31794.08     2256.354   -34050.434            0   0.97793729 
     700    120.43076   -418.32876    96509.859   -31786.656    1132.2268   -32918.882   0.17596696   0.97793729 
     800    124.68949   -512.29696    96509.859   -31786.613    1172.2651   -32958.878   0.42767733   0.97793729 
     900    131.71303   -607.90454    96509.859   -31786.855    1238.2968   -33025.152   0.65302303   0.97793729 
    1000     133.7025   -503.32935    96509.859   -31786.774    1257.0007   -33043.774   0.86604618   0.97793729 
    1100    137.21646   -206.26473    96509.859   -31786.733    1290.0371    -33076.77    1.0414733   0.97793729 
    1200    142.94898   -310.39056    96509.859   -31786.896    1343.9312   -33130.827    1.2093892   0.97793729 
    1300    141.79817   -339.33926    96509.859   -31786.879     1333.112   -33119.991     1.313174   0.97793729 
    1400    143.58323   -182.38305    96509.859   -31786.936    1349.8942    -33136.83    1.4739019   0.97793729 
    1500    148.22372   -15.191932    96509.859   -31787.071    1393.5216   -33180.593     1.709736   0.97793729 
    1600    144.79666   -290.70804    96509.859   -31786.892    1361.3022   -33148.194    1.8283318   0.97793729 
    1700    149.49752   -60.267336    96509.859   -31787.172    1405.4972    -33192.67    1.8867586   0.97793729 
    1800    152.67091    76.398667    96509.859   -31787.385    1435.3317   -33222.717     2.053575   0.97793729 
    1900    151.71123     165.9844    96509.859   -31787.206    1426.3094   -33213.515    2.1989806   0.97793729 
    2000    153.46621   -160.22618    96509.859   -31787.182    1442.8087   -33229.991    2.3089614   0.97793729 
    2100    154.57981    3.3687334    96509.859   -31787.332    1453.2782    -33240.61    2.3852864   0.97793729 
    2200    156.88995   -3.3797075    96509.859    -31787.26     1474.997   -33262.257    2.4523936   0.97793729 
    2300    159.55443    276.21284    96509.859    -31787.33     1500.047   -33287.377    2.5856998   0.97793729 
    2400    159.60741     16.80109    96509.859   -31787.485    1500.5451    -33288.03    2.6552877   0.97793729 
    2500    159.39039    287.31568    96509.859   -31787.418    1498.5048   -33285.923    2.7294515   0.97793729 
    2600    161.21606    391.19122    96509.859   -31787.492    1515.6688   -33303.161      2.79324   0.97793729 
    2700    163.14893    297.96436    96509.859    -31787.48    1533.8405   -33321.321    2.9385824   0.97793729 
    2800    160.17627    296.55566    96509.859   -31787.447    1505.8931   -33293.341    2.9272669   0.97793729 
    2900    161.88301    559.62931    96509.859   -31787.563     1521.939   -33309.502    3.0021198   0.97793729 
    3000    164.48627    35.596551    96509.859   -31787.655    1546.4135   -33334.069    3.0785703   0.97793729 
    3100    165.89905     345.2874    96509.859   -31787.674    1559.6957   -33347.369    3.1996407   0.97793729 
    3200    165.66957    603.24889    96509.859   -31787.607    1557.5383   -33345.145    3.3484569   0.97793729 
    3300    170.20846    633.55466    96509.859   -31787.821    1600.2105   -33388.031    3.3917661   0.97793729 
    3400    166.86803    746.00418    96509.859    -31787.55    1568.8056   -33356.355    3.4318409   0.97793729 
    3500    167.92416    659.94094    96509.859   -31787.712    1578.7348   -33366.447    3.5346061   0.97793729 
    3600    166.43948     442.3962    96509.859   -31787.711    1564.7766   -33352.487    3.5349865   0.97793729 
    3700    165.69951    799.30616    96509.859   -31787.422    1557.8197   -33345.242    3.6551964   0.97793729 
    3800    171.52465    933.03655    96509.859    -31787.91    1612.5847   -33400.495    3.6605032   0.97793729 
    3900    163.30857     838.6236    96509.859   -31787.522    1535.3414   -33322.864      3.68032   0.97793729 
    4000    168.39752    906.44774    96509.859   -31787.509    1583.1851   -33370.694     3.677393   0.97793729 
    4100    169.31573     768.1152    96509.859   -31787.744    1591.8176   -33379.562    3.7917487   0.97793729 
    4200    168.12704    951.20035    96509.859   -31787.515    1580.6421   -33368.157    3.8238135   0.97793729 
    4300    169.28629    698.18497    96509.859   -31787.581    1591.5408   -33379.122    3.8773957   0.97793729 
    4400    169.29884    762.92318    96509.859   -31787.393    1591.6588   -33379.052    3.9554986   0.97793729 
    4500    171.94941    758.30075    96509.859   -31787.695    1616.5781   -33404.273    3.9360879   0.97793729 
    4600    167.22632     484.7377    96509.859   -31787.593     1572.174   -33359.767    3.9894606   0.97793729 
    4700    167.74643    437.66606    96509.859   -31787.474    1577.0639   -33364.538    4.1043947   0.97793729 
    4800    169.30265    904.44382    96509.859    -31787.73    1591.6947   -33379.425    4.2352205   0.97793729 
    4900    169.61603    707.99405    96509.859   -31787.623    1594.6408   -33382.263    4.2238647   0.97793729 
    5000    169.18283    701.63315    96509.859   -31787.678    1590.5681   -33378.246    4.2251521   0.97793729 
    5100    172.78024     897.3301    96509.859   -31787.828    1624.3891   -33412.217    4.2393149   0.97793729 
    5200    173.62876    661.96869    96509.859   -31787.701    1632.3664   -33420.068    4.2986041   0.97793729 
    5300    171.93724    795.87506    96509.859   -31787.699    1616.4636   -33404.162    4.3536416   0.97793729 
    5400    171.62314    421.30851    96509.859   -31787.699    1613.5107   -33401.209     4.323206   0.97793729 
    5500     174.8639    919.29745    96509.859   -31787.902    1643.9786    -33431.88    4.3971123   0.97793729 
    5600    169.10571    971.31596    96509.859   -31787.539    1589.8431   -33377.382    4.5334797   0.97793729 
    5700    172.21544    1200.3055    96509.859   -31787.629    1619.0792   -33406.708    4.5031081   0.97793729 
    5800    174.24621    1061.4239    96509.859   -31787.945    1638.1714   -33426.116    4.5818385   0.97793729 
    5900    177.46549    887.11958    96509.859   -31788.073    1668.4374    -33456.51    4.5922954   0.97793729 
    6000    176.89404    1060.1547    96509.859   -31787.915    1663.0649    -33450.98    4.6479674   0.97793729 
    6100     175.2532    981.61249    96509.859   -31787.697    1647.6386   -33435.336    4.6966684   0.97793729 
    6200    176.11645    1125.8605    96509.859   -31787.694    1655.7544   -33443.449    4.7070127   0.97793729 
    6300    176.87269    1131.4417    96509.859   -31787.873    1662.8641   -33450.737    4.6840301   0.97793729 
    6400    175.58563    1129.8193    96509.859   -31787.881    1650.7639   -33438.645    4.7490937   0.97793729 
    6500    171.70887    1040.5619    96509.859   -31787.476    1614.3166   -33401.792    4.8367174   0.97793729 
    6600     174.8771    1082.3022    96509.859    -31787.93    1644.1027   -33432.033    4.8523166   0.97793729 
    6700    171.31506     779.8615    96509.859   -31787.895    1610.6142   -33398.509    4.9082387   0.97793729 
    6800    171.90973    992.27341    96509.859   -31787.541     1616.205   -33403.746    4.9653738   0.97793729 
    6900    175.99457    1015.4234    96509.859   -31787.813    1654.6085   -33442.422    5.0183861   0.97793729 
    7000    176.68834    1186.6649    96509.859    -31787.91     1661.131   -33449.041    5.0222482   0.97793729 
    7100    175.75905    962.92624    96509.859   -31787.747    1652.3943   -33440.141    5.0992411   0.97793729 
    7200    179.60777    1160.5889    96509.859   -31788.006     1688.578   -33476.584    5.1671859   0.97793729 
    7300    178.26165    1393.3122    96509.859   -31787.828    1675.9225   -33463.751    5.2439126   0.97793729 
    7400    175.05837    1144.7126    96509.859   -31787.733    1645.8069    -33433.54     5.243188   0.97793729 
    7500    176.87901    992.20968    96509.859   -31787.927    1662.9236   -33450.851    5.0940675   0.97793729 
    7600    175.22211    932.48557    96509.859   -31787.779    1647.3463   -33435.125    5.1474623   0.97793729 
    7700    174.05821    1139.4912    96509.859   -31787.905    1636.4039   -33424.309    5.2209723   0.97793729 
    7800    177.02465    1304.8982    96509.859   -31787.943    1664.2928   -33452.236    5.3164194   0.97793729 
    7900     176.7399    935.95716    96509.859   -31787.845    1661.6158   -33449.461    5.4158438   0.97793729 
    8000    177.31033    822.23143    96509.859   -31787.965    1666.9786   -33454.944    5.3903684   0.97793729 
    8100    176.60954    945.86997    96509.859   -31787.651    1660.3902   -33448.041    5.3760409   0.97793729 
    8200    178.15046    874.48054    96509.859   -31787.804     1674.877   -33462.681    5.3587265   0.97793729 
    8300    173.71388    967.37236    96509.859   -31787.576    1633.1667   -33420.743    5.4534043   0.97793729 
    8400    175.02422    978.03286    96509.859   -31787.743    1645.4858   -33433.229    5.5120303   0.97793729 
    8500     178.8227    1053.0521    96509.859   -31787.753    1681.1971   -33468.951     5.456007   0.97793729 
    8600     175.7749    1057.7657    96509.859   -31787.836    1652.5433    -33440.38     5.570196   0.97793729 
    8700    176.73985    929.54577    96509.859    -31788.03    1661.6153   -33449.646    5.6342853   0.97793729 
    8800    177.69566     1137.593    96509.859   -31787.774    1670.6012   -33458.376    5.6075036   0.97793729 
    8900    181.27956    1480.7518    96509.859   -31787.869    1704.2952   -33492.164    5.6432386   0.97793729 
    9000    178.17006    1309.1391    96509.859   -31787.832    1675.0614   -33462.893    5.6886962   0.97793729 
    9100    176.91375    1189.8859    96509.859   -31787.905    1663.2502   -33451.155    5.8064388   0.97793729 
    9200    176.24872    1128.9317    96509.859   -31787.736    1656.9979   -33444.734    5.8274568   0.97793729 
    9300     178.7011    1169.4389    96509.859   -31788.023    1680.0539   -33468.077    5.9100903   0.97793729 
    9400     175.8936    1140.8005    96509.859   -31787.799    1653.6592   -33441.458    5.9523115   0.97793729 
    9500    179.96055    958.70453    96509.859   -31788.063    1691.8946   -33479.957     5.986359   0.97793729 
    9600    177.94586    857.39018    96509.859    -31787.86    1672.9535   -33460.814    6.0919755   0.97793729 
    9700    178.46271    916.33834    96509.859   -31787.767    1677.8127    -33465.58    6.1373896   0.97793729 
    9800    176.85174    1100.6832    96509.859   -31787.765    1662.6672   -33450.433    6.0472131   0.97793729 
    9900    175.18323    1084.7001    96509.859   -31787.874    1646.9807   -33434.855    6.0204827   0.97793729 
   10000    177.66506    874.14251    96509.859   -31787.755    1670.3136   -33458.068    6.0728956   0.97793729 
   10100    179.53207    1136.0518    96509.859   -31787.976    1687.8663   -33475.842     6.157085   0.97793729 
   10200    179.12567    1155.6483    96509.859   -31787.994    1684.0455    -33472.04    6.1713131   0.97793729 
   10300    177.91318    1106.6318    96509.859   -31787.724    1672.6463    -33460.37    6.1999537   0.97793729 
   10400    177.62691    1118.2654    96509.859   -31787.753     1669.955   -33457.708    6.2808662   0.97793729 
   10500    177.96334     1086.493    96509.859   -31787.866    1673.1179   -33460.984    6.2833475   0.97793729 
   10600    177.80486    1189.1986    96509.859   -31787.836    1671.6279   -33459.463    6.3156325   0.97793729 
   10700     179.7051    836.31911    96509.859   -31787.898     1689.493   -33477.391    6.3597894   0.97793729 
   10800    182.26334    962.52511    96509.859   -31787.936    1713.5442    -33501.48    6.3385967   0.97793729 
   10900    177.64331    948.86366    96509.859   -31787.674    1670.1091   -33457.783    6.4549085   0.97793729 
   11000      182.173    565.05059    96509.859   -31788.114    1712.6949   -33500.809    6.5075321   0.97793729 
   11100    178.19517    802.80378    96509.859   -31787.622    1675.2974   -33462.919    6.5869353   0.97793729 
   11200    180.82007    772.96278    96509.859   -31787.825    1699.9754   -33487.801    6.6070011   0.97793729 
   11300    179.22737    588.84306    96509.859   -31787.645    1685.0017   -33472.647    6.5873366   0.97793729 
   11400     185.0264    916.61465    96509.859    -31788.14    1739.5211   -33527.661    6.6007523   0.97793729 
   11500    177.54323    794.06777    96509.859   -31787.714    1669.1682   -33456.882    6.6128302   0.97793729 
   11600    175.53072    945.93979    96509.859   -31787.751    1650.2476   -33437.999    6.7571874   0.97793729 
   11700    180.25146    779.13926    96509.859   -31787.758    1694.6295   -33482.388    6.6370017   0.97793729 
   11800    178.29356    800.68875    96509.859   -31787.862    1676.2225   -33464.084    6.7721509   0.97793729 
   11900    181.61301    685.36164    96509.859   -31787.897    1707.4302   -33495.327    6.7893185   0.97793729 
   12000    180.64104    665.54312    96509.859    -31788.06    1698.2922   -33486.353    6.8642139   0.97793729 
   12100    181.20713    1055.7222    96509.859   -31787.762    1703.6143   -33491.376    6.8344973   0.97793729 
   12200    181.50456    852.47648    96509.859   -31787.984    1706.4105   -33494.395    6.7699162   0.97793729 
   12300    183.81893    910.81614    96509.859   -31788.125    1728.1691   -33516.294     6.993235   0.97793729 
   12400    179.67526    913.80759    96509.859   -31787.652    1689.2125   -33476.864    7.0436202   0.97793729 
   12500     180.0597    934.67056    96509.859   -31787.986    1692.8267   -33480.813    7.1082562   0.97793729 
   12600    181.65019    1127.8245    96509.859   -31787.868    1707.7797   -33495.648    7.1014124   0.97793729 
   12700    180.25385    969.42452    96509.859   -31787.795     1694.652   -33482.447     7.018478   0.97793729 
   12800    177.69211    727.66066    96509.859   -31787.794    1670.5679   -33458.362    7.0182504   0.97793729 
   12900    179.25718    974.06954    96509.859   -31787.682    1685.2819   -33472.964    7.1498077   0.97793729 
   13000    181.69291    917.37836    96509.859   -31787.992    1708.1813   -33496.174     7.154121   0.97793729 
   13100    181.75746    909.71211    96509.859   -31787.964    1708.7882   -33496.752    7.0688569   0.97793729 
   13200    182.69013    933.85264    96509.859   -31787.961    1717.5567   -33505.518    7.0441437   0.97793729 
   13300    182.30902    862.87433    96509.859   -31787.808    1713.9737   -33501.781    7.1149411   0.97793729 
   13400     180.0169    865.98771    96509.859   -31787.841    1692.4244   -33480.265    7.1426064   0.97793729 
   13500    181.24639    1127.7714    96509.859   -31787.897    1703.9834   -33491.881    7.2349979   0.97793729 
   13600    179.75588    826.18454    96509.859   -31787.828    1689.9704   -33477.798    7.1696318   0.97793729 
   13700     180.0459    1164.6937    96509.859    -31787.81    1692.6971   -33480.507    7.2169585   0.97793729 
   13800    179.57053    970.70045    96509.859   -31788.064    1688.2278   -33476.292    7.2871133   0.97793729 
   13900     183.1892      876.903    96509.859   -31788.162    1722.2487   -33510.411    7.2957096   0.97793729 
   14000    184.00026    1146.3126    96509.859   -31787.995    1729.8738   -33517.869     7.278345   0.97793729 
   14100    178.84285    1142.2948    96509.859   -31787.636    1681.3865   -33469.023    7.2987119   0.97793729 
   14200    182.65234    1064.5689    96509.859   -31787.992    1717.2014   -33505.194    7.3382932   0.97793729 
   14300    183.50968    819.39021    96509.859   -31788.036    1725.2617   -33513.298    7.3452002   0.97793729 
   14400    181.51338    781.81454    96509.859   -31788.033    1706.4935   -33494.527    7.4526372   0.97793729 
   14500    182.14622    1121.9307    96509.859   -31787.917    1712.4431    -33500.36    7.4734892   0.97793729 
   14600    183.87178    1202.5513    96509.859   -31788.176     1728.666   -33516.842    7.4654892   0.97793729 
   14700    183.86451    1193.2421    96509.859   -31788.025    1728.5976   -33516.622    7.5402127   0.97793729 
   14800    180.35803    1011.7441    96509.859   -31787.812    1695.6315   -33483.443    7.5001574   0.97793729 
   14900    184.52451    1183.4104    96509.859   -31787.989    1734.8025   -33522.791     7.587279   0.97793729 
   15000    181.55362    1110.6859    96509.859   -31788.044    1706.8718   -33494.916    7.6091401   0.97793729 
   15100    186.81785    1257.3401    96509.859   -31788.054    1756.3634   -33544.418    7.5813744   0.97793729 
   15200    179.73439    1136.5493    96509.859   -31787.813    1689.7683   -33477.582    7.5540132   0.97793729 
   15300    182.33761    1459.3579    96509.859   -31787.791    1714.2425   -33502.033    7.5197902   0.97793729 
   15400    180.57906    1397.4923    96509.859   -31787.976    1697.7095   -33485.685    7.6143745   0.97793729 
   15500    186.68097    1466.1642    96509.859    -31788.13    1755.0764   -33543.206      7.67261   0.97793729 
   15600     185.6398    1372.3884    96509.859   -31788.139    1745.2879   -33533.427    7.7023327   0.97793729 
   15700    183.11077    1417.1462    96509.859   -31787.985    1721.5113   -33509.496     7.741442   0.97793729 
   15800    184.27681    1183.9026    96509.859   -31788.008    1732.4738   -33520.482    7.8234559   0.97793729 
   15900    188.77528    1432.7025    96509.859   -31788.127     1774.766   -33562.893    7.7360182   0.97793729 
   16000    184.71969    1163.1741    96509.859   -31788.118    1736.6376   -33524.756    7.6990142   0.97793729 
   16100    182.73401    1407.5498    96509.859   -31788.169    1717.9692   -33506.138    7.7084606   0.97793729 
   16200    184.37965    1019.0599    96509.859   -31788.098    1733.4407   -33521.539    7.7222734   0.97793729 
   16300    179.31885    1032.6378    96509.859   -31787.731    1685.8617   -33473.593    7.9171127   0.97793729 
   16400    182.92532      1201.95    96509.859   -31788.164    1719.7678   -33507.932    7.9659552   0.97793729 
   16500    184.56562    1051.7816    96509.859   -31787.964     1735.189   -33523.153    7.9180706   0.97793729 
   16600    181.43448     1213.603    96509.859   -31787.827    1705.7517   -33493.578    7.9332474   0.97793729 
   16700    183.51512    894.63515    96509.859    -31788.11    1725.3128   -33513.422     7.890091   0.97793729 
   16800    186.47118    1135.4723    96509.859   -31788.024    1753.1041   -33541.128    7.8456362   0.97793729 
   16900    181.80873    1433.0376    96509.859   -31787.925    1709.2702   -33497.195    7.9718714   0.97793729 
   17000    185.49131    1131.1585    96509.859   -31788.107    1743.8919   -33531.999    8.0075007   0.97793729 
   17100    183.07272    1093.0357    96509.859   -31788.061    1721.1536   -33509.215     8.071028   0.97793729 
   17200    182.02244    1359.9749    96509.859   -31788.007    1711.2794   -33499.287    8.0968006   0.97793729 
   17300    184.34439    999.10734    96509.859   -31787.887    1733.1092   -33520.996    7.9862196   0.97793729 
   17400    184.10702    1211.3894    96509.859   -31787.938    1730.8776   -33518.816    8.0724478   0.97793729 
   17500    182.49991    1060.2313    96509.859   -31788.015    1715.7683   -33503.783    8.1247856   0.97793729 
   17600    185.24746    1026.6062    96509.859   -31788.067    1741.5993   -33529.666    8.1940251   0.97793729 
   17700    179.84794    1304.7937    96509.859   -31787.661    1690.8359   -33478.497    8.2106872   0.97793729 
   17800     185.2083    1076.8383    96509.859   -31788.033    1741.2312   -33529.264    8.2220629   0.97793729 
   17900    180.81539    1154.8749    96509.859   -31787.787    1699.9314   -33487.719    8.2620163   0.97793729 
   18000    180.13139    1058.9481    96509.859   -31787.883    1693.5008   -33481.383    8.3464008   0.97793729 
   18100    182.80671    1214.8833    96509.859   -31787.815    1718.6527   -33506.468    8.3467712   0.97793729 
   18200    183.24286    1433.3671    96509.859   -31788.018    1722.7532   -33510.771    8.3018915   0.97793729 
   18300    182.49118    1093.0372    96509.859   -31787.932    1715.6863   -33503.618    8.2438357   0.97793729 
   18400    181.13824    1253.8278    96509.859   -31787.843    1702.9666    -33490.81    8.3757373   0.97793729 
   18500    181.66247    1364.9458    96509.859   -31787.819    1707.8951   -33495.714    8.4573099   0.97793729 
   18600    179.32618    1067.5675    96509.859   -31787.696    1685.9305   -33473.627    8.5592602   0.97793729 
   18700    185.88392    1212.5123    96509.859   -31788.142     1747.583   -33535.725    8.5378561   0.97793729 
   18800    183.57667     1055.521    96509.859   -31787.823    1725.8914   -33513.714    8.4800562   0.97793729 
   18900    186.58471    1282.2037    96509.859    -31788.09    1754.1715   -33542.262    8.5711109   0.97793729 
   19000    186.53438     1100.996    96509.859   -31788.075    1753.6983   -33541.774    8.6070434   0.97793729 
   19100     184.9748    1109.4643    96509.859   -31787.925    1739.0359   -33526.961    8.7046584   0.97793729 
   19200    182.01111    1284.7748    96509.859   -31787.901    1711.1729   -33499.074    8.7306262   0.97793729 
   19300    183.80064    1383.6825    96509.859   -31788.042    1727.9971   -33516.039    8.7126971   0.97793729 
   19400    186.92274     1087.833    96509.859   -31788.179    1757.3494   -33545.529    8.6517471   0.97793729 
   19500    183.33241    1410.8497    96509.859   -31788.115     1723.595    -33511.71    8.8058643   0.97793729 
   19600    187.11542    1265.3121    96509.859   -31788.038    1759.1609   -33547.198    8.7903848   0.97793729 
   19700    185.27191    1235.8331    96509.859   -31788.039    1741.8292   -33529.869    8.8650523   0.97793729 
   19800    184.00219     1096.386    96509.859   -31788.086     1729.892   -33517.978    8.8845292   0.97793729 
   19900    181.18353    1133.2005    96509.859   -31787.751    1703.3924   -33491.143    8.9669075   0.97793729 
   20000     183.4996     1035.773    96509.859   -31787.922    1725.1669   -33513.089    8.9610455   0.97793729 
   20100     185.8187     795.3023    96509.859   -31788.155    1746.9699   -33535.125    8.8954203   0.97793729 
   20200    184.57003    1155.0252    96509.859   -31788.025    1735.2305   -33523.255    8.9226373   0.97793729 
   20300    185.32792    1118.7997    96509.859   -31788.071    1742.3558   -33530.426    9.0584919   0.97793729 
   20400    181.32214    1126.8121    96509.859   -31787.579    1704.6955   -33492.275    9.1212008   0.97793729 
   20500    184.08181    980.35242    96509.859   -31787.871    1730.6405   -33518.512    8.9963475   0.97793729 
   20600    183.11709     773.6639    96509.859   -31787.795    1721.5707   -33509.365     8.997599   0.97793729 
   20700    179.35807    928.28178    96509.859    -31787.94    1686.2304    -33474.17    9.0043632   0.97793729 
   20800    183.64568    1019.3085    96509.859   -31788.122    1726.5403   -33514.662    9.0368525   0.97793729 
   20900    185.60661    1235.9719    96509.859   -31788.038    1744.9759   -33533.014     9.114227   0.97793729 
   21000    179.95937    1193.7164    96509.859   -31787.577    1691.8835    -33479.46    9.0118651   0.97793729 
   21100    183.34844    1016.7393    96509.859   -31787.964    1723.7458    -33511.71    9.0243378   0.97793729 
   21200    181.97166    970.33595    96509.859   -31787.726     1710.802   -33498.528    8.9322136   0.97793729 
   21300    182.33322    882.77519    96509.859   -31787.909    1714.2012    -33502.11    9.0594876   0.97793729 
   21400    182.28913    1104.8475    96509.859   -31787.799    1713.7867   -33501.586    9.0962636   0.97793729 
   21500    184.57338    1433.4575    96509.859   -31788.048     1735.262    -33523.31     9.149389   0.97793729 
   21600    182.09508    1334.6042    96509.859    -31787.97    1711.9623   -33499.933    9.1561115   0.97793729 
   21700    187.07697    1395.0562    96509.859   -31788.198    1758.7994   -33546.997    9.3035163   0.97793729 
   21800    184.70853    1132.1841    96509.859   -31787.933    1736.5326   -33524.465    9.3538909   0.97793729 
   21900    186.40851    1014.4306    96509.859   -31787.967    1752.5149   -33540.482    9.4025807   0.97793729 
   22000    182.20708    1056.4309    96509.859   -31788.012    1713.0153   -33501.027    9.3853211   0.97793729 
   22100    180.97426    1086.0981    96509.859   -31787.763     1701.425   -33489.188    9.4354216   0.97793729 
   22200    180.82187    820.02207    96509.859   -31787.865    1699.9923   -33487.858    9.4973172   0.97793729 
   22300    184.07343    1316.3965    96509.859    -31788.12    1730.5618   -33518.682    9.4365452   0.97793729 
   22400    186.04919    1157.8808    96509.859       -31788    1749.1368   -33537.137    9.3543176   0.97793729 
   22500    181.09396    1205.6453    96509.859   -31787.823    1702.5503   -33490.373    9.4556997   0.97793729 
   22600    179.42103     992.6273    96509.859   -31787.806    1686.8223   -33474.628    9.7208186   0.97793729 
   22700    184.02231    1449.1201    96509.859   -31787.973    1730.0811   -33518.054    9.6013106   0.97793729 
   22800    182.34306    1154.0427    96509.859   -31788.066    1714.2937    -33502.36    9.6423713   0.97793729 
   22900    181.14661    1255.4893    96509.859   -31788.003    1703.0453   -33491.048    9.6766559   0.97793729 
   23000    184.12341    1273.0115    96509.859   -31788.122    1731.0317   -33519.154     9.661262   0.97793729 
   23100    179.11673    1282.7174    96509.859   -31787.898    1683.9615   -33471.859    9.6860808   0.97793729 
   23200    184.34757    1291.1349    96509.859   -31788.112    1733.1391   -33521.251     9.719279   0.97793729 
   23300      182.134    1098.8885    96509.859   -31787.908    1712.3282   -33500.236    9.8468207   0.97793729 
   23400    179.76441    1256.7192    96509.859   -31787.836    1690.0506   -33477.886    9.9641767   0.97793729 
   23500    184.95323    1439.2353    96509.859    -31787.93    1738.8332   -33526.763    9.8513168   0.97793729 
   23600    183.05265    1402.5552    96509.859   -31787.956    1720.9649   -33508.921     9.865321   0.97793729 
   23700    186.54943    1446.6049    96509.859     -31788.2    1753.8398    -33542.04    9.8432652   0.97793729 
   23800    181.88957    1280.1613    96509.859   -31787.784    1710.0302   -33497.815    9.9598192   0.97793729 
   23900    184.46445    1185.6061    96509.859   -31787.897    1734.2379   -33522.134    10.037221   0.97793729 
   24000    182.73768    1042.8599    96509.859   -31787.824    1718.0037   -33505.827    10.103656   0.97793729 
   24100    185.19574    1252.6954    96509.859   -31788.152    1741.1131   -33529.266    10.031873   0.97793729 
   24200    181.18937    1216.9521    96509.859   -31787.913    1703.4474    -33491.36    10.133448   0.97793729 
   24300    187.31803     1323.185    96509.859   -31788.194    1761.0657    -33549.26    10.077691   0.97793729 
   24400    186.61011    1342.5182    96509.859    -31788.18    1754.4103    -33542.59    10.249953   0.97793729 
   24500    183.90588     1199.781    96509.859   -31787.774    1728.9865    -33516.76    10.248037   0.97793729 
   24600    183.72225    1253.1753    96509.859   -31788.032    1727.2601   -33515.292    10.154691   0.97793729 
   24700    186.47701    1217.7894    96509.859   -31788.004    1753.1589   -33541.163     10.26015   0.97793729 
   24800    184.67834    1319.6068    96509.859   -31787.979    1736.2488   -33524.228     10.26966   0.97793729 
   24900    186.26477     1375.214    96509.859   -31787.908    1751.1636   -33539.071    10.376348   0.97793729 
   25000      183.889     1182.301    96509.859   -31788.085    1728.8278   -33516.913     10.50864   0.97793729 
   25100    183.87721     1284.527    96509.859   -31788.077     1728.717   -33516.794    10.392674   0.97793729 
   25200    182.44869    1239.0686    96509.859   -31787.952    1715.2868   -33503.239    10.390896   0.97793729 
   25300    184.71253    1285.2476    96509.859   -31788.082    1736.5702   -33524.653    10.425112   0.97793729 
   25400    183.06947     769.7697    96509.859   -31787.939     1721.123   -33509.062    10.407015   0.97793729 
   25500    183.70373    1073.7444    96509.859    -31787.67     1727.086   -33514.756    10.453124   0.97793729 
   25600    187.56632    1260.8226    96509.859   -31788.118    1763.4001   -33551.519    10.583938   0.97793729 
   25700    185.21894    1036.5073    96509.859   -31788.088    1741.3312    -33529.42    10.557243   0.97793729 
   25800    184.92567    1128.7308    96509.859   -31787.952     1738.574   -33526.526    10.601433   0.97793729 
   25900    184.24676    1146.6868    96509.859   -31788.033    1732.1913   -33520.224    10.775255   0.97793729 
   26000    188.28545    1106.2885    96509.859   -31788.126    1770.1609   -33558.287    10.761494   0.97793729 
   26100    184.82038    1190.9352    96509.859   -31788.088    1737.5842   -33525.672    10.618396   0.97793729 
   26200    182.63821    1072.8274    96509.859   -31788.007    1717.0685   -33505.076    10.593837   0.97793729 
   26300    185.90457    1058.2721    96509.859    -31788.13    1747.7772   -33535.907    10.570119   0.97793729 
   26400    186.40115    1132.5741    96509.859   -31788.182    1752.4457   -33540.628    10.639024   0.97793729 
   26500    183.27307    1049.5492    96509.859   -31787.813    1723.0372    -33510.85    10.775561   0.97793729 
   26600    184.70823    1162.3747    96509.859   -31787.841    1736.5298   -33524.371    10.726245   0.97793729 
   26700    185.12813    1413.4855    96509.859   -31788.018    1740.4775   -33528.495    10.805462   0.97793729 
   26800    186.54807    1162.0368    96509.859   -31788.089     1753.827   -33541.916    10.963978   0.97793729 
   26900     184.2501    1362.3807    96509.859   -31787.947    1732.2227    -33520.17    10.945432   0.97793729 
   27000    188.27565    1368.8385    96509.859   -31788.193    1770.0688   -33558.262    10.862785   0.97793729 
   27100    184.88412    1361.4302    96509.859    -31787.83    1738.1834   -33526.013    10.917788   0.97793729 
   27200    185.33337    1217.1699    96509.859   -31788.043    1742.4071    -33530.45     10.91874   0.97793729 
   27300    188.18652    1168.0339    96509.859   -31788.147    1769.2309   -33557.378    11.072482   0.97793729 
   27400    182.28696    943.30414    96509.859    -31787.91    1713.7663   -33501.677     10.99309   0.97793729 
   27500    184.99798    1099.4561    96509.859   -31788.069    1739.2538   -33527.323     10.97596   0.97793729 
   27600    182.97914    1194.9947    96509.859   -31787.912    1720.2738   -33508.186    10.934444   0.97793729 
   27700    187.99251    1329.3585    96509.859   -31788.306    1767.4069   -33555.713    10.927622   0.97793729 
   27800    186.94048    1503.9925    96509.859   -31788.211    1757.5162   -33545.728     11.02538   0.97793729 
   27900    180.70001    1287.3495    96509.859   -31787.794    1698.8466    -33486.64    11.089822   0.97793729 
   28000    182.15749     1228.474    96509.859   -31787.905     1712.549   -33500.454    11.169405   0.97793729 
   28100    183.29475    1208.5061    96509.859   -31788.093     1723.241   -33511.334    11.085958   0.97793729 
   28200    182.46132    830.93938    96509.859   -31788.027    1715.4055   -33503.432    11.153428   0.97793729 
   28300     187.7393    1359.9594    96509.859   -31788.272    1765.0263   -33553.298    11.088556   0.97793729 
   28400    186.20925    1257.5674    96509.859   -31788.236    1750.6415   -33538.878    11.039066   0.97793729 
   28500    179.25014    951.87579    96509.859   -31787.631    1685.2157   -33472.847    11.214966   0.97793729 
   28600    186.59448    1300.3092    96509.859   -31787.913    1754.2634   -33542.177    11.255791   0.97793729 
   28700    187.29476    1393.0542    96509.859   -31788.231     1760.847   -33549.078    11.325144   0.97793729 
   28800    181.99013    1131.0286    96509.859   -31787.772    1710.9756   -33498.747    11.340623   0.97793729 
   28900    179.92807    1488.3333    96509.859   -31787.705    1691.5892   -33479.294    11.303219   0.97793729 
   29000    186.75225     1408.361    96509.859   -31788.137    1755.7466   -33543.883    11.428502   0.97793729 
   29100    185.15186    1591.0561    96509.859   -31788.006    1740.7006   -33528.706    11.296721   0.97793729 
   29200    185.82014    1303.4125    96509.859    -31787.93    1746.9834   -33534.914    11.279228   0.97793729 
   29300    186.76502    1473.1747    96509.859    -31788.22    1755.8667   -33544.087    11.295929   0.97793729 
   29400    186.32475    1604.9577    96509.859   -31787.973    1751.7275     -33539.7    11.223902   0.97793729 
   29500    185.87477    1536.1763    96509.859   -31788.103    1747.4969     -33535.6    11.465396   0.97793729 
   29600    186.47341    1706.2091    96509.859   -31788.286     1753.125   -33541.411    11.510899   0.97793729 
   29700    184.99814    1596.2671    96509.859   -31788.078    1739.2553   -33527.333    11.520479   0.97793729 
   29800    190.22649     1761.571    96509.859   -31788.345    1788.4096   -33576.754     11.51022   0.97793729 
   29900    186.34494    1661.9764    96509.859   -31787.899    1751.9173   -33539.817     11.53021   0.97793729 
   30000    185.22919     1863.881    96509.859   -31788.114    1741.4276   -33529.541    11.495921   0.97793729 
   30100    185.22051    1772.1638    96509.859   -31788.041     1741.346   -33529.387    11.623816   0.97793729 
   30200    186.19325    1416.6971    96509.859   -31788.173    1750.4912   -33538.665    11.681396   0.97793729 
   30300    183.74912    1445.3155    96509.859   -31787.955    1727.5127   -33515.467    11.624378   0.97793729 
   30400      185.402    1343.3395    96509.859   -31787.987    1743.0522   -33531.039    11.744522   0.97793729 
   30500     185.3247    1485.6817    96509.859   -31787.957    1742.3255   -33530.282    11.817443   0.97793729 
   30600    184.05203    1016.5877    96509.859   -31788.215    1730.3605   -33518.576    11.744864   0.97793729 
   30700    183.15357    1252.8387    96509.859   -31787.787    1721.9137   -33509.701    11.850044   0.97793729 
   30800    185.59303    1044.7725    96509.859   -31787.998    1744.8482   -33532.846    11.855292   0.97793729 
   30900    182.99882     1317.755    96509.859   -31787.905    1720.4588   -33508.364    11.874865   0.97793729 
   31000    184.23254    1611.6218    96509.859   -31788.018    1732.0576   -33520.075    11.995143   0.97793729 
   31100    187.28845    1294.0866    96509.859   -31787.996    1760.7877   -33548.784    11.831013   0.97793729 
   31200    183.90615    1450.5204    96509.859   -31787.723    1728.9891   -33516.713    11.866684   0.97793729 
   31300    188.32426    1369.2377    96509.859   -31788.027    1770.5258   -33558.553    11.972575   0.97793729 
   31400    190.11065    1406.8323    96509.859   -31788.376    1787.3205   -33575.696    12.095221   0.97793729 
   31500    185.48713    1576.6661    96509.859   -31788.012    1743.8526   -33531.865    12.216825   0.97793729 
   31600    189.95207    1716.6162    96509.859    -31788.51    1785.8296    -33574.34    12.176426   0.97793729 
   31700    183.61211    1838.5943    96509.859   -31787.885    1726.2246    -33514.11    12.187287   0.97793729 
   31800     184.1028    1763.6623    96509.859   -31787.969    1730.8378   -33518.806    12.228466   0.97793729 
   31900    188.53525    1706.7473    96509.859   -31788.172    1772.5094   -33560.682    12.384943   0.97793729 
   32000    186.53457    1469.2963    96509.859   -31788.397       1753.7   -33542.097    12.410127   0.97793729 
   32100    186.64506    1552.9074    96509.859   -31788.016    1754.7388   -33542.755    12.395202   0.97793729 
   32200    185.83395    1304.7151    96509.859    -31788.22    1747.1132   -33535.333    12.372948   0.97793729 
   32300     184.4061    1403.6852    96509.859   -31788.113    1733.6893   -33521.802    12.433459   0.97793729 
   32400    187.23021     1711.555    96509.859   -31788.073    1760.2401   -33548.313    12.461283   0.97793729 
   32500    186.71511    1404.6527    96509.859   -31788.102    1755.3974   -33543.499    12.425641   0.97793729 
   32600    185.78653    1497.5051    96509.859   -31788.061    1746.6674   -33534.728    12.470185   0.97793729 
   32700    185.70139    1591.0635    96509.859   -31788.083    1745.8669    -33533.95    12.458282   0.97793729 
   32800    190.45839    1614.7043    96509.859   -31788.292    1790.5898   -33578.882    12.441491   0.97793729 
   32900    187.15264    1709.6198    96509.859   -31788.094    1759.5109   -33547.605    12.470242   0.97793729 
   33000    183.78876    1568.1386    96509.859   -31788.086    1727.8854   -33515.972    12.532062   0.97793729 
   33100    187.47976    1460.2835    96509.859   -31788.129    1762.5863   -33550.716    12.455824   0.97793729 
   33200    186.82447    1388.0736    96509.859   -31787.957    1756.4256   -33544.383    12.500334   0.97793729 
   33300    185.34935    1464.5948    96509.859   -31787.973    1742.5573    -33530.53      12.5912   0.97793729 
   33400    185.36123    1190.3219    96509.859   -31787.981     1742.669    -33530.65    12.687858   0.97793729 
   33500    190.09454    1199.2592    96509.859   -31788.327     1787.169   -33575.496    12.763333   0.97793729 
   33600    184.04781    1414.5647    96509.859   -31787.914    1730.3209   -33518.235    12.731288   0.97793729 
   33700    190.20611    1661.6891    96509.859   -31788.192     1788.218    -33576.41    12.679889   0.97793729 
   33800    182.56178    1385.6113    96509.859   -31787.859      1716.35   -33504.209    12.776464   0.97793729 
   33900    188.70703    1548.8844    96509.859   -31788.178    1774.1244   -33562.303    12.871015   0.97793729 
   34000    186.56989    1254.6162    96509.859   -31788.018    1754.0322   -33542.051    12.877334   0.97793729 
   34100    183.59366    1231.3673    96509.859   -31788.031    1726.0512   -33514.083    12.848373   0.97793729 
   34200    185.79944    1395.5249    96509.859   -31788.031    1746.7888    -33534.82     12.77143   0.97793729 
   34300     189.5594    1277.3979    96509.859   -31788.281    1782.1379   -33570.419    12.803197   0.97793729 
   34400    185.89936    1483.1065    96509.859   -31787.985    1747.7282   -33535.713    12.808392   0.97793729 
   34500    185.38207    1340.0893    96509.859   -31787.923    1742.8649   -33530.788    12.943883   0.97793729 
   34600    186.64369    1294.0678    96509.859    -31788.16     1754.726   -33542.886    13.122891   0.97793729 
   34700    189.72746    1511.6615    96509.859   -31788.136    1783.7179   -33571.854    13.091908   0.97793729 
   34800    190.93154    1540.7364    96509.859   -31788.414    1795.0381   -33583.452    13.078688   0.97793729 
   34900    192.76073    1345.7863    96509.859    -31788.45    1812.2352   -33600.685    13.118596   0.97793729 
   35000    185.45013     1299.133    96509.859   -31788.068    1743.5047   -33531.573    13.097138   0.97793729 
   35100    186.71703    1251.0404    96509.859   -31788.108    1755.4154   -33543.523    13.220386   0.97793729 
   35200     188.3189    1438.8244    96509.859   -31788.142    1770.4754   -33558.617    13.268053   0.97793729 
   35300    185.63999    1428.5186    96509.859   -31787.881    1745.2897    -33533.17    13.338714   0.97793729 
   35400    186.70186     1410.036    96509.859   -31788.021    1755.2729   -33543.294    13.358299   0.97793729 
   35500    183.22016    1249.5509    96509.859   -31787.973    1722.5397   -33510.512    13.374282   0.97793729 
   35600    185.95512    1206.7387    96509.859   -31788.024    1748.2524   -33536.277    13.456933   0.97793729 
   35700    187.49955    1180.4928    96509.859   -31787.956    1762.7723   -33550.729    13.521301   0.97793729 
   35800    185.64884    1281.1715    96509.859   -31788.008    1745.3729   -33533.381    13.550877   0.97793729 
   35900    181.58644    1310.7776    96509.859   -31787.832    1707.1804   -33495.013    13.566827   0.97793729 
   36000    184.67814    1170.0645    96509.859    -31787.92    1736.2469   -33524.167    13.420605   0.97793729 
   36100    180.87337     1335.383    96509.859   -31787.761    1700.4764   -33488.237    13.477502   0.97793729 
   36200    183.98844    1226.1675    96509.859   -31787.962    1729.7627   -33517.725    13.679482   0.97793729 
   36300    184.70642    1405.3001    96509.859   -31787.886    1736.5127   -33524.398    13.778007   0.97793729 
   36400    185.90559     1657.587    96509.859   -31787.947    1747.7867   -33535.733    13.773422   0.97793729 
   36500    183.26647    1401.7162    96509.859   -31787.974    1722.9751   -33510.949    13.612841   0.97793729 
   36600    186.64541    1401.9976    96509.859   -31788.129    1754.7421   -33542.871     13.55478   0.97793729 
   36700    187.73859    1605.1463    96509.859   -31788.167    1765.0196   -33553.187    13.691978   0.97793729 
   36800    186.98214    1387.6525    96509.859   -31788.002    1757.9079    -33545.91    13.671743   0.97793729 
   36900    189.69189    1451.7125    96509.859   -31787.979    1783.3835   -33571.363    13.730894   0.97793729 
   37000    181.70807    1561.7221    96509.859   -31787.752    1708.3239   -33496.076    13.734815   0.97793729 
   37100     189.8209    1545.1941    96509.859   -31788.162    1784.5964   -33572.758    13.700128   0.97793729 
   37200     187.7297    1356.5443    96509.859   -31788.199    1764.9361   -33553.135    13.667005   0.97793729 
   37300    190.30557    1255.2865    96509.859   -31788.304    1789.1531   -33577.457    13.756159   0.97793729 
   37400    188.09645    1418.2013    96509.859   -31788.094     1768.384   -33556.478    13.818262   0.97793729 
   37500    186.61627    1360.6953    96509.859   -31788.023    1754.4682   -33542.491    13.841548   0.97793729 
   37600    188.07731    1188.0093    96509.859   -31788.283    1768.2041   -33556.487    13.768633   0.97793729 
   37700    187.90668    1643.4481    96509.859   -31788.113       1766.6   -33554.713    13.828058   0.97793729 
   37800    186.11311     1322.214    96509.859    -31788.02    1749.7378   -33537.757    13.690255   0.97793729 
   37900    188.50274    1522.0224    96509.859   -31788.118    1772.2038   -33560.322     13.73797   0.97793729 
   38000    183.71089    1387.3743    96509.859   -31787.964    1727.1533   -33515.117    13.875737   0.97793729 
   38100    186.37328    1245.8154    96509.859   -31788.041    1752.1837   -33540.225    13.953229   0.97793729 
   38200    186.30379    955.20304    96509.859   -31788.072    1751.5304   -33539.603    13.946695   0.97793729 
   38300    188.93989    1434.0846    96509.859   -31788.104    1776.3136   -33564.418    14.094957   0.97793729 
   38400    187.55461    1648.0938    96509.859   -31787.989      1763.29   -33551.279    14.027342   0.97793729 
   38500    190.58761    1480.9802    96509.859    -31788.47    1791.8047   -33580.275    14.045759   0.97793729 
   38600    188.60383    1507.1295    96509.859   -31788.273    1773.1542   -33561.428    14.106831   0.97793729 
   38700    188.11871    1714.9498    96509.859   -31788.137    1768.5934   -33556.731    14.035575   0.97793729 
   38800    191.25789    1549.3019    96509.859   -31788.466    1798.1063   -33586.572    14.120322   0.97793729 
   38900     184.6438    1588.0936    96509.859   -31788.127    1735.9241   -33524.051    14.066294   0.97793729 
   39000    187.26243    1410.3337    96509.859   -31788.158    1760.5431   -33548.702    14.176765   0.97793729 
   39100    189.64023    1303.7054    96509.859   -31788.345    1782.8979   -33571.243     14.22168   0.97793729 
   39200    184.39792    1432.5768    96509.859   -31788.009    1733.6124   -33521.621    14.290693   0.97793729 
   39300    192.36338    1296.4404    96509.859   -31788.171    1808.4995   -33596.671    14.168858   0.97793729 
   39400    190.79731    1479.3637    96509.859   -31788.324    1793.7761     -33582.1    14.074723   0.97793729 
   39500    189.33123    1678.3056    96509.859   -31788.131    1779.9928   -33568.123    14.209526   0.97793729 
   39600    185.94084    1441.4305    96509.859    -31787.97    1748.1182   -33536.088    14.172113   0.97793729 
   39700    189.16898    1419.6988    96509.859    -31788.26    1778.4674   -33566.727    14.263409   0.97793729 
   39800    186.90817    1305.7852    96509.859   -31788.066    1757.2125   -33545.278    14.208101   0.97793729 
   39900    187.09644    1473.9172    96509.859   -31787.928    1758.9825    -33546.91    14.294958   0.97793729 
   40000    184.02686    1334.0159    96509.859   -31787.794    1730.1239   -33517.918    14.183335   0.97793729 
   40100    187.51054    1225.5203    96509.859    -31788.07    1762.8756   -33550.946    14.302953   0.97793729 
   40200    190.61959    1234.8209    96509.859   -31788.218    1792.1052   -33580.323    14.393962   0.97793729 
   40300    184.48353    1190.4991    96509.859    -31787.86    1734.4173   -33522.277    14.291678   0.97793729 
   40400    186.26339    1383.7222    96509.859   -31787.992    1751.1506   -33539.142    14.431986   0.97793729 
   40500    190.43724    1525.6379    96509.859    -31788.38     1790.391   -33578.771    14.514225   0.97793729 
   40600    194.44644    1431.7199    96509.859   -31788.638    1828.0833   -33616.722    14.557613   0.97793729 
   40700    190.16257    1594.2775    96509.859   -31788.255    1787.8086   -33576.063    14.544235   0.97793729 
   40800    189.24658    1787.8918    96509.859   -31788.247     1779.197   -33567.444    14.438659   0.97793729 
   40900    186.21147    1731.5722    96509.859   -31787.841    1750.6624   -33538.504    14.508369   0.97793729 
   41000    189.51387    1392.7823    96509.859   -31788.037    1781.7099   -33569.746    14.464561   0.97793729 
   41100    189.19569    1402.9833    96509.859   -31788.323    1778.7185   -33567.041    14.455277   0.97793729 
   41200    188.47041    1826.4405    96509.859   -31788.128    1771.8998   -33560.028    14.633528   0.97793729 
   41300    186.60737    1727.9395    96509.859   -31788.036    1754.3845   -33542.421    14.547843   0.97793729 
   41400    188.69935    1868.8426    96509.859   -31788.399    1774.0522   -33562.452    14.533042   0.97793729 
   41500    190.11936    1720.1852    96509.859   -31788.324    1787.4024   -33575.727    14.542603   0.97793729 
   41600    190.72016    1609.4162    96509.859   -31788.111    1793.0508   -33581.162    14.728006   0.97793729 
   41700    187.97933    1837.7904    96509.859   -31787.991    1767.2829   -33555.274    14.546876   0.97793729 
   41800    189.81498    1649.2552    96509.859   -31788.315    1784.5407   -33572.855     14.56483   0.97793729 
   41900     187.4508    1813.6287    96509.859   -31787.895     1762.314   -33550.209    14.774531   0.97793729 
   42000    184.34948    1592.1278    96509.859   -31787.878     1733.157   -33521.035    14.845765   0.97793729 
   42100    190.13368    1439.9581    96509.859   -31788.248     1787.537   -33575.785    14.715115   0.97793729 
   42200    187.33661    1430.4276    96509.859   -31788.104    1761.2404   -33549.344    14.740652   0.97793729 
   42300    188.41924    1514.5416    96509.859   -31788.199    1771.4188   -33559.618    14.697017   0.97793729 
   42400    184.07485    1676.2585    96509.859    -31787.87    1730.5751   -33518.445    14.699345   0.97793729 
   42500    187.81597    1590.8033    96509.859   -31788.027    1765.7471   -33553.774    14.782162   0.97793729 
   42600    183.62339    1640.8434    96509.859   -31787.848    1726.3307   -33514.179    14.962955   0.97793729 
   42700    188.40437     1825.476    96509.859   -31788.133    1771.2789   -33559.412    14.896741   0.97793729 
   42800    186.50999    1636.8952    96509.859   -31788.148     1753.469   -33541.617     14.79316   0.97793729 
   42900    187.80949    1427.3232    96509.859   -31788.204    1765.6862   -33553.891    14.900874   0.97793729 
   43000    187.58832    1511.4029    96509.859   -31788.025    1763.6069   -33551.632    14.904624   0.97793729 
   43100    186.68879    1543.7448    96509.859   -31788.114      1755.15   -33543.264    14.977303   0.97793729 
   43200    188.98085    1658.1968    96509.859   -31788.218    1776.6987   -33564.917    15.009944   0.97793729 
   43300    188.63295    1376.6268    96509.859   -31788.153     1773.428   -33561.581    15.112546   0.97793729 
   43400     188.1272    1353.9526    96509.859   -31788.212    1768.6732   -33556.885    15.058599   0.97793729 
   43500    187.28149    1609.9764    96509.859    -31788.06    1760.7222   -33548.782    15.040376   0.97793729 
   43600    183.85394    1515.3788    96509.859   -31787.984    1728.4982   -33516.482    15.091752   0.97793729 
   43700    187.06652    1588.6547    96509.859   -31788.078    1758.7012    -33546.78    15.066483   0.97793729 
   43800    188.14922    1441.8335    96509.859   -31788.214    1768.8802   -33557.094     15.29837   0.97793729 
   43900    188.66647    1406.7984    96509.859   -31788.359     1773.743   -33562.102    15.307063   0.97793729 
   44000    188.86389    1501.0615    96509.859   -31788.126    1775.5991   -33563.726    15.268173   0.97793729 
   44100    184.87029    1595.2043    96509.859   -31787.831    1738.0533   -33525.884    15.259223   0.97793729 
   44200    188.02702    1333.9962    96509.859   -31788.139    1767.7313    -33555.87    15.309038   0.97793729 
   44300    189.01979     1280.747    96509.859   -31788.175    1777.0649    -33565.24    15.280663   0.97793729 
   44400    188.18594    1481.8466    96509.859   -31788.115    1769.2254    -33557.34    15.231541   0.97793729 
   44500    185.26237    1211.1592    96509.859   -31788.069    1741.7396   -33529.808    15.295326   0.97793729 
   44600    186.39739    1337.2188    96509.859   -31787.929    1752.4104    -33540.34    15.427281   0.97793729 
   44700    182.37611    1295.9965    96509.859    -31787.81    1714.6044   -33502.414    15.448552   0.97793729 
   44800    190.94892    1377.0218    96509.859   -31788.273    1795.2015   -33583.474    15.514786   0.97793729 
   44900    187.43081    1200.9274    96509.859   -31788.278    1762.1261   -33550.404     15.53063   0.97793729 
   45000    189.38847    1191.5254    96509.859   -31788.114     1780.531   -33568.645    15.582606   0.97793729 
   45100    187.69458    825.34808    96509.859   -31787.972    1764.6059   -33552.578    15.574087   0.97793729 
   45200    183.75453    1048.3196    96509.859   -31787.991    1727.5636   -33515.555    15.630876   0.97793729 
   45300    181.59552    1101.4186    96509.859   -31787.673    1707.2657   -33494.939     15.72995   0.97793729 
   45400    191.25772    1176.2054    96509.859    -31788.25    1798.1046   -33586.354    15.655548   0.97793729 
   45500    187.35384    1360.0488    96509.859   -31788.054    1761.4024   -33549.456    15.676312   0.97793729 
   45600    189.82055     1392.092    96509.859   -31788.197    1784.5932    -33572.79    15.750653   0.97793729 
   45700    190.68893    1350.1844    96509.859   -31788.388    1792.7572   -33581.145    15.865202   0.97793729 
   45800    189.16604    1469.8278    96509.859   -31788.059    1778.4398   -33566.499    15.824188   0.97793729 
   45900    188.22088    1572.9556    96509.859   -31788.119    1769.5539   -33557.673    15.751437   0.97793729 
   46000    186.50995    1623.5823    96509.859   -31788.128    1753.4686   -33541.597    15.792737   0.97793729 
   46100    188.08841    1708.7268    96509.859   -31788.134    1768.3085   -33556.443    15.887736   0.97793729 
   46200    188.02843    1415.3876    96509.859   -31788.017    1767.7446   -33555.762    15.970643   0.97793729 
   46300     187.4738    1648.9571    96509.859   -31787.972    1762.5303   -33550.502    16.094893   0.97793729 
   46400     188.4519    1377.3901    96509.859   -31788.186    1771.7258   -33559.912    15.962535   0.97793729 
   46500    187.44706    1637.4232    96509.859    -31788.01    1762.2789   -33550.289     15.96006   0.97793729 
   46600    184.65881    1411.4572    96509.859   -31787.753    1736.0651   -33523.819      15.8804   0.97793729 
   46700    189.96505    1570.7349    96509.859   -31788.199    1785.9516   -33574.151    16.026476   0.97793729 
   46800     188.6418    1568.8364    96509.859   -31788.221    1773.5111   -33561.732    16.113058   0.97793729 
   46900    184.76548    1715.9324    96509.859   -31787.768     1737.068   -33524.836    16.071895   0.97793729 
   47000    187.92093    1752.8584    96509.859   -31788.163    1766.7339   -33554.897      16.0067   0.97793729 
   47100    186.86634    1405.7956    96509.859   -31787.894    1756.8192   -33544.714    16.118126   0.97793729 
   47200    189.02874    1770.3305    96509.859   -31788.121    1777.1489    -33565.27    16.232547   0.97793729 
   47300    188.97967     1881.944    96509.859   -31788.285    1776.6876   -33564.973    16.289859   0.97793729 
   47400    182.34853    1443.7121    96509.859   -31787.815    1714.3451    -33502.16    16.354883   0.97793729 
   47500    185.40706    1275.8144    96509.859   -31787.889    1743.0998   -33530.989    16.351174   0.97793729 
   47600     186.2637    1440.4025    96509.859   -31788.033    1751.1535   -33539.187    16.261029   0.97793729 
   47700    189.77227    1681.3588    96509.859   -31788.105    1784.1393   -33572.244    16.190835   0.97793729 
   47800    186.29606    1669.7213    96509.859   -31787.931    1751.4578   -33539.389    16.353846   0.97793729 
   47900    188.88427    1687.5767    96509.859   -31788.183    1775.7907   -33563.974    16.327997   0.97793729 
   48000    187.34709    1606.1622    96509.859   -31788.047    1761.3389   -33549.386    16.437814   0.97793729 
   48100    186.86939    1453.8444    96509.859   -31788.295    1756.8479   -33545.143     16.50126   0.97793729 
   48200    190.22322    1610.6518    96509.859   -31788.147    1788.3788   -33576.526    16.555183   0.97793729 
   48300    190.12406    1445.6658    96509.859   -31788.297    1787.4466   -33575.743    16.482573   0.97793729 
   48400    186.97551    1538.8101    96509.859   -31788.016    1757.8456   -33545.862    16.503628   0.97793729 
   48500    184.10973    1470.9837    96509.859   -31787.985     1730.903   -33518.888    16.577837   0.97793729 
   48600    188.47367     1559.028    96509.859    -31787.78    1771.9304   -33559.711    16.632613   0.97793729 
   48700    189.00285    1788.5808    96509.859   -31787.996    1776.9055   -33564.902    16.635847   0.97793729 
   48800    189.14671    1625.8361    96509.859   -31787.891    1778.2581   -33566.149    16.659349   0.97793729 
   48900      188.906     1758.511    96509.859   -31787.989     1775.995   -33563.984    16.667551   0.97793729 
   49000    187.34166    1698.5767    96509.859   -31787.759    1761.2879   -33549.047    16.767484   0.97793729 
   49100    189.56803     1358.702    96509.859    -31788.16     1782.219   -33570.379    16.781032   0.97793729 
   49200    189.24261    1413.0524    96509.859   -31788.119    1779.1597   -33567.279     16.78378   0.97793729 
   49300    191.71681    1231.5428    96509.859    -31788.32    1802.4208   -33590.741    16.796673   0.97793729 
   49400    188.16407    1255.5774    96509.859   -31788.265    1769.0198   -33557.285    16.804014   0.97793729 
   49500    187.61885    1496.6583    96509.859   -31788.033    1763.8939   -33551.927    16.827042   0.97793729 
   49600    188.92637    1333.1873    96509.859   -31788.245    1776.1865   -33564.432    16.781484   0.97793729 
   49700    189.96214    1347.4841    96509.859   -31788.305    1785.9243   -33574.229    16.753356   0.97793729 
   49800     191.9209     1335.649    96509.859    -31788.37    1804.3395   -33592.709    16.777926   0.97793729 
   49900    187.13725    1439.1433    96509.859   -31788.001    1759.3662   -33547.368     16.92702   0.97793729 
   50000     187.3512    1422.7753    96509.859   -31788.162    1761.3776   -33549.539    16.940542   0.97793729 
   50100       187.98    1542.1886    96509.859   -31788.049    1767.2893   -33555.339    16.908676   0.97793729 
   50200    185.85208    1487.3299    96509.859   -31787.769    1747.2837   -33535.053    16.935408   0.97793729 
   50300     189.2704    1451.8493    96509.859   -31788.313    1779.4209   -33567.734    16.967929   0.97793729 
   50400    185.89811    1555.4981    96509.859   -31787.832    1747.7164   -33535.548    16.831656   0.97793729 
   50500    186.61941    1472.7874    96509.859   -31788.106    1754.4977   -33542.604    16.866958   0.97793729 
   50600    189.05623    1175.2852    96509.859   -31788.202    1777.4074   -33565.609    16.990485   0.97793729 
   50700    187.35015    1216.4734    96509.859   -31788.171    1761.3678   -33549.539     17.13518   0.97793729 
   50800    187.72944    1311.2008    96509.859   -31788.236    1764.9336    -33553.17    17.165836   0.97793729 
   50900    184.46284    1052.1713    96509.859   -31787.925    1734.2227   -33522.148    16.999353   0.97793729 
   51000    185.51716    1121.3439    96509.859   -31788.088    1744.1349   -33532.223    16.997617   0.97793729 
   51100    186.84524    1319.7917    96509.859   -31788.161    1756.6209   -33544.782    17.122245   0.97793729 
   51200    183.66914    1207.4996    96509.859   -31787.786    1726.7608   -33514.546    17.204377   0.97793729 
   51300    189.19489    1295.4573    96509.859   -31788.115     1778.711   -33566.826    17.171683   0.97793729 
   51400    184.82016    1093.0872    96509.859   -31787.915    1737.5821   -33525.497    17.162285   0.97793729 
   51500    188.04578    1288.8439    96509.859   -31788.148    1767.9077   -33556.056    17.309995   0.97793729 
   51600    188.37542    830.83983    96509.859   -31788.287    1771.0067   -33559.293    17.302955   0.97793729 
   51700    188.61878    1376.5281    96509.859   -31788.126    1773.2947    -33561.42    17.367008   0.97793729 
   51800    186.66485    1198.4867    96509.859   -31787.854    1754.9249   -33542.779    17.188385   0.97793729 
   51900    190.17557    1246.1008    96509.859   -31788.119    1787.9308    -33576.05    17.342141   0.97793729 
   52000    185.71818    1390.6805    96509.859   -31788.076    1746.0248   -33534.101    17.449506   0.97793729 
   52100     183.3628    1290.0441    96509.859   -31787.984    1723.8807   -33511.865    17.447202   0.97793729 
   52200    191.19268    1268.6171    96509.859   -31788.327    1797.4932   -33585.821    17.441829   0.97793729 
   52300    186.88701    1490.4238    96509.859   -31787.941    1757.0136   -33544.955    17.451036   0.97793729 
   52400     187.0256    1351.6518    96509.859   -31788.051    1758.3165   -33546.368    17.591823   0.97793729 
   52500    187.59394    1496.6457    96509.859   -31788.186    1763.6597   -33551.846    17.603883   0.97793729 
   52600     188.0326    1356.3361    96509.859   -31788.221    1767.7837   -33556.005    17.531419   0.97793729 
   52700    189.93024    1379.3901    96509.859   -31788.413    1785.6244   -33574.037    17.510153   0.97793729 
   52800    186.26749    1612.6627    96509.859   -31788.042    1751.1892   -33539.231    17.620978   0.97793729 
   52900    186.63342    1386.0356    96509.859   -31788.297    1754.6294   -33542.927    17.697637   0.97793729 
   53000    184.60615    1530.5546    96509.859   -31787.805      1735.57   -33523.375    17.653704   0.97793729 
   53100     185.3743    1449.3308    96509.859   -31787.935    1742.7918   -33530.726     17.52287   0.97793729 
   53200    190.56316     1302.616    96509.859   -31788.391    1791.5748   -33579.966    17.449091   0.97793729 
   53300    185.57729     1403.513    96509.859   -31788.074    1744.7002   -33532.775    17.536075   0.97793729 
   53400    188.16576    1458.9283    96509.859   -31788.098    1769.0357   -33557.133    17.592469   0.97793729 
   53500     187.8558    1757.0027    96509.859   -31788.106    1766.1216   -33554.228    17.771286   0.97793729 
   53600    193.69978    1510.5183    96509.859   -31788.389    1821.0636   -33609.452    17.773439   0.97793729 
   53700    190.20337    1397.1509    96509.859   -31788.241    1788.1923   -33576.434    17.772464   0.97793729 
   53800    187.85452    1435.4437    96509.859   -31788.012    1766.1096   -33554.121    17.836006   0.97793729 
   53900    188.42173    1313.6173    96509.859   -31788.098    1771.4422    -33559.54    17.783797   0.97793729 
   54000    187.67995    1653.7616    96509.859   -31788.285    1764.4684   -33552.754    17.786164   0.97793729 
   54100    187.48048    1277.7736    96509.859   -31788.321     1762.593   -33550.914    17.693846   0.97793729 
   54200    188.12319    1384.7843    96509.859   -31788.158    1768.6354   -33556.793    17.849089   0.97793729 
   54300    189.85676    1689.1386    96509.859   -31788.102    1784.9336   -33573.035     17.94272   0.97793729 
   54400    185.17874    1446.9351    96509.859   -31788.048    1740.9532   -33529.002    18.125439   0.97793729 
   54500    188.24134    1404.6524    96509.859   -31787.979    1769.7463   -33557.725    18.062604   0.97793729 
   54600    188.08096    1524.3426    96509.859   -31788.171    1768.2385    -33556.41    18.033028   0.97793729 
   54700     187.0754    1478.5194    96509.859   -31788.089    1758.7847   -33546.874    18.122028   0.97793729 
   54800    187.14274    1386.4015    96509.859   -31788.161    1759.4177   -33547.579    18.176685   0.97793729 
   54900    184.81228    1372.1815    96509.859   -31788.095     1737.508   -33525.603      18.1599   0.97793729 
   55000    187.98065    1185.8428    96509.859   -31788.095    1767.2954   -33555.391    18.178843   0.97793729 
   55100    188.51358     1288.995    96509.859   -31788.116    1772.3057   -33560.421    18.397638   0.97793729 
   55200    187.92649    1329.9386    96509.859   -31788.277    1766.7862   -33555.063    18.406185   0.97793729 
   55300    187.25369    1405.7386    96509.859   -31788.412    1760.4608   -33548.873    18.349715   0.97793729 
   55400    188.37649    1375.5851    96509.859   -31788.183    1771.0169     -33559.2    18.337131   0.97793729 
   55500    186.63085    1473.6207    96509.859   -31788.164    1754.6053    -33542.77    18.382431   0.97793729 
   55600    188.42111    1215.9367    96509.859   -31788.172    1771.4363   -33559.608     18.55491   0.97793729 
   55700    187.10921     1409.408    96509.859   -31788.109    1759.1025   -33547.212    18.546326   0.97793729 
   55800    189.03365    1602.0667    96509.859   -31788.159    1777.1952   -33565.354    18.635153   0.97793729 
   55900    188.02526    1538.2658    96509.859   -31788.126    1767.7148    -33555.84    18.614772   0.97793729 
   56000    187.30282    1364.9309    96509.859   -31788.111    1760.9228   -33549.034    18.565203   0.97793729 
   56100    187.60773    1121.1662    96509.859   -31788.261    1763.7894    -33552.05     18.70729   0.97793729 
   56200    187.32625    1339.9913    96509.859   -31788.025    1761.1431   -33549.168    18.636268   0.97793729 
   56300    187.37523     1382.725    96509.859   -31787.922    1761.6035   -33549.526    18.482758   0.97793729 
   56400     186.0396    1613.4028    96509.859   -31788.195    1749.0466   -33537.241    18.683746   0.97793729 
   56500    188.97606    1713.7841    96509.859   -31788.007    1776.6536   -33564.661    18.778911   0.97793729 
   56600    190.04083    1512.8172    96509.859   -31788.255    1786.6641    -33574.92    18.789495   0.97793729 
   56700     185.8202    1580.1908    96509.859   -31788.065    1746.9839   -33535.049    18.682091   0.97793729 
   56800    190.21794    1432.3257    96509.859   -31788.448    1788.3292   -33576.778    18.804862   0.97793729 
   56900    185.48505    1465.2345    96509.859   -31787.849     1743.833   -33531.683    18.733294   0.97793729 
   57000    188.64666     1462.439    96509.859   -31788.185    1773.5568   -33561.742    18.860829   0.97793729 
   57100    186.89328    1525.0166    96509.859   -31787.861    1757.0724   -33544.933    18.867564   0.97793729 
   57200    186.06564    1529.7949    96509.859   -31787.943    1749.2914   -33537.235    19.039802   0.97793729 
   57300    188.77975    1636.0984    96509.859   -31788.225    1774.8081   -33563.033    18.969505   0.97793729 
   57400    185.38636    1298.6695    96509.859   -31788.047    1742.9052   -33530.952    18.965016   0.97793729 
   57500     183.0023    1542.3473    96509.859   -31787.803    1720.4915   -33508.295    18.956496   0.97793729 
   57600    187.88783    1741.9629    96509.859   -31788.023    1766.4227   -33554.445    19.038093   0.97793729 
   57700    181.83719    1475.3963    96509.859   -31787.628    1709.5378   -33497.166     19.14961   0.97793729 
   57800    186.10831    1429.8666    96509.859   -31787.918    1749.6926   -33537.611    19.189163   0.97793729 
   57900    190.05542    1587.6941    96509.859   -31788.293    1786.8012   -33575.094    19.098315   0.97793729 
   58000    193.01067    1492.9061    96509.859   -31788.537     1814.585   -33603.122    19.226667   0.97793729 
   58100      188.178    1641.6239    96509.859   -31788.215    1769.1507   -33557.366    19.370137   0.97793729 
   58200    187.26192    1716.3284    96509.859   -31788.295    1760.5382   -33548.833    19.371781   0.97793729 
   58300    187.07837    1539.3125    96509.859   -31788.074    1758.8126   -33546.886    19.394518   0.97793729 
   58400    186.58383    1546.9554    96509.859   -31788.174    1754.1632   -33542.337    19.289483   0.97793729 
   58500    188.31893    1410.1774    96509.859   -31787.878    1770.4757   -33558.354    19.490335   0.97793729 
   58600     186.9062    1531.2218    96509.859   -31788.201     1757.194   -33545.395    19.603373   0.97793729 
   58700    189.29519    1449.5941    96509.859   -31788.237     1779.654   -33567.891    19.533315   0.97793729 
   58800    186.21993    1135.5946    96509.859   -31787.952     1750.742   -33538.694    19.573156   0.97793729 
   58900    191.43757    1412.0864    96509.859   -31788.122    1799.7955   -33587.918    19.553264   0.97793729 
   59000    190.25067    1393.3293    96509.859    -31788.31    1788.6369   -33576.947    19.256208   0.97793729 
   59100    188.10855    1497.7397    96509.859   -31788.161    1768.4978   -33556.659    19.382783   0.97793729 
   59200     190.2199    1291.3375    96509.859   -31788.191    1788.3476   -33576.539     19.51682   0.97793729 
   59300    186.61109    1465.0113    96509.859   -31788.162    1754.4195   -33542.581      19.4606   0.97793729 
   59400     190.6995    1411.8993    96509.859   -31788.431    1792.8566   -33581.288    19.400241   0.97793729 
   59500     190.7401    1948.4644    96509.859   -31788.197    1793.2383   -33581.435    19.406254   0.97793729 
   59600    188.96829    1735.6839    96509.859   -31788.297    1776.5806   -33564.877    19.455585   0.97793729 
   59700    187.67848    1704.0517    96509.859   -31788.065    1764.4546   -33552.519    19.489995   0.97793729 
   59800    190.47121    1380.5252    96509.859   -31788.423    1790.7103   -33579.133    19.426327   0.97793729 
   59900    188.26062    1735.5338    96509.859   -31788.201    1769.9275   -33558.129    19.563212   0.97793729 
   60000    188.20799    1473.7434    96509.859   -31788.243    1769.4327   -33557.676    19.584315   0.97793729 
   60100    189.30268      1402.96    96509.859   -31788.151    1779.7244   -33567.876    19.649729   0.97793729 
   60200    183.98971    1479.6609    96509.859   -31787.872    1729.7746   -33517.646    19.799254   0.97793729 
   60300    190.29054    1455.3787    96509.859   -31788.293    1789.0118   -33577.304    19.701004   0.97793729 
   60400    189.81342    1352.1666    96509.859   -31788.291    1784.5261   -33572.817    19.659123   0.97793729 
   60500    185.36351    1359.1798    96509.859   -31787.928    1742.6904   -33530.618    19.746283   0.97793729 
   60600    188.52016    1314.7463    96509.859   -31788.138    1772.3676   -33560.505    19.900985   0.97793729 
   60700    190.95947    1400.2029    96509.859   -31788.176    1795.3006   -33583.477    19.776259   0.97793729 
   60800    190.11401    1490.2714    96509.859   -31788.345    1787.3521   -33575.697    19.853421   0.97793729 
   60900    188.05214    1323.2999    96509.859   -31788.009    1767.9675   -33555.977    19.858135   0.97793729 
   61000    187.05347    1206.3664    96509.859   -31788.086    1758.5785   -33546.664    19.884804   0.97793729 
   61100    188.56151    1313.5722    96509.859    -31788.05    1772.7563   -33560.806    19.895624   0.97793729 
   61200    188.74396    1356.1265    96509.859   -31788.114    1774.4716   -33562.586    19.984979   0.97793729 
   61300    182.84299    1176.8584    96509.859   -31787.889    1718.9938   -33506.883     19.97578   0.97793729 
   61400    186.07774    1362.8154    96509.859   -31787.891    1749.4052   -33537.296    20.025206   0.97793729 
   61500     190.9623    1384.3462    96509.859   -31788.101    1795.3273   -33583.429    20.093204   0.97793729 
   61600    187.50979    1287.1031    96509.859   -31787.965    1762.8686   -33550.833    19.980406   0.97793729 
   61700    185.66124    1372.8384    96509.859   -31787.892    1745.4895   -33533.381    20.077195   0.97793729 
   61800    186.31907     1304.777    96509.859    -31788.02    1751.6741   -33539.694    20.074534   0.97793729 
   61900    190.13832    1152.0604    96509.859   -31788.076    1787.5806   -33575.657    20.083574   0.97793729 
   62000    189.99373    1539.9459    96509.859   -31788.408    1786.2213   -33574.629    20.070392   0.97793729 
   62100    185.42906    1175.5328    96509.859    -31788.02    1743.3067   -33531.327    20.106479   0.97793729 
   62200    188.76177    1153.0612    96509.859   -31788.172    1774.6391   -33562.811    20.186176   0.97793729 
   62300    186.31839    1219.7359    96509.859   -31787.998    1751.6677   -33539.665    20.188119   0.97793729 
   62400    188.50738    1413.3282    96509.859   -31788.103    1772.2474    -33560.35    20.026339   0.97793729 
   62500    186.12602    1417.6286    96509.859   -31787.988    1749.8591   -33537.847    20.024274   0.97793729 
   62600    187.74593    1214.5753    96509.859   -31788.109    1765.0887   -33553.197    20.169209   0.97793729 
   62700    187.21059    1475.3332    96509.859   -31788.123    1760.0557   -33548.179    20.210192   0.97793729 
   62800     181.6543    1550.9362    96509.859   -31787.806    1707.8183   -33495.624    20.297442   0.97793729 
   62900    188.91648     1521.599    96509.859   -31788.329    1776.0935   -33564.422    20.176868   0.97793729 
   63000    186.01426    1298.2523    96509.859   -31788.176    1748.8084   -33536.984    20.117115   0.97793729 
   63100    186.35152     1419.131    96509.859   -31788.084    1751.9791   -33540.063    20.147275   0.97793729 
   63200    186.40824    1220.2087    96509.859   -31787.983    1752.5124   -33540.495    20.370747   0.97793729 
   63300    191.92954    1413.8827    96509.859   -31788.434    1804.4207   -33592.855    20.347844   0.97793729 
   63400    187.73313    1122.5861    96509.859   -31788.146    1764.9683   -33553.114    20.414881   0.97793729 
   63500    187.03614    1393.8595    96509.859   -31788.045    1758.4156    -33546.46    20.293769   0.97793729 
   63600    187.19472    1338.4031    96509.859   -31787.977    1759.9065   -33547.883    20.372545   0.97793729 
   63700    186.90525    1267.3554    96509.859   -31788.196     1757.185   -33545.381    20.446734   0.97793729 
   63800    186.97284    1276.9747    96509.859     -31787.9    1757.8205   -33545.721    20.490913   0.97793729 
   63900     183.6658    1418.6399    96509.859   -31787.998    1726.7294   -33514.727    20.491001   0.97793729 
   64000    185.10307    1328.9166    96509.859   -31787.904    1740.2419   -33528.146    20.536381   0.97793729 
   64100    186.45436    1308.6708    96509.859   -31787.866     1752.946   -33540.812    20.465697   0.97793729 
   64200    187.18679    1394.0201    96509.859   -31788.045    1759.8319   -33547.876     20.57563   0.97793729 
   64300    190.91771    1710.5289    96509.859   -31788.001     1794.908   -33582.909    20.545396   0.97793729 
   64400    192.26984    1567.5366    96509.859   -31788.406      1807.62   -33596.026    20.547233   0.97793729 
   64500    186.13719    1602.2946    96509.859   -31788.099    1749.9641   -33538.063    20.594874   0.97793729 
   64600    190.26753    1651.4785    96509.859   -31788.057    1788.7954   -33576.852    20.626325   0.97793729 
   64700    188.23498      1542.48    96509.859   -31788.128    1769.6865   -33557.814    20.645167   0.97793729 
   64800    185.05008    1651.8505    96509.859   -31787.925    1739.7436   -33527.669    20.738885   0.97793729 
   64900    188.22546    1347.8099    96509.859   -31788.196    1769.5969   -33557.793    20.698414   0.97793729 
   65000     187.0928    1466.3627    96509.859   -31788.223    1758.9483   -33547.171    20.802881   0.97793729 
   65100    184.70075    1287.4169    96509.859   -31787.723    1736.4594   -33524.182    20.794611   0.97793729 
   65200    186.12666    1367.1626    96509.859   -31788.057    1749.8651   -33537.922    20.782777   0.97793729 
   65300    192.91854    1401.5016    96509.859   -31788.319    1813.7188   -33602.038     20.73023   0.97793729 
   65400    185.88968    1422.3481    96509.859    -31788.12    1747.6372   -33535.757    20.867822   0.97793729 
   65500    184.19738     1180.052    96509.859   -31787.882     1731.727   -33519.609    21.124445   0.97793729 
   65600    186.43283    1195.6684    96509.859   -31787.986    1752.7436    -33540.73     21.10311   0.97793729 
   65700    188.18681    1222.6267    96509.859   -31788.245    1769.2336   -33557.479    20.950967   0.97793729 
   65800    186.82906    1018.6467    96509.859   -31787.829    1756.4687   -33544.298    20.790824   0.97793729 
   65900    188.33801    1171.1329    96509.859   -31788.227    1770.6551   -33558.882    20.767955   0.97793729 
   66000    185.86014    1157.0887    96509.859   -31788.043    1747.3595   -33535.403    20.914163   0.97793729 
   66100    187.25729    1290.9124    96509.859   -31788.244    1760.4947   -33548.739    20.930949   0.97793729 
   66200    186.22889    1194.8412    96509.859   -31788.169    1750.8262   -33538.996    21.053198   0.97793729 
   66300    183.94218    1034.6251    96509.859   -31787.856    1729.3278   -33517.184    21.308225   0.97793729 
   66400    182.70132    1319.3661    96509.859   -31787.955    1717.6619   -33505.617    21.396944   0.97793729 
   66500    186.57322    1378.2575    96509.859   -31787.964    1754.0635   -33542.027     21.09851   0.97793729 
   66600    184.29066    1316.2136    96509.859   -31787.969     1732.604   -33520.573    21.100972   0.97793729 
   66700    185.63356    1285.1077    96509.859    -31788.21    1745.2292   -33533.439    21.235839   0.97793729 
   66800    186.02033    1730.8211    96509.859    -31788.04    1748.8654   -33536.905    21.327969   0.97793729 
   66900    192.39652    1539.1114    96509.859   -31788.406    1808.8111   -33597.217    21.401547   0.97793729 
   67000    186.12008    1487.5862    96509.859   -31788.018    1749.8033   -33537.822    21.501127   0.97793729 
[...]
  284400    240.51744   -790.82321     97255.51   -29711.665    2261.2187   -31972.884    633.69135   0.97043952 
  284500    240.97064   -995.85711     97255.51   -29711.297    2265.4794   -31976.776    634.30749   0.97043952 
  284600    241.92684   -761.13691     97255.51    -29711.35    2274.4692   -31985.819    634.26238   0.97043952 
  284700    243.73361   -732.46928     97255.51   -29711.604    2291.4554   -32003.059    633.76375   0.97043952 
  284800     245.4842   -795.59362     97255.51   -29711.661    2307.9135   -32019.575    634.50733   0.97043952 
  284900    243.03678   -691.29839     97255.51   -29711.594    2284.9042   -31996.498    634.05185   0.97043952 
  285000    243.95859   -429.42036     97255.51   -29711.536    2293.5706   -32005.107    635.44731   0.97043952 
  285100    245.25585   -372.52555     97255.51   -29711.638    2305.7667   -32017.405    636.86244   0.97043952 
  285200    244.55893   -226.02563     97255.51   -29711.537    2299.2146   -32010.752    637.11467   0.97043952 
  285300    236.35599   -826.72695     97255.51   -29711.498    2222.0949   -31933.593    637.90017   0.97043952 
  285400     241.4616   -585.06383     97255.51   -29711.475    2270.0951    -31981.57    638.90958   0.97043952 
  285500    243.45632   -599.67064     97255.51   -29711.438    2288.8484   -32000.286    638.46375   0.97043952 
  285600    246.32064   -511.37334     97255.51   -29711.707    2315.7773   -32027.484    640.00015   0.97043952 
  285700    244.33183   -402.83951     97255.51   -29711.443    2297.0796   -32008.522    640.20792   0.97043952 
  285800    241.17531   -161.39764     97255.51   -29711.379    2267.4036   -31978.783     640.9402   0.97043952 
  285900     246.0293   -24.070782     97255.51   -29711.341    2313.0383   -32024.379    640.88774   0.97043952 
  286000    246.61721   -143.78935     97255.51   -29711.674    2318.5655    -32030.24    641.49944   0.97043952 
  286100    248.38364   -189.23092     97255.51   -29711.747    2335.1726    -32046.92    642.72865   0.97043952 
  286200    243.58766   -25.183025     97255.51    -29711.47    2290.0833   -32001.553    642.88897   0.97043952 
  286300     245.0003   -218.07255     97255.51   -29711.535    2303.3642   -32014.899    643.91484   0.97043952 
  286400    242.47278   -84.238081     97255.51   -29711.505    2279.6017   -31991.107    645.17672   0.97043952 
  286500    242.29357   -2.6279107     97255.51   -29711.507    2277.9169   -31989.424    644.87368   0.97043952 
  286600    251.14293   -45.328182     97255.51     -29712.1    2361.1139   -32073.214    644.92739   0.97043952 
  286700    241.23184   -658.86327     97255.51    -29711.16    2267.9351   -31979.095    645.44757   0.97043952 
  286800    243.39535   -666.02394     97255.51   -29711.549    2288.2753   -31999.825    646.72011   0.97043952 
  286900    239.25814   -568.15463     97255.51   -29711.233    2249.3794   -31960.612    646.52649   0.97043952 
  287000    245.56941    250.88569     97255.51   -29711.338    2308.7147   -32020.053    646.55976   0.97043952 
  287100    248.38219    -299.4766     97255.51   -29711.821    2335.1589    -32046.98    647.14458   0.97043952 
  287200    243.09584   -415.31171     97255.51   -29711.717    2285.4594   -31997.176    648.50862   0.97043952 
  287300      236.956   -434.03488     97255.51   -29711.286    2227.7359   -31939.022    649.52408   0.97043952 
  287400    248.09612   -82.654713     97255.51   -29712.043    2332.4695   -32044.512    649.65974   0.97043952 
  287500    243.59855   -468.93209     97255.51   -29711.613    2290.1857   -32001.799    649.60827   0.97043952 
  287600    246.51357   -293.43076     97255.51   -29711.315    2317.5911   -32028.906     649.7651   0.97043952 
  287700    239.06545   -330.51452     97255.51   -29711.112    2247.5678    -31958.68    650.68988   0.97043952 
  287800    239.27109   -359.01425     97255.51   -29711.316    2249.5012   -31960.818    650.39022   0.97043952 
  287900    245.22437   -498.75347     97255.51   -29711.723    2305.4708   -32017.193    650.82981   0.97043952 
  288000    238.54128   -185.52827     97255.51   -29711.431    2242.6398   -31954.071    651.01748   0.97043952 
  288100    239.63301   -404.70432     97255.51   -29711.268    2252.9037   -31964.172    651.91966   0.97043952 
  288200    240.86038   -249.88359     97255.51   -29711.307    2264.4428    -31975.75    652.30272   0.97043952 
  288300    243.59113   -395.96105     97255.51   -29711.512    2290.1159   -32001.628    652.07515   0.97043952 
  288400    243.52557   -298.73744     97255.51   -29711.659    2289.4995   -32001.158    652.94368   0.97043952 
  288500    239.86109   -347.47839     97255.51   -29711.253     2255.048   -31966.301    652.57278   0.97043952 
  288600    243.09037   -581.68365     97255.51    -29711.45     2285.408   -31996.858    653.66186   0.97043952 
  288700    240.44542   -580.49319     97255.51   -29711.444    2260.5416   -31971.985    653.45514   0.97043952 
  288800    250.42628   -399.58047     97255.51   -29711.783    2354.3764   -32066.159    653.81872   0.97043952 
  288900    247.78378   -547.50139     97255.51    -29711.64     2329.533   -32041.173    654.98313   0.97043952 
  289000    241.65372    -220.7959     97255.51   -29711.577    2271.9014   -31983.478    655.07857   0.97043952 
  289100    245.31725   -545.57112     97255.51   -29711.691     2306.344   -32018.035     654.7961   0.97043952 
  289200    243.49197   -277.02113     97255.51   -29711.843    2289.1837   -32001.026      654.825   0.97043952 
  289300    238.98645   -426.80065     97255.51   -29711.434    2246.8251   -31958.259    654.70413   0.97043952 
  289400    239.53298   -644.51869     97255.51    -29711.44    2251.9633   -31963.403    654.28821   0.97043952 
  289500    239.58752   -551.25201     97255.51   -29711.287     2252.476   -31963.763    654.70696   0.97043952 
  289600    241.51797    -239.6127     97255.51   -29711.453    2270.6251   -31982.078    654.73511   0.97043952 
  289700     248.1279   -267.80848     97255.51    -29711.72    2332.7682   -32044.488       654.84   0.97043952 
  289800    247.15039    0.2208616     97255.51   -29712.017    2323.5782   -32035.595    655.07161   0.97043952 
  289900    244.75022   -242.45385     97255.51   -29711.532    2301.0131   -32012.545    655.89225   0.97043952 
  290000    246.86374   -805.22925     97255.51   -29711.625    2320.8833   -32032.508    655.38287   0.97043952 
  290100    242.13981   -234.74802     97255.51   -29711.382    2276.4713   -31987.853    655.56562   0.97043952 
  290200     242.9386   -467.12827     97255.51   -29711.682    2283.9811   -31995.663    655.63272   0.97043952 
  290300    237.54624   -506.49411     97255.51   -29711.269     2233.285   -31944.554    655.16053   0.97043952 
  290400    241.04333    -379.2102     97255.51   -29711.364    2266.1629   -31977.527    655.31938   0.97043952 
  290500    237.79814    148.87672     97255.51   -29711.237    2235.6532    -31946.89    656.41514   0.97043952 
  290600    247.33146   -236.38837     97255.51    -29711.83    2325.2805    -32037.11    656.60972   0.97043952 
  290700    243.93236    60.643154     97255.51   -29711.478    2293.3239   -32004.802    657.25618   0.97043952 
  290800    243.42406   -583.25138     97255.51   -29711.773    2288.5452   -32000.318    657.91725   0.97043952 
  290900    244.06921   -680.20313     97255.51   -29711.496    2294.6106   -32006.107    657.69613   0.97043952 
  291000    245.55902   -414.90387     97255.51   -29711.763     2308.617    -32020.38    658.27457   0.97043952 
  291100    245.96527   -225.14794     97255.51   -29711.569    2312.4363   -32024.006    660.00827   0.97043952 
  291200    241.56851    -276.1989     97255.51   -29711.226    2271.1002   -31982.326    660.62817   0.97043952 
  291300    240.13206   -489.25303     97255.51   -29711.431    2257.5955   -31969.027      660.017   0.97043952 
  291400    242.21051   -292.66626     97255.51    -29711.42     2277.136   -31988.556    660.57404   0.97043952 
  291500    242.38295   -195.05957     97255.51     -29711.6    2278.7572   -31990.357    659.93945   0.97043952 
  291600    242.80559    236.26482     97255.51   -29711.511    2282.7307   -31994.241    660.10203   0.97043952 
  291700    242.14877    -245.7392     97255.51   -29711.564    2276.5556    -31988.12    660.90785   0.97043952 
  291800    243.47785   -373.74429     97255.51   -29711.496    2289.0509   -32000.547    661.61219   0.97043952 
  291900    244.70621   -393.53636     97255.51    -29711.52    2300.5993   -32012.119    662.00246   0.97043952 
  292000    246.56392   -138.89854     97255.51   -29711.876    2318.0645    -32029.94    662.78224   0.97043952 
  292100    243.82656   -220.60458     97255.51    -29711.57    2292.3293   -32003.899    663.44511   0.97043952 
  292200    246.69577    -256.6858     97255.51   -29711.645    2319.3041   -32030.949     662.6634   0.97043952 
  292300    246.58161   -265.09263     97255.51    -29711.61    2318.2308   -32029.841     663.3032   0.97043952 
  292400    251.12311    -236.4665     97255.51   -29712.006    2360.9276   -32072.934    663.95137   0.97043952 
  292500    244.43896   -347.38854     97255.51     -29711.7    2298.0868   -32009.786    664.89826   0.97043952 
  292600    244.94596   -260.37498     97255.51   -29711.497    2302.8533   -32014.351    664.47771   0.97043952 
  292700    245.77374   -763.17738     97255.51   -29711.758    2310.6357   -32022.393    665.60279   0.97043952 
  292800    243.72756   -532.81481     97255.51    -29711.57    2291.3985   -32002.969    665.85309   0.97043952 
  292900    243.67145   -358.99936     97255.51   -29711.554    2290.8711   -32002.425    665.03317   0.97043952 
  293000    244.64664   -362.53665     97255.51   -29712.091    2300.0393    -32012.13    666.17367   0.97043952 
  293100    242.69459     162.6807     97255.51   -29711.285    2281.6871   -31992.972      667.221   0.97043952 
  293200    242.25824   -606.20051     97255.51   -29711.227    2277.5847   -31988.812    666.62203   0.97043952 
  293300    245.58005   -242.15538     97255.51   -29711.555    2308.8147   -32020.369    666.64684   0.97043952 
  293400    242.25473   -326.56242     97255.51   -29711.441    2277.5518   -31988.993    666.97322   0.97043952 
  293500    238.59678   -623.32772     97255.51   -29711.336    2243.1617   -31954.498     667.2982   0.97043952 
  293600    246.01285   -275.12295     97255.51   -29711.837    2312.8836   -32024.721    667.72875   0.97043952 
  293700    244.91272    -338.6262     97255.51   -29711.555    2302.5408   -32014.096    668.64715   0.97043952 
  293800    246.33457   -584.57602     97255.51   -29711.488    2315.9083   -32027.396    668.83184   0.97043952 
  293900    237.83691   -248.77494     97255.51   -29711.417    2236.0177   -31947.435    669.25338   0.97043952 
  294000    242.66472   -730.98336     97255.51   -29711.551    2281.4062   -31992.957    669.75465   0.97043952 
  294100    241.11908   -95.277561     97255.51   -29711.454     2266.875   -31978.329    669.92903   0.97043952 
  294200    241.71908   -471.74785     97255.51   -29711.683    2272.5159   -31984.199    670.32915   0.97043952 
  294300    239.51701   -248.07053     97255.51   -29711.222    2251.8132   -31963.035    670.65459   0.97043952 
  294400     244.7976   -371.52624     97255.51   -29711.651    2301.4585   -32013.109    671.31712   0.97043952 
  294500     242.7963   -750.84467     97255.51   -29711.513    2282.6433   -31994.156    670.99226   0.97043952 
  294600    242.06132   -249.25319     97255.51   -29711.431    2275.7334   -31987.165    671.19682   0.97043952 
  294700    239.70774   -158.52058     97255.51    -29711.36    2253.6063   -31964.966    671.63362   0.97043952 
  294800    242.23752   -551.29333     97255.51   -29711.619    2277.3899   -31989.009    671.93922   0.97043952 
  294900    245.74403   -15.661317     97255.51   -29711.776    2310.3563   -32022.132    671.78514   0.97043952 
  295000    244.51487   -246.25221     97255.51    -29711.52    2298.8004    -32010.32    671.94304   0.97043952 
  295100    238.30133   -522.51656     97255.51   -29711.245    2240.3839   -31951.629     673.3093   0.97043952 
  295200    240.51986   -435.31215     97255.51   -29711.154    2261.2414   -31972.396     674.6078   0.97043952 
  295300    245.05059   -332.49114     97255.51   -29711.408     2303.837   -32015.245    674.74553   0.97043952 
  295400    246.31445    -360.7229     97255.51   -29711.626    2315.7192   -32027.345    674.75206   0.97043952 
  295500    244.73333   -328.33445     97255.51   -29711.546    2300.8542     -32012.4    674.67646   0.97043952 
  295600    242.77813    -425.7936     97255.51   -29711.459    2282.4725   -31993.932    676.19533   0.97043952 
  295700    237.21262   -348.23938     97255.51   -29711.306    2230.1485   -31941.454    676.16265   0.97043952 
  295800    244.77316     -181.088     97255.51   -29711.702    2301.2287   -32012.931    676.52152   0.97043952 
  295900    241.70568   -201.89736     97255.51   -29711.798    2272.3899   -31984.187    677.82934   0.97043952 
  296000    242.91088    -365.7186     97255.51   -29711.489    2283.7205   -31995.209    677.41977   0.97043952 
  296100    238.30173   -471.77791     97255.51   -29711.325    2240.3877   -31951.713    678.04766   0.97043952 
  296200    238.53698   -404.36849     97255.51   -29711.244    2242.5995   -31953.843    678.48185   0.97043952 
  296300    238.86448   -766.55236     97255.51   -29711.573    2245.6784   -31957.251    678.69322   0.97043952 
  296400    242.66296   -359.50948     97255.51   -29711.443    2281.3897   -31992.832    679.56483   0.97043952 
  296500    240.63393   -322.95803     97255.51   -29711.562    2262.3139   -31973.876    679.42571   0.97043952 
  296600    240.32985   -446.08469     97255.51   -29711.424     2259.455   -31970.879    680.15186   0.97043952 
  296700    241.81896     -485.115     97255.51    -29711.48    2273.4549   -31984.935    680.23461   0.97043952 
  296800    243.92589      -271.36     97255.51   -29711.408    2293.2631   -32004.671    681.03292   0.97043952 
  296900    246.51118   -391.85712     97255.51   -29711.828    2317.5687   -32029.397    680.60584   0.97043952 
  297000    239.60428   -737.97299     97255.51   -29711.253    2252.6336   -31963.887    681.36112   0.97043952 
  297100    243.02903   -391.03468     97255.51   -29711.605    2284.8313   -31996.436    681.16306   0.97043952 
  297200    240.52243     -777.031     97255.51    -29711.33    2261.2656   -31972.595    682.42379   0.97043952 
  297300    245.79175   -504.88152     97255.51   -29711.521     2310.805   -32022.326    682.12404   0.97043952 
  297400    235.64237   -861.83488     97255.51   -29711.149    2215.3858   -31926.534    682.91827   0.97043952 
  297500    240.95847   -537.61915     97255.51   -29711.422     2265.365   -31976.787    683.38335   0.97043952 
  297600    239.74015   -732.72933     97255.51   -29711.222     2253.911   -31965.133    684.32795   0.97043952 
  297700    238.47399   -469.78036     97255.51   -29711.184    2242.0072   -31953.191    685.53356   0.97043952 
  297800    245.62431   -337.85364     97255.51   -29711.703    2309.2308   -32020.934    686.47128   0.97043952 
  297900     245.7872   -213.78377     97255.51    -29711.74    2310.7622   -32022.502    687.69155   0.97043952 
  298000    244.59894   -664.17973     97255.51   -29711.743    2299.5908   -32011.334    688.32819   0.97043952 
  298100    240.61286   -429.51369     97255.51   -29711.434    2262.1157    -31973.55    688.95649   0.97043952 
  298200    241.29559   -598.21015     97255.51   -29711.537    2268.5345   -31980.071    689.68318   0.97043952 
  298300       243.99   -383.64667     97255.51   -29711.606    2293.8659   -32005.472    689.31865   0.97043952 
  298400    246.70474    -602.9215     97255.51   -29711.551    2319.3884   -32030.939    689.27593   0.97043952 
  298500    242.03661    -622.3187     97255.51   -29711.397    2275.5011   -31986.898    689.91949   0.97043952 
  298600    240.74417   -395.58146     97255.51   -29711.319    2263.3502   -31974.669     690.5471   0.97043952 
  298700    240.91431   -675.48436     97255.51     -29711.6    2264.9498    -31976.55    691.33722   0.97043952 
  298800    237.91091   -879.98808     97255.51    -29711.34    2236.7134   -31948.054    690.84535   0.97043952 
  298900    243.11884   -942.09293     97255.51   -29711.438    2285.6757   -31997.113    691.57675   0.97043952 
  299000    242.95581   -466.63611     97255.51   -29711.745    2284.1429   -31995.888    691.64321   0.97043952 
  299100    241.71202   -274.58705     97255.51   -29711.394    2272.4495   -31983.844    691.85109   0.97043952 
  299200    247.38592   -525.60464     97255.51   -29711.842    2325.7926   -32037.635    693.06756   0.97043952 
  299300    240.58577   -582.93824     97255.51   -29711.578     2261.861   -31973.439    693.60155   0.97043952 
  299400    248.61055   -557.58956     97255.51   -29711.848    2337.3058   -32049.154    693.86595   0.97043952 
  299500    244.55554   -608.21369     97255.51   -29711.406    2299.1828   -32010.589    694.10788   0.97043952 
  299600    240.87731   -613.46946     97255.51   -29711.199     2264.602   -31975.801    694.08355   0.97043952 
  299700    245.63335   -152.58302     97255.51   -29711.711    2309.3158   -32021.027    694.62217   0.97043952 
  299800    243.13692   -424.43777     97255.51   -29711.676    2285.8456   -31997.521    694.04779   0.97043952 
  299900    244.27432    -870.3865     97255.51   -29711.355    2296.5389   -32007.894    694.71433   0.97043952 
  300000    240.86068   -383.64808     97255.51   -29711.416    2264.4456   -31975.861    694.62989   0.97043952 
  300100    234.70536   -730.35384     97255.51   -29710.993    2206.5766    -31917.57    694.86992   0.97043952 
  300200    239.21449   -453.72695     97255.51   -29711.303     2248.969   -31960.272    695.99533   0.97043952 
  300300    239.97862   -443.24111     97255.51    -29711.22     2256.153   -31967.373    696.84242   0.97043952 
  300400    245.17485   -589.88961     97255.51    -29711.82    2305.0052   -32016.825    697.80493   0.97043952 
  300500    235.76395   -608.55283     97255.51   -29711.334    2216.5289   -31927.863    698.95008   0.97043952 
  300600    240.04933   -251.56757     97255.51   -29711.391    2256.8178   -31968.208    700.42951   0.97043952 
  300642    245.77474    -707.9946     97255.51   -29711.584     2310.645   -32022.229    700.83474   0.97043952 
Loop time of 116.406 on 8 procs for 100000 steps with 3155 atoms

Performance: 371.115 ns/day, 0.065 hours/ns, 859.062 timesteps/s
98.3% CPU use with 8 MPI tasks x no OpenMP threads

MPI task timing breakdown:
Section |  min time  |  avg time  |  max time  |%varavg| %total
---------------------------------------------------------------
Pair    | 85.181     | 87.165     | 91.244     |  21.0 | 74.88
Neigh   | 5.5788     | 5.7126     | 6.08       |   6.3 |  4.91
Comm    | 15.877     | 20.121     | 22.155     |  45.3 | 17.28
Output  | 0.29514    | 0.31367    | 0.44319    |   8.7 |  0.27
Modify  | 0.84539    | 0.89407    | 0.92557    |   2.3 |  0.77
Other   |            | 2.2        |            |       |  1.89

Nlocal:        394.375 ave         404 max         387 min
Histogram: 2 0 2 0 1 0 0 2 0 1
Nghost:        1004.88 ave        1013 max         997 min
Histogram: 1 1 1 0 0 2 1 0 1 1
Neighs:        0.00000 ave           0 max           0 min
Histogram: 8 0 0 0 0 0 0 0 0 0
FullNghs:      11125.8 ave       11507 max       10851 min
Histogram: 2 1 1 0 0 1 2 0 0 1

Total # of neighbors = 89006
Ave neighs/atom = 28.211094
Neighbor list builds = 5905
Dangerous builds = 0

write_data		data.${NAME}
write_data		data.ML_m500atm_240K
System init for write_data ...
Total wall time: 0:05:38
