
# read in water data
read_data data.ML_m500atm_240K group water extra/atom/types 1
Reading data file ...
  orthogonal box = (0.0000000 0.0000000 -0.15452325) to (49.220000 49.019636 40.154523)
  2 by 2 by 2 MPI processor grid
  reading atoms ...
  3155 atoms
  reading velocities ...
  3155 velocities
  read_data CPU = 0.008 seconds

# remove area for graphite
region substrate block 0 ${XDIM} 0 ${YDIM} 0 ${Z_G}
region substrate block 0 49.22 0 ${YDIM} 0 ${Z_G}
region substrate block 0 49.22 0 49.019635930410494 0 ${Z_G}
region substrate block 0 49.22 0 49.019635930410494 0 10.062
delete_atoms region substrate
Deleted 809 atoms, new total = 2346

# Insert substrate
read_data data.graphite add append shift 0.0 0.0 0.0 group graphite offset 1 0 0 0 0
Reading data file ...
  orthogonal box = (0.0000000 0.0000000 -0.15452325) to (49.220000 49.019636 40.154523)
  2 by 2 by 2 MPI processor grid
  reading atoms ...
  2760 atoms
  reading velocities ...
  2760 velocities
  read_data CPU = 0.008 seconds


# Define potential
# CHECK ON THIS %%%%%%%%%%%%
#
pair_style sw
pair_coeff * * MLC_e.sw mW C


# Delete water and ice atoms that are overlapping
#
delete_atoms overlap 2.5 water graphite
System init for delete_atoms ...
Neighbor list info ...
  update every 1 steps, delay 10 steps, check yes
  max neighbors/atom: 2000, page size: 100000
  master list distance cutoff = 6.6747184
  ghost atom cutoff = 6.6747184
  binsize = 3.3373592, bins = 15 15 13
  2 neighbor lists, perpetual/occasional/extra = 1 1 0
  (1) command delete_atoms, occasional, copy from (2)
      attributes: full, newton on
      pair build: copy
      stencil: none
      bin: none
  (2) pair sw, perpetual
      attributes: full, newton on
      pair build: full/bin/atomonly
      stencil: full/bin/3d
      bin: standard
Deleted 85 atoms, new total = 5021

# set timestep
#
timestep 10.0

# Define output
#

compute 1 all msd
compute 2 water temp
compute        peratom water stress/atom NULL
compute        p water reduce sum c_peratom[1] c_peratom[2] c_peratom[3]
variable       water_press equal -(c_p[1]+c_p[2]+c_p[3])/(3*(vol-24277.055086535))

thermo 50
thermo_style custom step c_2 v_water_press vol etotal ke pe c_1[4]

# Neighbor lists
#
neigh_modify delay 0 every 1 check yes


# Fix graphite atoms in place
#
fix 1 graphite setforce 0.0 0.0 0.0
velocity graphite set 0.0 0.0 0.0


### Set fixes ###
#

# Run 0.25 ns equilibration of water in NPH ensemble
#
fix 2 water momentum 10 linear 1 1 1 rescale
fix 3 water nph z ${PRES} ${PRES} ${PCOUPL}
fix 3 water nph z -500 ${PRES} ${PCOUPL}
fix 3 water nph z -500 -500 ${PCOUPL}
fix 3 water nph z -500 -500 10000.0
fix 4 water temp/csvr ${TEMP} ${TEMP} ${TCOUPL} 837492
fix 4 water temp/csvr 240 ${TEMP} ${TCOUPL} 837492
fix 4 water temp/csvr 240 240 ${TCOUPL} 837492
fix 4 water temp/csvr 240 240 5000.0 837492

dump 	1 all atom 2000 nph.${NAME}.dump
dump 	1 all atom 2000 nph.ML_graphite_m500atm_240K.dump
run 	25000
Neighbor list info ...
  update every 1 steps, delay 0 steps, check yes
  max neighbors/atom: 2000, page size: 100000
  master list distance cutoff = 6.6747184
  ghost atom cutoff = 6.6747184
  binsize = 3.3373592, bins = 15 15 13
  1 neighbor lists, perpetual/occasional/extra = 1 0 0
  (1) pair sw, perpetual
      attributes: full, newton on
      pair build: full/bin/atomonly
      stencil: full/bin/3d
      bin: standard
Per MPI rank memory allocation (min/avg/max) = 5.377 | 5.379 | 5.382 Mbytes
Step c_2 v_water_press Volume TotEng KinEng PotEng c_1[4] 
       0    249.83512   -1896.9821     97255.51   -20721.116     1683.047   -22404.163            0 
      50    258.82845   -3352.0642    97014.447   -20753.369    1743.6317   -22497.001   0.51621864 
     100    263.52338   -2120.6878    96162.866   -20788.519    1775.2597   -22563.779    0.9234925 
     150    267.35317   -2417.3382    95258.139   -20805.332    1801.0596   -22606.391    1.3634159 
     200    266.68728   -2017.1753    94549.552   -20889.832    1796.5738   -22686.406    1.7584289 
     250    265.82418    -2134.071    93922.383   -20922.825    1790.7594   -22713.584     2.087035 
     300    268.79753   -1732.0731    93342.851   -20917.066    1810.7897   -22727.856     2.505026 
     350    266.07637   -1620.7054    92863.634   -20978.301    1792.4582   -22770.759    2.9314536 
     400    262.29455   -1617.5367    92432.967   -21010.239    1766.9815    -22777.22    3.2681004 
     450    265.21198   -1450.9134    92020.392   -21015.443    1786.6351   -22802.078    3.6792016 
     500    267.78562   -826.33232    91672.059   -21064.109    1803.9728   -22868.081    4.0335399 
     550    270.54392   -909.23082    91399.464   -21096.139    1822.5545   -22918.694    4.3328751 
     600    260.76148   -709.50096    91180.831   -21121.901    1756.6538   -22878.554    4.7638088 
     650    263.16193   -863.02015    91007.221     -21144.8    1772.8247   -22917.625    5.0880702 
     700    267.28554   -1318.1174    90879.558   -21162.291     1800.604   -22962.894    5.4496474 
     750    265.99316   -1428.3229    90768.171   -21190.851    1791.8977   -22982.749    5.7418007 
     800    259.58207    -1618.434    90665.661    -21198.49    1748.7086   -22947.199     5.942291 
     850    262.17662   -1418.7351    90496.768   -21204.527    1766.1871   -22970.715    6.1575863 
     900    258.88784   -1060.7943    90268.155   -21226.307    1744.0318   -22970.339    6.5133081 
     950    258.24855   -1027.3879    90043.015   -21235.469    1739.7251   -22975.194    6.8164017 
    1000    258.99241   -1810.8166    89854.279   -21254.535    1744.7362   -22999.272    7.1393281 
    1050    248.52971   -1265.9281     89653.17   -21279.307    1674.2529    -22953.56      7.47393 
    1100    254.79298   -980.45224    89454.001   -21301.208    1716.4462   -23017.655    7.7114143 
    1150    251.94922   -697.40035    89325.852   -21321.611    1697.2889     -23018.9    7.9412825 
    1200    257.90622   -735.59264    89244.795   -21346.869     1737.419   -23084.288    8.2585774 
    1250    251.52025   -1170.3998    89180.144   -21364.693     1694.399   -23059.092    8.5077961 
    1300    254.89128   -954.54287    89067.073   -21393.944    1717.1084   -23111.052    8.8807068 
    1350    251.02275   -926.17294      88945.1   -21409.757    1691.0475   -23100.805    9.1876153 
    1400    253.04786   -510.15528    88833.501   -21411.932      1704.69   -23116.622    9.4098691 
    1450    257.66139   -156.77022     88781.86   -21414.927    1735.7696   -23150.697    9.4971113 
    1500    251.77373   -1066.9306    88759.481   -21436.601    1696.1066   -23132.708    9.8533356 
    1550    247.48811   -773.67379    88730.201   -21454.842     1667.236   -23122.078    10.143195 
    1600    256.13611   -488.32201     88700.76    -21462.78    1725.4944   -23188.275     10.25056 
    1650    238.34978   -558.57765    88729.365    -21485.58    1605.6745   -23091.255    10.497961 
    1700    251.41895   -492.98013    88793.252   -21479.856    1693.7166   -23173.573    10.663794 
    1750    247.65808   -889.49961    88902.309   -21486.777    1668.3811   -23155.158    10.834292 
    1800    239.93072   -1104.4082    88991.015   -21487.518    1616.3246   -23103.843     10.94192 
    1850    250.22826   -1222.1491    89008.726   -21481.334    1685.6954   -23167.029    11.143196 
    1900    248.86191    -728.8043    88948.491   -21468.296    1676.4908   -23144.787    11.414433 
    1950     250.1623   -627.09187    88849.331   -21470.775     1685.251   -23156.026    11.722878 
    2000    245.77248   -183.76353    88779.174   -21459.733    1655.6785   -23115.412    11.912538 
    2050    247.58608   -703.72872    88780.503   -21489.353     1667.896   -23157.249    12.021404 
    2100    245.72122   -291.36653    88802.951   -21498.935    1655.3331   -23154.268    12.242572 
    2150    247.64292    -461.5123    88850.403   -21505.532    1668.2789    -23173.81    12.436283 
    2200    249.50336   -348.39904    88903.197    -21500.36     1680.812   -23181.172    12.595576 
    2250    247.86278   -556.29323    88941.396   -21504.311      1669.76   -23174.071    12.869492 
    2300    248.22551   -383.71482    88981.777   -21487.542    1672.2036   -23159.745     13.03106 
    2350    245.38006   -692.03329    89016.256   -21476.839    1653.0349   -23129.873    13.199101 
    2400    247.58937   -887.83665    89010.218   -21486.484    1667.9181   -23154.402    13.377235 
    2450    244.95367   -489.74755    88962.948   -21487.564    1650.1625   -23137.727    13.583535 
    2500    254.82643   -954.09424    88845.092   -21462.547    1716.6716   -23179.219    13.934505 
    2550    249.39697   -820.69747    88698.642   -21471.854    1680.0953   -23151.949    14.237747 
    2600    254.58615   -71.641621    88584.175   -21484.505    1715.0529   -23199.558    14.443106 
    2650    249.45108   -597.33423    88582.105   -21461.871    1680.4598   -23142.331    14.718894 
    2700    246.88645    10.621845    88633.248   -21482.229    1663.1828   -23145.412    14.957689 
    2750    253.73379   -551.77962    88736.847   -21495.504    1709.3108   -23204.815    15.059573 
    2800    245.28928   -1139.8491     88816.35   -21496.558    1652.4233   -23148.982    15.193035 
    2850     244.4111   -1510.5122    88799.508    -21512.29    1646.5073   -23158.797    15.402347 
    2900    250.62078    -1000.974    88697.244   -21534.092    1688.3397   -23222.432    15.620758 
    2950    247.49728   -814.72084    88605.002   -21550.044    1667.2978   -23217.341    16.037683 
    3000    245.57032   -368.93098    88540.484   -21543.382    1654.3166   -23197.699     16.16128 
    3050    243.51844   -67.375113    88533.845   -21549.626    1640.4938    -23190.12    16.285837 
    3100    243.68277   -248.85915    88574.125   -21558.671    1641.6009   -23200.272    16.387967 
    3150    247.77152    -920.4147    88643.001   -21568.233    1669.1452   -23237.378    16.755702 
    3200    244.63048   -1205.6179    88715.862   -21559.569    1647.9852   -23207.554    16.921943 
    3250    246.59346    -374.4411    88776.486   -21545.221    1661.2091   -23206.431    17.143072 
    3300    249.72791   -325.39039    88819.974    -21540.36    1682.3247   -23222.684    17.365439 
    3350    251.70949    -526.0905    88868.194   -21510.858    1695.6739   -23206.532      17.4622 
    3400    248.46986   -526.30088    88921.067   -21555.868    1673.8497   -23229.718     17.72664 
    3450    243.16243   -288.40542    89008.578   -21557.721    1638.0955   -23195.816    17.942846 
    3500    245.71014   -601.06108    89097.782    -21569.61    1655.2585   -23224.869    17.979325 
    3550    246.57206   -988.53885    89145.692   -21560.062    1661.0649   -23221.126    18.103007 
    3600    248.97058   -1050.8918     89094.85   -21570.771    1677.2228   -23247.994     18.42421 
    3650    245.46854   -783.11642    89033.203   -21575.802    1653.6309   -23229.433    18.593394 
    3700    239.71697   -1121.9871    88957.927   -21582.834    1614.8847   -23197.719    18.849817 
    3750    243.14567    -1408.775    88831.327   -21596.663    1637.9826   -23234.646    19.096191 
    3800    244.79434   -398.68341    88680.506   -21611.211    1649.0891     -23260.3    19.432302 
    3850    242.54831   -398.27569    88543.027   -21611.853    1633.9584   -23245.811    19.798076 
    3900    241.64869   -512.93787    88455.616   -21616.877     1627.898   -23244.774    19.966882 
    3950     246.4128   -130.65949    88377.174   -21615.445     1659.992   -23275.437    20.430409 
    4000     245.2325   -549.44484    88362.554   -21618.428    1652.0408   -23270.469    20.685598 
    4050    242.16259   -739.19392    88401.797   -21623.347    1631.3599   -23254.707    20.839678 
    4100    245.74318   -673.94406    88439.337   -21617.909     1655.481    -23273.39    21.014109 
    4150    248.62591   -253.40594    88463.736   -21617.617     1674.901   -23292.518    21.227184 
    4200    246.60428   -892.51318    88499.554   -21624.286     1661.282   -23285.568    21.428927 
    4250     243.0857   -954.97943    88547.825   -21609.239    1637.5786   -23246.818    21.582564 
    4300     250.3521   -758.95938    88574.045   -21615.366    1686.5296   -23301.895    21.677311 
    4350    238.49291     -1106.49    88556.294   -21616.765    1606.6387   -23223.403    21.869331 
    4400    240.52677   -1010.5036    88449.469   -21616.714      1620.34   -23237.054    21.996386 
    4450    244.74758   -305.19226    88344.037    -21595.27    1648.7741   -23244.044    22.140557 
    4500    241.94581   -479.54268    88326.098    -21576.62    1629.8995   -23206.519    22.457079 
    4550    241.13537   -707.49818    88385.846   -21575.662      1624.44   -23200.102    22.427181 
    4600    243.78668   -557.55025    88473.805   -21577.116    1642.3009   -23219.417    22.595564 
    4650    247.72231   -1251.9042    88548.638   -21557.123    1668.8137   -23225.937    22.904721 
    4700     247.2013   -798.05154    88590.552   -21543.743    1665.3039   -23209.046    23.057047 
    4750    243.71892   -331.90168    88598.855   -21547.597    1641.8443   -23189.442    23.196359 
    4800    246.36624   -1005.3573    88616.805   -21555.838    1659.6784   -23215.517    23.403833 
    4850    246.70799   -913.30265    88607.607   -21558.812    1661.9806   -23220.792    23.617831 
    4900     252.3231   -406.16582    88572.708   -21558.203    1699.8075   -23258.011    23.964049 
    4950    242.46736   -511.97169    88590.895   -21562.134     1633.413   -23195.547    24.074705 
    5000    239.69561   -468.04104    88620.574   -21572.913    1614.7408   -23187.653    24.334295 
    5050    243.18491   -395.55817    88643.578   -21579.532    1638.2469   -23217.779    24.565522 
    5100    244.46718   -218.27866    88688.863   -21585.573    1646.8851   -23232.458    24.709546 
    5150    239.24366   -861.31872    88758.736   -21600.936    1611.6962   -23212.632    24.893089 
    5200    245.33154    -801.5163    88770.922    -21587.01     1652.708   -23239.718    25.061845 
    5250    241.69894   -601.89361    88725.105   -21589.883    1628.2365    -23218.12    25.368359 
    5300    239.66168   -569.21266    88681.296   -21587.435    1614.5122   -23201.948    25.747859 
    5350    248.19819   -388.95029    88629.321   -21583.458    1672.0195   -23255.478    25.888371 
    5400    246.55581   -627.50032    88606.177   -21595.827    1660.9554   -23256.782    26.215367 
    5450     243.1334   -426.18122     88564.08   -21609.682       1637.9   -23247.582    26.439806 
    5500    247.89397   -348.88661    88556.225   -21610.679    1669.9701   -23280.649    26.646463 
    5550    244.05982   -762.36286    88596.019   -21632.544    1644.1409   -23276.685    26.800026 
    5600    242.99805   -742.08965    88673.626   -21654.187    1636.9881   -23291.175    27.016031 
    5650    234.89374   -707.46636    88740.616   -21685.015    1582.3924   -23267.408    27.136807 
    5700    244.74941    12.944832    88844.533   -21679.827    1648.7864   -23328.613    27.326265 
    5750    237.89397   -130.00605    88980.883   -21665.819    1602.6038   -23268.423    27.490772 
    5800    240.64409   -332.67749    89194.154   -21672.418    1621.1304   -23293.549    27.594575 
    5850    244.22289   -612.46917    89421.514   -21651.092    1645.2394   -23296.332    27.866372 
    5900    243.57823    -637.8405    89590.589   -21670.492    1640.8966   -23311.389    28.037791 
    5950    244.75823   -851.11102    89723.512   -21669.869    1648.8458   -23318.715    28.121089 
    6000    245.05377   -634.77065    89795.671   -21675.619    1650.8368   -23326.455    28.188748 
    6050    243.52704   -1261.6633    89802.971   -21659.896    1640.5517   -23300.448    28.320466 
    6100    241.74427   -1066.9855      89752.1   -21654.319    1628.5419   -23282.861    28.555264 
    6150    246.68781   -812.08065    89646.316   -21658.998    1661.8447   -23320.843    28.608598 
    6200    240.78367   -518.91212    89517.603   -21664.034    1622.0707   -23286.105    29.056146 
    6250    247.95324   -597.09369    89418.166   -21657.698    1670.3694   -23328.067    29.285432 
    6300    246.06024   -692.18024    89350.785   -21644.008     1657.617   -23301.625    29.327486 
    6350    250.98219   -745.19125    89288.052   -21637.282    1690.7744   -23328.056    29.521429 
    6400    240.41488   -299.68266    89246.857   -21672.563    1619.5863    -23292.15     29.70406 
    6450    247.96728   -436.83186    89234.768   -21671.843     1670.464   -23342.307    29.859621 
    6500    242.50744   -675.36314    89232.789   -21650.318    1633.6831   -23284.001      29.9595 
    6550    240.87555   -373.91759     89251.28   -21651.381    1622.6896    -23274.07    30.155488 
    6600    242.35049    -609.1534    89259.117    -21662.12    1632.6258   -23294.746    30.203897 
    6650    239.29171   -422.92609    89266.845   -21672.398    1612.0199   -23284.418    30.285647 
    6700    243.40082    -1017.031    89260.447   -21694.616    1639.7015   -23334.317     30.60466 
    6750    240.60214   -86.012811    89234.776   -21687.001    1620.8478   -23307.849    30.743594 
    6800     239.4041   -726.45375    89204.256   -21676.884     1612.777   -23289.661    30.990024 
    6850     243.2302   -528.45198    89131.894   -21687.167    1638.5521   -23325.719    31.232215 
    6900    247.24856    -636.9659    89084.892   -21675.178    1665.6222     -23340.8    31.368074 
    6950    247.86325   -410.12937    89046.295   -21665.902    1669.7632   -23335.665    31.399353 
    7000    238.28631   -382.87009    89045.132   -21661.684    1605.2469   -23266.931    31.411221 
    7050    243.74311   -625.82865    89037.871   -21653.528    1642.0073   -23295.535    31.582674 
    7100    243.56054   -863.13064    89024.423   -21667.972    1640.7774   -23308.749    31.714658 
    7150    236.11935   -893.69894    89029.237   -21685.578    1590.6489   -23276.227    31.844967 
    7200    239.55918   -715.35863    89038.195   -21696.645    1613.8217   -23310.466    32.181487 
    7250    241.71241   -517.07219    89055.047   -21673.395    1628.3273   -23301.722    32.264922 
    7300    245.91147   -276.77266    89091.926   -21674.059    1656.6148   -23330.673    32.177596 
    7350    242.58834   -363.83622    89168.789   -21666.805    1634.2281   -23301.033    32.329258 
    7400    242.67122   -939.01969     89238.27    -21647.71    1634.7864   -23282.496    32.319115 
    7450    247.67702    -900.2504     89309.14   -21649.058    1668.5086   -23317.567    32.470858 
    7500    240.97403   -1342.0557    89363.151   -21677.235     1623.353   -23300.588    32.836921 
    7550    243.36544   -777.31316    89318.529   -21692.831    1639.4631   -23332.294    33.064406 
    7600    241.24212   -853.82999    89243.541   -21669.752    1625.1591   -23294.911    33.174776 
    7650    242.79159   -997.38819    89185.518   -21679.984    1635.5973   -23315.581    33.262322 
    7700    241.42926    -1176.156    89142.957   -21683.313    1626.4198   -23309.733     33.48197 
    7750    239.17301   -1129.0052    89053.508   -21686.395    1611.2203   -23297.615     33.48242 
    7800    238.19188   -854.94417    88909.034   -21690.757    1604.6107   -23295.368    33.606187 
    7850    242.04587    -888.8726    88757.205   -21691.164    1630.5737   -23321.737    33.905816 
    7900    241.79747   -654.71431    88601.037   -21721.241    1628.9003   -23350.141    34.013113 
    7950    234.13743   -609.96175    88496.385   -21724.425    1577.2974   -23301.722     34.24875 
    8000    242.52397   -902.32066    88463.322   -21722.786    1633.7944    -23356.58    34.338888 
    8050    240.57755   -751.17312    88445.807   -21712.226    1620.6821   -23332.908    34.528132 
    8100    236.71166   -201.55636    88459.058   -21725.847    1594.6391   -23320.486     34.79199 
    8150    238.47915   -637.51156    88525.487   -21707.603    1606.5459   -23314.148    35.055789 
    8200    241.74965   -1205.6031    88610.817   -21709.401    1628.5781   -23337.979     35.07279 
    8250     238.2714   -619.23753    88731.855   -21708.889    1605.1464   -23314.035    35.104622 
    8300    244.49592   -552.96003    88892.474   -21708.785    1647.0787   -23355.863    35.369016 
    8350    238.98069   -1404.0312    89027.406   -21723.803    1609.9247   -23333.728    35.344039 
    8400    239.98961   -1469.0626    89038.038   -21732.153    1616.7214   -23348.874    35.642626 
    8450    235.06642   -1089.6146     88979.53   -21733.801    1583.5556   -23317.357     35.96553 
    8500     240.3544   -804.16534    88916.987   -21732.893    1619.1788   -23352.072    36.275049 
    8550    235.58727   -1240.2732    88856.383   -21736.667    1587.0644   -23323.731    36.700437 
    8600    231.94302    -1042.383    88736.306   -21724.311    1562.5145   -23286.825    36.787143 
    8650    237.55107   -570.70592    88564.636   -21733.763    1600.2938   -23334.057    36.841515 
    8700     234.0041   -780.58453    88372.785   -21727.952    1576.3992   -23304.351    37.228771 
    8750    239.02072   -220.45914    88179.897   -21708.391    1610.1943   -23318.585    37.525367 
    8800    235.86022   -301.24894    88073.211   -21722.064    1588.9032   -23310.967    37.623714 
    8850    233.90213   -681.79524    88058.498   -21729.994    1575.7123   -23305.707    37.888778 
    8900    229.86712    -250.5781    88102.116   -21740.016    1548.5299   -23288.546    37.924738 
    8950    230.11886   -789.98227    88166.373   -21734.189    1550.2257   -23284.415    38.122172 
    9000     238.8796   -1049.2279    88175.577   -21720.773    1609.2436   -23330.017    38.327094 
    9050     239.0471   -654.90265    88138.241   -21719.832    1610.3721   -23330.204    38.547698 
    9100    233.86968   -411.54992     88113.61   -21743.566    1575.4937   -23319.059    38.745168 
    9150    228.51358   -1050.2438     88104.83   -21716.864    1539.4116   -23256.275    38.899864 
    9200    231.19333   -462.74134    88101.386   -21743.106    1557.4641    -23300.57     39.02133 
    9250    227.26149   -538.17744    88172.227   -21748.393    1530.9767    -23279.37    39.161657 
    9300    239.87572   -937.58964    88259.452   -21753.381    1615.9541   -23369.335    39.199507 
    9350    231.87984    -953.4596    88320.192   -21740.993    1562.0889   -23303.082    39.322767 
    9400     236.7532   -815.94323    88347.586   -21728.166    1594.9189   -23323.085    39.410526 
    9450    237.05507   -284.45262    88385.303   -21729.488    1596.9525    -23326.44     39.86152 
    9500    235.67985    -663.3184    88463.773   -21728.486    1587.6881   -23316.174     40.14613 
    9550    237.02137   -228.83012     88575.61   -21720.394    1596.7255   -23317.119    40.192263 
    9600    239.10839   -1080.7647    88701.103   -21706.561    1610.7849   -23317.346     40.44184 
    9650    240.43275   -780.39033    88724.555   -21718.224    1619.7067   -23337.931    40.577758 
    9700    235.93769   -516.86389    88661.793   -21726.159    1589.4251   -23315.584    40.850864 
    9750    242.32367   -564.92182    88575.298   -21719.168    1632.4451   -23351.613    41.221255 
    9800    241.77582   -602.68878    88513.145    -21733.04    1628.7544   -23361.795    41.469697 
    9850    245.07402   -397.78383    88467.135   -21723.991    1650.9731   -23374.964    41.700167 
    9900    236.42153   -241.76802    88466.961   -21727.927    1592.6845   -23320.612    41.685719 
    9950    238.44793   -405.31971    88511.894   -21723.679    1606.3356   -23330.015    41.717305 
   10000    244.09179   -256.60862    88589.288   -21719.182    1644.3563   -23363.538    41.771726 
   10050    236.99782   -720.93047    88707.118   -21722.924    1596.5668   -23319.491     41.98837 
   10100    235.34774   -770.06369     88859.82   -21704.031    1585.4508   -23289.482    42.130272 
   10150    240.33982   -853.91791    88989.851   -21696.508    1619.0806   -23315.588    42.003769 
   10200    243.21838   -653.28662    89084.557   -21691.803    1638.4724   -23330.276    42.152759 
   10250    243.10009   -672.17825    89174.864   -21694.633    1637.6755   -23332.308    42.531228 
   10300    239.72527   -1376.0563    89226.757   -21689.365    1614.9406   -23304.306    42.687745 
   10350    236.13995   -744.92078    89159.239   -21693.692    1590.7876    -23284.48    42.967251 
   10400    231.23071    -1422.061      89025.5   -21707.529    1557.7159   -23265.245    43.084822 
   10450    240.01282   -363.33489    88843.858   -21710.611    1616.8777   -23327.489    43.188363 
   10500    242.61261   -396.07749    88724.193   -21703.074    1634.3916   -23337.466    43.430926 
   10550    233.96239   -55.210163    88643.382   -21695.463    1576.1182   -23271.581    43.818261 
   10600    244.91007   -455.61565    88578.647   -21708.739    1649.8687   -23358.608    43.991023 
   10650    238.28271   -537.69745    88525.242   -21696.185    1605.2226   -23301.407    44.093268 
   10700    240.35218    19.924495     88479.11   -21691.742    1619.1639   -23310.906    44.114366 
   10750    237.93288   -584.98526    88492.586   -21705.326    1602.8659   -23308.192    44.330981 
   10800    239.14905   -1243.3153    88549.847   -21706.578    1611.0588   -23317.637    44.421779 
   10850    245.10086   -853.85517    88560.099   -21686.858     1651.154   -23338.012    44.475018 
   10900    245.61016    -1069.482    88565.516   -21686.488     1654.585   -23341.073    44.424988 
   10950    236.15351   -981.05906    88527.497   -21692.382     1590.879   -23283.261     44.66834 
   11000    233.60276   -709.33455    88471.857   -21705.811    1573.6955   -23279.506     44.58413 
   11050    235.64429   -678.55489    88418.761   -21724.503    1587.4486   -23311.951    44.754772 
   11100    238.01905   -638.41762    88411.771     -21715.6    1603.4465   -23319.047    44.913357 
   11150    240.78923   -299.25786    88482.504   -21709.294    1622.1081   -23331.402    44.911412 
   11200    241.14049   -936.23007    88577.713   -21718.678    1624.4744   -23343.153    45.104651 
   11250    237.15018   -699.57485    88637.264   -21717.088    1597.5932   -23314.681     45.32716 
   11300    238.27098   -774.08422    88679.795   -21707.718    1605.1436   -23312.861    45.485717 
   11350    237.07425   -1249.7625    88738.502   -21725.017    1597.0817   -23322.099    45.584964 
   11400    237.61955   -772.56452    88778.436   -21722.954    1600.7551   -23323.709    45.763425 
   11450     232.1279    -1156.288    88803.648   -21735.914      1563.76   -23299.674    45.744482 
   11500    233.95191   -838.10283    88778.348   -21740.361    1576.0476   -23316.409    45.890087 
   11550    240.59777   -312.59006    88740.759   -21728.147    1620.8183   -23348.965    46.183965 
   11600    236.78728   -856.48889    88759.582   -21731.469    1595.1484   -23326.618    46.398886 
   11650    234.98393   -591.28995    88777.658   -21695.531         1583   -23278.531    46.526474 
   11700    235.40097   -933.37222    88793.829   -21695.332    1585.8094   -23281.141    46.782864 
   11750    240.26898    -492.9307    88750.361   -21704.657    1618.6034   -23323.261    46.740471 
   11800    240.79931   -674.63585    88711.146   -21708.296     1622.176   -23330.472    46.859951 
   11850    241.31439   -778.35242    88649.693   -21699.535    1625.6459   -23325.181    47.191666 
   11900    231.99065   -505.24506    88572.553   -21739.073    1562.8353   -23301.908    47.553296 
   11950     237.1281   -617.67075    88561.661   -21728.841    1597.4444   -23326.285    47.746175 
   12000    238.99053   -720.87928    88592.591   -21736.355     1609.991   -23346.346    47.623097 
   12050    241.32228   -467.34584    88634.645   -21733.277    1625.6991   -23358.976    47.997456 
   12100    240.46372   -410.54279    88703.714    -21712.28    1619.9153   -23332.195    47.745453 
   12150    237.97824     -872.596    88747.104   -21715.451    1603.1715   -23318.622    47.897376 
   12200    244.13698   -448.95415    88748.809   -21708.836    1644.6607   -23353.497    47.866102 
   12250     240.7972   -629.48424     88782.78   -21688.201    1622.1618   -23310.363    48.117801 
   12300    240.54765   -887.17292    88871.215   -21704.851    1620.4807   -23325.332    48.134451 
   12350    239.28546   -486.08799    88940.408   -21715.609    1611.9778   -23327.587    48.263594 
   12400    241.68506   -501.37021    89008.128   -21724.921     1628.143   -23353.064    48.575481 
   12450    235.01226   -813.22261    89100.001   -21724.487    1583.1908   -23307.678    48.776035 
   12500    241.94797   -827.32915    89242.461   -21709.005    1629.9141   -23338.919    49.127151 
   12550    242.98316   -693.90205    89373.951     -21717.1    1636.8878   -23353.988     49.33328 
   12600    240.49146   -832.04334    89466.065   -21709.434    1620.1021   -23329.536    49.405951 
   12650    241.01812   -525.53405    89539.254   -21699.343    1623.6501   -23322.993    49.268102 
   12700    239.57727    -1271.671    89592.815   -21703.059    1613.9436   -23317.003    49.406711 
   12750    240.76611   -759.97245    89608.153   -21710.814    1621.9524   -23332.766    49.641133 
   12800    240.75253   -1344.9391    89571.125   -21727.729    1621.8609    -23349.59    49.739204 
   12850     239.9582   -1130.4481    89440.598   -21729.626    1616.5098   -23346.136    49.980641 
   12900    239.54277   -856.99702    89287.205   -21716.627    1613.7112   -23330.338    49.914501 
   12950    238.96845   -688.82427    89173.426   -21722.712    1609.8422   -23332.554    49.820807 
   13000     243.8118   -1001.5042    89100.196   -21713.837      1642.47   -23356.307    49.870909 
   13050    239.36505    -843.6428    89050.175   -21714.066     1612.514    -23326.58    49.792512 
   13100    239.92905   -107.53365    89064.198    -21707.14    1616.3134   -23323.453    49.747906 
   13150    244.36707   -727.44788    89190.238    -21722.69    1646.2107   -23368.901    50.092124 
   13200    244.71909   -911.67513    89317.033     -21719.8    1648.5822   -23368.382    50.200371 
   13250    242.34137   -571.62553    89413.241   -21741.917    1632.5643   -23374.481      50.2065 
   13300    239.29228   -1070.3723    89479.765   -21739.894    1612.0237   -23351.917    50.330787 
   13350    241.80736   -1260.0992    89473.926   -21738.569    1628.9669   -23367.536    50.467132 
   13400    238.87696   -590.43268    89428.976   -21752.549    1609.2259   -23361.775    50.566657 
   13450    243.32705   -803.85298    89375.839   -21752.462    1639.2045   -23391.666    50.932265 
   13500    239.50358   -594.80881    89333.926    -21755.68    1613.4472   -23369.127    50.913361 
   13550    244.86938   -872.19803    89309.032   -21784.062    1649.5946   -23433.656    50.823627 
   13600    236.13322   -1002.9153    89270.754   -21786.838    1590.7423    -23377.58    50.855214 
   13650    242.46901   -955.95764    89190.621   -21791.754    1633.4242   -23425.178    50.964275 
   13700    241.82007   -510.83443    89121.195   -21794.132    1629.0525   -23423.184    51.145432 
   13750    241.87634   -476.70233    89085.749     -21780.3    1629.4316   -23409.731     51.28989 
   13800    237.27671     -393.469    89084.767   -21809.465    1598.4456   -23407.911    51.543534 
   13850    241.42804   -585.71524    89166.667   -21806.055    1626.4115   -23432.467    51.521421 
   13900     236.2541   -663.08258    89249.676   -21796.143    1591.5567     -23387.7    51.669798 
   13950    238.07556   -501.83281     89306.73   -21793.468    1603.8272   -23397.295    51.638229 
   14000    239.04893   -964.74205    89328.943   -21789.565    1610.3843   -23399.949    51.705782 
   14050    238.67728   -897.07615    89276.335   -21791.723    1607.8807   -23399.604    51.661256 
   14100    239.38377   -719.16828    89196.627   -21774.363    1612.6401   -23387.003    51.811545 
   14150      239.859   -911.53789    89131.944   -21768.676    1615.8415   -23384.518    51.936882 
   14200    235.57822   -817.19533    89041.071   -21765.189    1587.0035   -23352.193    52.235989 
   14250    238.46552   -714.85772    88916.478   -21745.967    1606.4542   -23352.422    52.315278 
   14300    236.99093   -553.24657    88847.778   -21756.967    1596.5204   -23353.487    52.473528 
   14350    239.69681   -389.11466    88843.176   -21742.821    1614.7489    -23357.57     52.65008 
   14400    228.61377   -435.96085    88889.034    -21745.11    1540.0865   -23285.197    52.978693 
   14450    234.67552   -484.97156    88953.032   -21751.862    1580.9223   -23332.784    52.975916 
   14500    234.04402    -727.6821    89012.308   -21760.293    1576.6682   -23336.961     53.19894 
   14550     237.4479   -972.66541    89067.607   -21774.826    1599.5988   -23374.425    53.342709 
   14600     234.6421   -427.60551    89089.667   -21762.115    1580.6972   -23342.812    53.641181 
   14650    231.57373   -571.06657    89142.963   -21770.226    1560.0267   -23330.253    53.653136 
   14700    237.30127   -874.80286    89164.957   -21757.121     1598.611   -23355.732    53.778488 
   14750    236.56382   -862.21411     89140.98   -21765.716    1593.6431   -23359.359     54.01666 
   14800    231.78159   -486.12457    89116.369   -21772.074     1561.427   -23333.501    54.265622 
   14850    236.20096   -327.31789    89141.205   -21786.767    1591.1986   -23377.966    54.465388 
   14900    237.59348   -1215.0027    89188.192   -21784.089    1600.5795   -23384.669    54.629857 
   14950    238.87035   -858.96656    89236.627   -21813.406    1609.1813   -23422.587    54.700265 
   15000    229.71155   -688.62438    89288.616   -21812.472    1547.4819   -23359.954     54.79757 
   15050    234.29852   -1149.7605    89354.128    -21813.79    1578.3826   -23392.173    54.977386 
   15100    232.55411   -1046.2104     89390.19   -21804.481    1566.6312   -23371.113    55.156679 
   15150    244.40234   -362.95413     89407.93   -21804.981    1646.4483   -23451.429    55.280378 
   15200    238.04205   -610.40555    89489.284   -21811.335    1603.6014   -23414.936    55.115238 
   15250    238.59992   -868.05013     89592.84   -21806.453    1607.3596   -23413.812    55.297239 
   15300    236.94298   -971.20883    89709.897     -21789.5    1596.1973   -23385.698    55.500784 
   15350    236.61918   -1347.4314    89757.457   -21784.037     1594.016   -23378.053    55.670554 
   15400    239.62058    -904.9073    89676.136   -21773.878    1614.2354   -23388.113    56.026968 
   15450    234.92986   -1054.0504    89566.798   -21778.898    1582.6357   -23361.534    56.134061 
   15500    239.04869   -802.80453    89489.748   -21779.249    1610.3827   -23389.632     56.16104 
   15550    240.56689   -645.61346    89427.237   -21792.714    1620.6103   -23413.324    56.285154 
   15600     241.7222   -398.77718    89409.371   -21777.658    1628.3932   -23406.051    56.298689 
   15650    238.99033   -838.19416    89474.943   -21786.977    1609.9896   -23396.967    56.373686 
   15700    236.11463   -226.82843     89577.22   -21784.152    1590.6171   -23374.769    56.270921 
   15750    234.69361   -1053.2456    89730.813   -21770.936    1581.0442    -23351.98    56.440585 
   15800    230.01575   -560.20286    89887.549   -21766.265    1549.5312   -23315.796    56.766214 
   15850    232.99688   -770.98487    90012.091   -21764.511    1569.6139   -23334.125    56.768862 
   15900    236.00994   -1012.8483    90058.751   -21759.396    1589.9118   -23349.308    56.767711 
   15950    247.08007   -1035.9507    90072.569   -21753.543    1664.4872    -23418.03    57.111606 
   16000    244.16501   -1048.6117    90072.673   -21740.988    1644.8495   -23385.837     57.14137 
   16050    240.03122   -420.61578     90048.92   -21724.997    1617.0017   -23341.998    57.161354 
   16100    252.98433   -993.28262    90004.871   -21724.712     1704.262   -23428.974    57.003845 
   16150    239.63689   -1053.0468    89930.501   -21719.005    1614.3452    -23333.35    57.387148 
   16200     242.6342    -1033.669    89839.537   -21705.779     1634.537   -23340.316    57.593525 
   16250    240.35469   -923.01253    89755.476   -21700.118    1619.1808   -23319.299    57.771073 
   16300     243.2127   -1246.3815    89638.314   -21710.791    1638.4342   -23349.225    57.948464 
   16350     246.1499   -411.15958    89498.519    -21719.34     1658.221   -23377.561    58.063203 
   16400    238.74076    -767.7554    89432.711   -21721.824    1608.3084   -23330.133     58.09588 
   16450     237.8053   -31.082215    89430.351   -21740.653    1602.0065   -23342.659    58.071797 
   16500    248.05868   -949.82319    89485.387   -21719.589    1671.0797   -23390.668    58.102604 
   16550    241.72147   -1170.4426    89549.752   -21709.626    1628.3883   -23338.014    58.112949 
   16600     244.5757   -876.73872    89545.196   -21704.754    1647.6162    -23352.37    58.175138 
   16650    241.72596   -1279.7664    89511.869   -21690.486    1628.4185   -23318.905    58.355582 
   16700    239.71833   -1268.7739    89408.985   -21723.852    1614.8939   -23338.746    58.748843 
   16750    245.17927   -822.23016    89223.815   -21733.001    1651.6822   -23384.683    58.899725 
   16800    243.56615    -609.0988     89002.24   -21742.212    1640.8152   -23383.027    59.017615 
   16850    236.62619   -216.71177    88835.507   -21754.518    1594.0633   -23348.581    59.260428 
   16900    238.25158   -36.443327    88809.279   -21749.526    1605.0129   -23354.539     59.25353 
   16950     238.8904    -375.8874    88869.178   -21730.535    1609.3164   -23339.851    59.412639 
   17000     238.6441   -377.77067    88956.097   -21737.819    1607.6572   -23345.477    59.590684 
   17050    243.18534    -796.0863     89076.83   -21730.552    1638.2499   -23368.802    59.509935 
   17100    237.47436   -653.82522    89156.893   -21722.644     1599.777   -23322.421    59.539522 
   17150    237.30991   -566.42194    89200.969   -21698.013    1598.6692   -23296.682    60.017367 
   17200    242.71607    -910.1387    89241.718   -21683.247    1635.0885   -23318.336    60.485263 
   17250    239.20555   -1185.0226    89227.262   -21682.289    1611.4394   -23293.729     60.44146 
   17300     243.2181   -1540.6143     89144.75   -21651.183    1638.4705   -23289.653    60.678991 
   17350     247.5341   -611.71428    88996.576   -21674.267    1667.5458   -23341.813     60.80076 
   17400    244.18674   -548.75248    88884.374   -21676.491    1644.9959   -23321.487    61.016813 
   17450    241.00482   -533.23892    88799.814   -21664.516    1623.5605   -23288.076    61.286991 
   17500     243.4903   -682.84539    88768.733     -21698.4    1640.3042   -23338.704    61.488486 
   17550    238.69753   -765.01305    88760.394   -21709.936    1608.0171   -23317.953    61.584729 
   17600    245.72127   -211.73301    88803.596   -21689.711    1655.3334   -23345.044    62.037542 
   17650    239.80103      -766.37     88891.79   -21671.171     1615.451   -23286.622     62.44612 
   17700    239.07549   -153.72922    88961.224   -21653.339    1610.5633   -23263.902    62.571117 
   17750    242.38033   -669.70887    89049.455   -21654.729    1632.8268   -23287.555    63.012855 
   17800    244.51965   -821.02605    89114.496   -21647.047    1647.2386   -23294.285    63.065937 
   17850    240.87343   -970.22863    89090.917   -21657.738    1622.6754   -23280.413    63.169967 
   17900    240.01424   -391.95591    89035.981   -21667.105    1616.8873   -23283.992    63.395355 
   17950    241.27814   -714.40206     89000.28   -21687.204    1625.4018   -23312.605    63.627474 
   18000    242.28328   -639.33622    88938.177   -21694.615     1632.173   -23326.788    63.720619 
   18050    244.64576   -417.56778    88844.178   -21716.168    1648.0881   -23364.256    63.751757 
   18100    237.62815   -502.30813    88816.976   -21729.244    1600.8131   -23330.057    63.833368 
   18150    237.83984   -588.85574     88845.79   -21738.938    1602.2392   -23341.178    64.178207 
   18200    236.44141       -398.1    88897.385   -21724.065    1592.8185   -23316.883    64.708293 
   18250    237.73842   -474.17941    88965.939   -21708.705    1601.5559   -23310.261    64.754012 
   18300    247.04581   -1068.4673    89080.507     -21681.1    1664.2564   -23345.357    64.724272 
   18350    244.82177   -719.84757    89208.636   -21685.159    1649.2739   -23334.433    65.002153 
   18400    239.83973   -594.58696    89339.016    -21702.74    1615.7117   -23318.452    64.891898 
   18450       235.94   -1100.2943    89446.232   -21700.966    1589.4406   -23290.406    65.020229 
   18500    243.13023   -709.79782    89483.283   -21685.292    1637.8786   -23323.171    64.980505 
   18550    239.74903   -689.65516    89461.773   -21667.698    1615.1007   -23282.798    65.147539 
   18600    248.10296   -1182.3511    89375.352   -21665.479     1671.378   -23336.857    65.541967 
   18650    237.02159   -440.58639    89235.944   -21680.307    1596.7269   -23277.033    65.803997 
   18700    239.03358   -721.65893    89104.285   -21678.966     1610.281   -23289.247    65.860528 
   18750    239.09728   -703.03376    89017.772   -21664.774    1610.7101   -23275.484    66.180767 
   18800    237.93315   -819.21193    88986.099   -21661.479    1602.8678   -23264.347    66.247178 
   18850    244.48948   -600.69215    89007.887   -21677.555    1647.0354    -23324.59    66.192056 
   18900     241.2753   -394.74501    89038.259   -21689.817    1625.3826   -23315.199    66.460794 
   18950     236.5691   -797.98725    89080.953   -21696.064    1593.6787   -23289.743    66.546125 
   19000    246.34452    -476.7234    89113.573   -21673.672    1659.5321   -23333.204    66.549405 
   19050    243.45519   -529.77484    89179.264   -21665.605    1640.0677   -23305.672     66.69395 
   19100    236.29926   -895.87349    89264.159   -21691.545    1591.8609   -23283.406    67.225634 
   19150    236.53154   -1228.4754    89345.049   -21669.175    1593.4257     -23262.6    67.387425 
   19200    243.39344   -1105.7127    89397.723   -21666.568    1639.6518    -23306.22    67.454207 
   19250    246.37535   -1344.1915    89439.869   -21669.443    1659.7397   -23329.183    67.400286 
   19300    235.11699   -717.45424    89443.246   -21689.611    1583.8963   -23273.507     67.63143 
   19350    238.60328    -937.3778    89437.234     -21699.3    1607.3822   -23306.682    67.967737 
   19400    245.11058   -764.34391    89416.383   -21696.345    1651.2195   -23347.564    67.920109 
   19450    238.87486   -1128.2092    89390.805   -21713.389    1609.2117   -23322.601    67.984674 
   19500    242.47944   -1293.2477    89282.675   -21732.108    1633.4944   -23365.602    68.356037 
   19550    237.42002   -1385.0398    89093.806   -21709.797     1599.411   -23309.208    68.649036 
   19600    238.86933   -13.245003    88898.741    -21702.34    1609.1744   -23311.514    69.031397 
   19650    243.76047   -186.89811    88766.545   -21679.955    1642.1243   -23322.079     69.22417 
   19700    241.08019   -702.61345    88741.735   -21671.225    1624.0682   -23295.293    69.652561 
   19750    240.83223   -542.82884    88761.428   -21676.889    1622.3978   -23299.287    69.487562 
   19800    241.01087   -509.61186    88813.265   -21668.988    1623.6012   -23292.589    69.747417 
   19850    250.35607   -419.64917    88891.742   -21656.758    1686.5564   -23343.315    69.717169 
   19900    244.15203    -1197.742    88986.477   -21650.052     1644.762   -23294.814    70.123847 
   19950    241.83868   -999.97439    89039.717   -21656.408    1629.1779   -23285.586    70.479008 
   20000    242.35902   -736.05083    89025.152    -21632.92    1632.6832   -23265.603    70.714843 
   20050    243.17978   -351.67785    89014.522   -21647.255    1638.2124   -23285.468     70.58864 
   20100      246.944   -654.81158    89063.464   -21665.764    1663.5705   -23329.335    70.491187 
   20150    240.60887   -758.66978    89133.223   -21676.258    1620.8931   -23297.151    70.643504 
   20200    235.97253   -782.82727    89186.758    -21675.31    1589.6598    -23264.97    70.983836 
   20250    245.85884   -590.06049    89192.238   -21673.398    1656.2602   -23329.658    71.188711 
   20300    249.36949   -1516.3112    89158.976    -21667.61    1679.9101    -23347.52    71.219352 
   20350    241.88489   -801.08979    89080.749   -21672.953    1629.4891   -23302.442    71.431688 
   20400    242.39471   -490.38715    88976.934    -21652.06    1632.9237   -23284.983    71.736974 
   20450    242.74162      77.5122    88917.166   -21630.121    1635.2606   -23265.382    71.887176 
   20500     243.1112   -721.69094     88960.48    -21634.05    1637.7504     -23271.8    72.055797 
   20550    246.17297   -893.91024    89005.464   -21619.388    1658.3764   -23277.765    72.415664 
   20600    241.39702   -660.07526    89005.538   -21609.202    1626.2026   -23235.405    72.620194 
   20650    240.39268   -411.25279    88960.163   -21602.461    1619.4367   -23221.898    72.738487 
   20700    244.83055   -551.43284    88910.133   -21627.771     1649.333   -23277.104    73.056444 
   20750    239.18733   -543.08237    88874.971   -21624.926    1611.3167   -23236.242    73.370778 
   20800    245.85746     -1044.23    88873.702    -21610.63    1656.2509   -23266.881    73.422802 
   20850    244.97807   -519.61287    88845.046   -21619.899    1650.3268   -23270.226    73.648329 
   20900    245.63932   -469.31966    88789.683   -21584.527    1654.7814   -23239.308    74.081481 
   20950     243.3986   -483.00313    88694.636   -21605.225    1639.6865   -23244.912    74.274562 
   21000     244.9715    -456.5371    88590.799   -21620.089    1650.2826   -23270.371     74.44742 
   21050    240.07456   -982.83162    88505.605   -21595.108    1617.2937   -23212.401    74.771267 
   21100    244.75035   -762.97647    88414.802   -21596.316    1648.7928   -23245.109    75.015701 
   21150     246.7944   -845.98616    88356.661   -21605.481    1662.5627   -23268.043    75.143502 
   21200    247.03569    97.609213    88307.808   -21621.937    1664.1882   -23286.125    75.169728 
   21250    244.21606   -571.65314    88310.978   -21639.727    1645.1934    -23284.92    75.673646 
   21300     246.1414   -35.418212    88364.745   -21632.047    1658.1637    -23290.21    75.831343 
   21350    242.58394   -666.51488    88481.214   -21659.577    1634.1984   -23293.776    76.153166 
   21400    242.14128   -898.65548    88630.126   -21660.799    1631.2164   -23292.015    76.005824 
   21450    239.49666   -420.28601    88783.489   -21649.201    1613.4006   -23262.601    76.155805 
   21500    245.57822   -402.20451    88918.424    -21636.72    1654.3698    -23291.09    76.287963 
   21550    252.44544   -780.58533    89005.649    -21660.82    1700.6317   -23361.451    76.190511 
   21600    246.41208   -912.75607     89064.91   -21673.518    1659.9872   -23333.505    76.531177 
   21650     244.0917   -624.87391    89096.739   -21676.835    1644.3557    -23321.19    76.579548 
   21700     243.9774   -905.54923    89090.607   -21667.434    1643.5856   -23311.019    76.472925 
   21750    247.01975   -529.85824    89093.739    -21668.57    1664.0808   -23332.651    76.562608 
   21800    242.88378   -930.72947    89129.059   -21677.204    1636.2183   -23313.422    76.969929 
   21850    238.19169    -741.1723    89189.631   -21675.427    1604.6094   -23280.036    77.007354 
   21900    242.81512   -632.74275    89220.174   -21661.417    1635.7558   -23297.173    77.101745 
   21950    246.56389   -970.40518     89193.32   -21665.696    1661.0099   -23326.706    77.284942 
   22000    239.16964   -356.40525    89126.057   -21658.572    1611.1976   -23269.769    77.616468 
   22050    240.40402   -935.11879     89059.98   -21653.098    1619.5131   -23272.611    78.097133 
   22100    247.14988    -1191.245     88959.24   -21641.866    1664.9575   -23306.823    78.370813 
   22150    247.79634   -317.05057    88797.101   -21630.459    1669.3124   -23299.772    78.677356 
   22200     248.3782   -309.54001    88680.449   -21633.099    1673.2322   -23306.331    79.223229 
   22250      243.401   -776.90536    88661.372   -21637.884    1639.7026   -23277.586    79.627954 
   22300    247.84532   -417.84682    88710.679   -21657.587    1669.6424    -23327.23    79.872605 
   22350     245.3686    -487.3171    88835.287   -21662.647    1652.9576   -23315.604    79.973628 
   22400    244.47645    -743.9303    88984.739   -21661.861    1646.9476   -23308.809    79.922305 
   22450    247.26933   -413.29705    89098.522   -21654.389    1665.7622   -23320.151    79.958815 
   22500    250.08082   -565.26021    89177.456   -21629.557    1684.7021   -23314.259    80.208926 
   22550    240.38618   -654.46294    89231.682   -21641.036    1619.3929   -23260.429    80.601536 
   22600    246.54985   -1309.5169    89284.863   -21649.846    1660.9153   -23310.761    80.803737 
   22650    244.03882   -536.96177    89327.074   -21645.842    1643.9994   -23289.841    81.173691 
   22700    245.74481   -1105.7898    89402.704   -21653.545    1655.4921   -23309.037    81.586133 
   22750    245.05212   -861.62909    89504.137   -21640.382    1650.8256   -23291.208    81.639067 
   22800     245.4846   -1158.2015     89558.95   -21643.792    1653.7391   -23297.531    81.907158 
   22850    247.58838   -941.63521    89516.849   -21631.257    1667.9115   -23299.168    81.896318 
   22900    242.84723   -771.26616     89409.93   -21620.643    1635.9721   -23256.615    81.977811 
   22950    251.95289   -171.45622    89307.838   -21635.135    1697.3136   -23332.449    81.973809 
   23000    241.92707    -657.0439    89250.973   -21655.555    1629.7733   -23285.329    82.291448 
   23050    244.94481   -802.03612    89237.948   -21666.303    1650.1028   -23316.406    82.517791 
   23100    242.51007   -769.93182    89275.803   -21666.273    1633.7008   -23299.974    82.608722 
   23150    241.45544   -939.62549    89283.119   -21679.453    1626.5961    -23306.05    83.006366 
   23200    243.92057   -566.63429    89239.584   -21653.203    1643.2028   -23296.406    83.279228 
   23250     241.5858   -1113.1156     89192.43   -21665.579    1627.4744   -23293.053    83.453981 
   23300    241.83903    -878.9908    89139.724    -21670.12    1629.1802     -23299.3    83.632559 
   23350    245.31596   -219.33861    89092.022   -21671.197    1652.6031     -23323.8    83.607352 
   23400    242.86184   -804.49601    89029.115   -21667.858    1636.0705   -23303.928    83.833443 
   23450    239.05484   -637.11228    88955.192   -21674.939    1610.4242   -23285.363    84.253819 
   23500     239.1354   -872.88248    88855.334   -21694.359    1610.9669   -23305.326    84.278993 
   23550    242.01076    -545.5048     88765.19   -21674.641    1630.3371   -23304.978    84.582113 
   23600      239.015    -638.0967    88727.247    -21689.48    1610.1558   -23299.636    84.206626 
   23650     239.6236   -758.57982    88720.402   -21687.818    1614.2557   -23302.074    84.505961 
   23700    241.36012   -517.45513    88722.252   -21693.095     1625.954   -23319.049     84.65254 
   23750    240.32703   -713.85675      88751.8   -21687.712    1618.9945   -23306.707    84.680188 
   23800    244.65574   -794.78917    88807.023   -21694.203    1648.1554   -23342.358    84.536832 
   23850    246.06952   -583.09023     88887.09   -21673.805    1657.6795   -23331.485    84.848741 
   23900    237.48901   -1070.7748    88959.454   -21680.968    1599.8758   -23280.844    84.880895 
   23950    245.51088   -482.49367    89016.061   -21698.955    1653.9161   -23352.871    84.827856 
   24000    248.20442   -777.37791    89086.587   -21683.325    1672.0615   -23355.386    85.052967 
   24050    239.78935   -460.74178    89143.655   -21691.256    1615.3723   -23306.629    85.459222 
   24100    243.15476   -968.84767    89213.618   -21666.234    1638.0438   -23304.277    85.984769 
   24150    239.23096    -708.1447    89261.745   -21672.008    1611.6106   -23283.619    86.163083 
   24200    246.51574   -1180.2437    89276.577   -21665.627    1660.6855   -23326.313    86.430542 
   24250    241.98509   -1155.7691     89247.11   -21655.004    1630.1642   -23285.168    86.571679 
   24300     238.9023   -368.06214    89203.265   -21672.784    1609.3966    -23282.18    86.882364 
   24350    240.41502   -1064.0933    89183.638   -21683.043    1619.5872    -23302.63    86.882514 
   24400    242.08512   -637.09581    89155.968   -21703.093    1630.8381   -23333.931    86.906384 
   24450    241.21895   -225.89071    89135.622   -21691.414     1625.003   -23316.417    86.767802 
   24500     237.6243   -620.95039    89130.577   -21707.497    1600.7871   -23308.284    87.077657 
   24550    235.44547   -496.41942    89139.526   -21700.043    1586.1092   -23286.153    87.051427 
   24600    234.82168   -609.07551    89183.234       -21733    1581.9069   -23314.907    86.896431 
   24650    236.68144   -1041.4197    89219.316   -21712.093    1594.4355   -23306.528    87.197913 
   24700    238.27079   -775.90819    89199.793   -21717.438    1605.1423    -23322.58    87.499625 
   24750    233.25536   -865.48147    89164.151   -21713.013    1571.3552   -23284.368    87.908939 
   24800    240.20309   -795.70697    89138.132   -21718.662    1618.1595   -23336.821    87.942943 
   24850    241.86242   -559.29324    89073.244   -21725.103    1629.3378    -23354.44    88.035612 
   24900    237.79304   -1062.0523    89007.998   -21739.936    1601.9239    -23341.86    88.042967 
   24950    238.29017   -620.23588    88927.078    -21728.66    1605.2729   -23333.933    88.344665 
   25000    241.55747    105.22534    88878.153   -21717.554    1627.2835   -23344.837    88.239278 
Loop time of 96.1566 on 8 procs for 25000 steps with 5021 atoms

Performance: 224.634 ns/day, 0.107 hours/ns, 259.993 timesteps/s
97.4% CPU use with 8 MPI tasks x no OpenMP threads

MPI task timing breakdown:
Section |  min time  |  avg time  |  max time  |%varavg| %total
---------------------------------------------------------------
Pair    | 47.319     | 57.68      | 69.346     | 122.1 | 59.99
Neigh   | 3.6374     | 7.6695     | 12.124     | 143.2 |  7.98
Comm    | 9.8018     | 25.833     | 40.042     | 257.0 | 26.87
Output  | 0.19772    | 0.20903    | 0.28159    |   6.0 |  0.22
Modify  | 3.9623     | 4.1037     | 4.1781     |   4.2 |  4.27
Other   |            | 0.6611     |            |       |  0.69

Nlocal:        627.625 ave         903 max         359 min
Histogram: 4 0 0 0 0 0 0 0 0 4
Nghost:        1904.38 ave        1932 max        1873 min
Histogram: 2 0 1 0 1 0 0 1 2 1
Neighs:        0.00000 ave           0 max           0 min
Histogram: 8 0 0 0 0 0 0 0 0 0
FullNghs:      59593.8 ave      104128 max       17155 min
Histogram: 4 0 0 0 0 0 0 0 0 4

Total # of neighbors = 476750
Ave neighs/atom = 94.951205
Neighbor list builds = 2861
Dangerous builds = 0

unfix           3
unfix           4
undump          1


# Run 0.25 ns equilibration of water in NVE ensemble
#
fix            3 water nve
dump		1 all atom 2000 nve.${NAME}.dump
dump		1 all atom 2000 nve.ML_graphite_m500atm_240K.dump
run	        25000
Per MPI rank memory allocation (min/avg/max) = 5.093 | 5.287 | 5.480 Mbytes
Step c_2 v_water_press Volume TotEng KinEng PotEng c_1[4] 
   25000    241.55747    105.22534    88878.153   -21717.554    1627.2835   -23344.837    88.239278 
   25050    246.93427   -159.59573    88878.153   -21719.072     1663.505   -23382.577    88.087391 
   25100    241.92507   -512.87107    88878.153   -21718.154    1629.7598   -23347.914    88.220446 
   25150    248.63491    -911.6678    88878.153   -21719.195    1674.9616   -23394.157    88.699343 
   25200    241.12313    -491.6424    88878.153   -21718.421    1624.3575   -23342.778    88.992268 
   25250     240.3093   -917.74441    88878.153   -21717.892     1618.875   -23336.767    89.112165 
   25300    244.16479   -843.24025    88878.153   -21718.756     1644.848   -23363.604    89.108742 
   25350     241.8466   -1036.8963    88878.153   -21718.513    1629.2312   -23347.745     88.95934 
   25400    240.26119   -1.8516833    88878.153   -21717.649    1618.5509     -23336.2     89.08941 
   25450    244.05157   -310.55892    88878.153   -21718.488    1644.0853   -23362.573    89.198077 
   25500    239.46783   -268.06768    88878.153   -21717.862    1613.2063   -23331.069    89.153247 
   25550     247.9784   -31.516868    88878.153   -21718.756    1670.5389   -23389.294    89.537892 
   25600    245.79789   -233.30803    88878.153   -21717.684    1655.8496   -23373.533    89.485112 
   25650    242.20777   -214.83823    88878.153   -21717.977    1631.6643   -23349.642    89.716548 
   25700    243.73816   -121.91222    88878.153   -21718.618     1641.974   -23360.592    89.589286 
   25750    246.19187   -230.56105    88878.153   -21719.566    1658.5037    -23378.07    89.679906 
   25800    243.49197   -614.47703    88878.153    -21718.72    1640.3155   -23359.035     89.85207 
   25850    236.43351    -44.16421    88878.153   -21717.364    1592.7653   -23310.129    89.888668 
   25900     239.3777   -539.48369    88878.153   -21718.461    1612.5992    -23331.06    89.830037 
   25950    248.62251   -630.93201    88878.153   -21719.101    1674.8781   -23393.979    89.669099 
   26000    239.93292   -594.68741    88878.153   -21717.471    1616.3394   -23333.811    89.655085 
   26050    241.78272   -490.68964    88878.153   -21717.946    1628.8009   -23346.747    89.773412 
   26100    239.40095   -1187.5503    88878.153   -21718.096    1612.7558   -23330.852    90.120508 
   26150    243.40177   -664.80706    88878.153   -21719.255    1639.7079   -23358.963    90.258085 
   26200    238.01704    -256.0752    88878.153    -21717.25    1603.4329   -23320.682     90.46356 
   26250     237.3247   -949.71198    88878.153    -21717.19    1598.7689   -23315.958    90.661919 
   26300     248.3419    -961.8093    88878.153   -21718.789    1672.9877   -23391.777    90.643637 
   26350     234.8596   -544.10713    88878.153   -21716.902    1582.1624   -23299.065     90.62136 
   26400    240.63483    -1245.083    88878.153   -21717.923     1621.068   -23338.991    90.897966 
   26450    236.42811   -1017.2735    88878.153   -21717.576    1592.7288   -23310.305    90.994327 
   26500    241.76773   -801.50891    88878.153   -21717.626    1628.6999   -23346.326    90.984978 
   26550    242.01729   -556.57652    88878.153   -21717.912    1630.3811   -23348.293    90.957324 
   26600    232.28578   -691.84666    88878.153   -21717.162    1564.8235   -23281.986    90.853684 
   26650    246.36572   -530.12156    88878.153   -21718.829    1659.6749   -23378.504    90.711989 
   26700    239.01833   -623.08447    88878.153   -21717.986    1610.1782   -23328.164    90.752955 
   26750    238.75244   -975.29773    88878.153   -21717.666     1608.387   -23326.053    90.715915 
   26800    235.94656   -674.80338    88878.153   -21717.509    1589.4848   -23306.994      90.7833 
   26850    242.01522   -929.51277    88878.153   -21717.273    1630.3672    -23347.64    91.121102 
   26900    236.52979    -1093.836    88878.153   -21718.133    1593.4138   -23311.547    91.194107 
   26950    233.19036   -871.19272    88878.153   -21716.634    1570.9173   -23287.551    91.261569 
   27000     236.6361   -1136.6908    88878.153   -21717.522      1594.13   -23311.652    91.374246 
   27050    235.76154   -950.77804    88878.153   -21716.852    1588.2384   -23305.091    91.605083 
   27100    236.07042   -538.24855    88878.153   -21717.346    1590.3192   -23307.666     91.79907 
   27150    235.15366    -1198.789    88878.153   -21717.531    1584.1434   -23301.674    91.759255 
   27200     238.5221   -1163.7127    88878.153   -21718.208    1606.8353   -23325.044    91.759646 
   27250    231.12614   -906.02166    88878.153   -21717.192    1557.0115   -23274.204    92.029635 
   27300    234.17311   -794.30964    88878.153   -21717.398    1577.5378   -23294.935    92.083053 
   27350    236.05469   -453.53456    88878.153   -21717.746    1590.2133   -23307.959    92.135579 
   27400    236.37748   -894.51063    88878.153   -21717.476    1592.3878   -23309.864    92.283708 
   27450    234.81788   -643.50005    88878.153   -21718.358    1581.8813   -23300.239     92.53066 
   27500     237.2593   -299.13208    88878.153   -21717.604    1598.3283   -23315.932    92.716904 
   27550    237.71092   -286.32757    88878.153   -21717.775    1601.3707   -23319.145    92.632978 
   27600    236.57243   -561.97898    88878.153   -21718.231    1593.7011   -23311.932    93.176786 
   27650    240.52417   -601.60783    88878.153   -21718.029    1620.3225   -23338.351    93.236627 
   27700     240.9634   -807.97426    88878.153   -21717.994    1623.2814   -23341.275     93.36117 
   27750    238.23924   -536.45507    88878.153   -21717.728    1604.9298   -23322.658    93.218028 
   27800    238.86798   -754.55811    88878.153   -21718.476    1609.1653   -23327.641    93.447663 
   27850    236.65605   -334.95101    88878.153   -21717.188    1594.2644   -23311.453    93.573376 
   27900    232.78017   -203.28922    88878.153   -21717.355    1568.1541   -23285.509    93.900609 
   27950     245.3479   -165.59348    88878.153   -21718.653    1652.8182   -23371.471    93.716387 
   28000    240.10875   -583.58912    88878.153    -21717.19    1617.5239   -23334.714    93.806687 
   28050    241.38644   -287.83417    88878.153   -21718.089    1626.1313    -23344.22    94.053706 
   28100     245.2177   -136.09309    88878.153    -21719.17    1651.9411   -23371.112    94.179412 
   28150    246.42847   -959.15977    88878.153   -21718.395    1660.0976   -23378.492    94.417726 
   28200    240.51277   -682.76023    88878.153   -21717.754    1620.2457   -23337.999    94.385766 
   28250    237.63141   -455.53125    88878.153   -21716.723     1600.835   -23317.558    94.600087 
   28300    239.77187   -614.90362    88878.153   -21717.455    1615.2546    -23332.71    94.624698 
   28350    243.96041    -485.3905    88878.153   -21718.901    1643.4712   -23362.373    94.676487 
   28400    243.07574   -934.15025    88878.153   -21717.144    1637.5115   -23354.656    94.858292 
   28450    245.66438   -757.25908    88878.153   -21718.668    1654.9502   -23373.619    95.011578 
   28500    242.60586   -704.06908    88878.153   -21718.127    1634.3461   -23352.473    94.967902 
   28550    244.75893   -533.28283    88878.153   -21718.912    1648.8505   -23367.762    95.097503 
   28600    243.37784   -1108.2144    88878.153   -21718.681    1639.5467   -23358.228    95.240969 
   28650    239.44999   -737.74678    88878.153   -21717.497    1613.0861   -23330.583    95.408195 
   28700    242.77665   -878.72862    88878.153   -21718.591    1635.4966   -23354.088    95.628109 
   28750    246.09124   -594.27538    88878.153   -21718.724    1657.8258    -23376.55    95.588436 
   28800    241.34973   -936.31387    88878.153   -21718.416     1625.884     -23344.3    95.696711 
   28850    238.03057   -39.325029    88878.153   -21718.018    1603.5241   -23321.542     95.54561 
   28900    237.84283   -638.88738    88878.153   -21717.695    1602.2593   -23319.954    95.896949 
   28950    244.06866   -366.96964    88878.153   -21717.989    1644.2004    -23362.19    96.082687 
   29000    241.52902   -302.98908    88878.153   -21717.308    1627.0918   -23344.399    96.661483 
   29050     239.1591   -375.26525    88878.153    -21717.48    1611.1265   -23328.606    97.076518 
   29100    243.51167   -1148.8332    88878.153   -21718.709    1640.4482   -23359.157    97.304743 
   29150    244.99524   -708.22481    88878.153   -21719.272    1650.4425   -23369.715    97.140241 
   29200     237.3199   -616.89954    88878.153   -21717.158    1598.7365   -23315.895    97.299614 
   29250    241.21689   -935.99721    88878.153   -21718.828    1624.9891   -23343.818       97.381 
   29300    240.74123   -702.74933    88878.153   -21718.222    1621.7848   -23340.006    97.484235 
   29350    242.22292   -390.25422    88878.153   -21718.559    1631.7664   -23350.326    97.654021 
   29400     241.5939   -458.15686    88878.153   -21717.912    1627.5289   -23345.441     97.74638 
   29450    238.08165   -675.27967    88878.153   -21717.976    1603.8681   -23321.844    98.152934 
   29500    240.22541   -347.73679    88878.153   -21718.116    1618.3099   -23336.426    98.275487 
   29550    239.44631   -819.50628    88878.153   -21718.133    1613.0614   -23331.194    98.182228 
   29600    237.70096   -752.64598    88878.153   -21717.784    1601.3036   -23319.087    98.588794 
   29650    233.60546    -674.3298    88878.153    -21718.11    1573.7137   -23291.823    98.856175 
   29700    236.68413   -946.43508    88878.153   -21717.742    1594.4536   -23312.196    99.188946 
   29750    242.46386   -1082.0263    88878.153   -21718.525    1633.3895   -23351.915    99.123858 
   29800    240.30799   -1107.5935    88878.153   -21717.336    1618.8662   -23336.202    99.216161 
   29850    240.72782   -895.42646    88878.153   -21718.478    1621.6944   -23340.172    99.709886 
   29900    238.77383   -775.56313    88878.153   -21716.502    1608.5311   -23325.033    99.866699 
   29950    239.95133   -912.44503    88878.153   -21718.327    1616.4635    -23334.79    99.918203 
   30000    237.51337    -848.8364    88878.153   -21717.859    1600.0399   -23317.898    100.06893 
   30050    235.53583   -473.65116    88878.153    -21717.51    1586.7179   -23304.227    100.18491 
   30100    234.69082   -664.13298    88878.153   -21717.779    1581.0254   -23298.804    100.27466 
   30150    235.93353   -332.28816    88878.153   -21717.764     1589.397   -23307.162     100.5796 
   30200    230.71625   -328.14696    88878.153   -21717.847    1554.2502   -23272.097    100.93317 
   30250    236.62855   -888.64384    88878.153   -21718.056    1594.0791   -23312.135    101.12414 
   30300    232.14226   -709.06189    88878.153   -21717.406    1563.8567   -23281.263    101.16961 
   30350     235.4758   -309.55007    88878.153   -21717.233    1586.3135   -23303.546    101.41468 
   30400    238.41793   -657.66879    88878.153   -21718.718    1606.1336   -23324.852    101.62908 
   30450    236.39494   -867.09424    88878.153    -21718.26    1592.5054   -23310.765    101.70385 
   30500    234.15773    -545.3627    88878.153   -21717.238    1577.4342   -23294.672    101.61249 
   30550    239.18029   -907.97184    88878.153   -21718.443    1611.2693   -23329.712    101.88519 
   30600    236.65861   -598.93999    88878.153   -21718.271    1594.2817   -23312.553    101.90153 
   30650    235.08653   -814.50084    88878.153   -21716.978    1583.6911    -23300.67    102.41418 
   30700    233.50377   -338.64074    88878.153   -21717.348    1573.0287   -23290.376    102.56754 
   30750    239.68707    -743.1727    88878.153    -21718.31    1614.6833   -23332.994    102.90454 
   30800    235.36025   -856.23409    88878.153   -21717.418    1585.5351   -23302.953    103.30496 
   30850    239.49794   -752.43046    88878.153   -21717.914    1613.4092   -23331.323    103.12556 
   30900    242.25793   -585.98345    88878.153   -21717.604    1632.0022   -23349.606    103.40416 
   30950    229.85136   -790.09336    88878.153   -21716.708    1548.4238   -23265.132    103.17638 
   31000    241.93343   -826.41108    88878.153   -21718.403    1629.8162   -23348.219    103.63579 
   31050    240.21957   -530.53562    88878.153   -21718.209    1618.2705   -23336.479    103.80596 
   31100    240.40305   -489.12609    88878.153   -21717.607    1619.5066   -23337.113    104.14312 
   31150    237.79528   -370.59943    88878.153    -21717.55     1601.939   -23319.489    104.29798 
   31200    241.35483   -508.17736    88878.153   -21718.935    1625.9184   -23344.854    104.30983 
   31250    244.32668   -565.32229    88878.153   -21718.147    1645.9386   -23364.085    104.61752 
   31300    246.77319   -402.99637    88878.153   -21718.971    1662.4199   -23381.391    104.49996 
   31350    236.44322   -414.20012    88878.153   -21716.655    1592.8307   -23309.486    104.80409 
   31400    248.57176    -731.6375    88878.153   -21719.106    1674.5362   -23393.642    105.22012 
   31450    239.92417   -615.47391    88878.153   -21716.905    1616.2805   -23333.186    105.20061 
   31500    244.11053    -476.1162    88878.153   -21718.343    1644.4825   -23362.825    105.29018 
   31550    240.19033   -733.22724    88878.153   -21718.186    1618.0735    -23336.26    105.46277 
   31600    241.01163   -672.54406    88878.153   -21717.622    1623.6063   -23341.229    105.42891 
   31650    240.58088   -455.60078    88878.153   -21717.536    1620.7045   -23338.241     105.6531 
   31700    244.37801   -669.00078    88878.153   -21718.804    1646.2844   -23365.089    105.67905 
   31750    237.24972   -1298.8461    88878.153   -21717.769    1598.2638   -23316.033    105.97961 
   31800    242.16203   -582.37586    88878.153   -21718.734    1631.3562    -23350.09    106.58033 
   31850    234.74597   -860.66442    88878.153   -21716.329    1581.3969   -23297.726    106.44576 
   31900    242.16661   -890.11145    88878.153   -21718.474     1631.387   -23349.861    106.75058 
   31950    240.83998   -689.84904    88878.153    -21717.85      1622.45     -23340.3    106.83153 
   32000    237.97032   -494.44236    88878.153     -21717.7    1603.1181   -23320.818    107.05504 
   32050    247.06124   -691.63064    88878.153   -21719.209    1664.3604   -23383.569    107.37371 
   32100    239.56204   -498.81003    88878.153   -21718.133     1613.841   -23331.974    107.55049 
   32150    236.53387    -519.2825    88878.153   -21717.772    1593.4414   -23311.214     107.7512 
   32200    242.54942   -901.65325    88878.153   -21718.372    1633.9659   -23352.338    107.59097 
   32250    238.69112   -609.44361    88878.153   -21717.266    1607.9739    -23325.24    107.65264 
   32300    242.31595   -138.46645    88878.153   -21718.371    1632.3931   -23350.764    107.75649 
   32350    246.36549   -169.67666    88878.153   -21718.144    1659.6734   -23377.817    107.93593 
   32400    246.75621   -816.51135    88878.153   -21719.903    1662.3055   -23382.209    108.13786 
   32450    246.57654   -438.82637    88878.153   -21719.086    1661.0951   -23380.181    108.29757 
   32500    238.61673   -451.85044    88878.153   -21717.294    1607.4728   -23324.766    108.20202 
   32550    245.43069   -689.29198    88878.153   -21718.755    1653.3759   -23372.131    108.46921 
   32600    240.72084   -426.54022    88878.153   -21717.562    1621.6474   -23339.209    108.72966 
   32650      244.525   -183.78032    88878.153   -21719.123    1647.2746   -23366.398    109.00492 
   32700    244.35031   -619.21609    88878.153   -21718.138    1646.0978   -23364.236    109.30328 
   32750    249.66388   -433.51897    88878.153   -21719.222    1681.8934   -23401.115    109.43717 
   32800    248.02457   -284.70038    88878.153   -21717.878    1670.8499   -23388.728    109.46661 
   32850    243.19513   -795.95486    88878.153   -21718.734    1638.3158    -23357.05    109.64023 
   32900    243.51428    -770.5996    88878.153   -21718.596    1640.4658   -23359.062    109.82807 
   32950    241.74485   -861.91569    88878.153   -21718.104    1628.5458    -23346.65    110.04183 
   33000    241.45375   -206.56494    88878.153    -21718.41    1626.5848   -23344.995    110.49678 
   33050    241.44346   -282.91083    88878.153   -21718.289    1626.5154   -23344.804    110.84703 
   33100    239.52291   -504.50171    88878.153   -21717.506    1613.5774   -23331.083    111.24734 
   33150    248.13057   -674.12706    88878.153   -21719.142     1671.564   -23390.706    111.17888 
   33200    244.41749   -1011.8169    88878.153   -21717.961    1646.5504   -23364.511    111.28907 
   33250    247.11824    -483.6233    88878.153   -21718.585    1664.7444   -23383.329    111.43426 
   33300    242.78329   -639.52623    88878.153   -21718.249    1635.5414    -23353.79    111.52378 
   33350    238.73362   -574.38461    88878.153   -21717.855    1608.2602   -23326.115    111.64397 
   33400    240.83431   -113.68542    88878.153   -21717.482    1622.4118   -23339.894     111.8816 
   33450    244.76109   -571.60757    88878.153   -21718.397    1648.8651   -23367.263    111.96789 
   33500    238.69641     -506.087    88878.153   -21717.246    1608.0095   -23325.255    112.12792 
   33550    242.72362   -320.80837    88878.153   -21717.939    1635.1394   -23353.078     112.1566 
   33600    243.25379   -651.95646    88878.153   -21718.412     1638.711   -23357.123    112.05334 
   33650    233.58663   -835.11996    88878.153   -21716.703    1573.5869    -23290.29    112.28661 
   33700    237.38589   -636.94476    88878.153   -21717.545     1599.181   -23316.726    112.53241 
   33750    236.78181   -855.14407    88878.153    -21718.23    1595.1116   -23313.342    112.77843 
   33800    238.95672   -370.42018    88878.153   -21717.805    1609.7632   -23327.568    112.57663 
   33850    235.78929   -716.84333    88878.153   -21717.171    1588.4253   -23305.596    112.76059 
   33900    241.42795    -472.6731    88878.153    -21718.61    1626.4109   -23345.021    113.13563 
   33950    238.78793   -228.82217    88878.153   -21717.516    1608.6261   -23326.142    113.19983 
   34000    243.01956   -646.29849    88878.153   -21718.705     1637.133   -23355.838    113.86296 
   34050    240.41119    -812.5365    88878.153   -21718.286    1619.5614   -23337.848    113.84246 
   34100    241.89349   -449.61818    88878.153   -21717.698    1629.5471   -23347.245    114.14471 
   34150    245.62558   -649.54964    88878.153     -21718.3    1654.6888   -23372.989    114.32305 
   34200    241.12188   -587.89643    88878.153   -21717.903     1624.349   -23342.252    113.98985 
   34250    239.20668    186.76413    88878.153   -21717.732    1611.4471   -23329.179    114.19279 
   34300    241.94431   -668.93734    88878.153   -21718.539    1629.8895   -23348.428    114.19224 
   34350    243.56474   -253.72401    88878.153   -21717.693    1640.8057   -23358.498    114.46015 
   34400    242.95258   -773.92967    88878.153    -21718.23    1636.6818   -23354.912    114.55923 
   34450    242.37497    -402.1619    88878.153   -21717.468    1632.7907   -23350.258     114.5368 
   34500    237.70838   -780.11452    88878.153   -21717.493    1601.3536   -23318.846    114.48617 
   34550    236.10813   -221.74125    88878.153   -21717.339    1590.5733   -23307.913    114.78889 
   34600    239.08495    -621.0493    88878.153     -21717.3     1610.627   -23327.927    115.04778 
   34650    245.64335   -454.07284    88878.153   -21717.688    1654.8085   -23372.497    115.29439 
   34700    244.01636   -859.27577    88878.153   -21717.933    1643.8481   -23361.781     115.3223 
   34750    239.87503   -959.67213    88878.153    -21718.18    1615.9495   -23334.129    115.41328 
   34800    237.93889   -627.84269    88878.153    -21717.69    1602.9065   -23320.597    115.78624 
   34850    238.79965    224.89348    88878.153   -21716.333     1608.705   -23325.038    116.10538 
   34900    243.32573    58.106439    88878.153   -21718.761    1639.1956   -23357.956    116.23298 
   34950     245.9907    -242.9558    88878.153   -21717.816    1657.1485   -23374.964     116.5056 
   35000    244.67161   -666.19129    88878.153   -21718.259    1648.2623   -23366.521    116.15834 
   35050     245.7486    -494.1547    88878.153   -21718.945    1655.5175   -23374.463    116.68942 
   35100    242.14973    -1171.416    88878.153   -21718.196    1631.2733    -23349.47      116.826 
   35150    233.48227   -936.70756    88878.153   -21716.527    1572.8838   -23289.411    116.88419 
   35200    246.79556   -451.06937    88878.153   -21717.652    1662.5705   -23380.223    116.74681 
   35250    238.85505   -1298.6193    88878.153   -21717.659    1609.0783   -23326.737    116.54096 
   35300    238.49551   -1137.5164    88878.153   -21717.476    1606.6562   -23324.132    116.37483 
   35350    239.26913   -217.00727    88878.153   -21717.949    1611.8677   -23329.817    116.45005 
   35400    245.63965   -541.30199    88878.153   -21717.712    1654.7836   -23372.496    116.84284 
   35450    244.27976   -887.56398    88878.153   -21717.724    1645.6225   -23363.346    117.10378 
   35500      234.511   -382.98703    88878.153   -21716.837     1579.814   -23296.651    117.47717 
   35550    241.33637   -380.69549    88878.153   -21718.089     1625.794   -23343.883    117.60228 
   35600    244.75749   -848.23837    88878.153   -21718.901    1648.8409   -23367.742    117.72788 
   35650    234.94036   -902.56126    88878.153   -21717.298    1582.7064   -23300.005    117.99172 
   35700    244.52003   -437.68045    88878.153   -21717.657    1647.2411   -23364.898    117.89048 
   35750    244.53674   -753.68196    88878.153   -21718.194    1647.3537   -23365.548     118.1052 
   35800    241.87606    -346.9282    88878.153    -21717.19    1629.4297   -23346.619    118.13925 
   35850    237.16405   -431.50235    88878.153   -21717.893    1597.6866    -23315.58    118.45401 
   35900    238.34004   -905.77354    88878.153   -21717.004    1605.6088   -23322.613    118.70493 
   35950    239.78357   -1041.9834    88878.153   -21717.623    1615.3334   -23332.957    118.95803 
   36000      235.814   -722.61034    88878.153    -21716.55    1588.5918   -23305.142    119.35379 
   36050    237.13031   -920.97415    88878.153   -21717.251    1597.4593    -23314.71    119.38261 
   36100    236.37088   -558.65815    88878.153    -21717.93    1592.3433   -23310.274    119.39702 
   36150    236.34083   -899.87624    88878.153   -21717.754    1592.1409   -23309.894    119.06317 
   36200    240.07606   -445.02496    88878.153    -21717.31    1617.3037   -23334.614    119.82478 
   36250    238.03192   -760.42627    88878.153   -21717.701    1603.5332   -23321.234    119.90498 
   36300    243.49534   -306.24508    88878.153   -21718.615    1640.3382   -23358.953    120.14535 
   36350    245.30302   -907.34784    88878.153   -21718.308    1652.5158   -23370.824    120.58033 
   36400    242.72554   -968.66438    88878.153   -21717.774    1635.1523   -23352.926    120.35923 
   36450    244.40057   -136.14996    88878.153   -21718.429    1646.4364   -23364.865    120.22809 
   36500    240.48912   -561.24826    88878.153   -21717.887    1620.0864   -23337.974    120.78908 
   36550    235.97552   -813.76253    88878.153   -21717.331    1589.6799   -23307.011    121.09187 
   36600    237.65043   -944.61515    88878.153   -21717.113    1600.9632   -23318.076    121.60814 
   36650     240.0408   -576.10374    88878.153   -21718.293    1617.0662   -23335.359    121.63112 
   36700    238.30036   -733.39917    88878.153   -21717.879    1605.3415    -23323.22    121.91035 
   36750    239.45722   -806.97069    88878.153   -21717.664    1613.1349   -23330.799    122.72093 
   36800    237.83074   -818.20352    88878.153   -21717.744    1602.1779   -23319.922    122.53791 
   36850    245.80865   -834.76499    88878.153    -21718.34    1655.9221   -23374.262    122.65291 
   36900    234.72654    -742.9203    88878.153   -21716.936     1581.266   -23298.202    123.10321 
   36950    237.66466   -920.38337    88878.153   -21717.369     1601.059   -23318.428    123.30453 
[...]
  140850    242.13395   -809.13317    88946.837   -21598.456     1631.167   -23229.623    393.18075 
  140900    242.88732   -909.18995    88892.692   -21604.965    1636.2422   -23241.207    393.52934 
  140950    241.29226   -724.29414    88809.231   -21592.321    1625.4969   -23217.817    393.75112 
  141000    241.70686   -371.77888    88669.757   -21597.477    1628.2899   -23225.767    393.91862 
  141050    246.08246   -73.437767    88587.706   -21592.666    1657.7666   -23250.433    394.09163 
  141100    248.53658   -490.22678    88579.914   -21579.742    1674.2992   -23254.042    394.06799 
  141150    244.53558   -639.18223    88583.701   -21605.858    1647.3459   -23253.204     394.2893 
  141200    249.76555   -728.72154    88616.274   -21602.234    1682.5783   -23284.813    394.45112 
  141250    249.71882   -683.00077    88703.255   -21604.078    1682.2635   -23286.342    394.70521 
  141300    243.66307   -602.13564    88803.219   -21606.053    1641.4682   -23247.521    395.09091 
  141350    244.65229   -828.44057    88881.215   -21633.435    1648.1322   -23281.567     395.4071 
  141400    243.20525    -817.4715    88985.085   -21624.238     1638.384   -23262.622    395.90475 
  141450    239.83181   -1170.5067    89074.358   -21640.449    1615.6584   -23256.107    396.78501 
  141500    244.07636   -604.59772    89078.815   -21636.285    1644.2523   -23280.538    396.39975 
  141550    240.28018    -441.3501    89026.715   -21644.161    1618.6788   -23262.839    396.61126 
  141600    237.61508   -504.18217    88973.065   -21667.674    1600.7251   -23268.399    396.32868 
  141650    240.33337   -554.18294    88981.178   -21686.831    1619.0372   -23305.868    396.15936 
  141700    239.92098   -731.64709    89060.472   -21670.321     1616.259   -23286.581     396.2881 
  141750    241.27513   -945.40784    89134.723   -21670.632    1625.3815   -23296.014    396.28116 
  141800    246.43378   -1229.9509    89197.047   -21664.771    1660.1334   -23324.905    396.45913 
  141850    244.81887   -876.89445    89194.409   -21682.243    1649.2543   -23331.497    395.66919 
  141900    242.00148   -294.13205    89151.404   -21695.261    1630.2746   -23325.535    396.14056 
  141950    238.44999   -534.98464    89112.152   -21697.901    1606.3495   -23304.251    396.43926 
  142000     241.8871   -828.39614     89123.71   -21716.609    1629.5041   -23346.114    396.49519 
  142050    238.35318   -566.22829    89142.819   -21699.072    1605.6974    -23304.77    397.24535 
  142100    242.57876   -1038.9371    89143.998   -21684.256    1634.1635    -23318.42    396.94092 
  142150    237.57001   -464.85566    89093.763   -21687.136    1600.4214   -23287.558    397.02024 
  142200    242.30805   -395.13607    89059.871   -21683.033    1632.3399   -23315.373     397.1548 
  142250    241.63594   -597.72522    89126.835   -21694.658    1627.8121    -23322.47     397.5393 
  142300    240.45062   -1158.4356    89220.222   -21688.511     1619.827   -23308.338    397.40733 
  142350    240.04203   -929.68338    89234.961   -21695.404    1617.0745   -23312.478    397.06025 
  142400    238.76346   -469.44206    89218.232   -21683.949    1608.4613   -23292.411    397.40466 
  142450    240.61983   -180.85093    89220.555   -21703.576    1620.9669   -23324.543    397.88059 
  142500    240.31445   -644.67754    89264.807    -21686.49    1618.9097     -23305.4    397.19189 
  142550    240.00222   -775.62327    89317.164   -21699.349    1616.8063   -23316.155    397.09434 
  142600    245.28401   -771.78281    89384.509   -21712.572    1652.3878    -23364.96    396.94058 
  142650    242.00613   -453.66576     89459.57    -21686.65    1630.3059   -23316.956    397.18724 
  142700    239.96632   -697.37986    89546.739   -21719.887    1616.5645   -23336.452    397.85542 
  142750    241.37808   -1067.0708    89612.323   -21727.887     1626.075   -23353.962    397.39584 
  142800    244.27477   -927.25808    89632.558   -21709.047    1645.5889   -23354.636    397.95478 
  142850    236.71245   -940.63025    89591.871   -21729.441    1594.6444   -23324.085    398.24163 
  142900    242.75781   -485.07284    89501.936   -21723.444    1635.3697   -23358.813    398.09217 
  142950    238.82387   -803.52846     89450.25    -21723.39    1608.8682   -23332.258    397.95773 
  143000    244.01581    -319.9563    89408.403   -21729.899    1643.8444   -23373.743    398.15364 
  143050    242.50766   -360.42717    89357.597   -21719.871    1633.6846   -23353.555    397.86422 
  143100    246.96555   -269.39656     89325.57   -21720.045    1663.7157    -23383.76    398.36322 
  143150    241.24396   -638.51749    89320.877   -21720.877    1625.1714   -23346.049    398.42392 
  143200    244.49082   -911.71751    89301.068   -21714.172    1647.0443   -23361.216    398.35688 
  143250    242.33538   -511.30437    89263.335   -21709.202     1632.524   -23341.726    398.50704 
  143300    236.74326   -649.39831     89234.54   -21716.697    1594.8519   -23311.549    398.47171 
  143350    236.38101   -774.12238    89214.849   -21730.551    1592.4116   -23322.962    398.51789 
  143400    237.99294   -380.51975    89178.374   -21712.234    1603.2705   -23315.504    398.28978 
  143450    243.55245   -29.617072    89156.196   -21729.257    1640.7229    -23369.98    398.46609 
  143500     238.9398   -977.22686    89204.995   -21716.297    1609.6492   -23325.946    398.79449 
  143550    241.55089   -1024.5093    89232.228   -21679.875    1627.2391   -23307.114    398.87652 
  143600    236.35108   -1049.0737    89152.267   -21702.427      1592.21   -23294.637    398.80136 
  143650    240.55671   -1389.0905    88986.055    -21688.18    1620.5417   -23308.722    398.93782 
  143700    238.59247    -916.1906    88734.918   -21699.223    1607.3094   -23306.532     398.8989 
  143750    241.34869    -447.1827    88457.972   -21681.322     1625.877   -23307.199    399.02376 
  143800    240.66064   -488.86504    88263.241    -21690.31    1621.2418   -23311.552     399.5367 
  143850    235.72816   -527.46739    88213.577   -21693.848    1588.0135   -23281.861    399.14284 
  143900    239.11611   -418.29591    88270.671   -21695.513    1610.8369    -23306.35    399.93863 
  143950     240.0472    -414.1218    88366.908   -21683.294    1617.1094   -23300.404      400.069 
  144000    241.32579   -832.50829    88520.714    -21681.27    1625.7227   -23306.993    400.77375 
  144050     241.7287   -636.33746    88672.678   -21666.871     1628.437   -23295.308    400.86491 
  144100    244.00919   -838.71235    88807.615   -21665.966    1643.7998   -23309.766    400.87055 
  144150    234.23554     -1152.83    88905.949    -21648.84    1577.9583   -23226.798     401.3658 
  144200    245.94701   -1314.4866     88911.64   -21653.482    1656.8542   -23310.337    401.48742 
  144250    234.59972   -459.86438    88795.851   -21633.542    1580.4117   -23213.953    401.49657 
  144300      236.435   -664.61164    88664.452   -21630.662    1592.7753   -23223.437    402.20689 
  144350    246.43408   -373.59414    88559.866   -21642.616    1660.1354   -23302.751    402.39586 
  144400    241.50463   -661.20267    88504.832   -21643.387    1626.9275   -23270.315    401.64573 
  144450    242.91092   -795.23878    88479.841   -21657.074    1636.4012   -23293.475    401.71623 
  144500     243.2126   -452.78435    88520.558   -21652.968    1638.4334   -23291.402    401.71749 
  144550    252.54943   -769.31355    88614.447   -21664.489    1701.3322   -23365.821    402.13459 
  144600    252.21947   -588.97157    88733.471   -21661.535    1699.1094   -23360.645    402.34909 
  144650    241.29389   -534.97561    88865.231   -21644.269    1625.5078   -23269.777    402.38565 
  144700    250.24208   -870.91296    88957.205   -21656.083    1685.7885   -23341.871    402.64991 
  144750     238.8587   -297.23473    88971.683    -21655.38    1609.1029   -23264.483     402.8093 
  144800    247.01668   -888.20688     88967.96    -21675.43    1664.0601    -23339.49     403.5342 
  144850    247.52209   -832.62124    88915.546    -21674.19    1667.4649   -23341.654    402.78785 
  144900    238.99969   -760.68689    88812.869   -21689.688    1610.0527   -23299.741    402.87082 
  144950     240.9831   -581.86682    88675.016   -21711.509    1623.4142   -23334.923    402.69963 
  145000    247.84569     271.5416    88542.724   -21697.273    1669.6449   -23366.917    402.98056 
  145050    244.32966   -289.93511     88527.92   -21693.754    1645.9587   -23339.712    403.13953 
  145100    243.37299   -73.010312    88599.086   -21688.098     1639.514   -23327.612    402.91714 
  145150    237.49367   -399.43564     88741.82   -21697.553    1599.9071   -23297.461    402.65137 
  145200    237.68491    -829.9224    88902.404   -21698.946    1601.1954   -23300.141    402.92123 
  145250    248.16036   -859.97028    89004.534   -21693.182    1671.7647   -23364.947     403.4234 
  145300    241.87256   -879.07339    89096.854   -21713.162    1629.4061   -23342.568    403.74064 
  145350    244.20281   -823.85627    89214.497   -21707.433    1645.1041   -23352.537    404.33151 
  145400    240.69346   -735.29358    89292.093   -21707.213    1621.4629   -23328.675    403.55219 
  145450    240.40218   -1049.8135    89332.701   -21709.407    1619.5007   -23328.908     403.6725 
  145500    244.18435   -779.18973    89353.511   -21713.546    1644.9798   -23358.526    403.88667 
  145550    238.28127   -613.06481    89387.926   -21728.359    1605.2129   -23333.572    403.99143 
  145600    244.07559   -613.88632    89378.105   -21718.462    1644.2471   -23362.709    404.15958 
  145650    243.27377   -755.14023    89345.421   -21714.252    1638.8456   -23353.097    404.62976 
  145700    237.65979   -718.13023    89333.637   -21724.803    1601.0263   -23325.829    405.05001 
  145750    244.57941   -546.58371    89274.852   -21712.012    1647.6412   -23359.653    405.44755 
  145800     238.8054    -1142.829    89209.044   -21720.164    1608.7438   -23328.908    405.79119 
  145850    238.69615   -618.20407    89104.839   -21720.243    1608.0078   -23328.251    405.79205 
  145900    243.50792   -860.83397    89042.396   -21718.621    1640.4229   -23359.044    405.97455 
  145950    242.13351   -1031.9019    89007.491   -21725.451    1631.1641   -23356.615    405.69236 
  146000    240.03513   -1069.0128    88950.018   -21718.093    1617.0281   -23335.121    405.44778 
  146050    247.93656   -862.81437    88867.007   -21704.521     1670.257   -23374.778     405.2361 
  146100    245.42677   -812.66141    88781.332   -21693.838    1653.3495   -23347.188    405.58839 
  146150    244.36183   -483.44131     88682.62   -21685.618    1646.1754   -23331.793    405.19807 
  146200    248.59034   -24.619174    88580.485   -21681.922    1674.6613   -23356.583    405.50711 
  146250    247.29331   -499.61538    88514.985    -21688.78    1665.9237   -23354.704    406.24966 
  146300    238.66635   -509.45811    88467.966   -21696.515    1607.8071   -23304.322     406.2936 
  146350    240.65679   -613.62276    88454.791   -21703.696    1621.2159   -23324.912      406.612 
  146400    238.66135   -569.59919    88467.265   -21705.782    1607.7734   -23313.556    406.87229 
  146450    241.90028   -656.32841    88489.597   -21690.393    1629.5929   -23319.986    407.08319 
  146500    243.22183   -615.79646    88515.696   -21692.119    1638.4956   -23330.615    407.41601 
  146550    243.39272   -871.80293    88529.802   -21679.098    1639.6469   -23318.744    407.68178 
  146600    239.78522   -559.85983    88501.779   -21680.772    1615.3445   -23296.116    408.09958 
  146650    236.21305   -573.96939    88493.673   -21696.296    1591.2801   -23287.576    408.38718 
  146700    238.62837   -861.00726     88497.09   -21706.603    1607.5512   -23314.154    408.52914 
  146750    242.47991   -825.25328    88511.858   -21693.546    1633.4976   -23327.044    408.57479 
  146800    242.11224   -711.51872    88530.437   -21704.078    1631.0208   -23335.099    408.27038 
  146850    237.61735   -779.86933    88540.589   -21700.891    1600.7404   -23301.631    408.32068 
  146900    236.78529     -357.187    88534.719   -21681.907    1595.1351   -23277.042    408.52096 
  146950    231.37752   -665.00748    88571.373   -21688.369    1558.7049   -23247.074    408.39485 
  147000    241.50257   -739.27358    88659.325   -21680.123    1626.9136   -23307.036    408.69504 
  147050    242.90678   -1099.7172    88775.037   -21702.029    1636.3733   -23338.402    408.88431 
  147100    241.22811   -969.68736    88892.779   -21709.191    1625.0647   -23334.255     409.0756 
  147150    234.95955   -805.21593    88963.889   -21693.909    1582.8357   -23276.744    408.72131 
  147200    238.83205   -1028.9934    89021.545    -21700.63    1608.9234   -23309.553    409.06926 
  147250    235.35444   -1286.5087    89027.157   -21695.468    1585.4959   -23280.964    409.39254 
  147300    236.25295   -700.02179    88984.612   -21713.824    1591.5489   -23305.373    410.25002 
  147350    239.54224   -200.33509    88936.321   -21709.052    1613.7076    -23322.76    410.21742 
  147400    239.61539   -387.26569    88885.009   -21730.316    1614.2004   -23344.517    410.48687 
  147450    236.18168   -401.31218    88899.243   -21738.834    1591.0688   -23329.903    410.44276 
  147500     236.0283   -1219.3841     88950.39   -21716.131    1590.0355   -23306.166     410.5129 
  147550     241.2415   -340.58024    89006.453   -21715.303    1625.1549   -23340.458    410.50276 
  147600     247.7759   -638.01892    89030.191   -21697.562    1669.1747   -23366.737    410.61233 
  147650       241.74   -826.35181    89024.697   -21697.881    1628.5131   -23326.394    411.19165 
  147700    245.51359   -749.88121    89017.182   -21695.635    1653.9344   -23349.569    411.20447 
  147750    243.94315   -542.38299    88968.864   -21709.415    1643.3549    -23352.77    411.29927 
  147800    244.03559   -435.55291    88873.567   -21726.752    1643.9776    -23370.73    411.34475 
  147850    243.41753   -883.70471    88816.867   -21734.738     1639.814   -23374.552    411.38465 
  147900    244.49647    139.33682    88791.426   -21741.114    1647.0825   -23388.196    411.33518 
  147950    241.04482   -598.29298    88837.054   -21732.081      1623.83   -23355.911    412.07052 
  148000    237.52778   -748.94803    88933.702   -21745.394     1600.137   -23345.531     412.5764 
  148050     235.2576   -589.43299    89028.039   -21744.458    1584.8436   -23329.302    412.63381 
  148100     235.9884   -715.81973    89140.812   -21750.629    1589.7667   -23340.396    412.93045 
  148150    237.73255   -941.58822    89282.958   -21752.434    1601.5164   -23353.951    412.99197 
  148200    238.58459    -1300.063    89452.344   -21763.748    1607.2563   -23371.004    413.88281 
  148250    244.91887   -1730.6461    89526.115   -21759.265     1649.928   -23409.193    414.04915 
  148300    238.65334   -1465.1664    89459.622   -21778.496    1607.7194   -23386.216    413.65457 
  148350    237.99758   -481.18615    89263.318   -21749.107    1603.3018   -23352.409    413.84585 
  148400    240.66592   -615.33072    89082.155   -21750.879    1621.2774   -23372.156     413.3954 
  148450    242.94696   -305.78505    88972.599   -21772.726    1636.6439    -23409.37    413.08155 
  148500    235.18148    -308.8367     88883.47   -21761.036    1584.3308   -23345.367    412.80853 
  148550    234.53019   -503.88788    88781.889   -21768.112    1579.9433   -23348.055    412.87403 
  148600    241.05587   -445.44253    88706.505   -21779.201    1623.9044   -23403.105    413.07447 
  148650    238.59076   -646.60281    88678.475   -21775.327    1607.2978   -23382.625    413.44382 
  148700    241.43872   -383.38306    88710.916   -21771.018    1626.4835   -23397.501    413.34446 
  148750    236.28961     -371.548    88752.453   -21774.188    1591.7958   -23365.984     413.3174 
  148800    234.69732    -766.3245    88761.379   -21761.269    1581.0692   -23342.338    413.59861 
  148850    247.94388   -578.40235     88743.11   -21759.192    1670.3064   -23429.499    413.17108 
  148900    245.53268   -736.80119    88661.687   -21760.852     1654.063   -23414.915    413.77576 
  148950    240.38283   -192.41024    88571.158   -21761.917    1619.3703   -23381.288    413.91336 
  149000     241.3992    -297.8567    88552.327   -21762.988    1626.2173   -23389.206    413.51075 
  149050    233.78369   -575.86661    88588.664   -21760.055    1574.9144   -23334.969    413.76872 
  149100    239.01168   -720.34793    88660.761   -21775.229    1610.1334   -23385.362    414.17516 
  149150    237.95054   -785.88449    88710.168   -21782.639    1602.9849   -23385.624    414.07312 
  149200    231.59081   -948.85415    88743.367   -21781.739    1560.1418   -23341.881    414.95759 
  149250    234.03744   -768.93523    88768.386   -21794.465    1576.6238   -23371.088    415.07203 
  149300    236.04354   -316.82219     88801.82   -21814.795    1590.1382   -23404.933    414.88248 
  149350    243.21417    -516.8868    88875.845   -21813.009    1638.4441   -23451.453    414.22797 
  149400    242.68376   -713.79482    88941.291   -21813.281    1634.8709   -23448.152     414.6915 
  149450    243.31058   -213.53504    88987.813   -21816.441    1639.0935   -23455.535    414.90829 
  149500     236.2586   -902.32292    89082.712   -21813.368    1591.5869   -23404.955    415.60945 
  149550    239.60338   -582.17286    89211.319    -21791.69    1614.1195    -23405.81     415.4541 
  149600    242.81471    -932.4807    89328.496   -21810.264     1635.753   -23446.017    416.00333 
  149650    235.13625   -1194.0296    89365.184   -21793.789    1584.0261   -23377.815    416.28773 
  149700    245.26587   -1213.2933    89337.041   -21800.557    1652.2656   -23452.823    415.98416 
  149750    237.75899   -383.40432    89265.965   -21814.721    1601.6945   -23416.416     416.1232 
  149800    242.90194   -256.57331    89233.968   -21805.435    1636.3407   -23441.775     416.0521 
  149850    239.48953   -725.54226    89232.537   -21810.177    1613.3526    -23423.53    416.13186 
  149900    237.61034   -696.46782    89231.496   -21800.572    1600.6931   -23401.265    416.46777 
  149950    239.32597   -969.10346     89197.74   -21787.421    1612.2507   -23399.671    417.14741 
  150000    241.83122   -646.97937    89101.337   -21783.671    1629.1276   -23412.799    416.86557 
Loop time of 398.509 on 8 procs for 100000 steps with 5021 atoms

Performance: 216.808 ns/day, 0.111 hours/ns, 250.935 timesteps/s
97.9% CPU use with 8 MPI tasks x no OpenMP threads

MPI task timing breakdown:
Section |  min time  |  avg time  |  max time  |%varavg| %total
---------------------------------------------------------------
Pair    | 205.87     | 245.81     | 292.9      | 250.1 | 61.68
Neigh   | 15.418     | 32.177     | 50.547     | 294.2 |  8.07
Comm    | 36.465     | 101.09     | 157.07     | 548.2 | 25.37
Output  | 0.81213    | 0.86765    | 1.2209     |  14.3 |  0.22
Modify  | 15.44      | 16.059     | 16.446     |   8.2 |  4.03
Other   |            | 2.508      |            |       |  0.63

Nlocal:        627.625 ave         907 max         371 min
Histogram: 4 0 0 0 0 0 0 0 1 3
Nghost:        1901.38 ave        1936 max        1847 min
Histogram: 1 1 0 0 1 0 1 0 2 2
Neighs:        0.00000 ave           0 max           0 min
Histogram: 8 0 0 0 0 0 0 0 0 0
FullNghs:      59540.0 ave      104182 max       17662 min
Histogram: 4 0 0 0 0 0 0 0 0 4

Total # of neighbors = 476320
Ave neighs/atom = 94.865565
Neighbor list builds = 11346
Dangerous builds = 0


# Create data file for import to other simulations
#
write_data data.${NAME}
write_data data.ML_graphite_m500atm_240K
System init for write_data ...


Total wall time: 0:09:55
