LAMMPS data file via write_data, version 16 Mar 2018, timestep = 100000

4560 atoms
2 atom types

0.0000000000000000e+00 4.9219999999999999e+01 xlo xhi
0.0000000000000000e+00 4.9019635930410494e+01 ylo yhi
1.2864206156241398e+00 3.2653579384376386e+01 zlo zhi

Masses

1 18.015
2 12.01

Atoms # atomic

147 2 0.0000000000000000e+00 2.8417180249513345e+00 3.3657343131697113e+00 0 0 0
149 2 0.0000000000000000e+00 0.0000000000000000e+00 3.3657343131697113e+00 0 0 0
151 2 1.2305000000000001e+00 7.1042950623783474e-01 3.3657343131697113e+00 0 0 0
158 2 1.2305000000000001e+00 2.1312885187134998e+00 3.3657343131697113e+00 0 0 0
160 2 2.4610000000000003e+00 2.8417180249513345e+00 3.3657343131697113e+00 0 0 0
162 2 2.4610000000000003e+00 0.0000000000000000e+00 3.3657343131697113e+00 0 0 0
164 2 3.6915000000000004e+00 7.1042950623783474e-01 3.3657343131697113e+00 0 0 0
179 2 3.6914999999999996e+00 2.1312885187134998e+00 3.3657343131697113e+00 0 0 0
181 2 4.9220000000000006e+00 2.8417180249513332e+00 3.3657343131697113e+00 0 0 0
183 2 4.9220000000000006e+00 0.0000000000000000e+00 3.3657343131697113e+00 0 0 0
185 2 6.1524999999999999e+00 7.1042950623783407e-01 3.3657343131697113e+00 0 0 0
208 2 6.1524999999999999e+00 2.1312885187134989e+00 3.3657343131697113e+00 0 0 0
210 2 7.3829999999999991e+00 2.8417180249513345e+00 3.3657343131697113e+00 0 0 0
212 2 7.3829999999999991e+00 0.0000000000000000e+00 3.3657343131697113e+00 0 0 0
214 2 8.6134999999999984e+00 7.1042950623783407e-01 3.3657343131697113e+00 0 0 0
245 2 8.6134999999999984e+00 2.1312885187135002e+00 3.3657343131697113e+00 0 0 0
247 2 9.8440000000000012e+00 2.8417180249513332e+00 3.3657343131697113e+00 0 0 0
249 2 9.8440000000000012e+00 0.0000000000000000e+00 3.3657343131697113e+00 0 0 0
251 2 1.1074500000000002e+01 7.1042950623783330e-01 3.3657343131697113e+00 0 0 0
290 2 1.1074500000000002e+01 2.1312885187135002e+00 3.3657343131697113e+00 0 0 0
154 2 0.0000000000000000e+00 4.2625770374269996e+00 3.3657343131697113e+00 0 0 0
156 2 1.2305000000000001e+00 4.9730065436648339e+00 3.3657343131697113e+00 0 0 0
171 2 1.2305000000000001e+00 6.3938655561404980e+00 3.3657343131697113e+00 0 0 0
175 2 2.4610000000000003e+00 4.2625770374269996e+00 3.3657343131697113e+00 0 0 0
177 2 3.6914999999999996e+00 4.9730065436648339e+00 3.3657343131697113e+00 0 0 0
200 2 3.6914999999999996e+00 6.3938655561404980e+00 3.3657343131697113e+00 0 0 0
152 2 0.0000000000000000e+00 7.1042950623783341e+00 3.3657343131697113e+00 0 0 0
173 2 2.4610000000000003e+00 7.1042950623783341e+00 3.3657343131697113e+00 0 0 0
204 2 4.9220000000000006e+00 4.2625770374269978e+00 3.3657343131697113e+00 0 0 0
206 2 6.1524999999999999e+00 4.9730065436648339e+00 3.3657343131697113e+00 0 0 0
237 2 6.1524999999999999e+00 6.3938655561404980e+00 3.3657343131697113e+00 0 0 0
241 2 7.3829999999999991e+00 4.2625770374269996e+00 3.3657343131697113e+00 0 0 0
202 2 4.9220000000000006e+00 7.1042950623783341e+00 3.3657343131697113e+00 0 0 0
239 2 7.3830000000000009e+00 7.1042950623783341e+00 3.3657343131697113e+00 0 0 0
243 2 8.6135000000000002e+00 4.9730065436648339e+00 3.3657343131697113e+00 0 0 0
282 2 8.6135000000000002e+00 6.3938655561404980e+00 3.3657343131697113e+00 0 0 0
286 2 9.8440000000000012e+00 4.2625770374270004e+00 3.3657343131697113e+00 0 0 0
288 2 1.1074500000000002e+01 4.9730065436648339e+00 3.3657343131697113e+00 0 0 0
329 2 1.1074500000000002e+01 6.3938655561404980e+00 3.3657343131697113e+00 0 0 0
284 2 9.8440000000000012e+00 7.1042950623783341e+00 3.3657343131697113e+00 0 0 0
167 2 0.0000000000000000e+00 8.5251540748539991e+00 3.3657343131697113e+00 0 0 0
169 2 1.2305000000000001e+00 9.2355835810918343e+00 3.3657343131697113e+00 0 0 0
196 2 2.4610000000000003e+00 8.5251540748539991e+00 3.3657343131697113e+00 0 0 0
198 2 3.6915000000000004e+00 9.2355835810918343e+00 3.3657343131697113e+00 0 0 0
165 2 0.0000000000000000e+00 1.1366872099805333e+01 3.3657343131697113e+00 0 0 0
192 2 1.2305000000000001e+00 1.0656442593567498e+01 3.3657343131697113e+00 0 0 0
194 2 2.4610000000000003e+00 1.1366872099805333e+01 3.3657343131697113e+00 0 0 0
229 2 3.6914999999999996e+00 1.0656442593567499e+01 3.3657343131697113e+00 0 0 0
233 2 4.9220000000000006e+00 8.5251540748539991e+00 3.3657343131697113e+00 0 0 0
235 2 6.1524999999999999e+00 9.2355835810918343e+00 3.3657343131697113e+00 0 0 0
278 2 7.3830000000000009e+00 8.5251540748539991e+00 3.3657343131697113e+00 0 0 0
231 2 4.9220000000000006e+00 1.1366872099805333e+01 3.3657343131697113e+00 0 0 0
274 2 6.1524999999999999e+00 1.0656442593567499e+01 3.3657343131697113e+00 0 0 0
276 2 7.3829999999999991e+00 1.1366872099805333e+01 3.3657343131697113e+00 0 0 0
280 2 8.6134999999999984e+00 9.2355835810918343e+00 3.3657343131697113e+00 0 0 0
325 2 9.8440000000000012e+00 8.5251540748539956e+00 3.3657343131697113e+00 0 0 0
327 2 1.1074500000000002e+01 9.2355835810918343e+00 3.3657343131697113e+00 0 0 0
321 2 8.6134999999999984e+00 1.0656442593567498e+01 3.3657343131697113e+00 0 0 0
323 2 9.8440000000000012e+00 1.1366872099805333e+01 3.3657343131697113e+00 0 0 0
368 2 1.1074500000000002e+01 1.0656442593567498e+01 3.3657343131697113e+00 0 0 0
370 2 1.2304999999999998e+01 1.1366872099805333e+01 3.3657343131697113e+00 0 0 0
148 2 0.0000000000000000e+00 1.4208590124756650e+00 6.3493678130473219e+00 0 0 0
150 2 0.0000000000000000e+00 0.0000000000000000e+00 6.3493678130473219e+00 0 0 0
159 2 1.2305000000000001e+00 2.1312885187134998e+00 6.3493678130473219e+00 0 0 0
161 2 2.4610000000000003e+00 1.4208590124756650e+00 6.3493678130473219e+00 0 0 0
163 2 2.4610000000000003e+00 0.0000000000000000e+00 6.3493678130473219e+00 0 0 0
180 2 3.6914999999999996e+00 2.1312885187134998e+00 6.3493678130473219e+00 0 0 0
157 2 1.2305000000000001e+00 3.5521475311891644e+00 6.3493678130473219e+00 0 0 0
178 2 3.6914999999999996e+00 3.5521475311891644e+00 6.3493678130473219e+00 0 0 0
182 2 4.9220000000000006e+00 1.4208590124756650e+00 6.3493678130473219e+00 0 0 0
184 2 4.9220000000000006e+00 0.0000000000000000e+00 6.3493678130473219e+00 0 0 0
209 2 6.1524999999999999e+00 2.1312885187134989e+00 6.3493678130473219e+00 0 0 0
211 2 7.3829999999999991e+00 1.4208590124756659e+00 6.3493678130473219e+00 0 0 0
213 2 7.3829999999999991e+00 0.0000000000000000e+00 6.3493678130473219e+00 0 0 0
207 2 6.1524999999999999e+00 3.5521475311891644e+00 6.3493678130473219e+00 0 0 0
246 2 8.6134999999999984e+00 2.1312885187135002e+00 6.3493678130473219e+00 0 0 0
248 2 9.8440000000000012e+00 1.4208590124756659e+00 6.3493678130473219e+00 0 0 0
250 2 9.8440000000000012e+00 0.0000000000000000e+00 6.3493678130473219e+00 0 0 0
291 2 1.1074500000000002e+01 2.1312885187135002e+00 6.3493678130473219e+00 0 0 0
244 2 8.6134999999999984e+00 3.5521475311891657e+00 6.3493678130473219e+00 0 0 0
289 2 1.1074500000000002e+01 3.5521475311891644e+00 6.3493678130473219e+00 0 0 0
153 2 0.0000000000000000e+00 5.6834360499026637e+00 6.3493678130473219e+00 0 0 0
155 2 0.0000000000000000e+00 4.2625770374269996e+00 6.3493678130473219e+00 0 0 0
172 2 1.2305000000000001e+00 6.3938655561404980e+00 6.3493678130473219e+00 0 0 0
174 2 2.4610000000000003e+00 5.6834360499026637e+00 6.3493678130473219e+00 0 0 0
176 2 2.4610000000000003e+00 4.2625770374269996e+00 6.3493678130473219e+00 0 0 0
201 2 3.6914999999999996e+00 6.3938655561404980e+00 6.3493678130473219e+00 0 0 0
170 2 1.2305000000000001e+00 7.8147245686161639e+00 6.3493678130473219e+00 0 0 0
199 2 3.6914999999999996e+00 7.8147245686161639e+00 6.3493678130473219e+00 0 0 0
203 2 4.9220000000000006e+00 5.6834360499026637e+00 6.3493678130473219e+00 0 0 0
205 2 4.9220000000000006e+00 4.2625770374269978e+00 6.3493678130473219e+00 0 0 0
238 2 6.1524999999999999e+00 6.3938655561404980e+00 6.3493678130473219e+00 0 0 0
240 2 7.3829999999999991e+00 5.6834360499026637e+00 6.3493678130473219e+00 0 0 0
242 2 7.3829999999999991e+00 4.2625770374269996e+00 6.3493678130473219e+00 0 0 0
236 2 6.1524999999999999e+00 7.8147245686161639e+00 6.3493678130473219e+00 0 0 0
283 2 8.6135000000000002e+00 6.3938655561404980e+00 6.3493678130473219e+00 0 0 0
285 2 9.8440000000000012e+00 5.6834360499026637e+00 6.3493678130473219e+00 0 0 0
287 2 9.8440000000000012e+00 4.2625770374270004e+00 6.3493678130473219e+00 0 0 0
330 2 1.1074500000000002e+01 6.3938655561404980e+00 6.3493678130473219e+00 0 0 0
281 2 8.6135000000000002e+00 7.8147245686161639e+00 6.3493678130473219e+00 0 0 0
328 2 1.1074500000000002e+01 7.8147245686161639e+00 6.3493678130473219e+00 0 0 0
166 2 0.0000000000000000e+00 9.9460130873296642e+00 6.3493678130473219e+00 0 0 0
168 2 0.0000000000000000e+00 8.5251540748539991e+00 6.3493678130473219e+00 0 0 0
195 2 2.4610000000000003e+00 9.9460130873296642e+00 6.3493678130473219e+00 0 0 0
197 2 2.4610000000000003e+00 8.5251540748539991e+00 6.3493678130473219e+00 0 0 0
191 2 1.2305000000000001e+00 1.2077301606043163e+01 6.3493678130473219e+00 0 0 0
193 2 1.2305000000000001e+00 1.0656442593567498e+01 6.3493678130473219e+00 0 0 0
228 2 3.6914999999999996e+00 1.2077301606043163e+01 6.3493678130473219e+00 0 0 0
230 2 3.6914999999999996e+00 1.0656442593567499e+01 6.3493678130473219e+00 0 0 0
232 2 4.9220000000000006e+00 9.9460130873296642e+00 6.3493678130473219e+00 0 0 0
234 2 4.9220000000000006e+00 8.5251540748539991e+00 6.3493678130473219e+00 0 0 0
277 2 7.3830000000000009e+00 9.9460130873296642e+00 6.3493678130473219e+00 0 0 0
279 2 7.3830000000000009e+00 8.5251540748539991e+00 6.3493678130473219e+00 0 0 0
273 2 6.1524999999999999e+00 1.2077301606043163e+01 6.3493678130473219e+00 0 0 0
275 2 6.1524999999999999e+00 1.0656442593567499e+01 6.3493678130473219e+00 0 0 0
367 2 1.1074500000000002e+01 1.2077301606043163e+01 6.3493678130473219e+00 0 0 0
369 2 1.1074500000000002e+01 1.0656442593567498e+01 6.3493678130473219e+00 0 0 0
322 2 8.6134999999999984e+00 1.0656442593567498e+01 6.3493678130473219e+00 0 0 0
324 2 9.8440000000000012e+00 9.9460130873296642e+00 6.3493678130473219e+00 0 0 0
326 2 9.8440000000000012e+00 8.5251540748539956e+00 6.3493678130473219e+00 0 0 0
320 2 8.6135000000000002e+00 1.2077301606043163e+01 6.3493678130473219e+00 0 0 0
476 2 0.0000000000000000e+00 2.8417180249513345e+00 9.3330013129246332e+00 0 0 0
477 2 0.0000000000000000e+00 0.0000000000000000e+00 9.3330013129246332e+00 0 0 0
478 2 1.2305000000000001e+00 7.1042950623783474e-01 9.3330013129246332e+00 0 0 0
482 2 1.2305000000000001e+00 2.1312885187134998e+00 9.3330013129246332e+00 0 0 0
483 2 2.4610000000000003e+00 2.8417180249513345e+00 9.3330013129246332e+00 0 0 0
484 2 2.4610000000000003e+00 0.0000000000000000e+00 9.3330013129246332e+00 0 0 0
485 2 3.6915000000000004e+00 7.1042950623783474e-01 9.3330013129246332e+00 0 0 0
493 2 3.6914999999999996e+00 2.1312885187134998e+00 9.3330013129246332e+00 0 0 0
3462 1 1.1800087436717730e+01 1.1608044577290917e+01 1.2112837504045430e+01 0 -1 0
494 2 4.9220000000000006e+00 2.8417180249513332e+00 9.3330013129246332e+00 0 0 0
495 2 4.9220000000000006e+00 0.0000000000000000e+00 9.3330013129246332e+00 0 0 0
496 2 6.1524999999999999e+00 7.1042950623783407e-01 9.3330013129246332e+00 0 0 0
508 2 6.1524999999999999e+00 2.1312885187134989e+00 9.3330013129246332e+00 0 0 0
509 2 7.3829999999999991e+00 2.8417180249513345e+00 9.3330013129246332e+00 0 0 0
510 2 7.3829999999999991e+00 0.0000000000000000e+00 9.3330013129246332e+00 0 0 0
3410 1 1.0076658575728614e+00 1.1544299405868740e+01 1.2303471389617000e+01 0 0 -1
1970 1 9.6519201231732925e+00 7.4521174565100534e-01 1.2005900471960267e+01 1 0 0
511 2 8.6134999999999984e+00 7.1042950623783407e-01 9.3330013129246332e+00 0 0 0
527 2 8.6134999999999984e+00 2.1312885187135002e+00 9.3330013129246332e+00 0 0 0
528 2 9.8440000000000012e+00 2.8417180249513332e+00 9.3330013129246332e+00 0 0 0
529 2 9.8440000000000012e+00 0.0000000000000000e+00 9.3330013129246332e+00 0 0 0
530 2 1.1074500000000002e+01 7.1042950623783330e-01 9.3330013129246332e+00 0 0 0
550 2 1.1074500000000002e+01 2.1312885187135002e+00 9.3330013129246332e+00 0 0 0
3190 1 3.5364216513420561e+00 1.0969515135500849e+01 1.6184560354978359e+01 0 0 0
92 1 2.3952689536212777e+00 9.1179032641727122e+00 1.4372862694302698e+01 2 0 0
3135 1 1.9805013263181908e+00 2.3864957282561181e+00 1.2176694460691646e+01 0 1 0
3312 1 1.3195083421540845e+00 6.5863858072844144e+00 1.1848685970076794e+01 0 0 -1
480 2 0.0000000000000000e+00 4.2625770374269996e+00 9.3330013129246332e+00 0 0 0
481 2 1.2305000000000001e+00 4.9730065436648339e+00 9.3330013129246332e+00 0 0 0
489 2 1.2305000000000001e+00 6.3938655561404980e+00 9.3330013129246332e+00 0 0 0
491 2 2.4610000000000003e+00 4.2625770374269996e+00 9.3330013129246332e+00 0 0 0
492 2 3.6914999999999996e+00 4.9730065436648339e+00 9.3330013129246332e+00 0 0 0
504 2 3.6914999999999996e+00 6.3938655561404980e+00 9.3330013129246332e+00 0 0 0
479 2 0.0000000000000000e+00 7.1042950623783341e+00 9.3330013129246332e+00 0 0 0
490 2 2.4610000000000003e+00 7.1042950623783341e+00 9.3330013129246332e+00 0 0 0
2089 1 5.6675195614682012e+00 8.9902409452839578e+00 1.6135604106081601e+01 0 1 0
506 2 4.9220000000000006e+00 4.2625770374269978e+00 9.3330013129246332e+00 0 0 0
507 2 6.1524999999999999e+00 4.9730065436648339e+00 9.3330013129246332e+00 0 0 0
523 2 6.1524999999999999e+00 6.3938655561404980e+00 9.3330013129246332e+00 0 0 0
525 2 7.3829999999999991e+00 4.2625770374269996e+00 9.3330013129246332e+00 0 0 0
505 2 4.9220000000000006e+00 7.1042950623783341e+00 9.3330013129246332e+00 0 0 0
524 2 7.3830000000000009e+00 7.1042950623783341e+00 9.3330013129246332e+00 0 0 0
1243 1 6.2655296185715201e+00 6.8409210905825004e+00 1.1993437668795668e+01 0 1 1
2040 1 1.1610606043260491e+01 6.2693989192472754e+00 1.2097069170348634e+01 1 0 0
526 2 8.6135000000000002e+00 4.9730065436648339e+00 9.3330013129246332e+00 0 0 0
546 2 8.6135000000000002e+00 6.3938655561404980e+00 9.3330013129246332e+00 0 0 0
548 2 9.8440000000000012e+00 4.2625770374270004e+00 9.3330013129246332e+00 0 0 0
549 2 1.1074500000000002e+01 4.9730065436648339e+00 9.3330013129246332e+00 0 0 0
570 2 1.1074500000000002e+01 6.3938655561404980e+00 9.3330013129246332e+00 0 0 0
547 2 9.8440000000000012e+00 7.1042950623783341e+00 9.3330013129246332e+00 0 0 0
3316 1 7.1398166067552404e+00 5.4515109049920181e+00 1.6343195238552639e+01 1 0 0
2313 1 5.9040780355537636e+00 9.0734600403245818e+00 1.3351441735223819e+01 1 0 0
487 2 0.0000000000000000e+00 8.5251540748539991e+00 9.3330013129246332e+00 0 0 0
488 2 1.2305000000000001e+00 9.2355835810918343e+00 9.3330013129246332e+00 0 0 0
502 2 2.4610000000000003e+00 8.5251540748539991e+00 9.3330013129246332e+00 0 0 0
503 2 3.6915000000000004e+00 9.2355835810918343e+00 9.3330013129246332e+00 0 0 0
486 2 0.0000000000000000e+00 1.1366872099805333e+01 9.3330013129246332e+00 0 0 0
500 2 1.2305000000000001e+00 1.0656442593567498e+01 9.3330013129246332e+00 0 0 0
501 2 2.4610000000000003e+00 1.1366872099805333e+01 9.3330013129246332e+00 0 0 0
519 2 3.6914999999999996e+00 1.0656442593567499e+01 9.3330013129246332e+00 0 0 0
3521 1 3.9494962169651080e+00 5.0416660153578041e+00 1.2456836378702784e+01 0 -1 0
521 2 4.9220000000000006e+00 8.5251540748539991e+00 9.3330013129246332e+00 0 0 0
522 2 6.1524999999999999e+00 9.2355835810918343e+00 9.3330013129246332e+00 0 0 0
544 2 7.3830000000000009e+00 8.5251540748539991e+00 9.3330013129246332e+00 0 0 0
520 2 4.9220000000000006e+00 1.1366872099805333e+01 9.3330013129246332e+00 0 0 0
542 2 6.1524999999999999e+00 1.0656442593567499e+01 9.3330013129246332e+00 0 0 0
543 2 7.3829999999999991e+00 1.1366872099805333e+01 9.3330013129246332e+00 0 0 0
3444 1 3.4043016904727468e+00 1.0097038322558245e+01 1.1949995722023882e+01 -1 -1 0
3355 1 8.6786093289515165e+00 9.2836915655270769e+00 1.2204513718436830e+01 1 0 0
545 2 8.6134999999999984e+00 9.2355835810918343e+00 9.3330013129246332e+00 0 0 0
568 2 9.8440000000000012e+00 8.5251540748539956e+00 9.3330013129246332e+00 0 0 0
569 2 1.1074500000000002e+01 9.2355835810918343e+00 9.3330013129246332e+00 0 0 0
566 2 8.6134999999999984e+00 1.0656442593567498e+01 9.3330013129246332e+00 0 0 0
567 2 9.8440000000000012e+00 1.1366872099805333e+01 9.3330013129246332e+00 0 0 0
590 2 1.1074500000000002e+01 1.0656442593567498e+01 9.3330013129246332e+00 0 0 0
591 2 1.2304999999999998e+01 1.1366872099805333e+01 9.3330013129246332e+00 0 0 0
2101 1 9.8677300397447443e+00 1.0237129744410757e+01 1.6905350136151938e+01 1 0 0
3343 1 1.5319326522170675e+00 2.2344656018186044e+00 1.5070604205615748e+01 1 0 0
3456 1 5.6781725889087431e+00 4.7597724603349079e-01 1.2008341939101562e+01 1 1 0
2321 1 9.0056202098151559e+00 2.5607526784961374e+00 1.4329991480334446e+01 1 0 0
4408 1 5.8565978556793521e+00 3.1414451174767910e+00 1.5661412987290507e+01 0 1 0
2127 1 1.1744739957999956e+01 3.2967398884094643e+00 1.4932887193769373e+01 0 0 0
1299 1 7.2115919619783657e+00 1.1835951126144970e+01 1.2095709129866487e+01 0 1 0
2407 1 2.8329471531013515e+00 6.2763285937774658e+00 1.4972338149151946e+01 1 1 0
855 1 5.5461390511800088e+00 3.0288741213679033e+00 1.3002621837307313e+01 1 1 -1
839 1 7.8775181894461399e+00 3.5845573224723695e+00 1.1810481985376974e+01 0 1 0
4350 1 8.2119435893907653e+00 5.7334758638854444e+00 1.3602892290552097e+01 1 1 0
1155 1 1.0074839144813572e+01 8.8730097234675007e+00 1.4312253233734774e+01 -1 1 -1
932 1 1.1038137000706003e+01 6.3130387853024086e+00 1.4718269716506319e+01 1 0 0
3243 1 1.2288285326120651e+01 9.0875317658778183e+00 1.2327547593789612e+01 0 -1 0
1140 1 8.1076641575161867e-01 7.6093057231812402e+00 1.6826130413087483e+01 0 0 0
3350 1 1.3646053287899962e+00 1.1650899441131244e+01 1.8608635586278275e+01 0 0 0
2115 1 7.2646399872103009e+00 2.1083830754203476e+00 1.8433514887080619e+01 0 1 0
74 1 1.1124487880355305e+01 6.1831594572677995e+00 2.3170979316136517e+01 1 0 0
4544 1 1.4937241019969394e+00 6.8386962211300988e+00 2.4178310076811222e+01 0 0 0
2289 1 9.6066052896294482e-02 3.2952996220560453e+00 2.0420333133795680e+01 1 0 -1
4475 1 5.0168562079204708e+00 1.9668418616859360e+00 1.9869022272025227e+01 1 1 0
2247 1 8.9945291503558504e+00 4.8012635339322856e+00 2.4487837074870505e+01 0 0 0
2171 1 1.1814333237130910e+01 9.1859116026867293e-01 2.3402380460564601e+01 0 1 0
4543 1 6.1779861086904910e+00 2.0437399308052320e+00 2.3490790384040629e+01 1 1 0
2182 1 6.4648873173100805e+00 4.3034178961450058e+00 2.1241018778724353e+01 0 0 0
3471 1 8.1470301630628494e+00 7.9367553590326416e+00 1.7766450948005918e+01 0 1 1
2263 1 1.0331733394208134e+01 7.8003666022015210e+00 1.9439340197358852e+01 -2 0 0
2130 1 1.2106025739744737e+01 8.6414542310304334e+00 2.3123570286839339e+01 0 2 -1
4344 1 4.8192367548041286e+00 6.5861401790208767e+00 1.7747513410888381e+01 1 0 0
1002 1 6.7930118273197202e+00 7.8291144585066643e+00 2.4347098697534634e+01 0 2 -1
2108 1 1.0869226347078769e+01 1.0244098676792550e+01 2.1198574892146020e+01 0 0 0
3529 1 1.1054301393028181e+01 5.2542743728030583e+00 2.0468571533581070e+01 1 0 0
861 1 1.4264400879170338e+00 5.7957290212753210e-01 2.2139291702011953e+01 1 0 1
3499 1 5.4705400463310152e+00 3.7476092339707105e-02 2.2028583830089019e+01 0 0 -1
1035 1 2.5669487979915093e+00 4.7278611672356119e+00 1.7837959787659017e+01 1 0 0
4265 1 8.5826822005057899e+00 1.6406142460878235e+00 2.2042953102490522e+01 1 1 0
3503 1 5.3484123725363677e+00 1.1591935452943792e+01 2.2634521643524181e+01 1 0 0
2404 1 4.5280694931998671e+00 1.0472462341595236e+01 1.8902679076158392e+01 0 1 0
4540 1 8.7489313464859695e+00 8.2829137956624521e+00 2.2559065424950845e+01 1 1 0
2143 1 2.8719320836097908e+00 4.0870908894203959e+00 2.0727410840761166e+01 0 1 0
3276 1 7.4259120108166208e+00 7.0794458342671733e+00 2.0461654780048001e+01 0 1 0
1142 1 7.9742251718032291e+00 1.1112457335207900e+01 2.2365822250311979e+01 0 0 0
134 1 3.1894265291978612e+00 2.5602664490347662e+00 2.3192603093584360e+01 0 0 0
2175 1 8.8760700705820703e+00 3.9335544708581045e+00 1.9969928535455026e+01 0 0 0
4296 1 4.6147296781833571e+00 8.9003016207219119e+00 2.3285926988989793e+01 1 0 0
1119 1 6.1142396694581458e-01 7.6870760377046485e+00 1.9861445700415587e+01 0 0 0
4480 1 1.0852335626223013e+00 1.0953549479465368e+01 2.2978154552408249e+01 -1 0 0
4418 1 2.6282741686771147e+00 6.7758211693445407e+00 2.1550812996319074e+01 1 1 0
3162 1 4.6932009354533246e+00 8.1416370337595598e+00 2.0268297935376260e+01 1 1 -1
2146 1 9.5614952069240484e+00 1.2237151320487753e+01 2.4221094236212693e+01 0 1 -1
4253 1 6.1670394268514555e+00 5.0905310807056301e+00 2.4093246036477659e+01 1 1 -1
1167 1 7.5043233630145396e+00 1.1508224447871836e+01 1.7638436941834449e+01 0 -1 0
2158 1 3.4046514636297562e+00 1.9609458461762159e+00 1.7199418058343166e+01 0 -1 0
3280 1 9.6336789034692991e+00 1.8162755447952825e+00 2.4502022571423687e+01 -1 0 -1
4384 1 4.3098198331273210e+00 1.2048654614681606e+01 2.5609779645622723e+01 0 1 0
2215 1 5.2913901370802154e+00 2.5489315391528766e+00 2.7644749547160487e+01 0 1 0
111 1 1.1797261360923084e+01 7.3099290314102712e+00 3.1978741754555500e+01 0 1 0
1022 1 2.0456141414393461e+00 3.3553671955843872e-01 2.9404452015458240e+01 -1 1 0
2249 1 8.6986488670328672e+00 7.8545686365767091e+00 3.2116992522715670e+01 0 1 0
2354 1 6.9380997600813474e+00 5.1868174584880677e-01 2.5674000836398335e+01 0 1 0
3447 1 9.8972332046188729e+00 3.9912024453538947e-01 2.8610263640587426e+01 0 -1 0
4512 1 2.2544193968610191e+00 4.0622411174595783e+00 2.5056380771379686e+01 1 0 0
4342 1 4.4306049556316953e+00 5.0912529021814290e+00 2.6317167611806781e+01 0 1 0
1190 1 9.5528962274053324e+00 4.5362941289187857e+00 2.7212762955141621e+01 0 0 0
849 1 9.9788747327901071e+00 1.0329099050963583e+01 3.2110597151286939e+01 0 -1 -1
2438 1 1.7163826777405844e+00 8.9459966614521509e+00 2.8014009453819384e+01 0 0 0
919 1 1.1821691905725329e+01 6.7350773675564373e+00 2.9095552799802149e+01 0 1 -1
2361 1 9.3341806184371396e+00 6.2637437264052753e-01 3.1505513517394952e+01 0 0 0
79 1 4.8905169131908757e+00 3.0900469029552862e+00 3.2081886391002584e+01 1 0 0
3553 1 7.3107943840749003e+00 8.9202184024853821e+00 2.6813786883438361e+01 0 1 0
1092 1 1.1527619031469808e+01 2.0944272697761210e+00 3.1704490578500696e+01 0 1 0
1105 1 9.4973357826348384e+00 1.0995095573813327e+01 2.6948375999665110e+01 0 0 -1
4278 1 1.1820267494072802e+01 9.9610513740753692e+00 2.5569043087260475e+01 1 0 0
1083 1 8.9693479482361962e+00 7.0944156660858377e+00 2.8494161866154606e+01 0 0 0
1997 1 1.0356157848216101e+01 1.1391253090394587e+01 2.9595352373535427e+01 0 1 0
1993 1 4.0199040370195762e+00 4.6280824050238696e+00 2.9800284491469206e+01 1 -1 -1
2155 1 6.3394626883735521e+00 5.4656943739429609e-01 3.1641274440683652e+01 0 1 0
922 1 3.0529025064728676e+00 8.7275733375805709e-01 3.2168884348520656e+01 1 0 0
2235 1 8.0288551732502018e+00 2.3778536383151594e+00 2.8035759260862228e+01 0 1 0
1102 1 2.9713824402146476e+00 1.2047860188280302e+01 2.9321672291274538e+01 0 0 -1
1028 1 1.1594085639945415e+00 7.5723749314106685e+00 3.0811297333079423e+01 0 0 0
34 1 3.9885191506061073e+00 9.2254871078605518e+00 2.9698882838344552e+01 0 0 0
84 1 3.0095180569259061e+00 6.0492377421587662e+00 3.2243115609360125e+01 0 0 0
4369 1 5.0955417635091500e+00 7.0849379061027804e+00 2.8113168023216083e+01 1 1 0
918 1 5.5037033442418979e+00 7.9724121959612528e+00 3.2181480826830985e+01 2 0 1
3540 1 7.9013016496680253e+00 3.6951210628969990e+00 3.0937486859714127e+01 1 1 0
2112 1 7.1467838424926482e+00 6.4731096407653483e+00 3.0333541855924132e+01 0 0 0
2136 1 1.2855045961965677e+00 3.6257414025601098e+00 3.2545068217585090e+01 1 0 -1
2057 1 5.2813365408915303e+00 1.0694301944259561e+01 3.2429621273009886e+01 -1 0 -1
2395 1 5.4822597989823452e+00 1.1084349128289599e+01 2.7984727776824158e+01 0 0 0
133 1 6.1903742203232373e-02 1.7607460352254631e+00 2.8025776471217448e+01 1 0 0
2160 1 1.4200808331496615e+00 3.6312405409094892e+00 2.9735326641035407e+01 0 0 0
2336 1 2.6476804606199829e+00 9.8428500211429437e+00 2.4877833294884965e+01 0 0 0
3237 1 1.0499934889000667e+01 4.5345566566058322e+00 3.2024582456863307e+01 0 0 0
928 1 1.2259422119323032e+01 2.1152239649661522e+00 2.9149341560533969e+01 0 1 0
2295 1 7.7502161833944090e+00 1.2246977071399471e+01 3.2115131795841577e+01 0 0 0
188 2 0.0000000000000000e+00 1.2787731112280996e+01 3.3657343131697113e+00 0 0 0
190 2 1.2305000000000001e+00 1.3498160618518829e+01 3.3657343131697113e+00 0 0 0
225 2 2.4610000000000003e+00 1.2787731112280996e+01 3.3657343131697113e+00 0 0 0
227 2 3.6915000000000004e+00 1.3498160618518829e+01 3.3657343131697113e+00 0 0 0
186 2 0.0000000000000000e+00 1.5629449137232333e+01 3.3657343131697113e+00 0 0 0
221 2 1.2305000000000001e+00 1.4919019630994494e+01 3.3657343131697113e+00 0 0 0
223 2 2.4610000000000003e+00 1.5629449137232328e+01 3.3657343131697113e+00 0 0 0
266 2 3.6915000000000004e+00 1.4919019630994494e+01 3.3657343131697113e+00 0 0 0
270 2 4.9220000000000006e+00 1.2787731112280996e+01 3.3657343131697113e+00 0 0 0
272 2 6.1524999999999990e+00 1.3498160618518829e+01 3.3657343131697113e+00 0 0 0
317 2 7.3829999999999991e+00 1.2787731112280996e+01 3.3657343131697113e+00 0 0 0
268 2 4.9220000000000006e+00 1.5629449137232333e+01 3.3657343131697113e+00 0 0 0
313 2 6.1524999999999990e+00 1.4919019630994494e+01 3.3657343131697113e+00 0 0 0
315 2 7.3829999999999991e+00 1.5629449137232333e+01 3.3657343131697113e+00 0 0 0
319 2 8.6135000000000002e+00 1.3498160618518835e+01 3.3657343131697113e+00 0 0 0
364 2 9.8440000000000012e+00 1.2787731112280996e+01 3.3657343131697113e+00 0 0 0
366 2 1.1074500000000002e+01 1.3498160618518829e+01 3.3657343131697113e+00 0 0 0
360 2 8.6135000000000002e+00 1.4919019630994494e+01 3.3657343131697113e+00 0 0 0
362 2 9.8440000000000012e+00 1.5629449137232328e+01 3.3657343131697113e+00 0 0 0
402 2 1.1074500000000002e+01 1.4919019630994494e+01 3.3657343131697113e+00 0 0 0
217 2 0.0000000000000000e+00 1.7050308149707998e+01 3.3657343131697113e+00 0 0 0
262 2 2.4610000000000003e+00 1.7050308149707998e+01 3.3657343131697113e+00 0 0 0
215 2 0.0000000000000000e+00 1.9892026174659328e+01 3.3657343131697113e+00 0 0 0
219 2 1.2305000000000001e+00 1.7760737655945832e+01 3.3657343131697113e+00 0 0 0
258 2 1.2305000000000001e+00 1.9181596668421495e+01 3.3657343131697113e+00 0 0 0
260 2 2.4610000000000003e+00 1.9892026174659328e+01 3.3657343131697113e+00 0 0 0
264 2 3.6914999999999996e+00 1.7760737655945832e+01 3.3657343131697113e+00 0 0 0
305 2 3.6914999999999996e+00 1.9181596668421495e+01 3.3657343131697113e+00 0 0 0
309 2 4.9220000000000006e+00 1.7050308149707998e+01 3.3657343131697113e+00 0 0 0
356 2 7.3830000000000009e+00 1.7050308149707998e+01 3.3657343131697113e+00 0 0 0
307 2 4.9220000000000006e+00 1.9892026174659328e+01 3.3657343131697113e+00 0 0 0
311 2 6.1524999999999999e+00 1.7760737655945832e+01 3.3657343131697113e+00 0 0 0
352 2 6.1524999999999999e+00 1.9181596668421495e+01 3.3657343131697113e+00 0 0 0
354 2 7.3829999999999991e+00 1.9892026174659328e+01 3.3657343131697113e+00 0 0 0
398 2 9.8440000000000012e+00 1.7050308149707998e+01 3.3657343131697113e+00 0 0 0
432 2 1.2304999999999998e+01 1.7050308149707998e+01 3.3657343131697113e+00 0 0 0
358 2 8.6134999999999984e+00 1.7760737655945832e+01 3.3657343131697113e+00 0 0 0
394 2 8.6135000000000002e+00 1.9181596668421495e+01 3.3657343131697113e+00 0 0 0
396 2 9.8440000000000012e+00 1.9892026174659335e+01 3.3657343131697113e+00 0 0 0
400 2 1.1074500000000002e+01 1.7760737655945835e+01 3.3657343131697113e+00 0 0 0
428 2 1.1074500000000002e+01 1.9181596668421495e+01 3.3657343131697113e+00 0 0 0
252 2 0.0000000000000000e+00 2.4154603212086325e+01 3.3657343131697113e+00 0 0 0
254 2 0.0000000000000000e+00 2.1312885187134999e+01 3.3657343131697113e+00 0 0 0
256 2 1.2304999999999993e+00 2.2023314693372832e+01 3.3657343131697113e+00 0 0 0
297 2 1.2304999999999993e+00 2.3444173705848499e+01 3.3657343131697113e+00 0 0 0
299 2 2.4610000000000003e+00 2.4154603212086325e+01 3.3657343131697113e+00 0 0 0
301 2 2.4610000000000003e+00 2.1312885187134995e+01 3.3657343131697113e+00 0 0 0
303 2 3.6914999999999996e+00 2.2023314693372832e+01 3.3657343131697113e+00 0 0 0
344 2 3.6915000000000004e+00 2.3444173705848499e+01 3.3657343131697113e+00 0 0 0
346 2 4.9220000000000006e+00 2.4154603212086325e+01 3.3657343131697113e+00 0 0 0
348 2 4.9220000000000006e+00 2.1312885187134995e+01 3.3657343131697113e+00 0 0 0
350 2 6.1524999999999990e+00 2.2023314693372832e+01 3.3657343131697113e+00 0 0 0
386 2 6.1524999999999999e+00 2.3444173705848499e+01 3.3657343131697113e+00 0 0 0
388 2 7.3830000000000009e+00 2.4154603212086336e+01 3.3657343131697113e+00 0 0 0
390 2 7.3829999999999991e+00 2.1312885187134999e+01 3.3657343131697113e+00 0 0 0
392 2 8.6135000000000002e+00 2.2023314693372832e+01 3.3657343131697113e+00 0 0 0
420 2 8.6134999999999984e+00 2.3444173705848499e+01 3.3657343131697113e+00 0 0 0
422 2 9.8440000000000012e+00 2.4154603212086336e+01 3.3657343131697113e+00 0 0 0
424 2 9.8440000000000012e+00 2.1312885187134999e+01 3.3657343131697113e+00 0 0 0
426 2 1.1074500000000002e+01 2.2023314693372832e+01 3.3657343131697113e+00 0 0 0
446 2 1.1074500000000002e+01 2.3444173705848499e+01 3.3657343131697113e+00 0 0 0
189 2 0.0000000000000000e+00 1.2787731112280996e+01 6.3493678130473219e+00 0 0 0
226 2 2.4610000000000003e+00 1.2787731112280996e+01 6.3493678130473219e+00 0 0 0
187 2 0.0000000000000000e+00 1.4208590124756663e+01 6.3493678130473219e+00 0 0 0
222 2 1.2305000000000001e+00 1.4919019630994494e+01 6.3493678130473219e+00 0 0 0
224 2 2.4610000000000003e+00 1.4208590124756663e+01 6.3493678130473219e+00 0 0 0
267 2 3.6915000000000004e+00 1.4919019630994494e+01 6.3493678130473219e+00 0 0 0
271 2 4.9220000000000006e+00 1.2787731112280996e+01 6.3493678130473219e+00 0 0 0
318 2 7.3829999999999991e+00 1.2787731112280996e+01 6.3493678130473219e+00 0 0 0
269 2 4.9220000000000006e+00 1.4208590124756663e+01 6.3493678130473219e+00 0 0 0
314 2 6.1524999999999990e+00 1.4919019630994494e+01 6.3493678130473219e+00 0 0 0
316 2 7.3830000000000009e+00 1.4208590124756663e+01 6.3493678130473219e+00 0 0 0