LAMMPS data file via write_data, version 16 Mar 2018, timestep = 100000

4078 atoms
2 atom types

0.0000000000000000e+00 4.9219999999999999e+01 xlo xhi
0.0000000000000000e+00 4.9019635930410494e+01 ylo yhi
1.4250522614376813e+00 2.6514947738562931e+01 zlo zhi

Masses

1 18.015
2 12.01

Atoms # atomic

52 2 0.0000000000000000e+00 2.8417180249513345e+00 3.1642967571278247e+00 0 0 0
54 2 0.0000000000000000e+00 0.0000000000000000e+00 3.1642967571278247e+00 0 0 0
56 2 1.2305000000000001e+00 7.1042950623783474e-01 3.1642967571278247e+00 0 0 0
63 2 1.2305000000000001e+00 2.1312885187134998e+00 3.1642967571278247e+00 0 0 0
65 2 2.4610000000000003e+00 2.8417180249513345e+00 3.1642967571278247e+00 0 0 0
67 2 2.4610000000000003e+00 0.0000000000000000e+00 3.1642967571278247e+00 0 0 0
69 2 3.6915000000000004e+00 7.1042950623783474e-01 3.1642967571278247e+00 0 0 0
84 2 3.6914999999999996e+00 2.1312885187134998e+00 3.1642967571278247e+00 0 0 0
86 2 4.9220000000000006e+00 2.8417180249513332e+00 3.1642967571278247e+00 0 0 0
88 2 4.9220000000000006e+00 0.0000000000000000e+00 3.1642967571278247e+00 0 0 0
90 2 6.1524999999999999e+00 7.1042950623783407e-01 3.1642967571278247e+00 0 0 0
113 2 6.1524999999999999e+00 2.1312885187134989e+00 3.1642967571278247e+00 0 0 0
115 2 7.3829999999999991e+00 2.8417180249513345e+00 3.1642967571278247e+00 0 0 0
117 2 7.3829999999999991e+00 0.0000000000000000e+00 3.1642967571278247e+00 0 0 0
119 2 8.6134999999999984e+00 7.1042950623783407e-01 3.1642967571278247e+00 0 0 0
150 2 8.6134999999999984e+00 2.1312885187135002e+00 3.1642967571278247e+00 0 0 0
152 2 9.8440000000000012e+00 2.8417180249513332e+00 3.1642967571278247e+00 0 0 0
154 2 9.8440000000000012e+00 0.0000000000000000e+00 3.1642967571278247e+00 0 0 0
156 2 1.1074500000000002e+01 7.1042950623783330e-01 3.1642967571278247e+00 0 0 0
195 2 1.1074500000000002e+01 2.1312885187135002e+00 3.1642967571278247e+00 0 0 0
59 2 0.0000000000000000e+00 4.2625770374269996e+00 3.1642967571278247e+00 0 0 0
61 2 1.2305000000000001e+00 4.9730065436648339e+00 3.1642967571278247e+00 0 0 0
76 2 1.2305000000000001e+00 6.3938655561404980e+00 3.1642967571278247e+00 0 0 0
80 2 2.4610000000000003e+00 4.2625770374269996e+00 3.1642967571278247e+00 0 0 0
82 2 3.6914999999999996e+00 4.9730065436648339e+00 3.1642967571278247e+00 0 0 0
105 2 3.6914999999999996e+00 6.3938655561404980e+00 3.1642967571278247e+00 0 0 0
57 2 0.0000000000000000e+00 7.1042950623783341e+00 3.1642967571278247e+00 0 0 0
78 2 2.4610000000000003e+00 7.1042950623783341e+00 3.1642967571278247e+00 0 0 0
109 2 4.9220000000000006e+00 4.2625770374269978e+00 3.1642967571278247e+00 0 0 0
111 2 6.1524999999999999e+00 4.9730065436648339e+00 3.1642967571278247e+00 0 0 0
142 2 6.1524999999999999e+00 6.3938655561404980e+00 3.1642967571278247e+00 0 0 0
146 2 7.3829999999999991e+00 4.2625770374269996e+00 3.1642967571278247e+00 0 0 0
107 2 4.9220000000000006e+00 7.1042950623783341e+00 3.1642967571278247e+00 0 0 0
144 2 7.3830000000000009e+00 7.1042950623783341e+00 3.1642967571278247e+00 0 0 0
148 2 8.6135000000000002e+00 4.9730065436648339e+00 3.1642967571278247e+00 0 0 0
187 2 8.6135000000000002e+00 6.3938655561404980e+00 3.1642967571278247e+00 0 0 0
191 2 9.8440000000000012e+00 4.2625770374270004e+00 3.1642967571278247e+00 0 0 0
193 2 1.1074500000000002e+01 4.9730065436648339e+00 3.1642967571278247e+00 0 0 0
234 2 1.1074500000000002e+01 6.3938655561404980e+00 3.1642967571278247e+00 0 0 0
189 2 9.8440000000000012e+00 7.1042950623783341e+00 3.1642967571278247e+00 0 0 0
72 2 0.0000000000000000e+00 8.5251540748539991e+00 3.1642967571278247e+00 0 0 0
74 2 1.2305000000000001e+00 9.2355835810918343e+00 3.1642967571278247e+00 0 0 0
101 2 2.4610000000000003e+00 8.5251540748539991e+00 3.1642967571278247e+00 0 0 0
103 2 3.6915000000000004e+00 9.2355835810918343e+00 3.1642967571278247e+00 0 0 0
70 2 0.0000000000000000e+00 1.1366872099805333e+01 3.1642967571278247e+00 0 0 0
97 2 1.2305000000000001e+00 1.0656442593567498e+01 3.1642967571278247e+00 0 0 0
99 2 2.4610000000000003e+00 1.1366872099805333e+01 3.1642967571278247e+00 0 0 0
134 2 3.6914999999999996e+00 1.0656442593567499e+01 3.1642967571278247e+00 0 0 0
138 2 4.9220000000000006e+00 8.5251540748539991e+00 3.1642967571278247e+00 0 0 0
140 2 6.1524999999999999e+00 9.2355835810918343e+00 3.1642967571278247e+00 0 0 0
183 2 7.3830000000000009e+00 8.5251540748539991e+00 3.1642967571278247e+00 0 0 0
136 2 4.9220000000000006e+00 1.1366872099805333e+01 3.1642967571278247e+00 0 0 0
179 2 6.1524999999999999e+00 1.0656442593567499e+01 3.1642967571278247e+00 0 0 0
181 2 7.3829999999999991e+00 1.1366872099805333e+01 3.1642967571278247e+00 0 0 0
185 2 8.6134999999999984e+00 9.2355835810918343e+00 3.1642967571278247e+00 0 0 0
230 2 9.8440000000000012e+00 8.5251540748539956e+00 3.1642967571278247e+00 0 0 0
232 2 1.1074500000000002e+01 9.2355835810918343e+00 3.1642967571278247e+00 0 0 0
226 2 8.6134999999999984e+00 1.0656442593567498e+01 3.1642967571278247e+00 0 0 0
228 2 9.8440000000000012e+00 1.1366872099805333e+01 3.1642967571278247e+00 0 0 0
273 2 1.1074500000000002e+01 1.0656442593567498e+01 3.1642967571278247e+00 0 0 0
275 2 1.2304999999999998e+01 1.1366872099805333e+01 3.1642967571278247e+00 0 0 0
53 2 0.0000000000000000e+00 1.4208590124756650e+00 6.1125053861524137e+00 0 0 0
55 2 0.0000000000000000e+00 0.0000000000000000e+00 6.1125053861524137e+00 0 0 0
64 2 1.2305000000000001e+00 2.1312885187134998e+00 6.1125053861524137e+00 0 0 0
66 2 2.4610000000000003e+00 1.4208590124756650e+00 6.1125053861524137e+00 0 0 0
68 2 2.4610000000000003e+00 0.0000000000000000e+00 6.1125053861524137e+00 0 0 0
85 2 3.6914999999999996e+00 2.1312885187134998e+00 6.1125053861524137e+00 0 0 0
381 2 0.0000000000000000e+00 2.8417180249513345e+00 9.0607140151771866e+00 0 0 0
382 2 0.0000000000000000e+00 0.0000000000000000e+00 9.0607140151771866e+00 0 0 0
383 2 1.2305000000000001e+00 7.1042950623783474e-01 9.0607140151771866e+00 0 0 0
387 2 1.2305000000000001e+00 2.1312885187134998e+00 9.0607140151771866e+00 0 0 0
388 2 2.4610000000000003e+00 2.8417180249513345e+00 9.0607140151771866e+00 0 0 0
389 2 2.4610000000000003e+00 0.0000000000000000e+00 9.0607140151771866e+00 0 0 0
390 2 3.6915000000000004e+00 7.1042950623783474e-01 9.0607140151771866e+00 0 0 0
398 2 3.6914999999999996e+00 2.1312885187134998e+00 9.0607140151771866e+00 0 0 0
62 2 1.2305000000000001e+00 3.5521475311891644e+00 6.1125053861524137e+00 0 0 0
83 2 3.6914999999999996e+00 3.5521475311891644e+00 6.1125053861524137e+00 0 0 0
87 2 4.9220000000000006e+00 1.4208590124756650e+00 6.1125053861524137e+00 0 0 0
89 2 4.9220000000000006e+00 0.0000000000000000e+00 6.1125053861524137e+00 0 0 0
114 2 6.1524999999999999e+00 2.1312885187134989e+00 6.1125053861524137e+00 0 0 0
116 2 7.3829999999999991e+00 1.4208590124756659e+00 6.1125053861524137e+00 0 0 0
118 2 7.3829999999999991e+00 0.0000000000000000e+00 6.1125053861524137e+00 0 0 0
399 2 4.9220000000000006e+00 2.8417180249513332e+00 9.0607140151771866e+00 0 0 0
400 2 4.9220000000000006e+00 0.0000000000000000e+00 9.0607140151771866e+00 0 0 0
401 2 6.1524999999999999e+00 7.1042950623783407e-01 9.0607140151771866e+00 0 0 0
413 2 6.1524999999999999e+00 2.1312885187134989e+00 9.0607140151771866e+00 0 0 0
414 2 7.3829999999999991e+00 2.8417180249513345e+00 9.0607140151771866e+00 0 0 0
415 2 7.3829999999999991e+00 0.0000000000000000e+00 9.0607140151771866e+00 0 0 0
112 2 6.1524999999999999e+00 3.5521475311891644e+00 6.1125053861524137e+00 0 0 0
151 2 8.6134999999999984e+00 2.1312885187135002e+00 6.1125053861524137e+00 0 0 0
153 2 9.8440000000000012e+00 1.4208590124756659e+00 6.1125053861524137e+00 0 0 0
155 2 9.8440000000000012e+00 0.0000000000000000e+00 6.1125053861524137e+00 0 0 0
196 2 1.1074500000000002e+01 2.1312885187135002e+00 6.1125053861524137e+00 0 0 0
416 2 8.6134999999999984e+00 7.1042950623783407e-01 9.0607140151771866e+00 0 0 0
432 2 8.6134999999999984e+00 2.1312885187135002e+00 9.0607140151771866e+00 0 0 0
433 2 9.8440000000000012e+00 2.8417180249513332e+00 9.0607140151771866e+00 0 0 0
434 2 9.8440000000000012e+00 0.0000000000000000e+00 9.0607140151771866e+00 0 0 0
435 2 1.1074500000000002e+01 7.1042950623783330e-01 9.0607140151771866e+00 0 0 0
455 2 1.1074500000000002e+01 2.1312885187135002e+00 9.0607140151771866e+00 0 0 0
149 2 8.6134999999999984e+00 3.5521475311891657e+00 6.1125053861524137e+00 0 0 0
194 2 1.1074500000000002e+01 3.5521475311891644e+00 6.1125053861524137e+00 0 0 0
58 2 0.0000000000000000e+00 5.6834360499026637e+00 6.1125053861524137e+00 0 0 0
60 2 0.0000000000000000e+00 4.2625770374269996e+00 6.1125053861524137e+00 0 0 0
77 2 1.2305000000000001e+00 6.3938655561404980e+00 6.1125053861524137e+00 0 0 0
79 2 2.4610000000000003e+00 5.6834360499026637e+00 6.1125053861524137e+00 0 0 0
81 2 2.4610000000000003e+00 4.2625770374269996e+00 6.1125053861524137e+00 0 0 0
106 2 3.6914999999999996e+00 6.3938655561404980e+00 6.1125053861524137e+00 0 0 0
385 2 0.0000000000000000e+00 4.2625770374269996e+00 9.0607140151771866e+00 0 0 0
386 2 1.2305000000000001e+00 4.9730065436648339e+00 9.0607140151771866e+00 0 0 0
394 2 1.2305000000000001e+00 6.3938655561404980e+00 9.0607140151771866e+00 0 0 0
396 2 2.4610000000000003e+00 4.2625770374269996e+00 9.0607140151771866e+00 0 0 0
397 2 3.6914999999999996e+00 4.9730065436648339e+00 9.0607140151771866e+00 0 0 0
409 2 3.6914999999999996e+00 6.3938655561404980e+00 9.0607140151771866e+00 0 0 0
75 2 1.2305000000000001e+00 7.8147245686161639e+00 6.1125053861524137e+00 0 0 0
104 2 3.6914999999999996e+00 7.8147245686161639e+00 6.1125053861524137e+00 0 0 0
384 2 0.0000000000000000e+00 7.1042950623783341e+00 9.0607140151771866e+00 0 0 0
395 2 2.4610000000000003e+00 7.1042950623783341e+00 9.0607140151771866e+00 0 0 0
108 2 4.9220000000000006e+00 5.6834360499026637e+00 6.1125053861524137e+00 0 0 0
110 2 4.9220000000000006e+00 4.2625770374269978e+00 6.1125053861524137e+00 0 0 0
143 2 6.1524999999999999e+00 6.3938655561404980e+00 6.1125053861524137e+00 0 0 0
145 2 7.3829999999999991e+00 5.6834360499026637e+00 6.1125053861524137e+00 0 0 0
147 2 7.3829999999999991e+00 4.2625770374269996e+00 6.1125053861524137e+00 0 0 0
411 2 4.9220000000000006e+00 4.2625770374269978e+00 9.0607140151771866e+00 0 0 0
412 2 6.1524999999999999e+00 4.9730065436648339e+00 9.0607140151771866e+00 0 0 0
428 2 6.1524999999999999e+00 6.3938655561404980e+00 9.0607140151771866e+00 0 0 0
430 2 7.3829999999999991e+00 4.2625770374269996e+00 9.0607140151771866e+00 0 0 0
141 2 6.1524999999999999e+00 7.8147245686161639e+00 6.1125053861524137e+00 0 0 0
410 2 4.9220000000000006e+00 7.1042950623783341e+00 9.0607140151771866e+00 0 0 0
429 2 7.3830000000000009e+00 7.1042950623783341e+00 9.0607140151771866e+00 0 0 0
188 2 8.6135000000000002e+00 6.3938655561404980e+00 6.1125053861524137e+00 0 0 0
190 2 9.8440000000000012e+00 5.6834360499026637e+00 6.1125053861524137e+00 0 0 0
192 2 9.8440000000000012e+00 4.2625770374270004e+00 6.1125053861524137e+00 0 0 0
235 2 1.1074500000000002e+01 6.3938655561404980e+00 6.1125053861524137e+00 0 0 0
431 2 8.6135000000000002e+00 4.9730065436648339e+00 9.0607140151771866e+00 0 0 0
451 2 8.6135000000000002e+00 6.3938655561404980e+00 9.0607140151771866e+00 0 0 0
453 2 9.8440000000000012e+00 4.2625770374270004e+00 9.0607140151771866e+00 0 0 0
454 2 1.1074500000000002e+01 4.9730065436648339e+00 9.0607140151771866e+00 0 0 0
475 2 1.1074500000000002e+01 6.3938655561404980e+00 9.0607140151771866e+00 0 0 0
186 2 8.6135000000000002e+00 7.8147245686161639e+00 6.1125053861524137e+00 0 0 0
233 2 1.1074500000000002e+01 7.8147245686161639e+00 6.1125053861524137e+00 0 0 0
452 2 9.8440000000000012e+00 7.1042950623783341e+00 9.0607140151771866e+00 0 0 0
71 2 0.0000000000000000e+00 9.9460130873296642e+00 6.1125053861524137e+00 0 0 0
73 2 0.0000000000000000e+00 8.5251540748539991e+00 6.1125053861524137e+00 0 0 0
100 2 2.4610000000000003e+00 9.9460130873296642e+00 6.1125053861524137e+00 0 0 0
102 2 2.4610000000000003e+00 8.5251540748539991e+00 6.1125053861524137e+00 0 0 0
392 2 0.0000000000000000e+00 8.5251540748539991e+00 9.0607140151771866e+00 0 0 0
393 2 1.2305000000000001e+00 9.2355835810918343e+00 9.0607140151771866e+00 0 0 0
407 2 2.4610000000000003e+00 8.5251540748539991e+00 9.0607140151771866e+00 0 0 0
408 2 3.6915000000000004e+00 9.2355835810918343e+00 9.0607140151771866e+00 0 0 0
96 2 1.2305000000000001e+00 1.2077301606043163e+01 6.1125053861524137e+00 0 0 0
98 2 1.2305000000000001e+00 1.0656442593567498e+01 6.1125053861524137e+00 0 0 0
133 2 3.6914999999999996e+00 1.2077301606043163e+01 6.1125053861524137e+00 0 0 0
135 2 3.6914999999999996e+00 1.0656442593567499e+01 6.1125053861524137e+00 0 0 0
391 2 0.0000000000000000e+00 1.1366872099805333e+01 9.0607140151771866e+00 0 0 0
405 2 1.2305000000000001e+00 1.0656442593567498e+01 9.0607140151771866e+00 0 0 0
406 2 2.4610000000000003e+00 1.1366872099805333e+01 9.0607140151771866e+00 0 0 0
424 2 3.6914999999999996e+00 1.0656442593567499e+01 9.0607140151771866e+00 0 0 0
137 2 4.9220000000000006e+00 9.9460130873296642e+00 6.1125053861524137e+00 0 0 0
139 2 4.9220000000000006e+00 8.5251540748539991e+00 6.1125053861524137e+00 0 0 0
182 2 7.3830000000000009e+00 9.9460130873296642e+00 6.1125053861524137e+00 0 0 0
184 2 7.3830000000000009e+00 8.5251540748539991e+00 6.1125053861524137e+00 0 0 0
426 2 4.9220000000000006e+00 8.5251540748539991e+00 9.0607140151771866e+00 0 0 0
427 2 6.1524999999999999e+00 9.2355835810918343e+00 9.0607140151771866e+00 0 0 0
449 2 7.3830000000000009e+00 8.5251540748539991e+00 9.0607140151771866e+00 0 0 0
178 2 6.1524999999999999e+00 1.2077301606043163e+01 6.1125053861524137e+00 0 0 0
180 2 6.1524999999999999e+00 1.0656442593567499e+01 6.1125053861524137e+00 0 0 0
425 2 4.9220000000000006e+00 1.1366872099805333e+01 9.0607140151771866e+00 0 0 0
447 2 6.1524999999999999e+00 1.0656442593567499e+01 9.0607140151771866e+00 0 0 0
448 2 7.3829999999999991e+00 1.1366872099805333e+01 9.0607140151771866e+00 0 0 0
229 2 9.8440000000000012e+00 9.9460130873296642e+00 6.1125053861524137e+00 0 0 0
231 2 9.8440000000000012e+00 8.5251540748539956e+00 6.1125053861524137e+00 0 0 0
450 2 8.6134999999999984e+00 9.2355835810918343e+00 9.0607140151771866e+00 0 0 0
473 2 9.8440000000000012e+00 8.5251540748539956e+00 9.0607140151771866e+00 0 0 0
474 2 1.1074500000000002e+01 9.2355835810918343e+00 9.0607140151771866e+00 0 0 0
225 2 8.6135000000000002e+00 1.2077301606043163e+01 6.1125053861524137e+00 0 0 0
227 2 8.6134999999999984e+00 1.0656442593567498e+01 6.1125053861524137e+00 0 0 0
272 2 1.1074500000000002e+01 1.2077301606043163e+01 6.1125053861524137e+00 0 0 0
274 2 1.1074500000000002e+01 1.0656442593567498e+01 6.1125053861524137e+00 0 0 0
471 2 8.6134999999999984e+00 1.0656442593567498e+01 9.0607140151771866e+00 0 0 0
472 2 9.8440000000000012e+00 1.1366872099805333e+01 9.0607140151771866e+00 0 0 0
495 2 1.1074500000000002e+01 1.0656442593567498e+01 9.0607140151771866e+00 0 0 0
496 2 1.2304999999999998e+01 1.1366872099805333e+01 9.0607140151771866e+00 0 0 0
4051 1 2.7195981998171819e+00 1.3514477235653179e+00 1.1684862942365152e+01 0 0 0
1229 1 1.0053041057755784e+01 3.0352942202609211e-02 1.1849038996792196e+01 1 0 0
1339 1 7.3368638314345072e+00 1.1116754582481727e+00 1.1934058281380059e+01 1 1 -1
1344 1 7.6983346658473977e+00 3.7572344312514563e+00 1.1764965309057079e+01 -1 1 0
3271 1 2.6851270288646423e+00 4.0045253943293355e+00 1.2009994925704310e+01 0 0 0
2001 1 5.5644718805586777e+00 7.9937969550241128e+00 1.1877410401423413e+01 0 0 -1
1445 1 5.3239522646461870e+00 4.9563408535301914e+00 1.1792172857314165e+01 0 0 1
3403 1 1.0388105442802283e+01 8.2983026943030005e+00 1.1676512378644233e+01 0 0 -1
1942 1 9.8136444809688790e+00 5.6597623651626963e+00 1.1783613595200139e+01 1 0 -1
41 1 1.1329557945486088e+00 6.4445381717924706e+00 1.1636788750003394e+01 1 -1 -1
2083 1 2.3756940769392378e+00 8.6764658647376329e+00 1.1597057899287952e+01 1 2 0
3419 1 7.9325217579050831e+00 9.7665121594404027e+00 1.1614972988435026e+01 1 0 1
3961 1 4.8325542093538193e-01 1.1226294193061326e+01 1.2463704368921711e+01 1 0 0
690 1 1.2278890533023421e+01 4.2478041419775918e+00 1.1646561455023228e+01 -1 0 0
4050 1 9.2727252264553986e-02 1.9001758362760784e-01 1.1854312517502995e+01 1 1 -1
2640 1 9.6292368674795625e-02 1.2046694561399849e+00 1.8378561295771572e+01 1 -1 0
3354 1 2.7156287538416009e+00 4.6186110352801037e+00 1.5020131619831288e+01 1 1 0
3253 1 1.2194531134838986e+01 2.9565635250407496e+00 2.5691752964887772e+01 1 1 0
1352 1 7.7931572525551021e+00 1.0462877647772238e+01 2.1404421154868761e+01 1 1 -1
2664 1 7.9959610670506871e+00 4.0819476052920658e+00 1.4550337073782305e+01 0 0 1
634 1 5.4630072116337445e+00 5.1584927909539653e+00 1.7802336605689892e+01 0 0 0
2087 1 4.2339263000381040e+00 1.2282005185175782e+00 1.6882841046133674e+01 1 -1 0
3266 1 6.2941862188207507e+00 1.1935506112540111e+01 1.8635855774505920e+01 -1 0 0
656 1 1.0587209261307180e+01 3.0616779090490391e+00 1.8387589122360854e+01 1 0 0
2637 1 4.0448790089692590e+00 7.9033367456814894e+00 1.7533102230698852e+01 1 0 0
1371 1 1.2210727288598449e+01 9.7026480622887079e-01 1.7416083204192191e+01 0 1 0
682 1 9.6410162529578081e+00 8.5843239471318711e+00 1.4278488148221745e+01 0 1 0
3375 1 8.0318728486817346e+00 9.2262395755923077e+00 2.5306093346321671e+01 0 1 0
2611 1 5.5279005156261576e+00 5.3027593537009787e+00 1.4872911419466337e+01 -1 -1 0
598 1 1.0005281974671748e+01 5.9527391690044462e+00 1.5031451311574795e+01 1 0 0
1986 1 1.0350675301467280e+01 5.6601109667385243e+00 1.7733253063190602e+01 1 0 0
3974 1 2.8175131924729406e+00 9.8460843491644283e+00 1.4315226618459391e+01 1 0 0
2760 1 6.3210595227570048e+00 1.1808782202886411e+01 2.5603898234519512e+01 1 1 0
2624 1 5.0594688338174043e+00 8.1953725454995183e+00 1.4752104866086551e+01 1 0 0
2652 1 7.0720940836618666e+00 1.0045222147603440e+01 1.4773140928813659e+01 -1 1 0
3265 1 8.3417883176354710e+00 1.7408005563407907e+00 1.6267772329238362e+01 0 -1 0
2067 1 1.2900926158346264e+00 6.5630630905488454e+00 1.7322014853454753e+01 0 0 -1
1962 1 9.8763414568589951e+00 1.3690457326649415e-02 1.4756888616149991e+01 0 0 -1
2681 1 1.1799107265998849e+01 1.0102552831052311e+01 1.5144260639507685e+01 -2 1 0
3294 1 2.3031378945703649e+00 3.8509690551893403e+00 2.1356186088274477e+01 0 0 0
617 1 1.0956714528297262e+01 8.4402627888388508e+00 2.5023510253289231e+01 0 0 -2
569 1 6.2479017305101623e+00 2.9216331104924209e-01 1.4877900470892850e+01 0 0 1
1268 1 2.3559690624978141e-01 7.2975153509321944e-01 1.4623355999149759e+01 0 0 0
616 1 1.9068409004694458e+00 2.4125196584235162e+00 1.6468213979187766e+01 0 1 0
1985 1 6.4603294560168116e+00 8.5668255234866439e+00 1.9683653295810604e+01 1 1 0
2784 1 2.6353058876115552e+00 4.3322552139256221e+00 1.8317358963946976e+01 -1 0 1
2644 1 9.0110807425785389e+00 3.5894142829053513e+00 2.0852285658629086e+01 0 -1 0
1930 1 7.6405203359678389e+00 6.1866771233893267e+00 1.9125923338537021e+01 1 0 -1
3393 1 7.8485872027687096e+00 9.7914041867643107e+00 1.7556987115608500e+01 0 2 -1
745 1 1.2270451514993951e+01 6.6863276788843340e+00 1.9356976236671510e+01 1 1 0
3424 1 1.9979368321706323e+00 8.2315598695845136e+00 2.1312788202980467e+01 0 1 -1
1292 1 1.4030312250539849e+00 9.3986138082099426e+00 1.8709604705569575e+01 0 -1 0
2092 1 5.6779620156991379e+00 1.1302285822703555e+01 2.2751251148769917e+01 0 0 0
2107 1 4.1436076264654078e+00 1.0131863758460378e+01 1.9409316762534939e+01 1 -2 -1
1357 1 1.2152206410920423e+01 4.5011329469893484e+00 1.4419417048020820e+01 1 0 -1
2702 1 3.9328884052635380e+00 9.3889478420659653e+00 2.2944503418371216e+01 1 0 0
4010 1 1.0696348876532420e+01 1.0225736959470423e+01 1.8182536185642309e+01 1 0 0
32 1 9.3424951838108967e+00 8.6898712427988372e+00 2.2638383742967651e+01 0 0 0
2052 1 2.5695991236085254e+00 1.2447754327437046e+00 2.2244599411244742e+01 1 1 1
3918 1 1.9397770202616567e+00 1.5904074825720773e+00 2.5163733254051174e+01 1 0 -1
1238 1 4.1190060645334237e+00 5.0199759794677821e+00 2.5842758005139277e+01 0 1 0
14 1 1.1234619630128737e+01 5.6945582842509550e+00 2.1856293650634438e+01 0 0 1
583 1 4.6212072504554182e+00 2.2296012723713070e+00 2.5311606172647988e+01 1 2 -1
2633 1 7.4621646933100632e+00 3.5236906230131395e+00 2.5483176967818096e+01 1 1 -1
654 1 6.6846903540008578e+00 2.8050952833775726e+00 2.2880782820663555e+01 1 1 0
1320 1 9.4569298522217782e+00 1.3490377649357255e+00 2.2615897288838777e+01 0 0 -1
572 1 9.6757636346806084e+00 1.9688157197397786e+00 2.5640388681130968e+01 1 1 -1
567 1 1.2513198930251110e+00 5.9239662248900027e+00 2.2990691994643221e+01 0 0 -1
3954 1 1.4490912528408757e+00 5.7666573034173449e+00 2.5851285740041948e+01 1 1 0
1960 1 4.4785091094195666e+00 9.9522609144605898e+00 2.5746547493487839e+01 1 0 0
2044 1 4.8436365973593851e+00 4.6674894042637325e+00 2.2956637523227570e+01 0 0 0
1403 1 5.7889098707997624e+00 7.3375665592026609e+00 2.5564106757664842e+01 0 1 1
3932 1 5.8005009417385667e+00 7.1906149322918624e+00 2.2290496174441966e+01 0 0 0
2024 1 1.1747279588000760e+01 5.6623404977705629e+00 2.5293809392634241e+01 0 2 0
4019 1 8.6764072314255589e+00 5.8603712434611834e+00 2.5133880812229812e+01 0 1 0
2709 1 3.7479177812241515e-01 6.3022932773737246e+00 1.4518240859733151e+01 1 0 -1
681 1 8.1694421654760649e+00 5.9675494089042465e+00 2.2245748769196759e+01 1 1 -1
2763 1 5.5102711704816452e+00 5.1543679739729953e-01 2.1890420882364577e+01 0 2 1
3289 1 1.1377709137135483e+01 9.0970621861627876e+00 2.0852781068513732e+01 0 0 1
2673 1 6.1400383595908237e-01 9.0915650069425364e+00 1.5960076547774653e+01 0 0 2
93 2 0.0000000000000000e+00 1.2787731112280996e+01 3.1642967571278247e+00 0 0 0
95 2 1.2305000000000001e+00 1.3498160618518829e+01 3.1642967571278247e+00 0 0 0
130 2 2.4610000000000003e+00 1.2787731112280996e+01 3.1642967571278247e+00 0 0 0
132 2 3.6915000000000004e+00 1.3498160618518829e+01 3.1642967571278247e+00 0 0 0
91 2 0.0000000000000000e+00 1.5629449137232333e+01 3.1642967571278247e+00 0 0 0
126 2 1.2305000000000001e+00 1.4919019630994494e+01 3.1642967571278247e+00 0 0 0
128 2 2.4610000000000003e+00 1.5629449137232328e+01 3.1642967571278247e+00 0 0 0
171 2 3.6915000000000004e+00 1.4919019630994494e+01 3.1642967571278247e+00 0 0 0
175 2 4.9220000000000006e+00 1.2787731112280996e+01 3.1642967571278247e+00 0 0 0
177 2 6.1524999999999990e+00 1.3498160618518829e+01 3.1642967571278247e+00 0 0 0
222 2 7.3829999999999991e+00 1.2787731112280996e+01 3.1642967571278247e+00 0 0 0
173 2 4.9220000000000006e+00 1.5629449137232333e+01 3.1642967571278247e+00 0 0 0
218 2 6.1524999999999990e+00 1.4919019630994494e+01 3.1642967571278247e+00 0 0 0
220 2 7.3829999999999991e+00 1.5629449137232333e+01 3.1642967571278247e+00 0 0 0
224 2 8.6135000000000002e+00 1.3498160618518835e+01 3.1642967571278247e+00 0 0 0
269 2 9.8440000000000012e+00 1.2787731112280996e+01 3.1642967571278247e+00 0 0 0
271 2 1.1074500000000002e+01 1.3498160618518829e+01 3.1642967571278247e+00 0 0 0
265 2 8.6135000000000002e+00 1.4919019630994494e+01 3.1642967571278247e+00 0 0 0
267 2 9.8440000000000012e+00 1.5629449137232328e+01 3.1642967571278247e+00 0 0 0
307 2 1.1074500000000002e+01 1.4919019630994494e+01 3.1642967571278247e+00 0 0 0
122 2 0.0000000000000000e+00 1.7050308149707998e+01 3.1642967571278247e+00 0 0 0
167 2 2.4610000000000003e+00 1.7050308149707998e+01 3.1642967571278247e+00 0 0 0
120 2 0.0000000000000000e+00 1.9892026174659328e+01 3.1642967571278247e+00 0 0 0
124 2 1.2305000000000001e+00 1.7760737655945832e+01 3.1642967571278247e+00 0 0 0
163 2 1.2305000000000001e+00 1.9181596668421495e+01 3.1642967571278247e+00 0 0 0
165 2 2.4610000000000003e+00 1.9892026174659328e+01 3.1642967571278247e+00 0 0 0
169 2 3.6914999999999996e+00 1.7760737655945832e+01 3.1642967571278247e+00 0 0 0
210 2 3.6914999999999996e+00 1.9181596668421495e+01 3.1642967571278247e+00 0 0 0
214 2 4.9220000000000006e+00 1.7050308149707998e+01 3.1642967571278247e+00 0 0 0
261 2 7.3830000000000009e+00 1.7050308149707998e+01 3.1642967571278247e+00 0 0 0
212 2 4.9220000000000006e+00 1.9892026174659328e+01 3.1642967571278247e+00 0 0 0
216 2 6.1524999999999999e+00 1.7760737655945832e+01 3.1642967571278247e+00 0 0 0
257 2 6.1524999999999999e+00 1.9181596668421495e+01 3.1642967571278247e+00 0 0 0
259 2 7.3829999999999991e+00 1.9892026174659328e+01 3.1642967571278247e+00 0 0 0
303 2 9.8440000000000012e+00 1.7050308149707998e+01 3.1642967571278247e+00 0 0 0
337 2 1.2304999999999998e+01 1.7050308149707998e+01 3.1642967571278247e+00 0 0 0
263 2 8.6134999999999984e+00 1.7760737655945832e+01 3.1642967571278247e+00 0 0 0
299 2 8.6135000000000002e+00 1.9181596668421495e+01 3.1642967571278247e+00 0 0 0
301 2 9.8440000000000012e+00 1.9892026174659335e+01 3.1642967571278247e+00 0 0 0
305 2 1.1074500000000002e+01 1.7760737655945835e+01 3.1642967571278247e+00 0 0 0
333 2 1.1074500000000002e+01 1.9181596668421495e+01 3.1642967571278247e+00 0 0 0
157 2 0.0000000000000000e+00 2.4154603212086325e+01 3.1642967571278247e+00 0 0 0
159 2 0.0000000000000000e+00 2.1312885187134999e+01 3.1642967571278247e+00 0 0 0
161 2 1.2304999999999993e+00 2.2023314693372832e+01 3.1642967571278247e+00 0 0 0
202 2 1.2304999999999993e+00 2.3444173705848499e+01 3.1642967571278247e+00 0 0 0
204 2 2.4610000000000003e+00 2.4154603212086325e+01 3.1642967571278247e+00 0 0 0
206 2 2.4610000000000003e+00 2.1312885187134995e+01 3.1642967571278247e+00 0 0 0
208 2 3.6914999999999996e+00 2.2023314693372832e+01 3.1642967571278247e+00 0 0 0
249 2 3.6915000000000004e+00 2.3444173705848499e+01 3.1642967571278247e+00 0 0 0
251 2 4.9220000000000006e+00 2.4154603212086325e+01 3.1642967571278247e+00 0 0 0
253 2 4.9220000000000006e+00 2.1312885187134995e+01 3.1642967571278247e+00 0 0 0
255 2 6.1524999999999990e+00 2.2023314693372832e+01 3.1642967571278247e+00 0 0 0
291 2 6.1524999999999999e+00 2.3444173705848499e+01 3.1642967571278247e+00 0 0 0
293 2 7.3830000000000009e+00 2.4154603212086336e+01 3.1642967571278247e+00 0 0 0
295 2 7.3829999999999991e+00 2.1312885187134999e+01 3.1642967571278247e+00 0 0 0
297 2 8.6135000000000002e+00 2.2023314693372832e+01 3.1642967571278247e+00 0 0 0
325 2 8.6134999999999984e+00 2.3444173705848499e+01 3.1642967571278247e+00 0 0 0
327 2 9.8440000000000012e+00 2.4154603212086336e+01 3.1642967571278247e+00 0 0 0
329 2 9.8440000000000012e+00 2.1312885187134999e+01 3.1642967571278247e+00 0 0 0
331 2 1.1074500000000002e+01 2.2023314693372832e+01 3.1642967571278247e+00 0 0 0
351 2 1.1074500000000002e+01 2.3444173705848499e+01 3.1642967571278247e+00 0 0 0
94 2 0.0000000000000000e+00 1.2787731112280996e+01 6.1125053861524137e+00 0 0 0
131 2 2.4610000000000003e+00 1.2787731112280996e+01 6.1125053861524137e+00 0 0 0
403 2 0.0000000000000000e+00 1.2787731112280996e+01 9.0607140151771866e+00 0 0 0
404 2 1.2305000000000001e+00 1.3498160618518829e+01 9.0607140151771866e+00 0 0 0
422 2 2.4610000000000003e+00 1.2787731112280996e+01 9.0607140151771866e+00 0 0 0
423 2 3.6915000000000004e+00 1.3498160618518829e+01 9.0607140151771866e+00 0 0 0
92 2 0.0000000000000000e+00 1.4208590124756663e+01 6.1125053861524137e+00 0 0 0
127 2 1.2305000000000001e+00 1.4919019630994494e+01 6.1125053861524137e+00 0 0 0
129 2 2.4610000000000003e+00 1.4208590124756663e+01 6.1125053861524137e+00 0 0 0
172 2 3.6915000000000004e+00 1.4919019630994494e+01 6.1125053861524137e+00 0 0 0
402 2 0.0000000000000000e+00 1.5629449137232333e+01 9.0607140151771866e+00 0 0 0
420 2 1.2305000000000001e+00 1.4919019630994494e+01 9.0607140151771866e+00 0 0 0
421 2 2.4610000000000003e+00 1.5629449137232328e+01 9.0607140151771866e+00 0 0 0
443 2 3.6915000000000004e+00 1.4919019630994494e+01 9.0607140151771866e+00 0 0 0
176 2 4.9220000000000006e+00 1.2787731112280996e+01 6.1125053861524137e+00 0 0 0
223 2 7.3829999999999991e+00 1.2787731112280996e+01 6.1125053861524137e+00 0 0 0
445 2 4.9220000000000006e+00 1.2787731112280996e+01 9.0607140151771866e+00 0 0 0
446 2 6.1524999999999990e+00 1.3498160618518829e+01 9.0607140151771866e+00 0 0 0
469 2 7.3829999999999991e+00 1.2787731112280996e+01 9.0607140151771866e+00 0 0 0
174 2 4.9220000000000006e+00 1.4208590124756663e+01 6.1125053861524137e+00 0 0 0
219 2 6.1524999999999990e+00 1.4919019630994494e+01 6.1125053861524137e+00 0 0 0
221 2 7.3830000000000009e+00 1.4208590124756663e+01 6.1125053861524137e+00 0 0 0
444 2 4.9220000000000006e+00 1.5629449137232333e+01 9.0607140151771866e+00 0 0 0
467 2 6.1524999999999990e+00 1.4919019630994494e+01 9.0607140151771866e+00 0 0 0
468 2 7.3829999999999991e+00 1.5629449137232333e+01 9.0607140151771866e+00 0 0 0
270 2 9.8440000000000012e+00 1.2787731112280996e+01 6.1125053861524137e+00 0 0 0
470 2 8.6135000000000002e+00 1.3498160618518835e+01 9.0607140151771866e+00 0 0 0
493 2 9.8440000000000012e+00 1.2787731112280996e+01 9.0607140151771866e+00 0 0 0
494 2 1.1074500000000002e+01 1.3498160618518829e+01 9.0607140151771866e+00 0 0 0
266 2 8.6135000000000002e+00 1.4919019630994494e+01 6.1125053861524137e+00 0 0 0
268 2 9.8440000000000012e+00 1.4208590124756663e+01 6.1125053861524137e+00 0 0 0
306 2 1.1074500000000002e+01 1.6339878643470161e+01 6.1125053861524137e+00 0 0 0
308 2 1.1074500000000002e+01 1.4919019630994494e+01 6.1125053861524137e+00 0 0 0
310 2 1.2304999999999998e+01 1.4208590124756658e+01 6.1125053861524137e+00 0 0 0
491 2 8.6135000000000002e+00 1.4919019630994494e+01 9.0607140151771866e+00 0 0 0
492 2 9.8440000000000012e+00 1.5629449137232328e+01 9.0607140151771866e+00 0 0 0
512 2 1.1074500000000002e+01 1.4919019630994494e+01 9.0607140151771866e+00 0 0 0
123 2 0.0000000000000000e+00 1.7050308149707998e+01 6.1125053861524137e+00 0 0 0
125 2 1.2305000000000001e+00 1.6339878643470165e+01 6.1125053861524137e+00 0 0 0
168 2 2.4610000000000003e+00 1.7050308149707998e+01 6.1125053861524137e+00 0 0 0
170 2 3.6915000000000004e+00 1.6339878643470165e+01 6.1125053861524137e+00 0 0 0
418 2 0.0000000000000000e+00 1.7050308149707998e+01 9.0607140151771866e+00 0 0 0
441 2 2.4610000000000003e+00 1.7050308149707998e+01 9.0607140151771866e+00 0 0 0