LAMMPS data file via write_data, version 16 Mar 2018, timestep = 8000000

4078 atoms
2 atom types

0.0000000000000000e+00 4.9219999999999999e+01 xlo xhi
0.0000000000000000e+00 4.9019635930410494e+01 ylo yhi
1.0802592894162295e+00 2.6859740710583445e+01 zlo zhi

Masses

1 18.015
2 12.01

Atoms # atomic

52 2 0.0000000000000000e+00 2.8417180249513345e+00 2.8673062384336294e+00 0 0 0
54 2 0.0000000000000000e+00 0.0000000000000000e+00 2.8673062384336294e+00 0 0 0
56 2 1.2305000000000001e+00 7.1042950623783474e-01 2.8673062384336294e+00 0 0 0
63 2 1.2305000000000001e+00 2.1312885187134998e+00 2.8673062384336294e+00 0 0 0
65 2 2.4610000000000003e+00 2.8417180249513345e+00 2.8673062384336294e+00 0 0 0
67 2 2.4610000000000003e+00 0.0000000000000000e+00 2.8673062384336294e+00 0 0 0
69 2 3.6915000000000004e+00 7.1042950623783474e-01 2.8673062384336294e+00 0 0 0
84 2 3.6914999999999996e+00 2.1312885187134998e+00 2.8673062384336294e+00 0 0 0
86 2 4.9220000000000006e+00 2.8417180249513332e+00 2.8673062384336294e+00 0 0 0
88 2 4.9220000000000006e+00 0.0000000000000000e+00 2.8673062384336294e+00 0 0 0
90 2 6.1524999999999999e+00 7.1042950623783407e-01 2.8673062384336294e+00 0 0 0
113 2 6.1524999999999999e+00 2.1312885187134989e+00 2.8673062384336294e+00 0 0 0
115 2 7.3829999999999991e+00 2.8417180249513345e+00 2.8673062384336294e+00 0 0 0
117 2 7.3829999999999991e+00 0.0000000000000000e+00 2.8673062384336294e+00 0 0 0
119 2 8.6134999999999984e+00 7.1042950623783407e-01 2.8673062384336294e+00 0 0 0
150 2 8.6134999999999984e+00 2.1312885187135002e+00 2.8673062384336294e+00 0 0 0
152 2 9.8440000000000012e+00 2.8417180249513332e+00 2.8673062384336294e+00 0 0 0
154 2 9.8440000000000012e+00 0.0000000000000000e+00 2.8673062384336294e+00 0 0 0
156 2 1.1074500000000002e+01 7.1042950623783330e-01 2.8673062384336294e+00 0 0 0
195 2 1.1074500000000002e+01 2.1312885187135002e+00 2.8673062384336294e+00 0 0 0
59 2 0.0000000000000000e+00 4.2625770374269996e+00 2.8673062384336294e+00 0 0 0
61 2 1.2305000000000001e+00 4.9730065436648339e+00 2.8673062384336294e+00 0 0 0
76 2 1.2305000000000001e+00 6.3938655561404980e+00 2.8673062384336294e+00 0 0 0
80 2 2.4610000000000003e+00 4.2625770374269996e+00 2.8673062384336294e+00 0 0 0
82 2 3.6914999999999996e+00 4.9730065436648339e+00 2.8673062384336294e+00 0 0 0
105 2 3.6914999999999996e+00 6.3938655561404980e+00 2.8673062384336294e+00 0 0 0
57 2 0.0000000000000000e+00 7.1042950623783341e+00 2.8673062384336294e+00 0 0 0
78 2 2.4610000000000003e+00 7.1042950623783341e+00 2.8673062384336294e+00 0 0 0
109 2 4.9220000000000006e+00 4.2625770374269978e+00 2.8673062384336294e+00 0 0 0
111 2 6.1524999999999999e+00 4.9730065436648339e+00 2.8673062384336294e+00 0 0 0
142 2 6.1524999999999999e+00 6.3938655561404980e+00 2.8673062384336294e+00 0 0 0
146 2 7.3829999999999991e+00 4.2625770374269996e+00 2.8673062384336294e+00 0 0 0
107 2 4.9220000000000006e+00 7.1042950623783341e+00 2.8673062384336294e+00 0 0 0
144 2 7.3830000000000009e+00 7.1042950623783341e+00 2.8673062384336294e+00 0 0 0
148 2 8.6135000000000002e+00 4.9730065436648339e+00 2.8673062384336294e+00 0 0 0
187 2 8.6135000000000002e+00 6.3938655561404980e+00 2.8673062384336294e+00 0 0 0
191 2 9.8440000000000012e+00 4.2625770374270004e+00 2.8673062384336294e+00 0 0 0
193 2 1.1074500000000002e+01 4.9730065436648339e+00 2.8673062384336294e+00 0 0 0
234 2 1.1074500000000002e+01 6.3938655561404980e+00 2.8673062384336294e+00 0 0 0
189 2 9.8440000000000012e+00 7.1042950623783341e+00 2.8673062384336294e+00 0 0 0
72 2 0.0000000000000000e+00 8.5251540748539991e+00 2.8673062384336294e+00 0 0 0
74 2 1.2305000000000001e+00 9.2355835810918343e+00 2.8673062384336294e+00 0 0 0
101 2 2.4610000000000003e+00 8.5251540748539991e+00 2.8673062384336294e+00 0 0 0
103 2 3.6915000000000004e+00 9.2355835810918343e+00 2.8673062384336294e+00 0 0 0
70 2 0.0000000000000000e+00 1.1366872099805333e+01 2.8673062384336294e+00 0 0 0
97 2 1.2305000000000001e+00 1.0656442593567498e+01 2.8673062384336294e+00 0 0 0
99 2 2.4610000000000003e+00 1.1366872099805333e+01 2.8673062384336294e+00 0 0 0
134 2 3.6914999999999996e+00 1.0656442593567499e+01 2.8673062384336294e+00 0 0 0
138 2 4.9220000000000006e+00 8.5251540748539991e+00 2.8673062384336294e+00 0 0 0
140 2 6.1524999999999999e+00 9.2355835810918343e+00 2.8673062384336294e+00 0 0 0
183 2 7.3830000000000009e+00 8.5251540748539991e+00 2.8673062384336294e+00 0 0 0
136 2 4.9220000000000006e+00 1.1366872099805333e+01 2.8673062384336294e+00 0 0 0
179 2 6.1524999999999999e+00 1.0656442593567499e+01 2.8673062384336294e+00 0 0 0
181 2 7.3829999999999991e+00 1.1366872099805333e+01 2.8673062384336294e+00 0 0 0
185 2 8.6134999999999984e+00 9.2355835810918343e+00 2.8673062384336294e+00 0 0 0
230 2 9.8440000000000012e+00 8.5251540748539956e+00 2.8673062384336294e+00 0 0 0
232 2 1.1074500000000002e+01 9.2355835810918343e+00 2.8673062384336294e+00 0 0 0
226 2 8.6134999999999984e+00 1.0656442593567498e+01 2.8673062384336294e+00 0 0 0
228 2 9.8440000000000012e+00 1.1366872099805333e+01 2.8673062384336294e+00 0 0 0
273 2 1.1074500000000002e+01 1.0656442593567498e+01 2.8673062384336294e+00 0 0 0
275 2 1.2304999999999998e+01 1.1366872099805333e+01 2.8673062384336294e+00 0 0 0
53 2 0.0000000000000000e+00 1.4208590124756650e+00 5.8965452261757250e+00 0 0 0
55 2 0.0000000000000000e+00 0.0000000000000000e+00 5.8965452261757250e+00 0 0 0
64 2 1.2305000000000001e+00 2.1312885187134998e+00 5.8965452261757250e+00 0 0 0
66 2 2.4610000000000003e+00 1.4208590124756650e+00 5.8965452261757250e+00 0 0 0
68 2 2.4610000000000003e+00 0.0000000000000000e+00 5.8965452261757250e+00 0 0 0
85 2 3.6914999999999996e+00 2.1312885187134998e+00 5.8965452261757250e+00 0 0 0
381 2 0.0000000000000000e+00 2.8417180249513345e+00 8.9257842139184724e+00 0 0 0
382 2 0.0000000000000000e+00 0.0000000000000000e+00 8.9257842139184724e+00 0 0 0
383 2 1.2305000000000001e+00 7.1042950623783474e-01 8.9257842139184724e+00 0 0 0
387 2 1.2305000000000001e+00 2.1312885187134998e+00 8.9257842139184724e+00 0 0 0
388 2 2.4610000000000003e+00 2.8417180249513345e+00 8.9257842139184724e+00 0 0 0
389 2 2.4610000000000003e+00 0.0000000000000000e+00 8.9257842139184724e+00 0 0 0
390 2 3.6915000000000004e+00 7.1042950623783474e-01 8.9257842139184724e+00 0 0 0
398 2 3.6914999999999996e+00 2.1312885187134998e+00 8.9257842139184724e+00 0 0 0
62 2 1.2305000000000001e+00 3.5521475311891644e+00 5.8965452261757250e+00 0 0 0
83 2 3.6914999999999996e+00 3.5521475311891644e+00 5.8965452261757250e+00 0 0 0
87 2 4.9220000000000006e+00 1.4208590124756650e+00 5.8965452261757250e+00 0 0 0
89 2 4.9220000000000006e+00 0.0000000000000000e+00 5.8965452261757250e+00 0 0 0
114 2 6.1524999999999999e+00 2.1312885187134989e+00 5.8965452261757250e+00 0 0 0
116 2 7.3829999999999991e+00 1.4208590124756659e+00 5.8965452261757250e+00 0 0 0
118 2 7.3829999999999991e+00 0.0000000000000000e+00 5.8965452261757250e+00 0 0 0
399 2 4.9220000000000006e+00 2.8417180249513332e+00 8.9257842139184724e+00 0 0 0
400 2 4.9220000000000006e+00 0.0000000000000000e+00 8.9257842139184724e+00 0 0 0
401 2 6.1524999999999999e+00 7.1042950623783407e-01 8.9257842139184724e+00 0 0 0
413 2 6.1524999999999999e+00 2.1312885187134989e+00 8.9257842139184724e+00 0 0 0
414 2 7.3829999999999991e+00 2.8417180249513345e+00 8.9257842139184724e+00 0 0 0
415 2 7.3829999999999991e+00 0.0000000000000000e+00 8.9257842139184724e+00 0 0 0
112 2 6.1524999999999999e+00 3.5521475311891644e+00 5.8965452261757250e+00 0 0 0
151 2 8.6134999999999984e+00 2.1312885187135002e+00 5.8965452261757250e+00 0 0 0
153 2 9.8440000000000012e+00 1.4208590124756659e+00 5.8965452261757250e+00 0 0 0
155 2 9.8440000000000012e+00 0.0000000000000000e+00 5.8965452261757250e+00 0 0 0
196 2 1.1074500000000002e+01 2.1312885187135002e+00 5.8965452261757250e+00 0 0 0
416 2 8.6134999999999984e+00 7.1042950623783407e-01 8.9257842139184724e+00 0 0 0
432 2 8.6134999999999984e+00 2.1312885187135002e+00 8.9257842139184724e+00 0 0 0
433 2 9.8440000000000012e+00 2.8417180249513332e+00 8.9257842139184724e+00 0 0 0
434 2 9.8440000000000012e+00 0.0000000000000000e+00 8.9257842139184724e+00 0 0 0
435 2 1.1074500000000002e+01 7.1042950623783330e-01 8.9257842139184724e+00 0 0 0
455 2 1.1074500000000002e+01 2.1312885187135002e+00 8.9257842139184724e+00 0 0 0
149 2 8.6134999999999984e+00 3.5521475311891657e+00 5.8965452261757250e+00 0 0 0
194 2 1.1074500000000002e+01 3.5521475311891644e+00 5.8965452261757250e+00 0 0 0
58 2 0.0000000000000000e+00 5.6834360499026637e+00 5.8965452261757250e+00 0 0 0
60 2 0.0000000000000000e+00 4.2625770374269996e+00 5.8965452261757250e+00 0 0 0
77 2 1.2305000000000001e+00 6.3938655561404980e+00 5.8965452261757250e+00 0 0 0
79 2 2.4610000000000003e+00 5.6834360499026637e+00 5.8965452261757250e+00 0 0 0
81 2 2.4610000000000003e+00 4.2625770374269996e+00 5.8965452261757250e+00 0 0 0
106 2 3.6914999999999996e+00 6.3938655561404980e+00 5.8965452261757250e+00 0 0 0
385 2 0.0000000000000000e+00 4.2625770374269996e+00 8.9257842139184724e+00 0 0 0
386 2 1.2305000000000001e+00 4.9730065436648339e+00 8.9257842139184724e+00 0 0 0
394 2 1.2305000000000001e+00 6.3938655561404980e+00 8.9257842139184724e+00 0 0 0
396 2 2.4610000000000003e+00 4.2625770374269996e+00 8.9257842139184724e+00 0 0 0
397 2 3.6914999999999996e+00 4.9730065436648339e+00 8.9257842139184724e+00 0 0 0
409 2 3.6914999999999996e+00 6.3938655561404980e+00 8.9257842139184724e+00 0 0 0
75 2 1.2305000000000001e+00 7.8147245686161639e+00 5.8965452261757250e+00 0 0 0
104 2 3.6914999999999996e+00 7.8147245686161639e+00 5.8965452261757250e+00 0 0 0
384 2 0.0000000000000000e+00 7.1042950623783341e+00 8.9257842139184724e+00 0 0 0
395 2 2.4610000000000003e+00 7.1042950623783341e+00 8.9257842139184724e+00 0 0 0
108 2 4.9220000000000006e+00 5.6834360499026637e+00 5.8965452261757250e+00 0 0 0
110 2 4.9220000000000006e+00 4.2625770374269978e+00 5.8965452261757250e+00 0 0 0
143 2 6.1524999999999999e+00 6.3938655561404980e+00 5.8965452261757250e+00 0 0 0
145 2 7.3829999999999991e+00 5.6834360499026637e+00 5.8965452261757250e+00 0 0 0
147 2 7.3829999999999991e+00 4.2625770374269996e+00 5.8965452261757250e+00 0 0 0
411 2 4.9220000000000006e+00 4.2625770374269978e+00 8.9257842139184724e+00 0 0 0
412 2 6.1524999999999999e+00 4.9730065436648339e+00 8.9257842139184724e+00 0 0 0
428 2 6.1524999999999999e+00 6.3938655561404980e+00 8.9257842139184724e+00 0 0 0
430 2 7.3829999999999991e+00 4.2625770374269996e+00 8.9257842139184724e+00 0 0 0
141 2 6.1524999999999999e+00 7.8147245686161639e+00 5.8965452261757250e+00 0 0 0
410 2 4.9220000000000006e+00 7.1042950623783341e+00 8.9257842139184724e+00 0 0 0
429 2 7.3830000000000009e+00 7.1042950623783341e+00 8.9257842139184724e+00 0 0 0
188 2 8.6135000000000002e+00 6.3938655561404980e+00 5.8965452261757250e+00 0 0 0
190 2 9.8440000000000012e+00 5.6834360499026637e+00 5.8965452261757250e+00 0 0 0
192 2 9.8440000000000012e+00 4.2625770374270004e+00 5.8965452261757250e+00 0 0 0
235 2 1.1074500000000002e+01 6.3938655561404980e+00 5.8965452261757250e+00 0 0 0
431 2 8.6135000000000002e+00 4.9730065436648339e+00 8.9257842139184724e+00 0 0 0
451 2 8.6135000000000002e+00 6.3938655561404980e+00 8.9257842139184724e+00 0 0 0
453 2 9.8440000000000012e+00 4.2625770374270004e+00 8.9257842139184724e+00 0 0 0
454 2 1.1074500000000002e+01 4.9730065436648339e+00 8.9257842139184724e+00 0 0 0
475 2 1.1074500000000002e+01 6.3938655561404980e+00 8.9257842139184724e+00 0 0 0
186 2 8.6135000000000002e+00 7.8147245686161639e+00 5.8965452261757250e+00 0 0 0
233 2 1.1074500000000002e+01 7.8147245686161639e+00 5.8965452261757250e+00 0 0 0
452 2 9.8440000000000012e+00 7.1042950623783341e+00 8.9257842139184724e+00 0 0 0
71 2 0.0000000000000000e+00 9.9460130873296642e+00 5.8965452261757250e+00 0 0 0
73 2 0.0000000000000000e+00 8.5251540748539991e+00 5.8965452261757250e+00 0 0 0
100 2 2.4610000000000003e+00 9.9460130873296642e+00 5.8965452261757250e+00 0 0 0
102 2 2.4610000000000003e+00 8.5251540748539991e+00 5.8965452261757250e+00 0 0 0
392 2 0.0000000000000000e+00 8.5251540748539991e+00 8.9257842139184724e+00 0 0 0
393 2 1.2305000000000001e+00 9.2355835810918343e+00 8.9257842139184724e+00 0 0 0
407 2 2.4610000000000003e+00 8.5251540748539991e+00 8.9257842139184724e+00 0 0 0
408 2 3.6915000000000004e+00 9.2355835810918343e+00 8.9257842139184724e+00 0 0 0
96 2 1.2305000000000001e+00 1.2077301606043163e+01 5.8965452261757250e+00 0 0 0
98 2 1.2305000000000001e+00 1.0656442593567498e+01 5.8965452261757250e+00 0 0 0
133 2 3.6914999999999996e+00 1.2077301606043163e+01 5.8965452261757250e+00 0 0 0
135 2 3.6914999999999996e+00 1.0656442593567499e+01 5.8965452261757250e+00 0 0 0
391 2 0.0000000000000000e+00 1.1366872099805333e+01 8.9257842139184724e+00 0 0 0
405 2 1.2305000000000001e+00 1.0656442593567498e+01 8.9257842139184724e+00 0 0 0
406 2 2.4610000000000003e+00 1.1366872099805333e+01 8.9257842139184724e+00 0 0 0
424 2 3.6914999999999996e+00 1.0656442593567499e+01 8.9257842139184724e+00 0 0 0
137 2 4.9220000000000006e+00 9.9460130873296642e+00 5.8965452261757250e+00 0 0 0
139 2 4.9220000000000006e+00 8.5251540748539991e+00 5.8965452261757250e+00 0 0 0
182 2 7.3830000000000009e+00 9.9460130873296642e+00 5.8965452261757250e+00 0 0 0
184 2 7.3830000000000009e+00 8.5251540748539991e+00 5.8965452261757250e+00 0 0 0
426 2 4.9220000000000006e+00 8.5251540748539991e+00 8.9257842139184724e+00 0 0 0
427 2 6.1524999999999999e+00 9.2355835810918343e+00 8.9257842139184724e+00 0 0 0
449 2 7.3830000000000009e+00 8.5251540748539991e+00 8.9257842139184724e+00 0 0 0
178 2 6.1524999999999999e+00 1.2077301606043163e+01 5.8965452261757250e+00 0 0 0
180 2 6.1524999999999999e+00 1.0656442593567499e+01 5.8965452261757250e+00 0 0 0
425 2 4.9220000000000006e+00 1.1366872099805333e+01 8.9257842139184724e+00 0 0 0
447 2 6.1524999999999999e+00 1.0656442593567499e+01 8.9257842139184724e+00 0 0 0
448 2 7.3829999999999991e+00 1.1366872099805333e+01 8.9257842139184724e+00 0 0 0
229 2 9.8440000000000012e+00 9.9460130873296642e+00 5.8965452261757250e+00 0 0 0
231 2 9.8440000000000012e+00 8.5251540748539956e+00 5.8965452261757250e+00 0 0 0
450 2 8.6134999999999984e+00 9.2355835810918343e+00 8.9257842139184724e+00 0 0 0
473 2 9.8440000000000012e+00 8.5251540748539956e+00 8.9257842139184724e+00 0 0 0
474 2 1.1074500000000002e+01 9.2355835810918343e+00 8.9257842139184724e+00 0 0 0
225 2 8.6135000000000002e+00 1.2077301606043163e+01 5.8965452261757250e+00 0 0 0
227 2 8.6134999999999984e+00 1.0656442593567498e+01 5.8965452261757250e+00 0 0 0
272 2 1.1074500000000002e+01 1.2077301606043163e+01 5.8965452261757250e+00 0 0 0
274 2 1.1074500000000002e+01 1.0656442593567498e+01 5.8965452261757250e+00 0 0 0
471 2 8.6134999999999984e+00 1.0656442593567498e+01 8.9257842139184724e+00 0 0 0
472 2 9.8440000000000012e+00 1.1366872099805333e+01 8.9257842139184724e+00 0 0 0
495 2 1.1074500000000002e+01 1.0656442593567498e+01 8.9257842139184724e+00 0 0 0
496 2 1.2304999999999998e+01 1.1366872099805333e+01 8.9257842139184724e+00 0 0 0
4032 1 7.2378220047008016e-02 3.6838132096585334e+00 1.2327464199120627e+01 1 0 0
3456 1 3.8705067161860791e+00 1.1690292850408646e-01 1.1505304978145242e+01 -1 -1 0
2591 1 4.6113682330390766e+00 2.8034005814692557e+00 1.2059410511149899e+01 -1 1 1
752 1 7.3325634933023380e+00 3.4752951919468176e+00 1.1508353255913658e+01 -1 3 0
1971 1 9.5643545564113026e+00 1.5086562384623039e+00 1.2183201627858127e+01 3 0 1
2075 1 1.2237026967199425e+01 2.2947367260253273e+00 1.1486112005832728e+01 1 -1 -1
2056 1 2.6671157555405531e+00 4.6960109976633051e+00 1.1361646603907040e+01 3 0 0
1290 1 3.0992800674064642e+00 7.2894113712051585e+00 1.2056325245423114e+01 3 -1 0
3256 1 5.6134304727750619e+00 7.9937260254877636e+00 1.1478196046711478e+01 1 1 -1
1938 1 7.8231956451614186e+00 6.1398296714725591e+00 1.2025477988517707e+01 2 1 0
4045 1 1.0383886036592589e+01 6.7411593629741269e+00 1.1788596830585091e+01 0 3 -1
2706 1 1.0880042790927642e+00 9.1203942026029701e+00 1.1635513411462382e+01 -1 1 1
3263 1 1.2795755221663543e+00 1.1826086041187093e+01 1.2107699851842591e+01 -1 0 1
2691 1 5.7762015992949332e+00 1.0694495365726716e+01 1.1866368926142457e+01 1 2 0
546 1 1.0332033966687444e+01 9.7734397828911650e+00 1.1750482556325046e+01 -1 -1 0
3423 1 8.3377660358991186e+00 1.1581706355683435e+01 1.1571602727021588e+01 -2 -4 0
1370 1 1.7863053852808488e+00 1.9650108952327390e+00 1.5683414810434835e+01 1 1 0
3449 1 4.2872105460919530e+00 2.9799219371355878e+00 1.4928384657453101e+01 -1 -3 0
1385 1 6.3068535859531174e+00 1.2491702543914740e+00 1.5359508709204396e+01 1 0 -1
2629 1 6.0880246449042721e+00 1.4158817298699184e+00 1.8184324129636085e+01 -2 -1 0
1394 1 8.7693059701025167e+00 2.2007226122608379e+00 1.4896837044182718e+01 0 1 -1
3448 1 1.0785142425351955e+01 4.5119353045425264e-01 1.5621491131400413e+01 0 1 0
4015 1 1.7056131653482956e-01 6.3438298578011576e+00 1.5684388659745462e+01 1 1 0
3993 1 2.7223642034643496e+00 7.2824976181065137e+00 1.5002183561758613e+01 -1 1 -1
4003 1 4.7799551715826798e+00 5.5407677807519011e+00 1.5497904868904088e+01 2 0 -1
1330 1 7.1101411961481915e+00 6.7058688920950686e+00 1.4846363053766327e+01 1 2 0
3345 1 1.1278840585862142e+01 5.9797512179724315e+00 1.4583134551927243e+01 -1 1 1
2631 1 9.1090675543735102e+00 4.7366654517365054e+00 1.5977356630929629e+01 -3 -2 0
1293 1 3.4599592157792389e+00 9.9215420339387173e+00 1.5673499366422710e+01 0 -2 0
1447 1 1.6025971068537381e+00 1.1640303781651612e+01 1.4903396941793433e+01 -2 1 1
2121 1 7.7258191274493759e+00 9.0153377168878102e+00 1.5635319407176036e+01 2 1 -1
2699 1 5.9580477533374827e+00 1.0926809789151669e+01 1.4778273199613487e+01 -1 0 0
2750 1 9.9239383614784042e+00 1.0379875045156110e+01 1.4462150845149473e+01 1 1 0
751 1 1.1589665578689308e+01 8.4954518942669992e+00 1.5768758570989377e+01 -2 0 1
750 1 1.8867817422707054e+00 2.1873884958303540e+00 1.8422881263930549e+01 0 1 0
3349 1 4.2770920576980638e+00 3.4577121398839714e+00 2.1957447655610331e+01 1 0 0
3348 1 4.3373608820702332e+00 3.3534597865469391e+00 1.9208920318624539e+01 1 1 -1
3414 1 8.5101662271914638e+00 2.3792003277822786e+00 1.9196829576833583e+01 0 0 1
1466 1 1.0625783771913541e+01 6.6650212443290713e-01 1.8486212122327185e+01 1 0 0
3355 1 8.3169963334260864e+00 2.6502401792712145e+00 2.2088655137435207e+01 1 0 0
3290 1 2.6841336062514349e+00 7.3998616520582656e+00 1.9299492595986106e+01 -1 1 -1
2758 1 3.0132918677551359e+00 7.9937277728761762e+00 2.2129264640119342e+01 1 1 0
1272 1 4.3160536733519778e-01 6.0944335798504348e+00 1.8625151605743689e+01 1 5 -1
2038 1 4.8788716085199030e-01 6.2146368827151228e+00 2.2431979017557477e+01 1 -1 -1
3923 1 4.8979244595595111e+00 5.9407228910214753e+00 1.8384703376656205e+01 2 0 1
733 1 7.0980471143897761e+00 6.6873496042785998e+00 1.9422909900370037e+01 0 0 1
3405 1 7.2526385956080102e+00 7.0598515963769515e+00 2.2285811552606717e+01 -2 0 0
689 1 9.0376238478915845e+00 5.1289873695237151e+00 1.8419799742927037e+01 0 0 -2
1288 1 1.1224467274682524e+01 6.2206973161097547e+00 1.9664415822299087e+01 0 -1 -1
1329 1 1.1250114921165611e+01 6.2462018444012672e+00 2.2345937248796268e+01 0 1 -1
714 1 2.9338851937350872e+00 1.0019524931035471e+01 1.8428144520322117e+01 -1 0 0
2007 1 1.0231141161023294e+00 1.1673005275510613e+01 1.9573050156394387e+01 0 1 -1
2647 1 1.2757776586276897e+00 1.1957441275368371e+01 2.2338932062023893e+01 1 1 -1
2742 1 7.4470985925788673e+00 9.2553603666553652e+00 1.8485019487861450e+01 1 -2 -1
727 1 5.2645477265717933e+00 1.0859788099030784e+01 1.9388661834074316e+01 -2 0 -1
1300 1 5.6754109469579133e+00 1.1761230157676525e+01 2.2171422768589178e+01 0 0 0
3266 1 1.1769351158749238e+01 8.6900043514225214e+00 1.8710242567680293e+01 -2 2 0
3350 1 9.8092770755707956e+00 1.0344607916075393e+01 2.2302289300681753e+01 2 -2 -1
1418 1 1.0032176791007203e+01 1.0441711947363837e+01 1.9557637627215506e+01 -1 -2 1
3394 1 2.0760240763878137e+00 1.9713254730667464e+00 2.2749767174980242e+01 1 2 0
2014 1 1.9966120456028449e+00 1.9064613777665369e+00 2.5535609068710443e+01 -1 1 0
2626 1 5.9345556854594337e+00 1.5443565777781385e+00 2.3389670699468546e+01 1 -1 -1
2597 1 4.7117812003848023e+00 2.8913951478957967e+00 2.6334155862721371e+01 0 1 1
4035 1 7.1254851375922792e+00 8.9029678594123296e-01 2.5949686934449300e+01 -1 0 0
4075 1 1.0412405438350012e+01 1.0732782491096686e+00 2.3022068093150079e+01 -1 2 -1
3275 1 9.8682434997737527e+00 1.6036898997573992e+00 2.5986802912787049e+01 -1 -2 0
3357 1 1.2128239830711244e+01 1.2818041434336180e-02 2.5766895002174373e+01 1 1 -1
2665 1 4.5879313805703531e-01 6.2499237513670156e+00 2.5457120933795682e+01 1 -3 0
3925 1 2.9651787946503947e+00 7.3748046359448347e+00 2.6135086991001842e+01 -1 0 0
2745 1 4.7061021346134346e+00 6.0670359945851278e+00 2.2841984350919258e+01 1 -1 0
2628 1 5.2920801358482503e+00 5.5993788810028562e+00 2.5718325354800729e+01 -1 2 0
656 1 1.0251046959571733e+01 4.2800569598287979e+00 2.5650488182030738e+01 3 0 0
2719 1 8.2074409203820800e+00 6.2211117248867440e+00 2.6160033636400957e+01 0 1 0
3284 1 9.0370903042486095e+00 4.9663310994939964e+00 2.3202122282771448e+01 -1 0 1
1434 1 3.2446785170395951e+00 1.0620060041964303e+01 2.3287597595033752e+01 -1 0 0
3328 1 3.4966742252599423e+00 1.0371421631561107e+01 2.6056999439446106e+01 2 2 -1
3319 1 7.3172120772392537e+00 9.8526171232887716e+00 2.3657703984843913e+01 1 2 0
2788 1 6.1863206865228477e+00 1.1152369940475628e+01 2.6274111947026917e+01 2 -2 0
1280 1 1.1474499691356931e+01 9.5478885269610405e+00 2.5825618241962850e+01 1 1 0
1406 1 1.1874610557982427e+01 8.7751256376271520e+00 2.3222151081359659e+01 -1 -1 -1
1239 1 8.6459014453790264e+00 9.0850285692698574e+00 2.6073630006341784e+01 3 1 0
93 2 0.0000000000000000e+00 1.2787731112280996e+01 2.8673062384336294e+00 0 0 0
95 2 1.2305000000000001e+00 1.3498160618518829e+01 2.8673062384336294e+00 0 0 0
130 2 2.4610000000000003e+00 1.2787731112280996e+01 2.8673062384336294e+00 0 0 0
132 2 3.6915000000000004e+00 1.3498160618518829e+01 2.8673062384336294e+00 0 0 0
91 2 0.0000000000000000e+00 1.5629449137232333e+01 2.8673062384336294e+00 0 0 0
126 2 1.2305000000000001e+00 1.4919019630994494e+01 2.8673062384336294e+00 0 0 0
128 2 2.4610000000000003e+00 1.5629449137232328e+01 2.8673062384336294e+00 0 0 0
171 2 3.6915000000000004e+00 1.4919019630994494e+01 2.8673062384336294e+00 0 0 0
175 2 4.9220000000000006e+00 1.2787731112280996e+01 2.8673062384336294e+00 0 0 0
177 2 6.1524999999999990e+00 1.3498160618518829e+01 2.8673062384336294e+00 0 0 0
222 2 7.3829999999999991e+00 1.2787731112280996e+01 2.8673062384336294e+00 0 0 0
173 2 4.9220000000000006e+00 1.5629449137232333e+01 2.8673062384336294e+00 0 0 0
218 2 6.1524999999999990e+00 1.4919019630994494e+01 2.8673062384336294e+00 0 0 0
220 2 7.3829999999999991e+00 1.5629449137232333e+01 2.8673062384336294e+00 0 0 0
224 2 8.6135000000000002e+00 1.3498160618518835e+01 2.8673062384336294e+00 0 0 0
269 2 9.8440000000000012e+00 1.2787731112280996e+01 2.8673062384336294e+00 0 0 0
271 2 1.1074500000000002e+01 1.3498160618518829e+01 2.8673062384336294e+00 0 0 0
265 2 8.6135000000000002e+00 1.4919019630994494e+01 2.8673062384336294e+00 0 0 0
267 2 9.8440000000000012e+00 1.5629449137232328e+01 2.8673062384336294e+00 0 0 0
307 2 1.1074500000000002e+01 1.4919019630994494e+01 2.8673062384336294e+00 0 0 0
122 2 0.0000000000000000e+00 1.7050308149707998e+01 2.8673062384336294e+00 0 0 0
167 2 2.4610000000000003e+00 1.7050308149707998e+01 2.8673062384336294e+00 0 0 0
120 2 0.0000000000000000e+00 1.9892026174659328e+01 2.8673062384336294e+00 0 0 0
124 2 1.2305000000000001e+00 1.7760737655945832e+01 2.8673062384336294e+00 0 0 0
163 2 1.2305000000000001e+00 1.9181596668421495e+01 2.8673062384336294e+00 0 0 0
165 2 2.4610000000000003e+00 1.9892026174659328e+01 2.8673062384336294e+00 0 0 0
169 2 3.6914999999999996e+00 1.7760737655945832e+01 2.8673062384336294e+00 0 0 0
210 2 3.6914999999999996e+00 1.9181596668421495e+01 2.8673062384336294e+00 0 0 0
214 2 4.9220000000000006e+00 1.7050308149707998e+01 2.8673062384336294e+00 0 0 0
261 2 7.3830000000000009e+00 1.7050308149707998e+01 2.8673062384336294e+00 0 0 0
212 2 4.9220000000000006e+00 1.9892026174659328e+01 2.8673062384336294e+00 0 0 0
216 2 6.1524999999999999e+00 1.7760737655945832e+01 2.8673062384336294e+00 0 0 0
257 2 6.1524999999999999e+00 1.9181596668421495e+01 2.8673062384336294e+00 0 0 0
259 2 7.3829999999999991e+00 1.9892026174659328e+01 2.8673062384336294e+00 0 0 0
303 2 9.8440000000000012e+00 1.7050308149707998e+01 2.8673062384336294e+00 0 0 0
337 2 1.2304999999999998e+01 1.7050308149707998e+01 2.8673062384336294e+00 0 0 0
263 2 8.6134999999999984e+00 1.7760737655945832e+01 2.8673062384336294e+00 0 0 0
299 2 8.6135000000000002e+00 1.9181596668421495e+01 2.8673062384336294e+00 0 0 0
301 2 9.8440000000000012e+00 1.9892026174659335e+01 2.8673062384336294e+00 0 0 0
305 2 1.1074500000000002e+01 1.7760737655945835e+01 2.8673062384336294e+00 0 0 0
333 2 1.1074500000000002e+01 1.9181596668421495e+01 2.8673062384336294e+00 0 0 0
157 2 0.0000000000000000e+00 2.4154603212086325e+01 2.8673062384336294e+00 0 0 0
159 2 0.0000000000000000e+00 2.1312885187134999e+01 2.8673062384336294e+00 0 0 0
161 2 1.2304999999999993e+00 2.2023314693372832e+01 2.8673062384336294e+00 0 0 0
202 2 1.2304999999999993e+00 2.3444173705848499e+01 2.8673062384336294e+00 0 0 0
204 2 2.4610000000000003e+00 2.4154603212086325e+01 2.8673062384336294e+00 0 0 0
206 2 2.4610000000000003e+00 2.1312885187134995e+01 2.8673062384336294e+00 0 0 0
208 2 3.6914999999999996e+00 2.2023314693372832e+01 2.8673062384336294e+00 0 0 0
249 2 3.6915000000000004e+00 2.3444173705848499e+01 2.8673062384336294e+00 0 0 0
251 2 4.9220000000000006e+00 2.4154603212086325e+01 2.8673062384336294e+00 0 0 0
253 2 4.9220000000000006e+00 2.1312885187134995e+01 2.8673062384336294e+00 0 0 0
255 2 6.1524999999999990e+00 2.2023314693372832e+01 2.8673062384336294e+00 0 0 0
291 2 6.1524999999999999e+00 2.3444173705848499e+01 2.8673062384336294e+00 0 0 0
293 2 7.3830000000000009e+00 2.4154603212086336e+01 2.8673062384336294e+00 0 0 0
295 2 7.3829999999999991e+00 2.1312885187134999e+01 2.8673062384336294e+00 0 0 0
297 2 8.6135000000000002e+00 2.2023314693372832e+01 2.8673062384336294e+00 0 0 0
325 2 8.6134999999999984e+00 2.3444173705848499e+01 2.8673062384336294e+00 0 0 0
327 2 9.8440000000000012e+00 2.4154603212086336e+01 2.8673062384336294e+00 0 0 0
329 2 9.8440000000000012e+00 2.1312885187134999e+01 2.8673062384336294e+00 0 0 0
331 2 1.1074500000000002e+01 2.2023314693372832e+01 2.8673062384336294e+00 0 0 0
351 2 1.1074500000000002e+01 2.3444173705848499e+01 2.8673062384336294e+00 0 0 0
94 2 0.0000000000000000e+00 1.2787731112280996e+01 5.8965452261757250e+00 0 0 0
131 2 2.4610000000000003e+00 1.2787731112280996e+01 5.8965452261757250e+00 0 0 0
403 2 0.0000000000000000e+00 1.2787731112280996e+01 8.9257842139184724e+00 0 0 0
404 2 1.2305000000000001e+00 1.3498160618518829e+01 8.9257842139184724e+00 0 0 0
422 2 2.4610000000000003e+00 1.2787731112280996e+01 8.9257842139184724e+00 0 0 0
423 2 3.6915000000000004e+00 1.3498160618518829e+01 8.9257842139184724e+00 0 0 0
92 2 0.0000000000000000e+00 1.4208590124756663e+01 5.8965452261757250e+00 0 0 0
127 2 1.2305000000000001e+00 1.4919019630994494e+01 5.8965452261757250e+00 0 0 0
129 2 2.4610000000000003e+00 1.4208590124756663e+01 5.8965452261757250e+00 0 0 0
172 2 3.6915000000000004e+00 1.4919019630994494e+01 5.8965452261757250e+00 0 0 0
402 2 0.0000000000000000e+00 1.5629449137232333e+01 8.9257842139184724e+00 0 0 0
420 2 1.2305000000000001e+00 1.4919019630994494e+01 8.9257842139184724e+00 0 0 0
421 2 2.4610000000000003e+00 1.5629449137232328e+01 8.9257842139184724e+00 0 0 0
443 2 3.6915000000000004e+00 1.4919019630994494e+01 8.9257842139184724e+00 0 0 0
176 2 4.9220000000000006e+00 1.2787731112280996e+01 5.8965452261757250e+00 0 0 0
223 2 7.3829999999999991e+00 1.2787731112280996e+01 5.8965452261757250e+00 0 0 0
445 2 4.9220000000000006e+00 1.2787731112280996e+01 8.9257842139184724e+00 0 0 0
446 2 6.1524999999999990e+00 1.3498160618518829e+01 8.9257842139184724e+00 0 0 0
469 2 7.3829999999999991e+00 1.2787731112280996e+01 8.9257842139184724e+00 0 0 0
174 2 4.9220000000000006e+00 1.4208590124756663e+01 5.8965452261757250e+00 0 0 0
219 2 6.1524999999999990e+00 1.4919019630994494e+01 5.8965452261757250e+00 0 0 0
221 2 7.3830000000000009e+00 1.4208590124756663e+01 5.8965452261757250e+00 0 0 0
444 2 4.9220000000000006e+00 1.5629449137232333e+01 8.9257842139184724e+00 0 0 0
467 2 6.1524999999999990e+00 1.4919019630994494e+01 8.9257842139184724e+00 0 0 0
468 2 7.3829999999999991e+00 1.5629449137232333e+01 8.9257842139184724e+00 0 0 0
270 2 9.8440000000000012e+00 1.2787731112280996e+01 5.8965452261757250e+00 0 0 0
470 2 8.6135000000000002e+00 1.3498160618518835e+01 8.9257842139184724e+00 0 0 0
493 2 9.8440000000000012e+00 1.2787731112280996e+01 8.9257842139184724e+00 0 0 0
494 2 1.1074500000000002e+01 1.3498160618518829e+01 8.9257842139184724e+00 0 0 0
266 2 8.6135000000000002e+00 1.4919019630994494e+01 5.8965452261757250e+00 0 0 0
268 2 9.8440000000000012e+00 1.4208590124756663e+01 5.8965452261757250e+00 0 0 0
306 2 1.1074500000000002e+01 1.6339878643470161e+01 5.8965452261757250e+00 0 0 0
308 2 1.1074500000000002e+01 1.4919019630994494e+01 5.8965452261757250e+00 0 0 0
310 2 1.2304999999999998e+01 1.4208590124756658e+01 5.8965452261757250e+00 0 0 0
491 2 8.6135000000000002e+00 1.4919019630994494e+01 8.9257842139184724e+00 0 0 0
492 2 9.8440000000000012e+00 1.5629449137232328e+01 8.9257842139184724e+00 0 0 0
512 2 1.1074500000000002e+01 1.4919019630994494e+01 8.9257842139184724e+00 0 0 0
123 2 0.0000000000000000e+00 1.7050308149707998e+01 5.8965452261757250e+00 0 0 0
125 2 1.2305000000000001e+00 1.6339878643470165e+01 5.8965452261757250e+00 0 0 0
168 2 2.4610000000000003e+00 1.7050308149707998e+01 5.8965452261757250e+00 0 0 0
170 2 3.6915000000000004e+00 1.6339878643470165e+01 5.8965452261757250e+00 0 0 0