
# Create simulation box and atoms

read_data data.ML_graphite_m1000atm_255K
  orthogonal box = (0 0 1.44492) to (49.22 49.0196 26.4951)
  4 by 4 by 2 MPI processor grid
  reading atoms ...
  4078 atoms
  reading velocities ...
  4078 velocities
group water type 1
1318 atoms in group water
group graphite type 2
2760 atoms in group graphite

# Define potential

pair_style sw
pair_coeff * * MLC_e.sw mW C


# Fix graphite atoms in place

fix 5 graphite setforce 0.0 0.0 0.0
velocity graphite set 0.0 0.0 0.0


# Equilibration of molecular water

# Add velocity/set timestep

velocity	    water create ${TEMP} ${SEED} rot yes dist gaussian
velocity	    water create 255 ${SEED} rot yes dist gaussian
velocity	    water create 255 30700 rot yes dist gaussian
timestep	    5.0

# Define output

compute			1 water msd
compute			3 water temp
thermo	    	50
thermo_style	custom step temp press vol etotal ke pe c_1[4] c_3

# Neighbor lists

neigh_modify    delay 0 every 1 check yes

# Set fixes

fix             1 water momentum 10 linear 1 1 1 rescale
fix             2 water nve
fix             3 water temp/csvr ${TEMP} ${TEMP} 500.0 ${SEED}
fix             3 water temp/csvr 255 ${TEMP} 500.0 ${SEED}
fix             3 water temp/csvr 255 255 500.0 ${SEED}
fix             3 water temp/csvr 255 255 500.0 30700
fix             4 water press/berendsen z ${PRES} ${PRES} 1000.0 modulus 20000
fix             4 water press/berendsen z -1000 ${PRES} 1000.0 modulus 20000
fix             4 water press/berendsen z -1000 -1000 1000.0 modulus 20000

# Run 0.5 ns equilibration

dump		    1 all atom 2000 ${DIR}/eq.${NAME}-${TEMP}.dump
dump		    1 all atom 2000 run_3/eq.${NAME}-${TEMP}.dump
dump		    1 all atom 2000 run_3/eq.het_freeze_3-${TEMP}.dump
dump		    1 all atom 2000 run_3/eq.het_freeze_3-255.dump

reset_timestep  0

run	            100000
Neighbor list info ...
  update every 1 steps, delay 0 steps, check yes
  max neighbors/atom: 2000, page size: 100000
  master list distance cutoff = 6.67472
  ghost atom cutoff = 6.67472
  binsize = 3.33736, bins = 15 15 8
  1 neighbor lists, perpetual/occasional/extra = 1 0 0
  (1) pair sw, perpetual
      attributes: full, newton on
      pair build: full/bin/atomonly
      stencil: full/bin/3d
      bin: standard
Per MPI rank memory allocation (min/avg/max) = 4.115 | 4.3 | 4.486 Mbytes
Step Temp Press Volume TotEng KinEng PotEng c_1[4] c_3 
       0    82.373068   -1477.0276    60439.688   -12684.867    1001.0603   -13685.928            0          255 
      50    83.336203   -1524.9787    60445.597   -12683.985    1012.7651    -13696.75   0.54373664    257.98155 
     100    82.781978   -1764.3911    60436.087   -12727.854    1006.0297   -13733.883    0.9576195    256.26585 
     150    82.087048   -1593.2726    60425.738   -12738.853    997.58441   -13736.438    1.2020839    254.11458 
     200    85.825255   -1669.0407    60391.853   -12727.059    1043.0139   -13770.073    1.4631273    265.68684 
     250    85.356373    -1210.184    60406.173   -12708.833    1037.3157   -13746.148    1.7204483    264.23533 
     300    82.171248   -1281.4774    60428.451   -12690.863    998.60767   -13689.471    2.0284897    254.37523 
     350    80.911432     -1448.36     60479.15   -12712.006    983.29742   -13695.303    2.2924282    250.47525 
     400    84.940729   -1406.4171    60510.571   -12712.334    1032.2645   -13744.598    2.5209624    262.94863 
     450    84.437374   -1374.2149    60466.137   -12684.853    1026.1474   -13711.001    2.7162863    261.39041 
     500    81.706947   -1359.8801    60519.005   -12716.904    992.96513   -13709.869    2.7690605    252.93791 
     550    80.750647   -1320.3711    60485.085   -12729.593    981.34344   -13710.937    2.8539324    249.97751 
     600    81.359725   -842.78948    60493.697   -12759.687    988.74542   -13748.432    3.0542924    251.86302 
     650    82.252623   -1256.5656    60573.844   -12733.784     999.5966    -13733.38    3.2036095    254.62714 
     700    81.437686    -1622.928    60570.061    -12742.97    989.69287   -13732.663    3.2794779    252.10436 
     750     84.39244   -1633.2174    60485.616   -12743.461    1025.6013   -13769.063    3.3814885    261.25131 
     800    80.397017   -1552.5901    60460.157   -12725.426    977.04586   -13702.472    3.5597463    248.88279 
     850    82.198173   -1554.2626    60454.422   -12759.029    998.93488   -13757.964    3.6837015    254.45858 
     900    81.578935   -1695.2481    60438.234   -12764.357    991.40943   -13755.766    3.8679788    252.54162 
     950    81.707874    -1301.398    60389.073   -12765.352    992.97639   -13758.328    3.9939889    252.94077 
    1000    81.436589   -1622.7214    60388.637   -12760.014    989.67953   -13749.693    4.1371997    252.10097 
    1050      84.7069   -1367.0634    60354.551   -12721.247    1029.4228    -13750.67    4.3481175    262.22478 
    1100    82.391002   -1190.8605    60334.163   -12719.494    1001.2783   -13720.772    4.5528496    255.05552 
    1150    79.348593   -1059.7161    60301.056   -12749.136    964.30461   -13713.441    4.6803742    245.63722 
    1200    82.769099    -1285.018    60318.687   -12730.355    1005.8732   -13736.228    4.8957971    256.22598 
    1250    80.591788   -1501.7595    60357.996   -12742.936    979.41286   -13722.349    5.1249641    249.48574 
    1300    79.156878   -1572.0111    60286.145   -12748.873    961.97474   -13710.848    5.2317478    245.04373 
    1350    84.799809   -1272.0753    60294.499   -12736.736    1030.5519   -13767.287    5.2932954    262.51239 
    1400    86.308918   -1519.4847    60298.604   -12687.642    1048.8918   -13736.534    5.3832373     267.1841 
    1450    83.171948   -1379.9928    60319.859   -12723.289    1010.7689   -13734.058    5.6262013    257.47307 
    1500    81.048544   -1392.4607    60271.145   -12741.631    984.96371   -13726.595    5.9150121    250.89971 
    1550    82.061923   -1297.4896    60288.754   -12714.599    997.27907   -13711.878    6.2146631     254.0368 
    1600    83.800635   -1600.3885    60281.814   -12695.085    1018.4092   -13713.494    6.3587137    259.41928 
    1650    79.542597   -1014.8037    60257.657   -12707.614     966.6623   -13674.277    6.5638454    246.23779 
    1700    83.620819   -1211.9018     60254.86   -12683.159     1016.224   -13699.383    6.7729163    258.86263 
    1750    81.703014   -1296.8426     60269.46   -12685.944    992.91733   -13678.861    6.9825806    252.92573 
    1800    81.986011   -1292.2118    60274.662   -12738.053    996.35653    -13734.41    6.9839282     253.8018 
    1850    81.899173     -1593.79    60266.683   -12742.954     995.3012   -13738.256    7.0702115    253.53298 
    1900    81.922075   -1610.2378    60201.744   -12734.703    995.57953   -13730.283    7.3870862    253.60387 
    1950    77.932132   -1445.3988    60217.704   -12746.071     947.0907   -13693.161    7.5781735    241.25232 
    2000    81.299669   -1554.2523    60233.618   -12754.822    988.01558   -13742.837     7.626104    251.67711 
    2050    83.355962   -1495.6129    60214.561   -12706.246    1013.0052   -13719.251    7.9637172    258.04272 
    2100    84.984677    -1312.332     60244.32   -12679.285    1032.7986   -13712.083    8.1829284    263.08468 
    2150    82.941086   -1081.6387    60245.799   -12698.194    1007.9633   -13706.157    8.4539495    256.75839 
    2200    82.794823   -1096.9356     60275.76   -12694.257    1006.1858   -13700.443    8.5800524    256.30561 
    2250    82.733941   -1008.4438    60363.126   -12700.975    1005.4459   -13706.421    8.8314975    256.11714 
    2300    81.683238   -1251.2024    60407.046   -12707.287    992.67699   -13699.964    9.0772519    252.86451 
    2350    81.450991   -1316.4459    60409.511   -12715.389    989.85456   -13705.244     9.426884    252.14555 
    2400    81.565217   -1796.5122    60414.602   -12699.557    991.24272     -13690.8    9.5792421    252.49916 
    2450    80.309395   -1521.9362    60321.066   -12717.456      975.981   -13693.437    9.6923676    248.61154 
    2500    81.921218   -1545.2879    60240.513   -12735.888    995.56911   -13731.457    9.8180579    253.60122 
    2550     82.20401   -1093.1954     60220.94   -12716.734    999.00582    -13715.74    9.7651431    254.47665 
    2600    78.713473   -1460.7472    60251.084   -12730.682    956.58615   -13687.268    9.9244505    243.67109 
    2650    80.912922   -1462.6472    60306.053   -12738.888    983.31553   -13722.204    10.161046    250.47987 
    2700    80.552652   -1400.8963    60318.156   -12739.218    978.93726   -13718.155    10.295339    249.36459 
    2750    79.767051   -1566.5429    60335.868   -12753.615    969.39003   -13723.005    10.465162    246.93262 
    2800     82.10511   -1573.0613    60343.676   -12736.081     997.8039   -13733.884    10.688506    254.17049 
    2850    78.734035   -1474.2887    60333.748   -12737.014    956.83603    -13693.85    10.786125    243.73475 
    2900     83.76605   -1276.3631     60311.67   -12701.308    1017.9889   -13719.297    11.027863    259.31221 
    2950    84.502723   -1340.6381    60318.351   -12664.467    1026.9415   -13691.409    11.187653    261.59271 
    3000    84.183185   -1605.9172    60334.592    -12670.88    1023.0583   -13693.938    11.330272    260.60353 
    3050    82.515054   -1593.8807    60328.376   -12668.484    1002.7859    -13671.27    11.660891    255.43954 
    3100    82.369452   -1666.8818    60330.234   -12709.061    1001.0164   -13710.077    11.723742    254.98881 
    3150    81.837427   -1652.1377    60294.605   -12706.596    994.55082   -13701.147    11.959564    253.34183 
    3200    83.784914   -1755.5222    60272.319   -12676.377    1018.2182   -13694.595    12.064572    259.37061 
    3250     81.97595   -1405.5716    60202.927   -12695.588    996.23425   -13691.822    12.382892    253.77065 
    3300    82.741673   -1305.7469    60144.461   -12696.468    1005.5399   -13702.008    12.619607    256.14108 
    3350    84.313785   -936.65761    60176.022   -12649.125    1024.6454    -13673.77    12.872809    261.00782 
    3400     82.44919   -1435.2494    60237.861    -12678.99    1001.9854   -13680.975    13.045264    255.23565 
    3450    81.976954   -1360.1275    60264.641   -12670.934    996.24646    -13667.18     13.33971    253.77376 
    3500    84.397521   -1478.6071     60220.43   -12662.912     1025.663   -13688.575    13.700416    261.26704 
    3550    85.408254   -1121.4399    60139.537   -12645.629    1037.9462   -13683.575    13.834196    264.39594 
    3600    82.988988   -1388.3555     60164.89   -12658.476    1008.5455   -13667.022    13.981874    256.90669 
    3650    82.670343   -1484.6324     60197.72   -12645.038    1004.6731   -13649.711    13.932271    255.92027 
    3700    85.662042   -1334.3305    60229.867   -12645.916    1041.0305   -13686.947    14.118357    265.18158 
    3750    84.316623   -1219.9864     60286.51   -12646.265    1024.6799   -13670.945     14.18092    261.01661 
    3800    86.040083   -1622.9364    60262.495   -12624.097    1045.6247   -13669.722    14.188368    266.35187 
    3850    81.664953   -1247.3903    60261.923   -12624.693    992.45478   -13617.148    14.186923    252.80791 
    3900    84.638128   -1481.5519    60306.154   -12643.968    1028.5871   -13672.555    14.535088    262.01188 
    3950    86.644376   -1811.4274     60269.73   -12641.266    1052.9685   -13694.235    14.523366    268.22257 
    4000    84.091422   -1495.4213    60278.452   -12667.072    1021.9431   -13689.015     14.89999    260.31946 
    4050    83.946504   -1863.2328    60252.088   -12666.541    1020.1819   -13686.723    15.217511    259.87084 
    4100    81.792584   -1389.7226    60275.417   -12672.024    994.00586   -13666.029    15.605341    253.20301 
    4150      83.0901   -1730.8147    60244.494   -12675.155    1009.7743   -13684.929    15.898004    257.21969 
    4200    83.309791   -1427.2246    60262.136   -12654.137    1012.4441   -13666.581    16.372357    257.89978 
    4250    82.961367   -1274.4832    60246.702   -12662.714    1008.2098   -13670.923    16.719203    256.82118 
    4300    85.336416   -930.85158    60308.502   -12643.722    1037.0732   -13680.795    16.813708    264.17355 
    4350    82.354938   -1551.7577    60342.602   -12684.956      1000.84   -13685.796    16.863472    254.94387 
    4400    83.449671    -1297.776    60353.295   -12654.449     1014.144   -13668.593    16.925319    258.33281 
    4450    84.610861   -1541.3171    60312.377   -12677.025    1028.2557   -13705.281    17.125313    261.92747 
    4500    84.206271    -1400.098     60282.88   -12676.158    1023.3388   -13699.497    17.296729    260.67499 
    4550    83.431258   -1350.5432    60282.235   -12708.821    1013.9203   -13722.741    17.579408    258.27581 
    4600    81.048571   -1578.0627    60254.948   -12714.327    984.96404   -13699.291    17.872117    250.89979 
    4650    81.458489   -1414.2149    60215.876   -12751.626    989.94568   -13741.572    18.056344    252.16876 
    4700    79.804933   -1355.7006    60186.555   -12718.853     969.8504   -13688.703     18.30755     247.0499 
    4750    82.799825   -1231.6335    60270.506   -12677.075    1006.2466   -13683.322    18.348444     256.3211 
    4800    83.325304   -1118.3209    60282.828   -12700.623    1012.6326   -13713.256    18.384217    257.94781 
    4850    80.636355   -1169.5787    60269.641    -12723.24    979.95448   -13703.195    18.613858     249.6237 
    4900    83.345888   -1295.7988    60279.574   -12725.896    1012.8828   -13738.779    18.569167    258.01153 
    4950    82.464756   -1331.0333    60250.653   -12715.427    1002.1746   -13717.602    18.837171    255.28383 
    5000    81.838102   -1274.6537    60239.998   -12727.289    994.55902   -13721.848    19.242503    253.34392 
    5050    81.065652   -1329.1387    60273.881   -12703.448    985.17163   -13688.619    19.616729    250.95267 
    5100    82.780638   -1540.7605    60288.956   -12703.702    1006.0134   -13709.716    19.928326     256.2617 
    5150    83.371482   -1408.9225    60296.803   -12699.212    1013.1938   -13712.406    20.098864    258.09076 
    5200    82.635842   -1790.4106    60299.602   -12723.227    1004.2538    -13727.48    20.400679    255.81346 
    5250    82.641728   -1000.1275    60319.291   -12684.271    1004.3253   -13688.597    20.803504    255.83168 
    5300    83.216079   -1315.2978    60304.916   -12684.484    1011.3052   -13695.789    20.947004    257.60968 
    5350    82.595105   -1194.8558    60352.578   -12719.397    1003.7587   -13723.155     21.17661    255.68735 
    5400    83.129907   -1266.1529    60330.696   -12730.606     1010.258   -13740.864    21.381656    257.34292 
    5450    81.421724   -1393.2124    60329.317   -12719.668    989.49887   -13709.167    21.473268    252.05495 
    5500    82.698057   -1305.9494     60352.69   -12704.585    1005.0098   -13709.595    21.628696    256.00606 
    5550    85.560245   -1355.3966    60300.065   -12687.974    1039.7933   -13727.768    21.695794    264.86645 
    5600    81.086161   -1503.8845    60264.839   -12751.095    985.42086   -13736.516    21.904515    251.01616 
    5650      84.4331   -1340.0516    60252.063   -12732.693    1026.0954   -13758.789    22.121961    261.37718 
    5700    85.328438   -1051.5032    60281.434   -12745.535    1036.9762   -13782.512    22.263727    264.14886 
    5750     81.61333   -1312.9754    60305.056   -12715.822    991.82742    -13707.65    22.502828     252.6481 
    5800    83.625822   -1558.5527    60333.036   -12715.027    1016.2848   -13731.312    22.455017    258.87811 
    5850     83.80554   -1511.3451    60383.417   -12699.979    1018.4688   -13718.448    22.460924    259.43446 
    5900    81.435256   -1856.3389    60382.323   -12701.204    989.66333   -13690.867     22.61887    252.09684 
    5950    84.734969   -1447.6452    60361.474   -12669.463     1029.764   -13699.227    22.650618    262.31167 
    6000    83.278252   -1561.1045    60347.615   -12704.104    1012.0608   -13716.165    22.682898    257.80215 
    6050    83.611521    -1307.414    60354.085   -12692.875     1016.111   -13708.986    23.067743    258.83384 
    6100    81.455728    -1749.831    60289.262   -12733.218    989.91213   -13723.131    23.308194    252.16022 
    6150    81.226758   -1547.0445    60260.752   -12720.426    987.12951   -13707.555    23.390121     251.4514 
    6200    81.571376   -1423.1722    60296.684   -12709.539    991.31756   -13700.856    23.758004    252.51822 
    6250    83.780401   -1654.7344    60338.892    -12667.32    1018.1633   -13685.484    23.893248    259.35664 
    6300    82.944371   -1437.3786    60398.522   -12684.737    1008.0032   -13692.741    23.817147    256.76856 
    6350    83.085062   -1554.5346    60403.194   -12673.916     1009.713   -13683.629    23.977101     257.2041 
    6400    83.823442   -1461.1733    60435.226   -12668.835    1018.6864   -13687.521    24.187496    259.48988 
    6450    83.971981   -1416.8881      60431.8   -12674.772    1020.4915   -13695.263    24.461724    259.94971 
    6500      82.5352   -1122.8839    60478.962    -12680.08    1003.0307   -13683.111    24.748008    255.50191 
    6550    84.046925   -1529.8106    60478.483   -12681.787    1021.4023    -13703.19    24.754856    260.18171 
    6600    84.068177   -1595.2027    60483.472   -12699.146    1021.6606   -13720.807    24.726308     260.2475 
    6650    81.577102   -1367.4001    60454.885    -12726.34    991.38715   -13717.727    24.803026    252.53595 
    6700    83.360893   -1682.9272    60409.868   -12742.995    1013.0651    -13756.06    24.787149    258.05798 
    6750    82.439472   -1212.5369    60385.454   -12716.484    1001.8673   -13718.351    24.782983    255.20556 
    6800    85.363358   -1664.0461    60354.265   -12715.154    1037.4006   -13752.555    24.881237    264.25696 
    6850    78.936801   -1095.7244    60361.255   -12762.055    959.30021   -13721.355    25.298372    244.36244 
    6900    82.786587   -1167.5389    60366.407   -12725.386    1006.0857   -13731.471    25.538576    256.28012 
    6950    82.685658   -921.02098    60445.396   -12740.986    1004.8592   -13745.845    25.694606    255.96768 
    7000    80.325167   -1524.0002    60504.872   -12752.829    976.17269   -13729.002    25.886881    248.66037 
    7050     85.08484   -1551.8946    60530.835   -12712.736    1034.0159   -13746.752     26.12689    263.39476 
    7100    82.644632    -1420.923    60544.096   -12742.504    1004.3606   -13746.864    26.427803    255.84067 
    7150    79.827259   -1446.7902    60599.094   -12760.533    970.12172   -13730.654    26.589655    247.11901 
    7200    80.239849   -1811.1129    60633.247   -12734.081    975.13584   -13709.217     26.63154    248.39625 
    7250    82.624606   -1253.4926    60647.629   -12719.669    1004.1172   -13723.787    27.024835    255.77868 
    7300    82.219562   -1444.9349    60726.422   -12719.128    999.19482   -13718.323    27.182347    254.52479 
    7350    82.098546   -1666.5487    60743.012   -12734.904    997.72414   -13732.628    27.302663    254.15017 
    7400    81.347535    -1665.191    60725.021   -12743.616    988.59728   -13732.213    27.613489    251.82529 
    7450    81.599852   -1906.3049    60701.148   -12731.989    991.66363   -13723.652    28.049495    252.60638 
    7500    77.790025    -1629.192    60670.165   -12739.033    945.36371   -13684.397    28.361761     240.8124 
    7550    83.354524   -1587.9359    60654.302   -12697.222    1012.9877   -13710.209    28.716006    258.03827 
    7600    80.283584   -1253.6063    60645.896    -12665.16    975.66734   -13640.828      29.0958    248.53164 
    7650    80.654434   -1776.6055    60606.953   -12665.552    980.17418   -13645.726    29.209157    249.67967 
    7700    83.480815   -1410.1688    60583.284   -12670.901    1014.5225   -13685.423    29.132582    258.42922 
    7750    82.855765   -1955.9366    60533.946   -12652.424    1006.9264    -13659.35    29.438421    256.49427 
    7800    82.018259   -1301.9035    60428.798   -12652.584    996.74842   -13649.332    30.027312    253.90163 
    7850    84.005457   -1543.2202    60401.185   -12651.149    1020.8984   -13672.047    30.078566    260.05334 
    7900    81.756487   -1469.3478    60357.398   -12660.437    993.56718   -13654.004     30.30923    253.09127 
    7950    82.878501   -1434.8131    60419.337   -12648.445    1007.2027   -13655.648    30.406685    256.56465 
    8000    85.036009   -1349.1462     60411.63   -12657.388    1033.4224    -13690.81    30.269551    263.24359 
    8050    83.681982   -1533.3663    60403.221   -12664.067    1016.9673   -13681.035    30.600043    259.05197 
    8100     83.31902   -1617.0316    60391.115   -12635.129    1012.5563   -13647.686    30.813762    257.92836 
    8150    82.774175   -1519.0217    60360.256   -12645.289    1005.9349   -13651.224    31.061402    256.24169 
    8200    85.020356   -1343.4677    60336.618   -12624.444    1033.2322   -13657.676    31.086836    263.19513 
    8250    80.769738    -1295.923    60379.023   -12630.872    981.57545   -13612.447    31.298469    250.03662 
    8300    81.267565    -1714.594    60423.357   -12647.493    987.62542   -13635.119    31.346902    251.57772 
    8350    81.526223   -1613.9529    60429.353   -12650.616    990.76883   -13641.384    31.572144    252.37844 
    8400    86.212446   -1487.7124    60413.272   -12651.677    1047.7194   -13699.397     32.01283    266.88545 
    8450    80.262898   -1451.3783    60318.037    -12660.74    975.41594   -13636.156    32.329214     248.4676 
    8500    83.659111   -1014.6359     60379.55   -12681.545    1016.6893   -13698.234    32.439539    258.98116 
    8550     81.83044    -1459.408    60432.487    -12673.13    994.46591   -13667.596    32.474166     253.3202 
    8600    81.084238   -1498.4541    60438.188    -12674.15    985.39749   -13659.547     32.54529     251.0102 
    8650    82.832189   -1431.8347     60473.07   -12674.116    1006.6399   -13680.756    32.507034    256.42129 
    8700    82.698815   -1477.6782    60463.625   -12694.231    1005.0191    -13699.25    32.717151     256.0084 
    8750    82.454574   -1435.4365    60426.925   -12681.677    1002.0509   -13683.728    32.972546    255.25231 
    8800    81.392115   -1154.5439    60430.269    -12686.59    989.13905   -13675.729    33.062813    251.96329 
    8850    85.948462    -1536.841    60457.662   -12675.348    1044.5113   -13719.859    33.496689    266.06825 
    8900    80.614553   -1333.1493    60461.552   -12705.724    979.68952   -13685.413    33.545457    249.55621 
    8950    82.062654    -1520.424     60453.31   -12698.672    997.28795    -13695.96     33.97404    254.03906 
    9000    79.077169   -1321.5176    60423.366   -12716.479    961.00606   -13677.485    34.103003    244.79698 
    9050    81.982152   -1145.5816    60456.277   -12726.624    996.30962   -13722.934    34.456469    253.78985 
    9100    83.855292    -1259.393    60454.633    -12714.47    1019.0735   -13733.544    34.638989    259.58848 
    9150    79.303085   -1487.4779    60498.377   -12716.672    963.75156   -13680.424    34.602589    245.49634 
    9200    81.878667   -1507.5434    60469.033   -12722.529      995.052   -13717.581    34.582842    253.46949 
    9250    78.317377   -1192.4501    60489.293   -12740.054    951.77249   -13691.826    34.859037    242.44491 
    9300    83.273323   -1141.5232     60543.58   -12728.511    1012.0009   -13740.512    34.940815    257.78689 
    9350    80.518451   -1519.7029    60581.427   -12732.696    978.52162   -13711.218    35.432172    249.25871 
    9400    80.925501    -1480.811     60566.01    -12720.62    983.46841   -13704.088    35.650768    250.51881 
    9450    82.565141   -1678.6294    60537.581   -12709.974    1003.3946   -13713.368    35.742884    255.59459 
    9500    82.022302   -1572.2013    60484.769   -12694.056    996.79756   -13690.853    35.864637    253.91414 
    9550    81.563047   -1716.8129    60450.597   -12682.066    991.21634   -13673.283    36.194004    252.49244 
    9600    81.517493   -1431.1657     60420.99    -12684.87    990.66273   -13675.532    36.727792    252.35142 
    9650    82.040114   -1561.9213    60390.828   -12697.351    997.01403   -13694.365    36.801505    253.96928 
    9700     83.63751   -1149.1808    60401.863   -12674.108    1016.4268   -13690.535    36.957869     258.9143 
    9750    80.525648   -1246.7004    60397.898   -12728.496    978.60908   -13707.105    37.225677    249.28099 
    9800    80.874905    -1370.204    60374.998   -12752.257    982.85352   -13735.111    37.280835    250.36218 
    9850    82.433359   -1173.4389    60420.627   -12744.941     1001.793   -13746.734    37.333758    255.18664 
    9900     80.54236   -1453.2148    60459.912   -12737.557    978.81218   -13716.369    37.331617    249.33273 
    9950    82.187333   -1180.6122    60504.104   -12742.273    998.80314   -13741.076    37.122347    254.42502 
   10000     82.57094   -1233.6101    60446.675   -12739.162     1003.465   -13742.627    37.389999    255.61255 
   10050    78.904886   -1108.7105    60460.885   -12745.303    958.91235   -13704.216    37.420619    244.26365 
   10100    83.195959   -1145.7699    60440.128   -12708.133    1011.0607   -13719.194    37.346285     257.5474 
   10150    82.935922   -1536.1839    60464.143   -12725.264    1007.9006   -13733.165    37.631169    256.74241 
   10200    78.135949   -1875.5586    60436.713   -12722.441    949.56764   -13672.009    37.664626    241.88327 
   10250    81.082645    -2014.148    60372.903   -12723.784    985.37813   -13709.162     38.00452    251.00527 
   10300    81.152785   -1424.7484    60311.162   -12676.136    986.23052   -13662.366    38.340373     251.2224 
   10350    84.128885    -1702.082    60268.598   -12673.146    1022.3984   -13695.544      38.4044    260.43543 
   10400    83.870777   -1501.8269    60274.339    -12657.69    1019.2616   -13676.951    38.684971    259.63641 
   10450    82.705277   -1434.7092    60301.634   -12611.459    1005.0976   -13616.556    38.930392    256.02841 
   10500    81.294622   -1621.3245    60335.258   -12619.762    987.95424   -13607.716    39.046388    251.66148 
   10550    81.923795   -1597.2139    60338.713   -12636.065    995.60043   -13631.666    38.955178     253.6092 
   10600    81.667686   -1801.8608    60388.706   -12643.007      992.488   -13635.495    38.851882    252.81637 
   10650    86.043618   -1251.9183    60354.484   -12646.809    1045.6677   -13692.477    38.880664    266.36282 
   10700    86.758432   -1380.9005    60358.343    -12642.46    1054.3546   -13696.815    39.014713    268.57565 
   10750     89.11681   -1615.0633    60335.965    -12633.31    1083.0154   -13716.325    39.291216    275.87641 
   10800    83.868842   -1208.4429     60342.91   -12649.547    1019.2381   -13668.785    39.478499    259.63042 
   10850    83.456205   -1467.2366    60312.312   -12660.918    1014.2234   -13675.141    39.876368    258.35304 
   10900    82.967834   -1344.8953    60291.968   -12669.224    1008.2884   -13677.513    39.967028     256.8412 
   10950    83.323123   -1633.2297    60291.979   -12639.925    1012.6061   -13652.531    40.035802    257.94106 
   11000    81.365161   -1548.6364    60293.591   -12686.159    988.81148    -13674.97    40.072622    251.87985 
   11050    83.279283   -1604.1697    60303.751   -12672.254    1012.0734   -13684.327    40.266642    257.80534 
   11100     85.14506   -1643.7331    60308.906   -12650.396    1034.7477   -13685.144    40.761458    263.58118 
   11150    84.953512   -1291.1683    60325.183   -12636.686    1032.4199   -13669.105    40.811384    262.98821 
   11200    85.522278   -1440.7466     60375.09   -12627.975    1039.3319   -13667.307     41.35957    264.74892 
   11250    83.663183   -1767.3645    60383.339   -12653.942    1016.7388   -13670.681    41.355365    258.99377 
   11300    80.587742   -1466.2835    60374.697   -12659.536     979.3637     -13638.9    41.618899    249.47322 
   11350    81.155956   -1611.0619     60416.19   -12667.775    986.26906   -13654.044     41.54431    251.23222 
   11400    82.582669   -1482.9368    60435.355   -12669.379    1003.6076   -13672.987    41.603708    255.64885 
   11450    82.511245   -1669.6428    60445.869   -12675.262    1002.7396   -13678.002    41.499266    255.42775 
   11500    83.049399   -1134.6805    60474.434   -12650.042    1009.2796   -13659.322    41.778891     257.0937 
   11550    81.931455   -1585.4701    60485.951   -12639.292    995.69352   -13634.986    42.026158    253.63291 
   11600    83.700937   -1551.5695    60454.765   -12634.234    1017.1976   -13651.432     42.33618    259.11065 
   11650    84.025309   -1764.5983    60443.329   -12633.854    1021.1396   -13654.993     42.29131     260.1148 
   11700    81.666095   -1360.3348    60383.136    -12662.69    992.46867   -13655.159    42.488311    252.81144 
   11750    84.503808   -1368.4706    60375.429   -12640.887    1026.9547   -13667.842    42.905801    261.59607 
   11800     84.35259   -1621.4837     60337.48   -12650.088     1025.117   -13675.205    43.150428    261.12795 
   11850    83.140175   -1693.6574     60292.51    -12633.07    1010.3828   -13643.453    43.331848    257.37471 
   11900    80.778392   -1750.8321    60249.043   -12651.647    981.68062   -13633.327    43.325165    250.06341 
   11950    87.277865   -1720.4031    60220.319   -12649.449    1060.6672   -13710.116    43.382122    270.18364 
   12000    80.919802    -1701.062    60197.925   -12656.429    983.39914   -13639.828    43.669256    250.50116 
   12050    82.823467   -1585.3832    60193.633   -12666.256    1006.5339    -13672.79    43.702335    256.39429 
   12100    83.756253   -1775.8655    60212.828   -12689.673    1017.8699   -13707.543    43.968602    259.28189 
   12150    81.543644   -1637.1214    60173.487   -12710.664    990.98054   -13701.644    44.117341    252.43237 
   12200    79.021841   -1285.9114    60187.364   -12731.416    960.33367    -13691.75    43.998092     244.6257 
   12250    82.661101   -1471.8854    60190.793   -12700.213    1004.5607   -13704.774    44.442551    255.89166 
   12300    81.509501    -1735.575    60169.537   -12683.644    990.56561   -13674.209    44.649038    252.32668 
   12350    83.142888   -1535.2411    60202.169   -12688.458    1010.4158   -13698.873    45.068278    257.38311 
   12400    79.293761   -1437.8763    60244.814   -12696.536    963.63825   -13660.174    45.135966    245.46748 
   12450    82.423856   -1307.3586    60278.347   -12691.707    1001.6776   -13693.384    45.036361    255.15722 
   12500    81.305495   -1504.8904    60261.325   -12656.573    988.08638   -13644.659    45.133001    251.69514 
   12550    79.893551   -1404.8039    60254.293   -12701.507    970.92736   -13672.435    45.345312    247.32423 
   12600    79.160816   -1083.3977    60281.031   -12721.314    962.02261   -13683.336    45.670875    245.05592 
   12650    79.098004     -1385.04    60301.713   -12706.065    961.25927   -13667.324    46.125731    244.86148 
   12700     82.07782   -1567.2148    60318.089     -12728.8    997.47226   -13726.272    46.329367    254.08601 
   12750    79.658684   -1540.0118    60316.122   -12746.233    968.07308   -13714.306    46.538536    246.59716 
   12800    79.532088   -1284.0035    60312.776   -12743.666    966.53458     -13710.2     46.63479    246.20526 
   12850    84.054184   -1666.0998    60321.085   -12715.681    1021.4905   -13737.171    46.955893    260.20418 
   12900    82.951125   -1113.3795    60311.568    -12714.67    1008.0853   -13722.755    47.247158    256.78947 
   12950    82.220207   -1621.0965    60360.459   -12696.771    999.20266   -13695.974    47.602294    254.52679 
   13000    82.012947   -1294.4501     60343.43   -12704.782    996.68388   -13701.466    47.501474    253.88518 
   13050    79.795603   -1355.9159    60374.357   -12721.181    969.73702   -13690.918    47.727256    247.02101 
   13100    82.329644   -1768.5698    60334.058   -12734.253    1000.5326   -13734.786    47.624966    254.86557 
   13150    83.121459   -1482.9172    60349.438   -12711.663    1010.1554   -13721.818    47.416726    257.31677 
   13200    79.691463   -1212.8219    60325.818   -12690.069    968.47143   -13658.541    47.279616    246.69863 
   13250    84.306582   -1511.0732    60389.245   -12689.592    1024.5579    -13714.15    47.622631    260.98552 
   13300    82.246986   -1217.2066    60440.068    -12671.74    999.52809   -13671.268    48.041165    254.60969 
   13350    83.093806   -1300.2089     60443.99   -12691.815    1009.8193   -13701.634    48.276307    257.23117 
   13400    83.625523   -1497.2986    60438.081   -12657.537    1016.2811   -13673.818    48.372381    258.87719 
   13450    85.463578   -1584.9702    60411.718   -12653.599    1038.6186   -13692.217    48.050245     264.5672 
   13500    82.355159   -1395.3211    60384.249   -12675.447    1000.8427   -13676.289    48.026052    254.94456 
   13550    80.083151   -1423.1194    60357.837   -12680.955    973.23152   -13654.186    48.386988    247.91117 
   13600    81.597375   -1320.9388    60304.611   -12653.051    991.63352   -13644.685    48.575174    252.59871 
   13650    84.258331   -1563.2838    60312.839   -12680.579    1023.9715   -13704.551     48.83408    260.83615 
   13700    81.765517   -1193.3541    60362.087   -12703.967    993.67691   -13697.644    49.635617    253.11922 
   13750     80.14245   -1461.1607    60358.651   -12696.885    973.95217   -13670.837    49.986189    248.09474 
   13800    81.945803   -1152.1458    60393.315   -12682.114    995.86788   -13677.982    49.886969    253.67733 
   13850    81.869613   -1337.7484    60409.944   -12707.522    994.94197   -13702.464    50.035736    253.44147 
   13900    82.235814   -1251.0245    60400.397   -12734.129    999.39233   -13733.521    49.647789    254.57511 
   13950    79.209831   -1412.1765    60387.402   -12693.108    962.61826   -13655.726    49.845392    245.20765 
   14000    80.499938    -1275.132    60396.516   -12694.366    978.29663   -13672.662    49.596975     249.2014 
   14050     83.87041   -1317.6561    60391.782   -12663.615    1019.2572   -13682.872    50.135013    259.63528 
   14100    83.389097    -1626.016    60413.149   -12655.658    1013.4079   -13669.066    50.261468    258.14529 
   14150     81.11535   -1555.7093     60381.75   -12666.419    985.77559   -13652.195    50.582196    251.10652 
   14200    83.737611   -1253.6636    60349.706   -12683.087    1017.6433    -13700.73    51.043554    259.22417 
   14250    83.771341   -1664.7133    60351.873   -12667.574    1018.0532   -13685.627    51.353828    259.32859 
   14300    83.992233   -1148.7426     60349.05   -12648.333    1020.7377   -13669.071    52.102648     260.0124 
   14350    84.296239   -1279.8347    60390.203   -12639.346    1024.4322   -13663.778     52.51356    260.95351 
   14400     86.26706   -1316.4934    60420.028    -12617.03    1048.3831   -13665.413    52.687328    267.05452 
   14450    83.330037   -1712.2291    60395.425   -12633.384    1012.6902   -13646.074    53.004269    257.96246 
   14500     83.44377   -1348.5487    60388.772   -12634.977    1014.0723    -13649.05     53.06136    258.31454 
   14550    85.158966   -1619.4084    60389.483   -12642.224    1034.9167   -13677.141    53.076817    263.62422 
   14600    84.922805   -1922.6998    60366.791   -12651.821    1032.0467   -13683.867    52.948454    262.89315 
   14650    85.178166   -1283.3544    60351.463   -12649.205      1035.15   -13684.355    53.533362    263.68366 
   14700    83.781545   -1145.9763    60391.966   -12677.413    1018.1772    -13695.59    53.946961    259.36018 
   14750     84.94217   -1266.6061    60414.009   -12689.261     1032.282   -13721.543    54.078595    262.95309 
   14800    83.441562   -1186.1063    60459.484   -12712.705    1014.0455    -13726.75    54.287698    258.30771 
   14850    83.445737   -1171.1049    60563.413   -12713.237    1014.0962   -13727.333    54.510777    258.32063 
   14900    79.666147   -1418.5793    60542.519   -12729.514    968.16377   -13697.677    54.614084    246.62026 
   14950    82.504767   -1545.7814    60523.324   -12752.296    1002.6608   -13754.957    54.490889    255.40769 
   15000    81.405578   -1327.4078    60491.953   -12735.799    989.30266   -13725.101    54.545915    252.00497 
   15050    82.829448   -1660.7106     60530.13   -12691.597    1006.6066   -13698.204    54.671963     256.4128 
   15100    84.589085   -1259.3548    60547.598   -12690.102    1027.9911   -13718.093    54.686103    261.86006 
   15150    83.573472   -1740.4457    60535.303   -12718.085    1015.6486   -13733.734    54.671486    258.71606 
   15200    83.777739   -1490.4728    60529.613   -12715.661     1018.131   -13733.792    54.621109     259.3484 
   15250    82.112571   -1472.8786    60511.953    -12738.75    997.89458   -13736.644    55.086941    254.19358 
   15300     79.82908   -1464.0044    60473.274   -12717.344    970.14385   -13687.488    55.350608    247.12465 
   15350    81.753121   -1313.4109    60478.731   -12716.768    993.52627   -13710.294    55.504927    253.08085 
   15400    85.577324   -1451.1945    60466.905    -12707.99    1040.0009    -13747.99    55.344195    264.91933 
   15450    83.312824   -1670.8719    60512.515   -12689.671     1012.481   -13702.152    55.669135    257.90918 
   15500     84.15971   -1191.1237    60491.754   -12687.699     1022.773   -13710.472    56.272596    260.53086 
   15550     81.31596   -1631.2529    60468.769   -12706.131    988.21356   -13694.345    56.475886    251.72754 
   15600    83.944161   -1254.8886    60497.761   -12707.302    1020.1535   -13727.456    56.698096    259.86359 
   15650    81.439515   -1663.5578    60486.141   -12693.007    989.71509   -13682.722    56.991253    252.11002 
   15700    83.839636   -1227.9266    60504.763   -12655.423    1018.8832   -13674.306    57.470571    259.54001 
   15750    81.788864    -1384.587    60481.398   -12655.251    993.96064   -13649.211    57.782653    253.19149 
   15800    88.968991   -971.09134     60488.13   -12652.238     1081.219   -13733.457     57.67441    275.41881 
   15850    81.972464   -1368.6774    60447.956   -12679.601    996.19189   -13675.793    58.262847    253.75986 
   15900      82.3625   -1429.8412    60434.641    -12695.89    1000.9319   -13696.822    58.221137    254.96728 
   15950    82.407002   -1214.9946    60418.582   -12686.316    1001.4727   -13687.788    58.132412    255.10505 
   16000    85.546226   -1216.4301    60402.482   -12682.142     1039.623   -13721.765    58.273765    264.82305 
   16050    85.066231   -1657.4694    60405.243   -12685.535    1033.7897   -13719.325    58.574616    263.33715 
   16100    82.092898   -1549.8578    60330.366   -12731.761     997.6555   -13729.416    59.225216    254.13268 
   16150    83.309174   -1587.5748     60313.42   -12739.666    1012.4366   -13752.102    59.200336    257.89788 
   16200     85.24711   -1292.5859    60367.699   -12731.367    1035.9879   -13767.355    59.463641    263.89709 
   16250    80.213898   -1489.2978    60403.711   -12700.512    974.82045   -13675.332    60.396701    248.31592 
   16300    83.481347    -1314.794    60441.477   -12695.283     1014.529   -13709.812      60.4579    258.43087 
   16350    85.269894    -1449.605    60451.827   -12667.394    1036.2648   -13703.659    60.518814    263.96762 
   16400    84.341188   -957.66158    60470.168   -12689.815    1024.9784   -13714.793    60.647282    261.09265 
   16450    85.094509   -1071.8318    60509.138   -12689.691    1034.1334   -13723.825    60.866685    263.42469 
   16500    84.971484   -1367.5208    60529.942   -12670.489    1032.6383   -13703.128    60.768568    263.04384 
   16550    82.110876   -1436.2735    60489.752   -12677.227    997.87398   -13675.101    60.850244    254.18834 
   16600    82.369918   -1653.7914    60395.662   -12717.031    1001.0221   -13718.053    61.112281    254.99025 
   16650    81.763074   -1262.7505    60363.102   -12710.339    993.64722   -13703.986    61.029222    253.11166 
   16700    82.008658   -1179.6794    60386.008   -12721.652    996.63174   -13718.283    61.021384     253.8719 
   16750    83.350272   -1221.3388    60447.046   -12696.757    1012.9361   -13709.693    61.051542     258.0251 
   16800    84.001343    -1610.299    60466.992   -12717.606    1020.8484   -13738.454    60.996844    260.04061 
   16850    82.644925   -1033.9347    60423.873   -12743.422    1004.3641   -13747.787    60.929221    255.84158 
   16900    82.143846   -1229.5513    60466.256   -12742.597    998.27465   -13740.871    61.279894     254.2904 
   16950    80.941939   -1166.8198    60414.199   -12712.028    983.66817   -13695.696    61.245619    250.56969 
   17000    87.153828   -1389.5522    60352.423   -12722.725    1059.1598   -13781.885    61.857865    269.79966 
   17050    81.975765   -1321.3192    60335.331   -12720.494    996.23201   -13716.726    62.322083    253.77008 
   17100    80.967451   -1560.6755    60405.322   -12711.503     983.9782   -13695.482    62.693153    250.64867 
   17150    82.319832   -1550.0521    60381.603   -12716.645    1000.4134   -13717.059    62.782148     254.8352 
   17200    82.303962   -1128.7602    60391.496   -12713.462    1000.2205   -13713.682    62.889276    254.78607 
   17250    81.183442   -1411.1278    60429.632    -12729.62     986.6031   -13716.223     62.99188    251.31731 
   17300    81.469191   -1331.3953    60459.422   -12737.735    990.07573   -13727.811    62.814881    252.20189 
   17350    83.003698    -1686.408    60441.499       -12721    1008.7242   -13729.724    63.010363    256.95222 
   17400       82.661   -1575.8197    60387.288   -12690.715    1004.5595   -13695.274    63.083124    255.89134 
   17450     85.56103   -1607.7764    60333.651   -12657.687    1039.8029    -13697.49    63.312268    264.86888 
   17500    85.019817   -1616.7552    60287.739   -12661.646    1033.2256   -13694.872    63.644857    263.19346 
   17550    85.022448    -1630.046    60244.084   -12673.665    1033.2576   -13706.922    63.659243    263.20161 
   17600    81.812116   -1416.6769    60230.972   -12651.457    994.24322     -13645.7    64.157688    253.26348 
   17650     83.78324   -1346.7089    60180.371   -12639.946    1018.1978   -13658.144    64.615961    259.36543 
   17700    81.627081   -1510.6974    60125.889   -12678.777    991.99454   -13670.771    65.244914    252.69067 
   17750     82.09589   -1260.3645    60113.027   -12691.473    997.69186   -13689.165    65.302558    254.14195 
   17800      82.6001   -1197.1572        60096   -12704.763    1003.8194   -13708.582    65.227578    255.70281 
   17850    80.696644   -1581.1488    60070.305   -12716.046    980.68716   -13696.733    65.405143    249.81034 
   17900    79.929376   -1288.6992    60044.427   -12736.067    971.36274    -13707.43    65.598608    247.43513 
   17950    82.053475   -1370.8279    60089.142    -12737.25     997.1764   -13734.427    65.739877    254.01064 
   18000    78.600604   -1317.1021    60092.248   -12714.879    955.21448   -13670.094    65.686907    243.32169 
   18050    80.191971   -1548.3621     60040.71   -12709.677    974.55398   -13684.231    66.106185    248.24804 
   18100    82.031057   -1647.7373    59997.541   -12738.014    996.90396   -13734.918    66.115469    253.94125 
   18150    81.201887   -1273.1283    59987.535   -12723.358    986.82725   -13710.185    65.966257    251.37441 
   18200    80.136015   -1580.8079    60017.043   -12705.268    973.87396   -13679.142    66.123894    248.07482 
   18250    81.980759   -1203.8588    60094.446   -12702.082     996.2927   -13698.375    66.226053    253.78554 
   18300    81.277521   -1317.7037     60146.83   -12714.651    987.74641   -13702.397     66.47604    251.60854 
   18350     82.20572   -1448.8561    60163.064   -12735.811     999.0266   -13734.838    66.670259    254.48195 
   18400    81.455246   -1302.1815    60154.268   -12724.216    989.90626   -13714.122    66.847266    252.15872 
   18450    84.233369   -1202.6864    60154.592   -12747.314    1023.6681   -13770.982    66.988438    260.75888 
   18500    81.819743   -1289.6251    60174.426   -12732.725    994.33591   -13727.061    67.075595    253.28709 
   18550    81.621672     -1181.94    60222.609    -12709.35     991.9288   -13701.279    67.398728    252.67392 
   18600    81.527972    -1467.945    60238.526   -12707.497    990.79009   -13698.287    67.328554    252.38386 
   18650    79.430935   -1588.8562    60269.607   -12727.656     965.3053   -13692.961    67.583975    245.89212 
   18700    81.994648   -1581.5593    60254.437   -12739.513    996.46149   -13735.975    67.777192    253.82853 
   18750     79.27275   -1696.7015    60221.545   -12735.504    963.38291   -13698.887      68.1063    245.40243 
   18800    80.816275   -1050.2855     60248.27   -12704.942      982.141   -13687.083    68.355715    250.18068 
   18850    79.480514   -1416.4603    60229.571    -12727.95    965.90781   -13693.858    68.209441     246.0456 
   18900    83.637992   -1528.3951    60220.446   -12701.265    1016.4327   -13717.698    68.490706    258.91579 
   18950    82.404449   -1650.3531    60261.982   -12692.785    1001.4417   -13694.227    68.726317    255.09714 
   19000    81.353774   -1259.0575    60260.494   -12728.759     988.6731   -13717.433    68.735902     251.8446 
   19050     80.98783   -1468.6008    60263.901   -12713.362    984.22587   -13697.588    68.692791    250.71176 
   19100    83.131515   -1151.7533    60354.865   -12701.759    1010.2776   -13712.036    69.182603     257.3479 
   19150    82.749811   -1619.3651      60336.1   -12710.856    1005.6388   -13716.495    69.935215    256.16627 
   19200    81.411756    -1243.778    60356.995    -12738.57    989.37774   -13727.948    70.307914    252.02409 
   19250    83.633843   -1305.3904    60370.138   -12697.751    1016.3822   -13714.134    70.715684    258.90294 
   19300    83.236948   -1344.4871    60405.053    -12659.06    1011.5589   -13670.619    71.136127    257.67429 
   19350     82.90148   -1588.4083    60407.585   -12687.171     1007.482   -13694.653    71.259351    256.63579 
   19400    80.784799   -1286.2071    60377.572   -12693.344    981.75848   -13675.103    71.382858    250.08324 
   19450    84.935934   -1279.1804     60397.38   -12709.153    1032.2062   -13741.359    71.566986    262.93379 
   19500    82.135428   -1166.6285    60423.163   -12722.906    998.17236   -13721.078    71.839593    254.26434 
   19550    81.693515   -1113.3437    60475.853   -12700.726     992.8019   -13693.528     72.25127    252.89633 
   19600    83.122525   -1112.8598    60525.778   -12732.499    1010.1683   -13742.668    72.100585    257.32007 
   19650    80.042799   -1107.7146    60537.018   -12707.277    972.74113   -13680.018    71.911315    247.78625 
   19700    82.519697   -1114.2892    60597.769    -12693.89    1002.8423   -13696.732    72.493757    255.45391 
   19750    84.805173   -1586.4976    60617.051   -12723.952    1030.6171   -13754.569    72.587174      262.529 
   19800    82.673756   -1634.4395    60576.261   -12729.777    1004.7145   -13734.492     72.58416    255.93083 
   19850    81.459146   -1086.5166    60558.994    -12715.35    989.95366   -13705.303    72.596898    252.17079 
   19900    78.813957   -1699.1367    60552.386   -12741.597    957.80731   -13699.405    72.314803    243.98216 
   19950    78.604622   -1679.5113    60507.298   -12760.135     955.2633   -13715.399    72.516946    243.33412 
   20000    83.018489   -1924.5946    60464.786   -12697.473     1008.904   -13706.377    73.025274    256.99801 
   20050    82.014712   -1501.8126    60434.023   -12714.584    996.70532   -13711.289    73.447366    253.89065 
   20100    82.018307   -1563.4759    60414.371   -12710.074    996.74902   -13706.823    73.850147    253.90178 
   20150    84.041547    -1376.285    60415.169   -12690.193     1021.337    -13711.53    74.122514    260.16506 
   20200    84.119064   -1439.7529    60378.915    -12666.52     1022.279   -13688.799    74.403635    260.40503 
   20250     84.03782   -1112.7425    60397.025   -12712.638    1021.2917    -13733.93    74.796087    260.15353 
   20300    83.429854   -1586.6792    60378.997   -12714.986    1013.9032   -13728.889    74.929703    258.27146 
   20350    83.799758   -1498.0889    60359.885   -12704.805    1018.3986   -13723.204    75.075021    259.41656 
   20400    82.778147   -957.85367    60367.635   -12721.246    1005.9832   -13727.229    75.249116    256.25399 
   20450    80.362731   -1180.8595    60368.686   -12734.238    976.62919   -13710.867    75.871932    248.77665 
   20500     82.76327   -917.93291    60420.701   -12756.914    1005.8024   -13762.716    75.931034    256.20794 
   20550    80.792522   -1189.6782    60487.089   -12764.854    981.85234   -13746.706    76.211596    250.10715 
   20600    81.513467   -1274.6665    60500.249   -12766.429    990.61381   -13757.043    76.461016    252.33896 
   20650    80.997744   -1228.8616    60506.859   -12721.889    984.34635   -13706.235    76.279054    250.74245 
   20700     83.52095    -1066.518    60468.311   -12712.422    1015.0103   -13727.432    76.798284    258.55347 
   20750    81.894437   -1394.3874    60493.763   -12718.957    995.24365   -13714.201    76.377019    253.51831 
   20800    80.858823   -1812.5781    60494.328   -12734.745    982.65807   -13717.403     76.55142    250.31239 
   20850    80.304275   -1672.2459    60458.033   -12754.537    975.91879   -13730.455    76.302804    248.59569 
   20900    79.679512   -1280.3902    60459.549   -12722.916    968.32619   -13691.242    76.142555    246.66163 
   20950    82.226253   -1364.5103      60438.3   -12717.457    999.27612   -13716.733     76.09253    254.54551 
   21000    82.333943    -1466.304    60359.316    -12718.32    1000.5849   -13718.905    76.128486    254.87888 
   21050    80.149952   -1413.4561    60360.299   -12716.233    974.04334   -13690.277    76.162927    248.11796 
   21100    82.827201   -1399.2048    60430.969   -12718.155    1006.5793   -13724.734    76.093444    256.40584 
   21150    81.895335   -1916.6506    60366.824   -12701.088    995.25457   -13696.342    75.759604     253.5211 
   21200    79.951652    -1793.375    60325.934   -12697.098    971.63344   -13668.732    75.797174    247.50409 
   21250     82.90336   -1712.7049    60333.934     -12672.2    1007.5048   -13679.704    75.862529    256.64161 
   21300    84.496066   -1086.9073    60368.393   -12691.039    1026.8606   -13717.899    75.936775     261.5721 
   21350     83.63823   -1642.1128    60368.227   -12699.485    1016.4356   -13715.921    76.245432    258.91653 
   21400    81.165101   -1507.3184    60372.134   -12704.041     986.3802   -13690.421    76.470912    251.26053 
   21450    85.183695   -1416.8192    60413.193   -12672.167    1035.2172   -13707.384    76.525013    263.70078 
   21500    83.923549   -1230.4453    60405.939   -12696.283     1019.903   -13716.186    76.841706    259.79978 
   21550    81.926591   -1296.4566    60391.478   -12666.011    995.63441   -13661.646    77.173215    253.61785 
   21600    82.498662   -1567.7531    60367.362   -12664.351    1002.5866   -13666.938    77.355764     255.3888 
   21650    80.711209   -1342.5571     60349.31   -12644.271    980.86416   -13625.136    77.560485    249.85543 
   21700    82.096811   -1271.8775    60295.954   -12646.044    997.70305   -13643.747    77.731347     254.1448 
   21750    83.122655   -1498.5275     60292.09   -12668.319    1010.1699   -13678.489     77.91104    257.32047 
   21800    81.980149   -1328.5919    60231.952   -12673.991    996.28529   -13670.277    77.963029    253.78365 
   21850    83.453162   -1389.9383    60225.068   -12680.781    1014.1865   -13694.967    78.042224    258.34361 
   21900    82.973555   -1534.0578    60148.907   -12675.509    1008.3579   -13683.867    77.933417    256.85891 
   21950    78.840676   -1648.9269    60072.722   -12664.586    958.13202   -13622.718    78.380623    244.06487 
   22000    83.737939   -1624.4337    60028.423   -12654.947    1017.6473   -13672.594    78.425449    259.22519 
   22050    80.358443   -1842.0487    59943.587   -12652.491    976.57708   -13629.068    78.980393    248.76338 
   22100    83.078678   -1262.8027    59914.639   -12635.821    1009.6355   -13645.457    79.086872    257.18434 
   22150    79.934054   -1514.7224    59951.271   -12642.849    971.41958   -13614.268    79.083386    247.44961 
   22200     82.73044   -1468.1632     59959.38   -12623.334    1005.4034   -13628.737    79.539066    256.10631 
   22250    82.848403   -1421.1353    60041.308   -12628.027     1006.837   -13634.864     79.23099    256.47148 
   22300    83.925536   -1329.0465    60022.358    -12590.46    1019.9271   -13610.388    79.464673    259.80593 
   22350     83.24755   -1174.7308    60024.952   -12596.034    1011.6877   -13607.722    79.763494    257.70711 
   22400    84.067605    -1451.872    60030.155   -12595.267    1021.6536   -13616.921    80.112398    260.24573 
   22450    86.099746   -1521.1021    60076.206    -12583.39    1046.3498    -13629.74    79.906104    266.53657 
   22500    84.639314   -1091.2788    60091.836   -12630.661    1028.6015   -13659.262    79.975805    262.01555 
   22550    82.394307    -1237.671    60088.483   -12671.022    1001.3184    -13672.34    80.090468    255.06575 
   22600    83.281392   -1366.9286    60142.781   -12636.327     1012.099   -13648.426     80.30528    257.81187 
   22650    82.988681   -979.31567    60153.833   -12648.127    1008.5417   -13656.669    80.206317    256.90573 
   22700     81.04366   -1385.9347    60165.677    -12659.25    984.90436   -13644.155    80.928881    250.88459 
   22750    83.748391   -1809.3486     60114.17   -12663.899    1017.7743   -13681.673    81.257523    259.25755 
   22800    81.898998   -1557.4244    60139.264    -12626.52    995.29907   -13621.819    81.293642    253.53243 
   22850    82.515731   -1352.6309    60140.538   -12613.055    1002.7941   -13615.849    81.340937    255.44164 
   22900    82.458932   -1648.0116      60170.3   -12635.409    1002.1038   -13637.512    81.773358    255.26581 
   22950     84.06423   -1433.2433    60150.823   -12618.263    1021.6126   -13639.876     82.20006    260.23528 
   23000    84.346979   -1355.9055    60182.751   -12647.924    1025.0488   -13672.972    82.541987    261.11058 
   23050    83.667779   -1289.9119    60155.443   -12636.753    1016.7946   -13653.548    82.787548      259.008 
   23100    86.637552   -1855.2988    60161.449   -12625.671    1052.8856   -13678.556    83.439384    268.20144 
   23150    84.412556   -1016.0592    60200.975   -12615.951    1025.8457   -13641.797    83.614088    261.31358 
   23200    84.224926   -1670.3856    60183.247   -12586.366    1023.5655   -13609.931     83.60587    260.73274 
   23250    84.585644    -1541.708    60142.356   -12619.609    1027.9493   -13647.558    83.654171    261.84941 
   23300    83.509017   -1360.9566    60160.888   -12617.936    1014.8653   -13632.801    83.676143    258.51652 
   23350    83.534525   -1149.2802    60161.989    -12596.97    1015.1753   -13612.145    83.894398    258.59549 
   23400    85.164312   -1341.2444    60135.605   -12610.466    1034.9817   -13645.448    84.159488    263.64077 
   23450     84.68604   -1150.7076    60180.896   -12628.914    1029.1693   -13658.083    84.937923     262.1602 
   23500    83.220668   -1324.1716    60218.204    -12637.29     1011.361   -13648.651    85.146503    257.62389 
   23550    84.031579   -1199.1747    60276.222   -12618.249    1021.2158   -13639.465    85.195155     260.1342 
   23600    84.415991   -1230.8037    60278.902   -12658.432    1025.8875   -13684.319    85.361545    261.32422 
   23650     84.73429   -1436.6596    60282.231   -12640.014    1029.7557    -13669.77    85.542201    262.30957 
   23700    85.001292   -1666.7063    60228.676   -12651.343    1033.0005   -13684.344    86.046718    263.13612 
   23750    85.301516   -1365.2119    60174.723   -12677.394    1036.6491   -13714.043    86.183861    264.06551 
   23800    80.689668   -1620.6704    60183.256   -12719.442    980.60238   -13700.045    86.866377    249.78875 
   23850      79.4914   -1501.6791    60159.482   -12708.755    966.04011   -13674.795    86.941877     246.0793 
   23900    82.326995   -1526.4727    60098.372    -12710.47    1000.5004   -13710.971     87.00742    254.85737 
   23950    80.038717   -1261.6822    60101.603   -12701.791    972.69152   -13674.482    87.025626    247.77361 
   24000    81.084089   -1418.5723    60135.239   -12713.722    985.39568   -13699.118    87.401288    251.00974 
   24050      81.7848   -1677.4176    60168.421   -12686.665    993.91126   -13680.576    87.608104    253.17892 
   24100    80.608367    -1679.734    60194.112   -12676.787    979.61434   -13656.401    87.909534    249.53706 
   24150    80.446227   -1486.0772    60227.109   -12669.755     977.6439   -13647.399    88.127482    249.03513 
   24200    81.051975   -1778.6532    60209.807    -12675.97    985.00541   -13660.975    88.215008    250.91033 
   24250    77.923964   -1907.1693     60168.15   -12703.511    946.99144   -13650.503    88.232385    241.22703 
   24300    81.550816   -1595.9772    60138.902   -12690.539     991.0677   -13681.607    88.419069    252.45458 
   24350    80.681959   -1565.0955    60114.873   -12693.896    980.50869   -13674.404    88.227602    249.76488 
   24400    80.415173   -1177.6635     60133.01     -12716.2     977.2665   -13693.466    88.669415      248.939 
   24450    80.846365   -1047.7512    60152.817   -12732.004    982.50668   -13714.511    88.422929    250.27383 
   24500    80.880374   -1598.5369     60200.09   -12695.346    982.91998   -13678.266    88.361687    250.37911 
   24550    84.148181   -1843.0008    60181.241    -12699.16    1022.6329   -13721.793    88.737517    260.49517 
   24600     79.85321   -1451.9787    60147.755   -12691.212     970.4371   -13661.649     89.01722    247.19934 
   24650    80.667313   -1729.3706    60144.278   -12693.023     980.3307   -13673.354    88.658828    249.71954 
   24700    82.285927    -1485.343    60108.399   -12665.364    1000.0013   -13665.365    88.726979    254.73024 
   24750    84.904294   -1240.6531    60144.427    -12653.07    1031.8217   -13684.892    88.641662    262.83585 
   24800    84.569161   -1106.2476    60159.278   -12663.843    1027.7489   -13691.592      88.8809    261.79838 
   24850    83.643609   -1556.9514    60170.925   -12686.592    1016.5009   -13703.093    89.283617    258.93318 
   24900    81.366185   -1733.9099    60239.904   -12709.862    988.82393   -13698.685    89.580028    251.88302 
   24950     83.57618   -1285.9498    60245.537   -12663.898    1015.6815    -13679.58    89.676338    258.72444 
   25000    82.770425   -1562.7684    60287.352   -12660.967    1005.8893   -13666.856    89.826787    256.23009 
   25050    86.864928   -1411.5761    60299.727   -12647.237    1055.6488   -13702.886    90.245047    268.90532 
   25100    86.463243   -1539.3622    60314.933   -12617.691    1050.7673   -13668.459    90.728681    267.66184 
   25150    84.991998   -1270.1372    60356.562   -12627.805    1032.8876   -13660.693    90.954089    263.10735 
   25200    84.115213   -1527.3047    60360.314   -12662.668    1022.2322     -13684.9    91.070179    260.39311 
   25250    81.643573   -1320.1774    60379.616   -12689.024    992.19495   -13681.219    90.850868    252.74172 
   25300    80.656873    -1043.781    60392.691   -12693.458    980.20383   -13673.662    90.985426    249.68722 
   25350     83.14001   -1210.0713    60443.235   -12678.185    1010.3808   -13688.566    91.391206     257.3742 
   25400     87.38117   -1486.2222    60392.792   -12663.744    1061.9226   -13725.667    91.693948    270.50344 
   25450    81.495849   -1708.8559    60318.009   -12673.499     990.3997   -13663.899    91.930513    252.28442 
   25500    82.133847   -1457.0941    60308.631   -12711.559    998.15314   -13709.712    92.099794    254.25945 
   25550    82.490715   -1510.9676    60241.245    -12703.45    1002.4901   -13705.941    92.041026    255.36419 
   25600     83.80298   -1315.8515    60203.198   -12672.969    1018.4377   -13691.407    92.287391    259.42654 
   25650    82.526669   -1573.9218    60201.102   -12655.058     1002.927   -13657.985    92.193645     255.4755 
   25700    82.386288   -1588.7747    60156.505    -12697.52     1001.221   -13698.741    92.054321    255.04092 
   25750    81.645151   -1396.7341    60113.651    -12730.39    992.21414   -13722.604    92.503396    252.74661 
   25800    82.323306   -1273.1723    60063.669   -12724.416    1000.4556   -13724.871    92.991441    254.84595 
   25850    79.986164   -1301.8908    60061.571   -12726.455    972.05286   -13698.508     93.37015    247.61093 
   25900    80.934601   -1522.7344    60062.187   -12744.836    983.57899   -13728.415    93.760724    250.54698 
   25950    81.476419   -989.00065    60151.032   -12698.044    990.16358   -13688.208     93.91899    252.22427 
   26000    84.598085    -1553.417    60189.885   -12614.359    1028.1004   -13642.459    93.913125    261.88792 
   26050    81.822416     -1263.17    60234.564   -12652.141     994.3684   -13646.509    94.008276    253.29536 
   26100    82.162276   -1319.1503    60245.673   -12665.734    998.49863   -13664.232    94.007648    254.34745 
   26150    81.237661   -1541.6135    60287.024   -12682.708      987.262    -13669.97    93.643973    251.48515 
   26200    81.297691   -1412.3153    60263.426   -12668.314    987.99154   -13656.305      93.8639    251.67098 
   26250    82.028895   -1436.8625    60283.186   -12669.943    996.87768   -13666.821    93.887835    253.93455 
   26300    85.349224   -1562.2918    60224.097    -12656.95    1037.2289   -13694.179    94.411045     264.2132 
   26350    83.137383   -1224.5824    60200.516   -12643.631    1010.3489    -13653.98    94.904701    257.36607 
   26400    82.622118   -1990.4595    60181.012   -12629.596     1004.087   -13633.683    95.127355    255.77098 
   26450     83.60961   -1666.7225    60202.883   -12639.439    1016.0877   -13655.527    95.461519    258.82793 
   26500    84.338024   -1461.3273    60191.439   -12611.485      1024.94   -13636.425    95.484556    261.08286 
   26550    83.034228   -1126.8455    60155.921   -12641.751    1009.0953   -13650.846    95.392313    257.04673 
   26600    84.660755   -1482.8753    60174.521   -12638.621    1028.8621   -13667.483    95.917966    262.08193 
   26650    84.257569   -1402.2378    60200.796   -12625.085    1023.9622   -13649.047     95.95955     260.8338 
   26700    83.805766   -1487.5593     60266.23    -12664.49    1018.4716   -13682.962    95.666355    259.43516 
   26750     84.80963   -1565.5034    60250.755   -12701.072    1030.6713   -13731.744    95.988686    262.54279 
   26800    81.815379   -1706.4405    60255.575   -12724.788    994.28288   -13719.071    96.230025    253.27358 
   26850    81.965692   -1832.7387    60223.086   -12741.705    996.10959   -13737.815    96.097113     253.7389 
   26900    81.265621   -1754.7391    60200.467   -12743.331     987.6018   -13730.933    96.078739    251.57171 
   26950    81.217686   -1621.2011    60187.792   -12725.756    987.01925   -13712.776    95.816591    251.42331 
   27000    79.785152   -1697.7781    60185.511   -12761.229    969.61001   -13730.839    95.965503    246.98866 
   27050    82.519913   -1412.1074    60181.366   -12743.363    1002.8449   -13746.208    96.388587    255.45458 
   27100     82.20432   -1234.6023    60118.413    -12737.14    999.00958    -13736.15    96.636424    254.47761 
   27150    86.179192   -1808.8226    60136.436   -12728.206    1047.3153   -13775.521    96.966516    266.78251 
   27200    85.446797   -1556.3973    60124.077   -12737.265    1038.4146   -13775.679    96.736823    264.51525 
   27250    81.626168   -1314.1987    60137.952   -12709.126    991.98345   -13701.109    96.809298    252.68784 
   27300    83.502982   -1751.1301    60142.445   -12723.031    1014.7919   -13737.823    96.709137    258.49784 
   27350    83.110175   -1332.4739    60120.378    -12715.02    1010.0182   -13725.038    96.459354    257.28184 
   27400    80.151783   -1588.4429    60132.695    -12698.53    974.06559   -13672.596     96.32441    248.12363 
   27450     84.13748   -1502.9022    60151.007   -12707.837    1022.5028    -13730.34    96.710872    260.46204 
   27500    82.026055   -1504.5432    60109.378   -12684.308    996.84318   -13681.151    97.160056    253.92576 
   27550    81.161398   -1384.3946    60116.926   -12673.533     986.3352   -13659.869    97.568965    251.24907 
   27600    85.157766   -1360.1602    60143.961   -12623.097    1034.9021   -13657.999    98.081452    263.62051 
   27650    85.623891   -1324.0781    60157.706   -12635.814    1040.5668   -13676.381    98.251903    265.06348 
   27700    82.568401   -1124.9734    60139.192   -12644.537    1003.4342   -13647.971    98.276588    255.60469 
   27750    83.568353   -1587.9232    60149.243   -12644.102    1015.5864   -13659.689    98.609816    258.70021 
   27800    84.885267   -1168.1586    60198.768   -12666.106    1031.5905   -13697.697    98.882193    262.77694 
   27850    85.812374    -1494.313    60227.003    -12591.33    1042.8574   -13634.188    99.193073    265.64696 
   27900    82.393296   -1026.1588    60246.388   -12631.568    1001.3062   -13632.874    99.832529    255.06262 
   27950    82.585525   -1082.4447    60315.226   -12636.304    1003.6423   -13639.946    100.06248     255.6577 
   28000    87.435001   -1381.4254    60362.296   -12633.409    1062.5768   -13695.985    100.25432    270.67008 
   28050    82.310741   -1664.2172    60378.002   -12625.421    1000.3029   -13625.724    100.99687    254.80706 
   28100    83.610611   -1413.9094    60331.892   -12648.315    1016.0999   -13664.414    101.09729    258.83103 
   28150    83.779751   -1233.6527    60329.768   -12659.703    1018.1554   -13677.858    101.13838    259.35463 
   28200    79.351747   -1207.7819    60277.546   -12674.507    964.34294    -13638.85    101.78114    245.64698 
   28250    82.908911   -1501.3572    60252.976   -12677.603    1007.5723   -13685.175    102.61156    256.65879 
   28300    80.165541   -1291.6595    60251.061   -12673.908    974.23279   -13648.141     102.6647    248.16622 
   28350    81.361648   -1423.6818    60219.421   -12633.182    988.76879    -13621.95    102.88165    251.86897 
   28400    81.860063   -1388.9106    60242.844   -12646.409    994.82592   -13641.235    102.84659     253.4119 
   28450    87.068631   -1488.4096    60242.018   -12634.866    1058.1244    -13692.99    103.09908    269.53592 
   28500    83.014222   -1516.5785    60243.425   -12604.362    1008.8521   -13613.214    103.17956     256.9848 
   28550    85.864409   -1646.4394    60223.753   -12616.315    1043.4898   -13659.805    102.69897    265.80805 
   28600    82.940741   -1559.8103    60207.814   -12592.338    1007.9591   -13600.297    102.66426    256.75733 
   28650    84.209589   -1445.0212    60129.468   -12609.156    1023.3791   -13632.536    102.62529    260.68526 
   28700    82.391503   -1286.2955    60128.158    -12628.37    1001.2844   -13629.654     103.1333    255.05707 
   28750    82.871122   -1530.3886    60175.954   -12599.009    1007.1131   -13606.122    103.56138    256.54181 
   28800    84.892553   -1174.4473    60275.099   -12614.834     1031.679   -13646.513    103.86918     262.7995 
   28850    81.246477    -1712.565      60336.2   -12653.697    987.36914   -13641.066     103.8405    251.51244 
   28900    83.433163   -1552.2937    60342.058   -12670.621    1013.9434   -13684.564     103.8256    258.28171 
   28950    82.990136   -1239.1574    60312.742   -12670.627    1008.5594   -13679.186    103.92007    256.91024 
   29000    82.381858   -1540.7402    60284.193   -12683.289    1001.1672   -13684.456    103.87482    255.02721 
   29050    81.760147   -1433.8119    60294.913   -12689.249    993.61165   -13682.861     103.8861     253.1026 
   29100    80.766233   -1814.2484    60280.395   -12664.213    981.53286   -13645.746    104.12612    250.02577 
   29150    83.964287   -1447.0505    60252.317   -12663.194     1020.398   -13683.592    104.09341    259.92589 
   29200    86.051956   -1221.8295    60250.034   -12644.313     1045.769   -13690.082    104.43387    266.38863 
   29250    84.008472   -1460.9114    60314.905   -12692.382     1020.935   -13713.317    104.22114    260.06267 
   29300    81.575386   -1615.7657    60299.807   -12694.406     991.3663   -13685.772    104.62969    252.53064 
   29350    84.597327   -1571.8193    60276.278   -12709.426    1028.0912   -13737.518    104.74484    261.88558 
   29400    82.669419   -1299.5869    60265.698   -12731.553    1004.6618   -13736.214    105.09319     255.9174 
   29450    85.241488    -979.7384    60265.316   -12659.416    1035.9196   -13695.336    105.00329    263.87969 
   29500    86.222345   -1621.2554    60280.181    -12681.89    1047.8397    -13729.73    105.29575     266.9161 
   29550    82.462321   -1289.5111    60287.935   -12680.436     1002.145   -13682.581    105.50931     255.2763 
   29600    83.906695   -1710.5726    60248.582   -12688.055    1019.6981   -13707.753    105.64884     259.7476 
   29650    82.401643   -1512.6516     60251.96   -12687.279    1001.4076   -13688.687      105.807    255.08846 
   29700    83.662895   -1261.3271    60312.304   -12673.938    1016.7353   -13690.673    106.05609    258.99288 
   29750    81.160122   -1175.7687    60359.244   -12675.329     986.3197   -13661.649    105.96443    251.24512 
   29800    82.214944   -1069.1231    60426.819   -12701.839     999.1387   -13700.977    106.00044     254.5105 
   29850    81.991518   -1576.3212    60452.679    -12683.35    996.42345   -13679.773    106.73575    253.81885 
   29900    81.614981   -1568.5122    60463.573   -12703.692    991.84749   -13695.539    106.71749    252.65321 
   29950    82.722689   -1418.5265    60492.593   -12718.714    1005.3092   -13724.023    107.18199    256.08231 
   30000    81.702078   -1335.3344    60516.339   -12698.346    992.90596   -13691.252    107.03469    252.92283 
   30050    81.917157   -1269.6124    60492.963   -12696.972    995.51976   -13692.491    107.45954    253.58865 
   30100    85.033808   -1279.1172    60412.036   -12670.754    1033.3957    -13704.15    107.33649    263.23678 
   30150    83.341153   -1601.1289    60389.782   -12683.953    1012.8252   -13696.778     107.1737    257.99687 
   30200    84.521828   -1172.0254    60386.943   -12687.459    1027.1737   -13714.633    107.30548    261.65185 
   30250    81.094281   -1479.1537    60427.193   -12651.969    985.51955   -13637.489    107.56273    251.04129 
   30300    84.260069   -1296.7441    60413.874   -12663.779    1023.9926   -13687.771     107.2738    260.84153 
   30350    81.352985   -1469.3448    60429.354   -12672.798    988.66351   -13661.461    107.97775    251.84216 
   30400    83.950504   -1105.3951    60414.625   -12699.466    1020.2305   -13719.696    108.00148    259.88322 
   30450    83.903299   -1761.5997    60347.661   -12679.912    1019.6569   -13699.569    107.84954    259.73709 
   30500    86.120187   -1378.2914    60329.631    -12669.73    1046.5982   -13716.328    107.57741    266.59985 
   30550    86.722236   -1737.7155     60290.27   -12705.035    1053.9147    -13758.95    107.68015     268.4636 
   30600    82.265236   -1443.3034    60215.514   -12683.465    999.74988   -13683.215    107.84003    254.66619 
   30650    81.154795   -1683.2649    60177.662   -12696.962    986.25496   -13683.217    107.93626    251.22863 
   30700    82.515354    -1263.789    60123.204   -12690.982    1002.7895   -13693.771    108.33236    255.44047 
   30750    84.399178   -1079.8099    60145.169   -12690.116    1025.6832     -13715.8    108.58794    261.27217 
   30800     83.70022   -1013.5669    60196.815   -12658.687    1017.1889   -13675.876    108.96961    259.10842 
   30850    86.103342   -1579.1201    60265.788   -12665.654    1046.3935   -13712.047    109.42683     266.5477 
   30900    83.315387   -1444.9167    60293.439   -12678.957    1012.5121    -13691.47    109.49877    257.91711 
   30950    82.128846   -1278.2643    60271.371   -12701.521    998.09236   -13699.613    109.95432    254.24397 
   31000     80.40533   -1854.5419    60221.433   -12704.972    977.14689   -13682.119     109.8071    248.90853 
   31050    81.064204   -1388.9045    60144.532   -12723.708    985.15402   -13708.862    110.21336    250.94818 
   31100    82.160296   -1589.2844    60162.473   -12722.685    998.47458    -13721.16    110.01095    254.34133 
   31150    81.320895   -1361.2557    60169.502   -12726.109    988.27352   -13714.383    109.90913    251.74281 
   31200    80.274774   -1548.7637    60218.468   -12736.251    975.56026   -13711.811    110.16561    248.50437 
   31250     80.96337   -1593.9054    60245.192   -12764.684    983.92861   -13748.613    110.83085    250.63604 
   31300    80.407548   -1542.6478     60201.97    -12795.34    977.17384   -13772.514    110.80145    248.91539 
   31350    80.984855   -1665.4544    60172.413   -12775.845    984.18972   -13760.035    110.96501    250.70255 
   31400    80.136534   -1757.0589    60123.811   -12808.653    973.88027   -13782.534    111.60081    248.07642 
   31450    79.895377   -1214.7371    60110.445   -12759.965    970.94955   -13730.915    111.97728    247.32988 
   31500    82.514019   -1595.9023    60100.897   -12785.076    1002.7733   -13787.849    111.77995    255.43634 
   31550    79.923343   -1348.3112    60102.138   -12758.798    971.28942   -13730.088    111.67568    247.41645 
   31600    79.922559    -1343.773    60101.598   -12727.068    971.27989   -13698.348    111.66394    247.41403 
   31650    86.480974   -1638.1071    60067.521   -12691.768    1050.9827   -13742.751    111.68931    267.71673 
   31700    84.135622   -795.27056    60159.845   -12688.102    1022.4802   -13710.582    111.94573    260.45629 
   31750    84.670489    -1480.133    60233.607   -12711.307    1028.9804   -13740.287    112.21945    262.11206 
   31800    85.203298   -1063.3227    60263.878   -12730.713    1035.4554   -13766.169    111.81449    263.76146 
   31850    80.916725   -1799.7755    60234.861   -12759.343    983.36175   -13742.705     111.5894    250.49164 
   31900    80.562773   -1833.3438    60246.018   -12795.228    979.06025   -13774.288    111.75153    249.39592 
   31950    81.493026   -1498.1814    60184.726   -12776.069    990.36539   -13766.434    111.76305    252.27568 
   32000    80.131467   -1445.1644    60186.849   -12793.968     973.8187   -13767.787     112.3016    248.06074 
   32050    80.991131   -1570.4735    60198.762   -12808.533    984.26599   -13792.799    112.09402    250.72198 
   32100    80.583915   -1384.2452    60208.829   -12817.635    979.31719   -13796.952    112.24529    249.46137 
   32150    82.473402   -1560.6411    60176.936   -12760.462    1002.2797   -13762.742     111.9549     255.3106 
   32200     84.23854    -1401.887     60190.22   -12763.612     1023.731   -13787.343    112.07933    260.77489 
   32250    82.424996    -1264.059    60164.098   -12758.494    1001.6914   -13760.186    112.38046    255.16075 
   32300    81.770183    -1527.603    60166.026   -12746.901    993.73362   -13740.635    112.44258    253.13367 
   32350    82.140594   -1132.8545    60187.643   -12728.554    998.23514   -13726.789    112.94239    254.28034 
   32400    80.346208   -1069.5726    60239.186   -12746.427    976.42839   -13722.856    112.92221    248.72551 
   32450    82.423749   -1479.7489     60266.77   -12722.288    1001.6762   -13723.964    112.89508    255.15689 
   32500       83.271   -1136.9955    60278.679   -12716.284    1011.9727   -13728.256    113.18519     257.7797 
   32550    82.378948   -1240.3559    60225.668   -12718.655    1001.1318   -13719.786    113.26354     255.0182 
   32600     85.20597   -1370.2349    60223.098   -12673.103    1035.4879   -13708.591    113.51257    263.76973 
   32650    83.090084   -1216.3102    60238.461     -12649.3    1009.7741   -13659.074    113.49953    257.21964 
   32700    87.606839   -1308.5539    60249.612   -12628.517    1064.6651   -13693.182    113.97045    271.20204 
   32750    84.322943   -1157.5818    60284.738   -12637.146    1024.7567   -13661.903     114.6117    261.03617 
   32800    86.778799   -892.69899    60329.454   -12619.854    1054.6021   -13674.456    114.77488     268.6387 
   32850    86.611853    -1672.723    60325.623   -12679.259    1052.5733   -13731.832    115.07802    268.12189 
   32900    83.610556   -1366.0683     60337.34    -12715.99    1016.0992    -13732.09    115.15387    258.83086 
   32950    86.042964   -1119.4412    60362.784   -12728.886    1045.6597   -13774.545    115.32055    266.36079 
   33000    85.248243   -1092.0221      60457.9   -12726.784    1036.0017   -13762.786    115.54574     263.9006 
   33050    81.652637     -1209.03    60471.983   -12720.897    992.30511   -13713.202    116.07878    252.76978 
   33100     82.65541   -1276.7877    60464.833   -12740.224    1004.4916   -13744.716    116.27948    255.87404 
   33150    82.072148   -1423.4961     60455.74   -12744.793    997.40332   -13742.196     116.9547    254.06845 
   33200    79.818947   -1590.4171     60400.19   -12794.409    970.02071    -13764.43    116.64805    247.09328 
   33250    77.962094   -1846.4016    60324.527   -12782.212    947.45481   -13729.667    116.39705    241.34507 
   33300    77.985671   -1742.9164    60230.576   -12780.974    947.74134   -13728.715     117.1167    241.41806 
   33350    78.890046   -1492.2417    60187.863   -12787.543      958.732   -13746.275    117.40584    244.21771 
   33400    79.717659   -1443.6273    60198.031   -12825.352    968.78979   -13794.142    117.74694    246.77972 
   33450    80.560337   -1222.1502    60215.523   -12809.821    979.03065   -13788.852    118.01047    249.38838 
   33500    79.897515   -1308.9695    60180.203   -12819.136    970.97553   -13790.112    117.96502     247.3365 
   33550    79.654082   -1382.5247    60186.549   -12778.873    968.01714    -13746.89    118.04718    246.58291 
   33600     82.07567   -1302.0737    60245.071   -12757.751    997.44613   -13755.197     118.4307    254.07935 
   33650    83.326739   -1096.8033    60315.291   -12745.359    1012.6501   -13758.009    118.87557    257.95225 
   33700    84.743202   -1451.4977    60304.193    -12760.49     1029.864   -13790.354    119.37239    262.33716 
   33750    81.899996   -1531.3071    60282.485   -12755.358    995.31121   -13750.669    119.87636    253.53552 
   33800    82.661009   -1790.1584    60281.814     -12778.8    1004.5596    -13783.36    120.01413    255.89137 
   33850    82.488557   -1419.1763    60276.532   -12742.967    1002.4638   -13745.431    120.09007    255.35751 
   33900    80.917871   -1536.6573    60279.697   -12776.242    983.37568   -13759.618    119.90706    250.49519 
   33950    81.279902   -1340.9158    60255.521   -12759.454    987.77535   -13747.229    119.67852    251.61592 
[...]
   92000    84.262606   -1425.8378    60748.149   -12701.098    1024.0234   -13725.122    291.63048    260.84939 
   92050    83.953441   -1787.3417    60800.305   -12736.129    1020.2662   -13756.395    291.60785    259.89231 
   92100    79.695301   -1574.3764    60784.522   -12730.099    968.51807   -13698.617    291.39448    246.71051 
   92150    81.779582   -1393.6984    60808.293   -12744.806    993.84785   -13738.654    291.32935    253.16276 
   92200    82.840982   -1828.3657    60804.039    -12743.94    1006.7468   -13750.687    291.74091    256.44851 
   92250    81.036968   -1409.2347    60783.046   -12725.953    984.82303   -13710.776     290.8794    250.86387 
   92300    84.784591   -1973.8788     60710.41   -12746.536     1030.367   -13776.903    290.94926    262.46528 
   92350    83.619397    -1758.474    60678.099   -12768.009    1016.2067   -13784.215    291.50489    258.85822 
   92400     80.69228   -1022.4869    60704.585   -12761.311    980.63412   -13741.946    291.89336    249.79683 
   92450     81.97554   -1340.3634     60748.28   -12769.072    996.22928   -13765.301    290.84128    253.76938 
   92500    81.469705   -1274.2981    60768.455   -12763.673    990.08198   -13753.755    290.71938    252.20348 
   92550    83.204306   -1312.5828    60750.748    -12757.41    1011.1622   -13768.573    291.27112    257.57324 
   92600    80.938379    -1487.038    60777.232     -12737.8    983.62491   -13721.425    291.11832    250.55867 
   92650    82.783342   -1402.9175    60738.083   -12749.777    1006.0463   -13755.824    291.41282    256.27007 
   92700    85.229562   -1380.6656     60678.34   -12748.731    1035.7746   -13784.505    291.05815    263.84277 
   92750    79.836514   -1489.6417    60688.434   -12739.417     970.2342   -13709.651    291.23253    247.14766 
   92800    82.284233   -1519.5593    60673.183    -12787.84    999.98075    -13787.82    291.31964    254.72499 
   92850    84.969525   -1759.0002    60637.211    -12736.05    1032.6145   -13768.665    291.46836    263.03778 
   92900    83.341903   -1633.5884    60578.322   -12733.688    1012.8344   -13746.523    292.17223    257.99919 
   92950    82.170951   -1353.7841    60561.818    -12739.03    998.60405   -13737.634     292.5392    254.37431 
   93000    81.363319   -1827.6045    60551.363   -12755.736     988.7891   -13744.525    292.78646    251.87415 
   93050    83.478113   -1326.1977    60553.487    -12770.23    1014.4897    -13784.72    292.94143    258.42086 
   93100    80.120546   -1408.8842    60554.651   -12756.031    973.68597   -13729.717    293.40553    248.02693 
   93150    80.555724   -1506.1791    60572.477   -12759.983    978.97459   -13738.957    293.86609     249.3741 
   93200    82.303181   -1185.8804     60598.74   -12750.632     1000.211   -13750.843    293.79138    254.78365 
   93250    84.206326   -1235.5341    60605.577   -12753.896    1023.3395   -13777.236    293.17654    260.67516 
   93300    81.316503     -1474.95    60610.063   -12759.587    988.22015   -13747.807    293.55514    251.72922 
   93350    83.125911   -1236.3156    60608.021   -12749.115    1010.2095   -13759.324    292.81138    257.33055 
   93400    83.625922   -1152.0265    60677.634   -12723.055     1016.286   -13739.341    292.91571    258.87842 
   93450     81.78015    -1198.709    60691.945   -12730.819    993.85474   -13724.674    292.35499    253.16452 
   93500    81.480134   -1161.5989    60718.583   -12741.568    990.20872   -13731.777    292.50307    252.23577 
   93550    79.479817   -1013.9696    60794.109   -12749.712    965.89934   -13715.612    292.87132    246.04344 
   93600    80.716437   -1237.8122    60841.725   -12764.999     980.9277   -13745.927    293.82289    249.87161 
   93650    84.707206   -1352.5832    60869.091    -12757.08    1029.4266   -13786.506     293.0878    262.22572 
   93700    81.689851   -1444.9325    60898.922   -12764.813    992.75736    -13757.57    293.06004    252.88498 
   93750     79.68264   -1643.2048     60895.48    -12788.38    968.36421   -13756.744    292.95435    246.67132 
   93800    82.567844    -1338.629    60809.406   -12808.185    1003.4274   -13811.612    292.71566    255.60296 
   93850    78.905213   -1491.1229     60824.09   -12799.809    958.91631   -13758.725    293.27842    244.26466 
   93900    81.705162   -1457.8376     60841.76   -12787.271    992.94343   -13780.214    293.42669    252.93238 
   93950    81.873584   -1834.2363     60770.54   -12785.528    994.99023   -13780.518    294.21488    253.45376 
   94000    81.166486    -1173.228    60759.536   -12789.722    986.39703   -13776.119    294.30137    251.26482 
   94050    83.933964   -1627.7379    60786.328   -12781.786    1020.0295   -13801.816    295.39706    259.83202 
   94100    78.201849   -1353.6148    60752.771   -12797.541     950.3685    -13747.91    295.25208    242.08727 
   94150    78.885651   -1354.1907    60785.158   -12824.054    958.67858   -13782.733     295.8712     244.2041 
   94200    83.213069   -1071.8617    60784.585   -12786.362    1011.2687   -13797.631    296.01315    257.60037 
   94250    84.236073   -1575.1203    60782.986   -12778.793     1023.701   -13802.494    295.64156    260.76725 
   94300    81.941204   -1595.9374    60796.578   -12735.636      995.812   -13731.448    295.96502    253.66309 
   94350    84.251459   -1658.4302     60783.73   -12735.427     1023.888   -13759.315    296.13303    260.81488 
   94400    82.625009    -1471.851    60783.592   -12770.977    1004.1221   -13775.099    296.10178    255.77992 
   94450    79.199652    -1496.229    60744.012   -12775.341    962.49457   -13737.836    296.91171    245.17614 
   94500    80.219478   -1687.8769    60732.745   -12731.538    974.88827   -13706.426    297.09137    248.33319 
   94550    83.680214   -1392.1852    60710.183   -12712.431    1016.9458   -13729.377    296.98492    259.04649 
   94600    82.300042   -1702.2321    60694.993   -12702.298    1000.1729    -13702.47    297.09952    254.77393 
   94650    78.974226   -2001.5424    60656.604   -12707.702    959.75502   -13667.457    297.27082     244.4783 
   94700    80.630127   -1687.9588     60576.58   -12733.424    979.87879   -13713.303    297.05145    249.60443 
   94750    81.927254   -1564.6369    60647.138   -12768.607    995.64247    -13764.25    297.49568     253.6199 
   94800    83.125747   -1501.9603    60727.599    -12761.79    1010.2075   -13771.997    297.33927    257.33005 
   94850    81.610253   -1252.7332    60759.837   -12733.053    991.79003   -13724.843    297.40666    252.63857 
   94900    81.776225   -1526.8328    60780.991    -12708.87    993.80705   -13702.677    297.49028    253.15237 
   94950    79.440264     -1754.04    60789.741   -12709.689    965.41866   -13675.107     297.5157      245.921 
   95000    84.068939   -1743.5309     60727.67   -12710.094    1021.6699   -13731.764    298.74082    260.24986 
   95050    83.744524   -1080.8844    60727.234   -12689.036    1017.7273   -13706.763    299.25455    259.24558 
   95100    82.645992     -1517.25    60704.044   -12702.369    1004.3771   -13706.747    299.87945    255.84488 
   95150     80.69945   -1615.6453    60660.803   -12725.409    980.72126    -13706.13    298.90945    249.81903 
   95200    79.461459   -1203.7815     60648.37   -12735.604    965.67624    -13701.28    299.22816    245.98661 
   95250    82.740656   -1417.1286     60648.91    -12744.82    1005.5275   -13750.347    299.92067    256.13793 
   95300    81.609752   -1466.5831    60645.725   -12744.291    991.78394   -13736.075     299.9161    252.63702 
   95350    84.844406   -1581.5809    60610.535   -12737.941    1031.0939   -13769.035    299.91231    262.65045 
   95400    82.185734   -1636.3616    60534.636   -12737.568    998.78372   -13736.351    299.95527    254.42008 
   95450    81.613413   -1722.2263    60510.102    -12744.66    991.82843   -13736.488    300.11672    252.64836 
   95500    83.782652   -1001.9001    60522.568   -12760.435    1018.1907   -13778.626    300.69432    259.36361 
   95550    80.436078   -1466.8544     60509.75   -12764.202    977.52055   -13741.723    301.10645    249.00371 
   95600     82.57799   -1774.8692    60462.378   -12709.306    1003.5507   -13712.856    301.13101    255.63437 
   95650    83.397922    -1471.703    60435.129   -12716.932    1013.5151   -13730.447    301.06638    258.17261 
   95700    83.827693   -1093.5523    60502.164   -12720.179     1018.738   -13738.917     301.6351    259.50304 
   95750    84.868023   -1420.6696    60520.401   -12702.978    1031.3809   -13734.359     302.1278    262.72356 
   95800    84.029769   -1599.6273    60547.553   -12736.151    1021.1938   -13757.344    302.79235     260.1286 
   95850    84.441966    -1643.143     60481.55   -12727.411    1026.2032   -13753.614    302.80404    261.40463 
   95900    83.089035   -1235.6152    60466.772   -12737.194    1009.7613   -13746.956      303.128     257.2164 
   95950    80.738929   -1595.3278    60517.263   -12740.713    981.20104   -13721.914    303.40965    249.94124 
   96000     82.80028    -1552.359    60463.852   -12771.535    1006.2521   -13777.787    303.63514    256.32251 
   96050    81.483179   -1753.8842    60479.693   -12753.324    990.24573    -13743.57    304.02453    252.24519 
   96100    82.879206   -1520.7198    60461.014    -12745.33    1007.2113   -13752.541    303.52943    256.56683 
   96150    82.242716   -1734.6073    60382.587   -12746.679     999.4762   -13746.155    303.69828    254.59647 
   96200    84.589562   -1575.7487     60353.22   -12758.426    1027.9969   -13786.423     303.8259    261.86154 
   96250    85.557369   -1536.2378    60370.698   -12737.827    1039.7584   -13777.585    303.46114    264.85755 
   96300    83.756294   -1403.5677    60352.134   -12723.431    1017.8704   -13741.301    303.74095    259.28201 
   96350    83.353875   -1466.6957    60337.973   -12718.761    1012.9799   -13731.741    304.28582    258.03626 
   96400    83.377846    -1282.948    60371.689   -12728.437    1013.2712   -13741.708    304.91212    258.11046 
   96450    87.291112   -905.28091    60422.794   -12696.733    1060.8282   -13757.561    306.17145    270.22465 
   96500    85.500098   -1304.2655    60458.484    -12719.58    1039.0624   -13758.642    306.26556    264.68026 
   96550    79.107592   -1285.2464    60492.226   -12744.879    961.37578   -13706.255    306.82466    244.89116 
   96600    84.038898   -1550.7497    60461.508   -12721.898    1021.3048   -13743.203    307.82093    260.15686 
   96650    80.994414   -1360.8676    60467.232   -12754.728    984.30589   -13739.034    307.68537    250.73214 
   96700     81.56444   -1581.6427    60465.999   -12741.046    991.23328   -13732.279     307.6834    252.49675 
   96750     82.81127   -1347.9785    60475.003   -12723.644    1006.3857   -13730.029    307.34199    256.35653 
   96800    83.995392   -1377.2723    60458.381   -12705.178    1020.7761   -13725.954    307.22532    260.02218 
   96850    84.172077    -1397.381    60493.175   -12689.802    1022.9233   -13712.725    307.63096    260.56914 
   96900    84.968563   -1519.8164    60530.545     -12701.2    1032.6028   -13733.803    308.82693     263.0348 
   96950    86.721442   -1351.2733    60538.394   -12699.372    1053.9051   -13753.277    309.10651    268.46114 
   97000    83.911955   -1621.0384    60503.335   -12708.038    1019.7621     -13727.8    309.33959    259.76389 
   97050    82.638922   -1246.7949    60493.303    -12689.32    1004.2912   -13693.611    309.19245      255.823 
   97100    84.289059   -1952.2302    60486.371   -12674.098    1024.3449   -13698.443    309.45317    260.93128 
   97150    81.903368   -1583.0807    60489.136   -12680.912    995.35218   -13676.265    309.42473    253.54596 
   97200    85.175924   -1545.3736    60530.254   -12658.068    1035.1228   -13693.191    309.59846    263.67672 
   97250    83.267887   -1589.5693    60532.998   -12677.075    1011.9349    -13689.01    309.02343    257.77007 
   97300    86.550372   -933.01217    60567.521   -12664.029    1051.8261   -13715.855    309.16713    267.93156 
   97350    83.969089   -1329.4808    60666.369   -12677.608    1020.4564   -13698.065    308.80857    259.94076 
   97400     81.97568   -1231.5613     60733.46   -12678.025    996.23098   -13674.256    308.47849    253.76982 
   97450    84.535137   -1744.9105    60745.359   -12656.905    1027.3355    -13684.24    308.35143    261.69306 
   97500    83.736348   -1349.2423    60762.823   -12627.678     1017.628   -13645.306    308.37958    259.22027 
   97550    84.444492   -2180.0185    60748.695   -12602.739    1026.2339   -13628.973    308.86175    261.41245 
   97600    83.883326   -1779.5396    60737.484   -12616.986    1019.4141     -13636.4    309.03021    259.67526 
   97650    85.450039   -1542.0724    60735.251   -12616.867     1038.454   -13655.321    309.50404    264.52529 
   97700    83.824927   -1916.1514     60735.98   -12613.715    1018.7044   -13632.419    309.45235    259.49448 
   97750    81.971525    -1442.531    60734.345   -12618.042    996.18048   -13614.222    309.06207    253.75695 
   97800    84.836512   -1433.0442    60702.691   -12605.657     1030.998   -13636.655    310.12409    262.62601 
   97850    84.309279   -1272.2529     60680.61   -12614.258    1024.5906   -13638.849    310.03394    260.99387 
   97900    84.436196   -1454.9051    60715.371   -12617.041     1026.133   -13643.174    310.07458    261.38677 
   97950    84.703073   -1789.1056    60687.824   -12632.693    1029.3763    -13662.07    310.93465    262.21293 
   98000    83.213821   -1508.5438    60592.144   -12641.434    1011.2778   -13652.712    310.95531    257.60269 
   98050    83.330713   -1745.0436    60566.501   -12632.273    1012.6984   -13644.971    310.62054    257.96455 
   98100    84.094181    -881.2611    60594.301   -12660.858    1021.9766   -13682.834    310.43707      260.328 
   98150    84.807533   -1327.2384    60592.533   -12660.021    1030.6458   -13690.667    311.55915     262.5363 
   98200    84.100777   -1150.4435    60631.855    -12686.44    1022.0568   -13708.497    311.57706    260.34842 
   98250    84.480352    -1715.514    60640.821   -12674.554    1026.6697   -13701.223    311.97591    261.52346 
   98300    86.123778   -1143.7306    60652.482    -12679.29    1046.6418   -13725.932    312.35439    266.61097 
   98350    83.194015   -1661.7148     60686.44   -12656.872    1011.0371    -13667.91    312.42742    257.54138 
   98400    84.305998   -1591.2055    60696.552   -12677.001    1024.5508   -13701.552     313.1683    260.98372 
   98450    83.102234   -1785.5756    60713.746    -12673.13    1009.9217   -13683.052    313.19494    257.25726 
   98500    79.833439   -1463.7398    60697.209   -12698.204    970.19683   -13668.401    313.40537    247.13814 
   98550    82.955611    -1465.365    60684.759   -12695.874    1008.1398   -13704.014    312.79356    256.80336 
   98600    80.141796    -1379.657    60632.217   -12722.823    973.94422   -13696.767    313.32864    248.09271 
   98650    79.232349   -1574.1312    60611.682   -12753.264    962.89192   -13716.156    312.86144    245.27736 
   98700    76.896063   -1338.0152    60544.301   -12772.762     934.4996   -13707.262    313.12844    238.04499 
   98750    82.218647   -1390.3825    60555.968   -12752.081    999.18369   -13751.264    313.64183    254.52196 
   98800    84.860025    -1429.951    60601.736   -12707.968    1031.2837   -13739.252    313.90012     262.6988 
   98850    80.736237   -1359.4014    60608.964   -12716.092    981.16832    -13697.26    313.81983    249.93291 
   98900    83.458334   -1652.6157     60569.82    -12693.16    1014.2493    -13707.41    314.62275    258.35963 
   98950    81.371867   -1334.4306    60566.425   -12688.932    988.89298   -13677.825    314.67366    251.90061 
   99000    81.205724   -1791.0296    60554.591    -12699.89    986.87388   -13686.764    314.34078    251.38628 
   99050    81.633344   -1654.1047    60589.106   -12718.912    992.07065   -13710.983    313.56334    252.71006 
   99100    84.366175    -1571.237    60569.503   -12709.926    1025.2821   -13735.208     314.1641       261.17 
   99150    81.700104   -1326.4457    60554.515   -12690.468    992.88197    -13683.35    314.29035    252.91672 
   99200     82.67586   -1753.7334    60580.405   -12681.463    1004.7401   -13686.203     314.6112    255.93734 
   99250    83.593425   -1655.1582    60623.937   -12702.732    1015.8911   -13718.623    314.20969    258.77782 
   99300    82.212289   -1730.5635    60586.709    -12702.79    999.10643   -13701.897    314.65243    254.50228 
   99350    81.525885    -1622.063    60569.672   -12655.251    990.76473   -13646.016    314.52676     252.3774 
   99400    83.427537   -1513.3144    60509.766   -12648.204    1013.8751   -13662.079    314.81205    258.26429 
   99450     85.95065   -1396.8086    60389.057   -12628.608    1044.5378   -13673.146     313.8524    266.07502 
   99500    84.337317   -1506.6655    60367.863   -12651.745    1024.9314   -13676.676    313.77022    261.08067 
   99550    82.255463   -1589.1954    60301.073   -12706.087    999.63111   -13705.718    313.81129    254.63593 
   99600       79.234   -1251.3854    60321.656   -12728.359    962.91199   -13691.271    313.42512    245.28247 
   99650    82.012133   -1554.2491    60373.244   -12723.956    996.67398    -13720.63    313.22783    253.88266 
   99700    81.575372   -1170.2951    60372.686   -12713.561    991.36613   -13704.927    312.76225    252.53059 
   99750     80.27457   -1508.5447    60372.947    -12697.36    975.55779   -13672.918    313.07083    248.50374 
   99800    81.714227    -1179.593    60383.221   -12690.901     993.0536   -13683.954     313.3448    252.96044 
   99850    84.807189   -1579.1005    60394.777   -12651.254    1030.6416   -13681.896    313.47683    262.53524 
   99900    80.847974   -1336.9701    60469.535   -12659.357    982.52623   -13641.883    313.95767    250.27881 
   99950    83.661777   -1279.5787    60482.526   -12639.785    1016.7217   -13656.507    314.35222    258.98942 
  100000    82.269311   -1059.1274    60535.557   -12678.411     999.7994    -13678.21    314.52152     254.6788 
Loop time of 84.5994 on 32 procs for 100000 steps with 4078 atoms

Performance: 510.642 ns/day, 0.047 hours/ns, 1182.042 timesteps/s
100.0% CPU use with 32 MPI tasks x no OpenMP threads

MPI task timing breakdown:
Section |  min time  |  avg time  |  max time  |%varavg| %total
---------------------------------------------------------------
Pair    | 48.262     | 54.794     | 62.521     |  76.5 | 64.77
Neigh   | 1.1955     | 2.7841     | 4.643      |  94.1 |  3.29
Comm    | 12.202     | 20.799     | 28.718     | 150.4 | 24.59
Output  | 0.097495   | 0.10318    | 0.19966    |   5.4 |  0.12
Modify  | 4.31       | 5.2685     | 6.3896     |  24.1 |  6.23
Other   |            | 0.8501     |            |       |  1.00

Nlocal:    127.438 ave 200 max 59 min
Histogram: 16 0 0 0 0 0 0 0 6 10
Nghost:    991.188 ave 1055 max 921 min
Histogram: 6 9 1 0 0 0 0 0 4 12
Neighs:    0 ave 0 max 0 min
Histogram: 32 0 0 0 0 0 0 0 0 0
FullNghs:  13843 ave 25647 max 3178 min
Histogram: 16 0 0 0 0 0 0 0 3 13

Total # of neighbors = 442976
Ave neighs/atom = 108.626
Neighbor list builds = 5774
Dangerous builds = 0

write_data		${DIR}/data.eq-${NAME}-${TEMP}
write_data		run_3/data.eq-${NAME}-${TEMP}
write_data		run_3/data.eq-het_freeze_3-${TEMP}
write_data		run_3/data.eq-het_freeze_3-255
undump          1

reset_timestep  0

unfix           2
unfix           3
unfix           4


################################################
#######         Run Simulation         #########
################################################

log				${DIR}/log.run_${NAME}
log				run_3/log.run_${NAME}
log				run_3/log.run_het_freeze_3
