LAMMPS data file via write_data, version 16 Mar 2018, timestep = 100000

6768 atoms
2 atom types

0.0000000000000000e+00 4.9219999999999999e+01 xlo xhi
0.0000000000000000e+00 4.9019635930410494e+01 ylo yhi
-1.9279483485526328e-01 6.0254794834856298e+01 zlo zhi

Masses

1 18.015
2 12.01

Atoms # atomic

2244 1 5.6693077413521342e+00 2.8672373990350972e+00 4.3940429904516298e+00 0 2 1
5053 1 1.1693218012680120e+01 5.8041175373036555e+00 9.1843889208157155e+00 1 0 1
4973 1 6.6931791795521329e+00 1.1521329326379993e+01 4.8043688195639123e-01 0 1 1
5095 1 9.1428858112594769e-01 2.1765983923504351e+00 3.9805518751472304e+00 1 0 1
5193 1 6.9885588313031750e+00 3.2955024098548038e+00 1.9634748905355091e+00 0 0 0
5089 1 2.9512256856486874e-01 5.1572677451165276e+00 8.3564193429382616e+00 1 1 1
3972 1 7.3095135092632262e+00 8.6490448987877933e-01 2.5057455286404789e-01 -2 0 1
2041 1 9.4481234416279722e+00 4.5233075617519019e+00 3.0787212891041187e+00 0 1 0
6765 1 1.1641188255978958e+00 5.8463914407643616e+00 4.6223128693019380e+00 -1 1 1
5338 1 1.0831539847008411e+01 1.2050303849325941e+00 2.7977841507605330e+00 1 2 0
3315 1 9.8967707930801818e-01 3.4826763080691490e+00 4.8910397487399671e-01 0 0 1
5659 1 4.1432131203987090e+00 6.7116410646856215e+00 1.8516004035653917e+00 1 0 0
3340 1 1.7038910514026409e+00 8.2077801790526088e+00 1.2813695102557794e+00 2 0 1
5345 1 3.0870162682324054e+00 3.7446781135509601e+00 4.8597455199450099e+00 1 1 0
4896 1 6.3920161055720133e+00 5.3502960410758513e+00 1.9510102024831405e-01 1 0 1
1678 1 7.9936619018732804e+00 7.9297424165842916e+00 1.1678536181361530e+00 1 1 1
3764 1 2.3273359070785524e+00 5.4666043822355592e-01 6.3794221359070216e+00 1 0 0
5445 1 1.0857483978745000e+01 5.8762686541755205e+00 1.1582957874963136e+00 0 1 1
3821 1 5.5123402795364873e+00 1.1813083567393745e+01 4.0493377275980684e+00 1 0 0
5481 1 1.2775331580581037e+00 9.6608463171076444e+00 3.5790042067615002e+00 0 -1 0
5038 1 3.5261534842210174e+00 1.0229536024544158e+01 3.1131376191123450e-01 0 1 1
3852 1 5.7637091328476915e+00 9.4309674653882691e+00 2.2403577072730139e+00 0 1 0
6540 1 1.1873998930400720e+01 1.2093031347560204e+01 1.0726337003730558e+01 1 1 0
2147 1 6.9949196927015560e+00 9.1126712810807060e+00 1.1753625160464832e+01 -1 1 0
3652 1 1.0478458074449868e+01 1.1297516131063629e+01 3.8577697830162530e+00 0 2 0
4993 1 1.0160928765082184e+01 9.6791057776266971e+00 1.3997248464740166e+00 -1 -1 1
5572 1 1.1728316034622113e+01 9.4197845130591684e+00 1.1650398263768777e+01 2 0 0
107 1 1.1312267909141491e+01 9.4213446986627094e+00 1.4307097668503015e+01 0 1 0
1830 1 1.1896238344161222e+01 5.7147567488527846e+00 6.1087407528983784e+00 0 1 0
3181 1 1.6220284084711034e+00 1.3209629212370753e+00 1.0736525607708362e+01 0 1 1
3892 1 3.7314068247895662e+00 1.2562522864686927e+00 8.7187918385736207e+00 1 1 0
50 1 1.1130953706586437e+01 3.7508372447315319e-01 7.0178828244393348e+00 0 -1 0
5515 1 1.0750785507592580e+01 9.8857874514289126e+00 5.9461599265950609e+00 0 0 1
4934 1 7.9009723930703037e+00 1.4710403919954969e+00 1.1266953926056654e+01 0 0 1
6451 1 1.0511814056439459e+01 3.3394042485382878e+00 5.0427787544486389e+00 0 0 1
1348 1 7.9646004192008721e+00 3.0233728196257141e+00 6.1593707603865893e+00 -1 0 1
3760 1 7.5901899474831032e+00 4.5922470731446241e+00 8.6561535740546134e+00 -1 0 0
3561 1 2.5474220128334486e+00 6.8851800335229720e+00 8.1770759531536967e+00 0 0 0
4780 1 3.2194464415665394e+00 3.9285749080211798e+00 7.4446551356549140e+00 0 0 1
1797 1 7.9557095778220424e+00 6.5736454591487830e+00 3.5548730784881513e+00 0 -1 0
5642 1 5.4220715589970849e+00 6.0486456427251634e+00 4.1037636462846674e+00 1 -1 1
1632 1 5.2090352287415502e+00 4.8503181910943116e+00 9.5655672811298551e+00 1 0 0
4825 1 8.2920417061937837e+00 7.3732321527220739e+00 8.1482741952078186e+00 0 0 1
5699 1 9.6492118768226067e+00 7.5834325461022365e+00 6.0473859907073031e+00 0 0 1
5626 1 6.3871409032533375e+00 5.4671780315552780e+00 1.3159377872487079e+01 0 0 0
4862 1 2.0998724469564314e+00 8.2492253774519604e+00 5.6367965855912869e+00 1 0 0
2054 1 4.4100920666106038e+00 8.7925381981373381e+00 9.4141042424857382e+00 1 1 0
6563 1 1.9294650421924704e+00 1.0887275885270949e+01 7.7903999043140137e+00 1 1 0
2269 1 4.7440661156747419e+00 8.5985849738354538e+00 4.8849846713362064e+00 0 -1 1
5071 1 6.0720790186656428e+00 9.2741685296300389e+00 7.3386958071565900e+00 0 1 1
2216 1 8.4919305355170867e+00 1.0254613982578885e+01 9.2048804962565143e+00 0 2 0
5412 1 4.4992612266677252e+00 1.7011893297012254e-01 4.0515281955079718e+00 0 1 0
5321 1 1.0206109982322419e+01 1.1857838009344364e+01 7.9795038682642847e+00 -1 2 0
6587 1 1.1133293104803224e+00 4.9514767396122483e+00 1.3322523805941158e+01 0 1 1
3265 1 3.0075049245985590e+00 2.6886918379157465e+00 1.2779418240653410e+01 0 0 1
546 1 5.1317954783375663e+00 2.7827940302663667e+00 1.1296975234383904e+01 1 1 1
3935 1 1.1724174649060412e+01 2.5704112240539572e+00 1.2224083441005169e+01 1 0 1
3531 1 2.1088270969660932e+00 7.5947188570142732e+00 1.2064473805000780e+01 2 1 0
5480 1 5.6060825039717015e+00 9.7357793663434951e+00 1.4574370430845647e+01 2 2 0
3777 1 1.0650630704913752e+01 5.1798918997858978e+00 1.4693499457813141e+01 1 0 0
421 1 7.9784745034105531e-01 1.1915692617300044e+00 1.3784362557583423e+00 2 1 0
1963 1 8.7448989183701382e+00 8.3282409568194478e+00 1.4327169897543122e+01 -1 0 0
5606 1 4.9628410035530752e+00 6.9633241747205528e+00 1.1157087955273978e+01 1 0 1
6367 1 1.2261757751228179e+01 7.8651211136512860e+00 2.2273626675131681e+00 1 0 1
6430 1 9.4496874679244875e+00 3.6678686149169786e+00 1.0662454418295734e+01 0 1 1
550 1 9.0823806123836341e+00 5.5811627190187520e+00 1.2455400392891189e+01 0 1 0
5603 1 1.0041906584326071e+01 7.8918667103916000e+00 1.0618000456445726e+01 2 2 1
1438 1 2.2415832349696134e+00 1.0835170195849571e+01 1.0534615047108339e+01 1 2 1
1483 1 2.7929837021347463e+00 1.0139051694773240e+01 1.3665593334263585e+01 0 1 1
1809 1 8.1224769847221179e+00 2.8133103284730826e-01 6.8521119549813410e+00 1 1 0
3697 1 6.7288035457776889e+00 1.1806019048670006e+01 1.1457439242027858e+01 1 0 0
3168 1 9.7946915592927031e+00 2.2288633803507043e+00 1.4755621644360518e+01 0 1 0
1822 1 6.6464073298135444e+00 2.5829129337423118e+00 1.4216735499790182e+01 1 1 0
2161 1 1.2084655407498023e+01 3.2319882685360888e+00 9.5128066332517869e-01 1 1 0
2051 1 1.2263792985334655e+01 1.2183007740807216e+01 8.3708506287607642e-01 0 0 0
800 2 9.8440000000000012e+00 9.9460130873296642e+00 3.0031000000000425e+01 0 0 0
5411 1 4.3876049725227881e+00 2.1940402617822419e+00 1.9387754273797071e+01 0 1 1
6734 1 1.0447860152486497e+01 5.6844830687123482e-01 2.0254711191262526e+01 1 2 1
4840 1 6.7689741807061150e+00 3.5065326810812265e+00 1.7050678380364207e+01 0 -1 1
6738 1 5.0147237298734302e+00 9.7025899208579180e-01 2.4346258935482300e+01 0 1 0
166 1 2.8160057612902512e-01 1.4619980189334190e+00 2.4024453242401936e+01 1 0 0
614 1 1.0218004443276119e+01 3.6228072409851695e+00 1.7774360483690341e+01 1 0 0
452 1 2.9355991745866059e+00 5.7999007329281520e+00 1.5997803849908308e+01 0 0 1
3745 1 8.5767901110812019e+00 1.4980055589446379e+00 1.8504659500652139e+01 1 1 0
1849 1 1.3243570134840752e+00 8.7152624228644360e+00 1.5507860631422814e+01 0 2 0
3940 1 8.1094081338496071e+00 9.4614265249919800e+00 1.9179106095697726e+01 1 0 1
6504 1 1.1597091786266832e+01 1.0533073558439364e+01 2.0104409078043115e+01 0 1 1
5527 1 6.8370103828681357e+00 6.1290587321429193e+00 1.7226607361267089e+01 2 1 0
554 1 4.8369545160739378e+00 1.0771184961317202e+01 1.6931486964281209e+01 0 0 1
3918 1 1.1096123662275692e+01 1.1081767224052923e+01 2.2737246646801829e+01 1 1 1
1458 1 3.9108754796619958e+00 3.4150327119981374e+00 1.6760224575540743e+01 0 0 1
5073 1 5.7370583515051976e+00 8.6952640136480071e+00 1.8379706072922929e+01 1 0 1
5532 1 9.3307387075098340e+00 6.5410842991275295e+00 1.6679378569536571e+01 1 0 0
3185 1 1.2000120443606987e+01 8.8909091975335990e+00 2.3902039529366789e+01 0 0 1
799 2 9.8440000000000012e+00 1.1366872099805333e+01 2.6802243426232149e+01 0 0 0
1673 1 1.1138845442936814e+01 8.2217408929389197e+00 1.8084732308656861e+01 0 1 0
797 2 8.6134999999999984e+00 1.0656442593567498e+01 2.6802243426232149e+01 0 0 0
5404 1 2.1818277251653035e+00 3.8004250208204962e+00 2.1028247428803017e+01 1 1 0
2193 1 2.8199087255816626e+00 2.5023176965541314e+00 2.3399898943582112e+01 1 1 0
3122 1 3.1737398497936673e+00 5.2823008801432323e+00 2.4042547117818966e+01 2 1 1
2300 1 1.8428821926147307e+00 9.3755408443387314e+00 2.0241363362320115e+01 0 1 1
6366 1 7.2416935353596772e+00 2.4026785348882282e+00 2.3082627025312551e+01 0 1 1
1744 1 5.8550027761239125e+00 6.1313982154832196e+00 2.3320345231937551e+01 0 1 1
2025 1 1.0993317025411374e+01 4.2372690570335507e+00 2.2764523557372843e+01 0 1 0
3323 1 9.9992296454091036e+00 1.6763565701996530e+00 2.2864821913196714e+01 1 1 1
6637 1 1.8831677763935493e+00 6.4822466011246211e+00 2.0324664623109701e+01 1 0 1
5205 1 3.7202850672486565e+00 6.5523870601059686e+00 1.8528367631921590e+01 2 0 0
3871 1 1.3862639850367340e+00 6.7820263803303513e+00 2.3211607774930709e+01 1 -1 0
3522 1 2.9410195757796691e+00 9.1435587213919298e+00 2.4274966057034625e+01 0 0 1
3498 1 5.4966362203239640e+00 8.9337144704018208e+00 2.3128539052446683e+01 0 -1 0
5340 1 6.8824469238643662e+00 2.8514959149440537e+00 2.0291596517677913e+01 0 1 0
5023 1 1.0526668972571690e+01 4.9075475816843825e+00 2.0029784299246511e+01 -1 1 0
4834 1 8.3493017645269347e+00 5.0934845969760572e+00 2.3950431543056133e+01 0 0 1
5213 1 9.0254958127190310e+00 7.5781090071127464e+00 2.3342276241690062e+01 1 -1 1
365 1 2.3417114170021072e+00 1.0217759267672580e+01 1.7538804461391408e+01 1 1 0
227 1 1.7938431720528656e+00 1.0935354667569024e+01 2.2525767195920007e+01 0 0 0
5048 1 4.6081014442064996e+00 9.7444720963373008e+00 2.0599292188879346e+01 0 1 1
4784 1 8.3249552415180528e+00 1.0219996986215856e+01 1.6405958385301702e+01 1 1 1
3279 1 6.7693691587467342e+00 5.5619246839365299e+00 2.0110512272831848e+01 1 0 1
3312 1 7.7064615132072838e+00 1.0666125315786946e+01 2.3600709142664144e+01 1 1 1
1903 1 8.3725017520219076e+00 1.1479041776265918e+01 2.0867354095207862e+01 0 0 0
843 2 1.1074500000000002e+01 1.2077301606043163e+01 3.0031000000000425e+01 0 0 0
3137 1 9.1398405338442927e+00 6.9785387474468772e+00 2.0418589057940778e+01 1 0 1
623 2 0.0000000000000000e+00 2.8417180249513345e+00 2.6802243426232149e+01 0 0 0
625 2 0.0000000000000000e+00 0.0000000000000000e+00 2.6802243426232149e+01 0 0 0
627 2 1.2305000000000001e+00 7.1042950623783474e-01 2.6802243426232149e+01 0 0 0
634 2 1.2305000000000001e+00 2.1312885187134998e+00 2.6802243426232149e+01 0 0 0
636 2 2.4610000000000003e+00 2.8417180249513345e+00 2.6802243426232149e+01 0 0 0
638 2 2.4610000000000003e+00 0.0000000000000000e+00 2.6802243426232149e+01 0 0 0
640 2 3.6915000000000004e+00 7.1042950623783474e-01 2.6802243426232149e+01 0 0 0
655 2 3.6914999999999996e+00 2.1312885187134998e+00 2.6802243426232149e+01 0 0 0
624 2 0.0000000000000000e+00 1.4208590124756650e+00 3.0031000000000425e+01 0 0 0
626 2 0.0000000000000000e+00 0.0000000000000000e+00 3.0031000000000425e+01 0 0 0
633 2 1.2305000000000001e+00 3.5521475311891644e+00 3.0031000000000425e+01 0 0 0
635 2 1.2305000000000001e+00 2.1312885187134998e+00 3.0031000000000425e+01 0 0 0
637 2 2.4610000000000003e+00 1.4208590124756650e+00 3.0031000000000425e+01 0 0 0
639 2 2.4610000000000003e+00 0.0000000000000000e+00 3.0031000000000425e+01 0 0 0
654 2 3.6914999999999996e+00 3.5521475311891644e+00 3.0031000000000425e+01 0 0 0
656 2 3.6914999999999996e+00 2.1312885187134998e+00 3.0031000000000425e+01 0 0 0
657 2 4.9220000000000006e+00 2.8417180249513332e+00 2.6802243426232149e+01 0 0 0
659 2 4.9220000000000006e+00 0.0000000000000000e+00 2.6802243426232149e+01 0 0 0
661 2 6.1524999999999999e+00 7.1042950623783407e-01 2.6802243426232149e+01 0 0 0
684 2 6.1524999999999999e+00 2.1312885187134989e+00 2.6802243426232149e+01 0 0 0
686 2 7.3829999999999991e+00 2.8417180249513345e+00 2.6802243426232149e+01 0 0 0
688 2 7.3829999999999991e+00 0.0000000000000000e+00 2.6802243426232149e+01 0 0 0
658 2 4.9220000000000006e+00 1.4208590124756650e+00 3.0031000000000425e+01 0 0 0
660 2 4.9220000000000006e+00 0.0000000000000000e+00 3.0031000000000425e+01 0 0 0
683 2 6.1524999999999999e+00 3.5521475311891644e+00 3.0031000000000425e+01 0 0 0
685 2 6.1524999999999999e+00 2.1312885187134989e+00 3.0031000000000425e+01 0 0 0
687 2 7.3829999999999991e+00 1.4208590124756659e+00 3.0031000000000425e+01 0 0 0
689 2 7.3829999999999991e+00 0.0000000000000000e+00 3.0031000000000425e+01 0 0 0
690 2 8.6134999999999984e+00 7.1042950623783407e-01 2.6802243426232149e+01 0 0 0
721 2 8.6134999999999984e+00 2.1312885187135002e+00 2.6802243426232149e+01 0 0 0
723 2 9.8440000000000012e+00 2.8417180249513332e+00 2.6802243426232149e+01 0 0 0
725 2 9.8440000000000012e+00 0.0000000000000000e+00 2.6802243426232149e+01 0 0 0
727 2 1.1074500000000002e+01 7.1042950623783330e-01 2.6802243426232149e+01 0 0 0
766 2 1.1074500000000002e+01 2.1312885187135002e+00 2.6802243426232149e+01 0 0 0
720 2 8.6134999999999984e+00 3.5521475311891657e+00 3.0031000000000425e+01 0 0 0
722 2 8.6134999999999984e+00 2.1312885187135002e+00 3.0031000000000425e+01 0 0 0
724 2 9.8440000000000012e+00 1.4208590124756659e+00 3.0031000000000425e+01 0 0 0
726 2 9.8440000000000012e+00 0.0000000000000000e+00 3.0031000000000425e+01 0 0 0
765 2 1.1074500000000002e+01 3.5521475311891644e+00 3.0031000000000425e+01 0 0 0
767 2 1.1074500000000002e+01 2.1312885187135002e+00 3.0031000000000425e+01 0 0 0
628 2 0.0000000000000000e+00 7.1042950623783341e+00 2.6802243426232149e+01 0 0 0
630 2 0.0000000000000000e+00 4.2625770374269996e+00 2.6802243426232149e+01 0 0 0
632 2 1.2305000000000001e+00 4.9730065436648339e+00 2.6802243426232149e+01 0 0 0
647 2 1.2305000000000001e+00 6.3938655561404980e+00 2.6802243426232149e+01 0 0 0
649 2 2.4610000000000003e+00 7.1042950623783341e+00 2.6802243426232149e+01 0 0 0
651 2 2.4610000000000003e+00 4.2625770374269996e+00 2.6802243426232149e+01 0 0 0
653 2 3.6914999999999996e+00 4.9730065436648339e+00 2.6802243426232149e+01 0 0 0
676 2 3.6914999999999996e+00 6.3938655561404980e+00 2.6802243426232149e+01 0 0 0
629 2 0.0000000000000000e+00 5.6834360499026637e+00 3.0031000000000425e+01 0 0 0
631 2 0.0000000000000000e+00 4.2625770374269996e+00 3.0031000000000425e+01 0 0 0
646 2 1.2305000000000001e+00 7.8147245686161639e+00 3.0031000000000425e+01 0 0 0
648 2 1.2305000000000001e+00 6.3938655561404980e+00 3.0031000000000425e+01 0 0 0
650 2 2.4610000000000003e+00 5.6834360499026637e+00 3.0031000000000425e+01 0 0 0
652 2 2.4610000000000003e+00 4.2625770374269996e+00 3.0031000000000425e+01 0 0 0
675 2 3.6914999999999996e+00 7.8147245686161639e+00 3.0031000000000425e+01 0 0 0
677 2 3.6914999999999996e+00 6.3938655561404980e+00 3.0031000000000425e+01 0 0 0
678 2 4.9220000000000006e+00 7.1042950623783341e+00 2.6802243426232149e+01 0 0 0
680 2 4.9220000000000006e+00 4.2625770374269978e+00 2.6802243426232149e+01 0 0 0
682 2 6.1524999999999999e+00 4.9730065436648339e+00 2.6802243426232149e+01 0 0 0
713 2 6.1524999999999999e+00 6.3938655561404980e+00 2.6802243426232149e+01 0 0 0
715 2 7.3830000000000009e+00 7.1042950623783341e+00 2.6802243426232149e+01 0 0 0
717 2 7.3829999999999991e+00 4.2625770374269996e+00 2.6802243426232149e+01 0 0 0
679 2 4.9220000000000006e+00 5.6834360499026637e+00 3.0031000000000425e+01 0 0 0
681 2 4.9220000000000006e+00 4.2625770374269978e+00 3.0031000000000425e+01 0 0 0
712 2 6.1524999999999999e+00 7.8147245686161639e+00 3.0031000000000425e+01 0 0 0
714 2 6.1524999999999999e+00 6.3938655561404980e+00 3.0031000000000425e+01 0 0 0
716 2 7.3829999999999991e+00 5.6834360499026637e+00 3.0031000000000425e+01 0 0 0
718 2 7.3829999999999991e+00 4.2625770374269996e+00 3.0031000000000425e+01 0 0 0
719 2 8.6135000000000002e+00 4.9730065436648339e+00 2.6802243426232149e+01 0 0 0
758 2 8.6135000000000002e+00 6.3938655561404980e+00 2.6802243426232149e+01 0 0 0
760 2 9.8440000000000012e+00 7.1042950623783341e+00 2.6802243426232149e+01 0 0 0
762 2 9.8440000000000012e+00 4.2625770374270004e+00 2.6802243426232149e+01 0 0 0
764 2 1.1074500000000002e+01 4.9730065436648339e+00 2.6802243426232149e+01 0 0 0
805 2 1.1074500000000002e+01 6.3938655561404980e+00 2.6802243426232149e+01 0 0 0
757 2 8.6135000000000002e+00 7.8147245686161639e+00 3.0031000000000425e+01 0 0 0
759 2 8.6135000000000002e+00 6.3938655561404980e+00 3.0031000000000425e+01 0 0 0
761 2 9.8440000000000012e+00 5.6834360499026637e+00 3.0031000000000425e+01 0 0 0
763 2 9.8440000000000012e+00 4.2625770374270004e+00 3.0031000000000425e+01 0 0 0
804 2 1.1074500000000002e+01 7.8147245686161639e+00 3.0031000000000425e+01 0 0 0
806 2 1.1074500000000002e+01 6.3938655561404980e+00 3.0031000000000425e+01 0 0 0
641 2 0.0000000000000000e+00 1.1366872099805333e+01 2.6802243426232149e+01 0 0 0
643 2 0.0000000000000000e+00 8.5251540748539991e+00 2.6802243426232149e+01 0 0 0
645 2 1.2305000000000001e+00 9.2355835810918343e+00 2.6802243426232149e+01 0 0 0
668 2 1.2305000000000001e+00 1.0656442593567498e+01 2.6802243426232149e+01 0 0 0
670 2 2.4610000000000003e+00 1.1366872099805333e+01 2.6802243426232149e+01 0 0 0
672 2 2.4610000000000003e+00 8.5251540748539991e+00 2.6802243426232149e+01 0 0 0
674 2 3.6915000000000004e+00 9.2355835810918343e+00 2.6802243426232149e+01 0 0 0
705 2 3.6914999999999996e+00 1.0656442593567499e+01 2.6802243426232149e+01 0 0 0
642 2 0.0000000000000000e+00 9.9460130873296642e+00 3.0031000000000425e+01 0 0 0
644 2 0.0000000000000000e+00 8.5251540748539991e+00 3.0031000000000425e+01 0 0 0
667 2 1.2305000000000001e+00 1.2077301606043163e+01 3.0031000000000425e+01 0 0 0
669 2 1.2305000000000001e+00 1.0656442593567498e+01 3.0031000000000425e+01 0 0 0
671 2 2.4610000000000003e+00 9.9460130873296642e+00 3.0031000000000425e+01 0 0 0
673 2 2.4610000000000003e+00 8.5251540748539991e+00 3.0031000000000425e+01 0 0 0
704 2 3.6914999999999996e+00 1.2077301606043163e+01 3.0031000000000425e+01 0 0 0
706 2 3.6914999999999996e+00 1.0656442593567499e+01 3.0031000000000425e+01 0 0 0
707 2 4.9220000000000006e+00 1.1366872099805333e+01 2.6802243426232149e+01 0 0 0
709 2 4.9220000000000006e+00 8.5251540748539991e+00 2.6802243426232149e+01 0 0 0
711 2 6.1524999999999999e+00 9.2355835810918343e+00 2.6802243426232149e+01 0 0 0
750 2 6.1524999999999999e+00 1.0656442593567499e+01 2.6802243426232149e+01 0 0 0
752 2 7.3829999999999991e+00 1.1366872099805333e+01 2.6802243426232149e+01 0 0 0
754 2 7.3830000000000009e+00 8.5251540748539991e+00 2.6802243426232149e+01 0 0 0
708 2 4.9220000000000006e+00 9.9460130873296642e+00 3.0031000000000425e+01 0 0 0
710 2 4.9220000000000006e+00 8.5251540748539991e+00 3.0031000000000425e+01 0 0 0
749 2 6.1524999999999999e+00 1.2077301606043163e+01 3.0031000000000425e+01 0 0 0
751 2 6.1524999999999999e+00 1.0656442593567499e+01 3.0031000000000425e+01 0 0 0
753 2 7.3830000000000009e+00 9.9460130873296642e+00 3.0031000000000425e+01 0 0 0
755 2 7.3830000000000009e+00 8.5251540748539991e+00 3.0031000000000425e+01 0 0 0
798 2 8.6134999999999984e+00 1.0656442593567498e+01 3.0031000000000425e+01 0 0 0
796 2 8.6135000000000002e+00 1.2077301606043163e+01 3.0031000000000425e+01 0 0 0
803 2 1.1074500000000002e+01 9.2355835810918343e+00 2.6802243426232149e+01 0 0 0
844 2 1.1074500000000002e+01 1.0656442593567498e+01 2.6802243426232149e+01 0 0 0
845 2 1.1074500000000002e+01 1.0656442593567498e+01 3.0031000000000425e+01 0 0 0
846 2 1.2304999999999998e+01 1.1366872099805333e+01 2.6802243426232149e+01 0 0 0
756 2 8.6134999999999984e+00 9.2355835810918343e+00 2.6802243426232149e+01 0 0 0
801 2 9.8440000000000012e+00 8.5251540748539956e+00 2.6802243426232149e+01 0 0 0
802 2 9.8440000000000012e+00 8.5251540748539956e+00 3.0031000000000425e+01 0 0 0
5463 1 1.0828300837585889e+01 1.2178229325049106e+01 1.5219955209516653e+01 1 0 0
1974 1 1.6038149690708576e+00 1.4135894927810357e+00 1.8347657585214936e+01 0 1 0
1598 1 4.0813565429718224e-01 5.9314258190515377e+00 1.7422643606782376e+01 1 0 1
159 1 4.0184507333900159e+00 1.0123811861940448e+00 1.5114793698332473e+01 0 0 0
6661 1 5.1153479649611260e+00 6.8714587388032049e+00 1.5074289085122498e+01 0 -1 1
952 2 0.0000000000000000e+00 2.8417180249513345e+00 3.3259756573771739e+01 0 0 0
953 2 0.0000000000000000e+00 0.0000000000000000e+00 3.3259756573771739e+01 0 0 0
954 2 1.2305000000000001e+00 7.1042950623783474e-01 3.3259756573771739e+01 0 0 0
958 2 1.2305000000000001e+00 2.1312885187134998e+00 3.3259756573771739e+01 0 0 0
959 2 2.4610000000000003e+00 2.8417180249513345e+00 3.3259756573771739e+01 0 0 0
960 2 2.4610000000000003e+00 0.0000000000000000e+00 3.3259756573771739e+01 0 0 0
961 2 3.6915000000000004e+00 7.1042950623783474e-01 3.3259756573771739e+01 0 0 0
969 2 3.6914999999999996e+00 2.1312885187134998e+00 3.3259756573771739e+01 0 0 0
970 2 4.9220000000000006e+00 2.8417180249513332e+00 3.3259756573771739e+01 0 0 0
971 2 4.9220000000000006e+00 0.0000000000000000e+00 3.3259756573771739e+01 0 0 0
972 2 6.1524999999999999e+00 7.1042950623783407e-01 3.3259756573771739e+01 0 0 0
984 2 6.1524999999999999e+00 2.1312885187134989e+00 3.3259756573771739e+01 0 0 0
985 2 7.3829999999999991e+00 2.8417180249513345e+00 3.3259756573771739e+01 0 0 0
986 2 7.3829999999999991e+00 0.0000000000000000e+00 3.3259756573771739e+01 0 0 0
987 2 8.6134999999999984e+00 7.1042950623783407e-01 3.3259756573771739e+01 0 0 0
1003 2 8.6134999999999984e+00 2.1312885187135002e+00 3.3259756573771739e+01 0 0 0
1004 2 9.8440000000000012e+00 2.8417180249513332e+00 3.3259756573771739e+01 0 0 0
1005 2 9.8440000000000012e+00 0.0000000000000000e+00 3.3259756573771739e+01 0 0 0
1006 2 1.1074500000000002e+01 7.1042950623783330e-01 3.3259756573771739e+01 0 0 0
1026 2 1.1074500000000002e+01 2.1312885187135002e+00 3.3259756573771739e+01 0 0 0
955 2 0.0000000000000000e+00 7.1042950623783341e+00 3.3259756573771739e+01 0 0 0
956 2 0.0000000000000000e+00 4.2625770374269996e+00 3.3259756573771739e+01 0 0 0
957 2 1.2305000000000001e+00 4.9730065436648339e+00 3.3259756573771739e+01 0 0 0
965 2 1.2305000000000001e+00 6.3938655561404980e+00 3.3259756573771739e+01 0 0 0
966 2 2.4610000000000003e+00 7.1042950623783341e+00 3.3259756573771739e+01 0 0 0
967 2 2.4610000000000003e+00 4.2625770374269996e+00 3.3259756573771739e+01 0 0 0
968 2 3.6914999999999996e+00 4.9730065436648339e+00 3.3259756573771739e+01 0 0 0
980 2 3.6914999999999996e+00 6.3938655561404980e+00 3.3259756573771739e+01 0 0 0
981 2 4.9220000000000006e+00 7.1042950623783341e+00 3.3259756573771739e+01 0 0 0
982 2 4.9220000000000006e+00 4.2625770374269978e+00 3.3259756573771739e+01 0 0 0
983 2 6.1524999999999999e+00 4.9730065436648339e+00 3.3259756573771739e+01 0 0 0
999 2 6.1524999999999999e+00 6.3938655561404980e+00 3.3259756573771739e+01 0 0 0
1000 2 7.3830000000000009e+00 7.1042950623783341e+00 3.3259756573771739e+01 0 0 0
1001 2 7.3829999999999991e+00 4.2625770374269996e+00 3.3259756573771739e+01 0 0 0
1002 2 8.6135000000000002e+00 4.9730065436648339e+00 3.3259756573771739e+01 0 0 0
1022 2 8.6135000000000002e+00 6.3938655561404980e+00 3.3259756573771739e+01 0 0 0
1023 2 9.8440000000000012e+00 7.1042950623783341e+00 3.3259756573771739e+01 0 0 0
1024 2 9.8440000000000012e+00 4.2625770374270004e+00 3.3259756573771739e+01 0 0 0
1025 2 1.1074500000000002e+01 4.9730065436648339e+00 3.3259756573771739e+01 0 0 0
1046 2 1.1074500000000002e+01 6.3938655561404980e+00 3.3259756573771739e+01 0 0 0
962 2 0.0000000000000000e+00 1.1366872099805333e+01 3.3259756573771739e+01 0 0 0
963 2 0.0000000000000000e+00 8.5251540748539991e+00 3.3259756573771739e+01 0 0 0
964 2 1.2305000000000001e+00 9.2355835810918343e+00 3.3259756573771739e+01 0 0 0
976 2 1.2305000000000001e+00 1.0656442593567498e+01 3.3259756573771739e+01 0 0 0
977 2 2.4610000000000003e+00 1.1366872099805333e+01 3.3259756573771739e+01 0 0 0
978 2 2.4610000000000003e+00 8.5251540748539991e+00 3.3259756573771739e+01 0 0 0
979 2 3.6915000000000004e+00 9.2355835810918343e+00 3.3259756573771739e+01 0 0 0
995 2 3.6914999999999996e+00 1.0656442593567499e+01 3.3259756573771739e+01 0 0 0
996 2 4.9220000000000006e+00 1.1366872099805333e+01 3.3259756573771739e+01 0 0 0
997 2 4.9220000000000006e+00 8.5251540748539991e+00 3.3259756573771739e+01 0 0 0
998 2 6.1524999999999999e+00 9.2355835810918343e+00 3.3259756573771739e+01 0 0 0
1018 2 6.1524999999999999e+00 1.0656442593567499e+01 3.3259756573771739e+01 0 0 0
1019 2 7.3829999999999991e+00 1.1366872099805333e+01 3.3259756573771739e+01 0 0 0
1020 2 7.3830000000000009e+00 8.5251540748539991e+00 3.3259756573771739e+01 0 0 0
1021 2 8.6134999999999984e+00 9.2355835810918343e+00 3.3259756573771739e+01 0 0 0
1042 2 8.6134999999999984e+00 1.0656442593567498e+01 3.3259756573771739e+01 0 0 0
1043 2 9.8440000000000012e+00 1.1366872099805333e+01 3.3259756573771739e+01 0 0 0
1044 2 9.8440000000000012e+00 8.5251540748539956e+00 3.3259756573771739e+01 0 0 0
1045 2 1.1074500000000002e+01 9.2355835810918343e+00 3.3259756573771739e+01 0 0 0
1066 2 1.1074500000000002e+01 1.0656442593567498e+01 3.3259756573771739e+01 0 0 0
1067 2 1.2304999999999998e+01 1.1366872099805333e+01 3.3259756573771739e+01 0 0 0
5484 1 1.6008873711433620e+00 6.6097346779799171e-01 3.5555486036426323e+01 0 1 -1
45 1 3.4876360696636031e+00 2.3784685606473928e+00 3.8896692910263070e+01 -1 1 -1
5485 1 1.1434946377492963e+01 1.4118158752188359e+00 3.9828935562372692e+01 0 1 0
1437 1 9.3188514163246268e+00 1.1494691957295606e+01 3.5661792697625032e+01 1 1 0
214 1 5.2602308684154080e+00 2.9591277023444555e+00 3.6830074434151278e+01 1 0 -1
2169 1 8.8702219863414804e+00 9.2718598751077608e-01 3.5538096345086643e+01 1 1 -1
1499 1 9.6957956110482364e+00 5.1866857280585394e+00 4.3262599514145350e+01 1 -1 0
6503 1 1.9475346116974883e+00 6.9035601677737315e+00 3.6923629806862564e+01 0 1 0
5383 1 1.9259088748504092e+00 7.3860377659286129e+00 3.9543251818290891e+01 1 0 -1
2215 1 8.2164749828011230e-01 5.3745382197048563e+00 4.4182808274247243e+01 0 0 0
3612 1 1.1326396339025543e+01 3.9236964248777106e-01 3.6350417888274265e+01 1 -1 -1
2205 1 3.8467781641793208e+00 5.9493010436642537e+00 3.5664895492335383e+01 -1 1 0
3222 1 2.5998816680699690e+00 3.2094164335559801e+00 3.5852323819997423e+01 0 2 0
151 1 6.6284377428651275e+00 6.0780644252567324e+00 3.6804634303280245e+01 -1 0 -1
3638 1 8.3377946166247821e+00 3.5626964380891142e+00 3.6435676739543538e+01 2 -1 -1
296 1 1.0310551058273909e+01 9.8407038015982273e+00 4.3445900536737028e+01 0 -1 -1
6604 1 9.7299850216478241e+00 3.6669257664644679e+00 3.9127840746927873e+01 0 0 0
4714 1 2.6477766375660092e+00 1.1936261634888044e+01 4.0686605568071357e+01 1 2 0
1599 1 1.1802005629414936e+01 3.9951762781413152e+00 4.3490254598224212e+01 -1 0 0
5028 1 2.2063127786412005e+00 1.0726721693047185e+01 4.3384680133480536e+01 -1 0 0
4757 1 2.3608007900708246e+00 9.6533298713586486e+00 3.6178956667173786e+01 0 -1 0
5528 1 3.3724877921745602e+00 9.7625410781240820e+00 3.8855395968880678e+01 0 2 -1
2065 1 4.5896999303267680e+00 1.1156289496808297e+01 3.6015058391445265e+01 1 1 -1
494 1 6.1307913532548319e+00 9.9949852628378348e+00 3.8996291775866794e+01 0 -1 -1
5025 1 6.5772624203868730e+00 8.8204262493460259e+00 3.6646492102130615e+01 -1 0 -1
1658 1 9.2205052740984481e+00 9.4266130120758316e+00 3.7089293490327073e+01 0 0 0
6406 1 9.1638258390686449e+00 8.4103212803287501e+00 4.1526379377869326e+01 0 -1 0
2116 1 1.1636187195194190e+00 2.0712004111826192e+00 4.1610404213715235e+01 0 1 -1
552 1 5.6050570158973034e+00 3.9415171839917851e-01 4.4918403128430128e+01 0 -1 0
5423 1 3.9786391256150591e+00 1.2145310864466516e+00 4.2637949415262540e+01 2 -1 -1
1439 1 5.6894561885883999e+00 1.4119727101150874e+00 4.0426480435400400e+01 0 0 0
4774 1 7.3597740307750721e+00 3.4826100614509374e+00 4.0519528287931088e+01 1 -1 0
5013 1 1.0081757188381332e+01 1.0309291983379040e+01 3.9286510994544713e+01 1 0 0
5637 1 6.3471456248855507e+00 2.9640183360534875e+00 4.4809180959504559e+01 1 0 -1
5466 1 9.1331487423939279e+00 8.6515992458177848e-01 4.3541764548152464e+01 -1 0 -1
5489 1 8.1539728791634669e+00 3.2218788088608878e+00 4.2945190499086763e+01 0 1 -1
270 1 4.5209393784333898e+00 5.1921887995317828e+00 4.4502457428169883e+01 1 -1 -1
6626 1 1.1580452018226879e+01 1.4158796414775843e+00 4.2710253478711287e+01 0 0 0
3497 1 2.5856086891775125e+00 4.2747055762828392e+00 4.2767424118311709e+01 0 0 -1
1338 1 3.8124869031697166e+00 5.2121457287668775e+00 4.0414125652492856e+01 0 0 0
5651 1 6.3966022564996941e+00 5.7374755068060477e+00 3.9454849812458981e+01 0 0 -1
1466 1 1.1267685793390024e+01 7.7311363153151147e+00 3.6312887637243456e+01 1 0 0
6480 1 5.6842766487456320e+00 7.6107500635264138e+00 4.3743600326761957e+01 1 1 0
3203 1 6.7838496289695422e+00 8.1183647118126352e+00 4.0886834224261776e+01 -1 2 0
6514 1 1.0512543283021571e+01 5.9504203845529933e+00 4.0259287055931757e+01 0 1 0
618 1 1.0859876855333942e+01 4.9180300557819052e+00 3.6148651827725089e+01 0 0 0
6482 1 3.7782671842875648e-01 4.7541571168165833e+00 3.7149440436254295e+01 0 0 0
3664 1 3.8267520836272686e+00 9.3957676503343333e+00 4.4860735639753912e+01 0 1 -1
5376 1 5.5201493589891487e-02 1.7773692109986416e+00 4.4441936542634231e+01 -1 0 -1
333 1 1.2278625198750532e+01 1.1785084914801356e+01 3.5949412803887981e+01 0 1 -1
2344 1 6.2053054982380997e+00 1.5792310489254887e-02 3.7084335439391609e+01 0 0 0
3515 1 2.5652937793833147e-01 4.1914002435565960e+00 4.0078291458662477e+01 0 0 0
1942 1 2.4929572070759480e+00 2.4855088637636791e+00 4.5823008569848568e+01 0 1 -1
6446 1 2.9130083389657693e+00 2.0892803284078227e+00 4.9277773448611931e+01 1 0 0
5507 1 3.7646045918271516e+00 5.2641541040491679e-01 4.7166165674622476e+01 -1 1 -1
1392 1 8.0468836949186713e+00 3.9981889731530975e+00 4.6763080910585323e+01 1 -1 0
4959 1 9.6918225363986892e+00 3.2690826571317078e+00 4.9068641879704941e+01 -1 0 0