
# Create simulation box and atoms

read_data data.graphite_substrate_1000
  orthogonal box = (0 0 -1.03859) to (49.22 49.0196 61.1006)
  4 by 4 by 4 MPI processor grid
  reading atoms ...
  6768 atoms
  reading velocities ...
  6768 velocities
group water type 1
4008 atoms in group water
group graphite type 2
2760 atoms in group graphite

# Define potential

pair_style sw
pair_coeff * * mWC.sw mW C
Reading potential file mWC.sw with DATE: 2019-02-27


# Fix graphite atoms in place

fix 5 graphite setforce 0.0 0.0 0.0
velocity graphite set 0.0 0.0 0.0


# Equilibration of molecular water

# Add velocity/set timestep

velocity	    water create ${TEMP} ${SEED} rot yes dist gaussian
velocity	    water create 225 ${SEED} rot yes dist gaussian
velocity	    water create 225 2800 rot yes dist gaussian
timestep	    5.0

# Define output

compute			1 water msd
compute			3 water temp
thermo	    	50
thermo_style	custom step temp press vol etotal ke pe c_1[4] c_3

# Neighbor lists

neigh_modify    delay 0 every 1 check yes

# Set fixes

fix             1 water momentum 10 linear 1 1 1 rescale
fix             2 water nve
fix             3 water temp/csvr ${TEMP} ${TEMP} 500.0 ${SEED}
fix             3 water temp/csvr 225 ${TEMP} 500.0 ${SEED}
fix             3 water temp/csvr 225 225 500.0 ${SEED}
fix             3 water temp/csvr 225 225 500.0 2800
fix             4 water press/berendsen z ${PRES} ${PRES} 1000.0 modulus 20000
fix             4 water press/berendsen z -1000 ${PRES} 1000.0 modulus 20000
fix             4 water press/berendsen z -1000 -1000 1000.0 modulus 20000

# Run 0.5 ns equilibration

dump		    1 all atom 2000 ${DIR}/eq.${NAME}-${TEMP}.dump
dump		    1 all atom 2000 run_19/eq.${NAME}-${TEMP}.dump
dump		    1 all atom 2000 run_19/eq.het_freeze_19-${TEMP}.dump
dump		    1 all atom 2000 run_19/eq.het_freeze_19-225.dump

reset_timestep  0

run	            100000
Neighbor list info ...
  update every 1 steps, delay 0 steps, check yes
  max neighbors/atom: 2000, page size: 100000
  master list distance cutoff = 7.76
  ghost atom cutoff = 7.76
  binsize = 3.88, bins = 13 13 17
  1 neighbor lists, perpetual/occasional/extra = 1 0 0
  (1) pair sw, perpetual
      attributes: full, newton on
      pair build: full/bin/atomonly
      stencil: full/bin/3d
      bin: standard
Per MPI rank memory allocation (min/avg/max) = 4.083 | 4.202 | 4.508 Mbytes
Step Temp Press Volume TotEng KinEng PotEng c_1[4] c_3 
       0    133.23112   -1309.3276    149926.08   -35971.017    2687.4238   -38658.441            0          225 
      50    171.64516   -1727.9425     149479.3   -36463.172    3462.2788   -39925.451   0.83938717    289.87342 
     100    167.70345   -1779.2717    149043.64   -36815.409      3382.77   -40198.179    1.8969202    283.21668 
     150    162.03486   -1964.1892    148611.84   -37131.529    3268.4282   -40399.957    2.7839977    273.64361 
     200    156.27006   -1696.1926    148104.42   -37411.619    3152.1455   -40563.764    3.6146395    263.90803 
     250    155.12979   -1407.7021    147810.14   -37635.928     3129.145   -40765.073    4.3623082    261.98235 
     300    149.13496   -1749.2084    147525.59   -37844.658    3008.2223    -40852.88    5.0974511    251.85831 
     350    148.29468   -1567.7601    147237.69   -38062.522    2991.2729   -41053.795    5.7083116    250.43925 
     400    146.93586   -1583.1366     146907.7   -38227.312    2963.8639   -41191.176    6.2540008    248.14448 
     450    146.41484   -1640.9844    146677.66   -38374.688    2953.3544   -41328.042    6.7707545    247.26459 
     500    141.84516   -1593.3453    146431.69   -38515.699    2861.1788   -41376.878    7.2911813    239.54734 
     550    140.83786   -1382.7186    146203.01   -38657.115    2840.8604   -41497.976    7.8205397    237.84622 
     600    138.81531   -1240.0328     146116.6   -38752.302    2800.0633   -41552.366    8.3237845    234.43055 
     650    140.42141   -1342.4829    146090.84    -38809.88    2832.4601   -41642.341    8.6618448    237.14291 
     700    138.13554   -1290.9946    146000.82    -38927.73    2786.3515   -41714.082    9.0637532    233.28256 
     750    138.97025   -1441.3808    145879.16   -38974.449    2803.1885   -41777.638    9.4785063     234.6922 
     800    136.61393    -1354.055    145716.05   -39036.388     2755.659   -41792.047    9.9527263    230.71288 
     850    138.56624   -1280.1714    145709.89   -39098.127    2795.0393   -41893.166    10.376459    234.00993 
     900    139.90547   -1390.8128    145639.49   -39123.455    2822.0531   -41945.508    10.707835     236.2716 
     950    137.10976   -1341.3604    145565.85   -39181.673    2765.6603   -41947.334    11.078713    231.55022 
    1000    136.08321   -1200.4528    145595.41   -39259.749    2744.9537   -42004.703    11.331023    229.81659 
    1050     135.8687   -1031.6897    145592.88   -39278.849    2740.6269   -42019.476    11.602019    229.45433 
    1100    136.46067   -1339.5434    145524.97   -39258.431    2752.5675   -42010.999    11.973162    230.45404 
    1150     137.1787   -1327.5628    145458.78   -39258.906    2767.0509   -42025.956    12.192056    231.66664 
    1200    134.95613   -1321.2134    145436.39   -39282.909    2722.2192   -42005.128    12.461372    227.91318 
    1250    136.79453   -1380.3681    145470.55   -39333.185    2759.3018   -42092.487    12.724569    231.01786 
    1300    137.16686   -1278.3367    145431.68   -39374.551    2766.8121   -42141.364     13.07328    231.64665 
    1350    135.44015   -1246.8146    145445.86   -39398.011    2731.9825   -42129.993    13.369959     228.7306 
    1400    133.02734   -1278.0432    145342.43   -39360.832    2683.3132   -42044.145    13.644723    224.65585 
    1450    136.07534   -1400.9472    145290.35   -39386.401    2744.7949   -42131.196    13.880492     229.8033 
    1500    134.44284   -1285.1808    145257.93   -39403.842    2711.8655   -42115.707    14.147547    227.04634 
    1550    134.54424   -1360.4489    145174.34   -39449.455    2713.9108   -42163.366    14.369359    227.21758 
    1600    133.12857   -1159.8548    145122.31   -39526.678    2685.3552   -42212.034    14.735381    224.82681 
    1650    133.79685   -1172.2566    145151.01     -39516.9    2698.8353   -42215.735    15.022193    225.95541 
    1700     132.8032   -1108.0386    145142.53   -39550.979    2678.7921   -42229.771    15.328438    224.27732 
    1750    135.37361   -1160.1882       145137   -39587.483    2730.6402   -42318.123    15.583084    228.61822 
    1800    133.47005    -1236.732    145163.14   -39601.261    2692.2433   -42293.504    15.827127    225.40351 
    1850    133.76461   -1129.5715    145098.46   -39596.252    2698.1849   -42294.437    16.059466    225.90095 
    1900    133.60114   -1154.8112     145108.3   -39607.336    2694.8875   -42302.223    16.241191    225.62488 
    1950    131.78133   -1083.7786    145112.76   -39616.564    2658.1798   -42274.744    16.439926    222.55159 
    2000    131.94386   -1186.1942    145096.98   -39593.117    2661.4583   -42254.575    16.714612    222.82608 
    2050    133.18043   -1071.0995     145082.8   -39606.394    2686.4013   -42292.796    17.000847    224.91439 
    2100    133.22139   -1411.6783    145093.19   -39595.055    2687.2276   -42282.282    17.194454    224.98357 
    2150    131.26689   -1029.8355    145059.78   -39584.161    2647.8031   -42231.964    17.400311    221.68282 
    2200    136.74447    -1028.422    145107.43   -39570.175    2758.2921   -42328.467    17.584729    230.93333 
    2250    136.08297   -894.07737    145116.72   -39558.445    2744.9488   -42303.394    17.817202    229.81618 
    2300    136.10658    -895.9426    145154.63   -39560.494    2745.4251   -42305.919    17.888185    229.85606 
    2350    134.08753    -1107.452    145262.35   -39591.579    2704.6985   -42296.277    18.095353    226.44629 
    2400    132.04269   -1127.6192    145293.64   -39625.733    2663.4517   -42289.185    18.254546    222.99298 
    2450    132.92127   -1093.6233    145287.49   -39617.527    2681.1738   -42298.701    18.440954    224.47673 
    2500    132.52498   -1095.2892    145235.81   -39595.092    2673.1802   -42268.273    18.692781    223.80748 
    2550    134.03821   -1224.7712    145186.51   -39568.291    2703.7037   -42271.994    18.984666    226.36301 
    2600    137.50515    -838.9064    145130.71   -39537.248    2773.6359   -42310.883    19.374455    232.21796 
    2650    135.13301   -959.19225    145214.31   -39567.169     2725.787   -42292.956     19.58182    228.21189 
    2700    132.36858   -1247.7373    145316.24   -39640.957    2670.0254   -42310.983    19.747963    223.54335 
    2750    133.92449   -1107.1406     145368.9   -39680.278    2701.4098   -42381.688    19.871557    226.17095 
    2800    135.83924   -1173.1436    145388.37   -39634.779    2740.0325   -42374.812    20.145135    229.40457 
    2850    133.73744   -1268.8505    145337.81   -39624.949    2697.6367   -42322.586    20.351484    225.85506 
    2900    135.76299   -1128.0835    145322.15   -39608.393    2738.4946   -42346.888    20.625863    229.27581 
    2950    135.44964   -1169.4248    145266.29   -39654.834     2732.174   -42387.008     20.89041    228.74663 
    3000    134.06423   -1074.7475     145238.9   -39619.736    2704.2287   -42323.965     21.09888    226.40696 
    3050    134.24064   -1052.5224    145217.76   -39675.084    2707.7869   -42382.871    21.411405    226.70487 
    3100    131.23779   -1142.7433    145205.07    -39703.69     2647.216   -42350.906    21.539558    221.63367 
    3150     131.5912   -1264.5222    145190.02   -39724.307    2654.3447   -42378.652    21.679335    222.23051 
    3200    135.36274   -1208.3843    145182.62   -39716.145     2730.421   -42446.566    21.795124    228.59986 
    3250    135.75489   -1099.9708    145250.65   -39655.191    2738.3312   -42393.522    22.193201    229.26213 
    3300    132.37118   -1201.2218    145260.67   -39713.267    2670.0777   -42383.345     22.41961    223.54773 
    3350    135.18053   -1087.3782    145279.01   -39687.064    2726.7457   -42413.809    22.627825    228.29215 
    3400    135.67456   -1035.5028    145329.44   -39708.333    2736.7108   -42445.044    22.757669    229.12647 
    3450    133.19144   -1192.9902    145349.05   -39718.072    2686.6235   -42404.695    22.829342    224.93299 
    3500    131.81716   -1111.8912    145250.16   -39739.829    2658.9027   -42398.732    23.112121    222.61212 
    3550     133.6074   -1043.5963    145195.68    -39769.64    2695.0138   -42464.654    23.269843    225.63546 
    3600    131.93645   -905.79899    145215.92   -39809.121    2661.3089    -42470.43     23.41362    222.81357 
    3650    132.69529   -1052.8552    145194.62   -39810.435    2676.6154    -42487.05    23.530294    224.09508 
    3700    131.82949   -1225.7941    145244.45   -39793.778    2659.1513   -42452.929    23.576259    222.63293 
    3750    133.13379   -1209.5539     145256.2   -39792.343    2685.4605   -42477.803    23.694659    224.83562 
    3800    131.08106   -1069.6049    145254.46   -39763.653    2644.0545   -42407.708    23.936343    221.36898 
    3850    132.49066    -1018.551    145324.46   -39750.931    2672.4879   -42423.419    24.084338    223.74952 
    3900    134.34012   -1081.3354    145327.66   -39774.677    2709.7937   -42484.471    24.472753    226.87288 
    3950    131.67095    -1248.653    145316.54   -39790.427    2655.9533    -42446.38    24.945091    222.36519 
    4000    131.26731   -1167.6124    145242.35   -39769.985    2647.8115   -42417.796    25.241219    221.68353 
    4050    130.15104   -1076.5846    145291.75   -39784.884     2625.295   -42410.179    25.528006    219.79837 
    4100    132.52902   -1089.9588    145368.97   -39819.116    2673.2616   -42492.377    25.833517    223.81429 
    4150    133.51823    -1027.303    145364.79   -39756.865    2693.2152    -42450.08    26.190625    225.48488 
    4200    134.04418   -1025.6917    145396.77   -39739.604    2703.8242   -42443.428    26.614663     226.3731 
    4250    133.93347    -981.9234     145338.9   -39771.193     2701.591   -42472.784    26.999944    226.18612 
    4300    132.09137    -1083.825    145364.97   -39778.721    2664.4338   -42443.155    27.337867     223.0752 
    4350    135.02858   -1301.2307    145355.63   -39829.267    2723.6807   -42552.948    27.595093    228.03554 
    4400    134.36628   -1212.3082    145290.82   -39758.446    2710.3213   -42468.768    27.790906    226.91705 
    4450    133.56832   -1071.0557    145309.22   -39721.732    2694.2256   -42415.957    28.207962    225.56947 
    4500    131.09474   -968.43916    145306.05   -39777.823    2644.3305   -42422.154    28.710192    221.39208 
    4550    133.44913   -947.86277    145362.15   -39784.686    2691.8213   -42476.507    28.955708    225.36817 
    4600     132.6849   -1010.0549    145352.41   -39733.662    2676.4059   -42410.068    29.105917    224.07755 
    4650    131.97189   -1056.9116    145314.48   -39694.095    2662.0238   -42356.119    29.286193    222.87342 
    4700     131.1807    -1070.732    145363.42   -39741.275    2646.0644    -42387.34    29.672714    221.53726 
    4750    133.54287   -865.61865    145410.64   -39801.589    2693.7122   -42495.301    29.908161    225.52648 
    4800    134.01612   -917.13996     145486.2   -39824.313    2703.2581   -42527.571    30.237498     226.3257 
    4850    129.50455   -993.46991     145497.8   -39847.373    2612.2546   -42459.627    30.547013    218.70659 
    4900    129.68872   -1198.7674     145435.4   -39831.123    2615.9695   -42447.093    30.885693    219.01761 
    4950    131.40522   -1330.2718    145430.44   -39808.709    2650.5933   -42459.302    31.144841    221.91643 
    5000    133.81626   -963.98031    145350.88   -39803.145    2699.2268   -42502.372    31.293787    225.98819 
    5050    132.91709   -1148.5466    145365.04   -39797.276    2681.0894   -42478.365    31.389446    224.46966 
    5100    133.31501   -991.60409    145388.29   -39823.916    2689.1159   -42513.031    31.520878    225.14167 
    5150    131.51364   -1105.3657     145429.8   -39800.277    2652.7803   -42453.057    31.768123    222.09953 
    5200    133.29113   -1025.6671    145463.98   -39798.168    2688.6342   -42486.802    31.869163    225.10133 
    5250    134.26161   -980.62028    145467.77    -39772.75    2708.2099    -42480.96    31.908914    226.74028 
    5300    138.20109   -848.38549    145447.58   -39746.053    2787.6737   -42533.727    32.076802    233.39325 
    5350    136.59873   -1107.1665    145558.65   -39805.708    2755.3523    -42561.06     32.08914     230.6872 
    5400    132.98309   -1023.8225    145533.62   -39824.269    2682.4206    -42506.69    32.120197    224.58112 
    5450    133.39519   -996.58901     145646.5   -39834.587    2690.7333    -42525.32    32.097253    225.27708 
    5500    131.94644   -1097.9593    145680.98   -39818.126    2661.5103   -42479.636    32.026548    222.83044 
    5550    135.08088    -1099.061    145721.25   -39812.266    2724.7356   -42537.002     31.93529    228.12387 
    5600     135.3409   -1040.7839    145730.54   -39801.518    2729.9805   -42531.498    32.058701    228.56298 
    5650     134.8727   -1229.2321    145724.27   -39816.966    2720.5363   -42537.502    32.131415    227.77228 
    5700    133.10768   -1294.4263    145674.18   -39832.135    2684.9338   -42517.069    32.221159    224.79153 
    5750    133.10293   -1070.7658    145690.32   -39841.177    2684.8381   -42526.015    32.261502    224.78352 
    5800    132.47472   -1118.8856    145701.44   -39818.501    2672.1664   -42490.667    32.334577    223.72259 
    5850    134.66574   -1004.0939     145728.7   -39796.201    2716.3617   -42512.562    32.541336    227.42278 
    5900    134.50051   -1157.4595    145780.65   -39846.182    2713.0289   -42559.211    32.704843    227.14374 
    5950     134.3713   -1084.5831    145858.67   -39847.383    2710.4224   -42557.806    32.733277    226.92552 
    6000    132.16142   -1015.8355    145909.52   -39898.836    2665.8468   -42564.683    32.856733     223.1935 
    6050    131.63426   -1150.2701    145907.99   -39904.422    2655.2134   -42559.636    33.075573    222.30323 
    6100    131.05184   -1108.4461    145841.93   -39865.921    2643.4652   -42509.386    33.071389    221.31964 
    6150    132.30358   -1242.5171    145808.03   -39904.792    2668.7143   -42573.507    33.191342    223.43358 
    6200    132.95812   -1226.1925    145809.48   -39915.955    2681.9171   -42597.872    33.191848    224.53896 
    6250    131.50859   -1320.4491    145810.75   -39982.547    2652.6783   -42635.226    33.260668    222.09099 
    6300    131.56678   -993.01438    145833.87   -39952.271    2653.8521   -42606.124    33.490497    222.18927 
    6350    134.38896    -1087.415    145885.83   -39958.061    2710.7788    -42668.84    33.634793    226.95536 
    6400    127.79202   -1098.6699    145935.76   -39987.586     2577.711   -42565.297    33.829251    215.81448 
    6450    132.16023   -1044.0335    145913.23    -39955.71    2665.8227   -42621.533    33.884915    223.19148 
    6500    134.53063   -1117.6896    146017.48   -39982.594    2713.6363   -42696.231    33.893214     227.1946 
    6550    131.88885   -1111.5239    146075.48   -39965.117    2660.3486   -42625.466    33.810971    222.73317 
    6600    134.61035   -1237.8599    146049.87   -39914.979    2715.2444   -42630.224    34.044234    227.32923 
    6650    133.43308   -1163.5521    145943.35   -39933.981    2691.4976   -42625.479    34.134518    225.34107 
    6700    135.44033   -1069.7953    145979.23   -39910.771     2731.986   -42642.757     34.46123    228.73089 
    6750     133.1265   -1009.6052    145970.91   -39947.995    2685.3134   -42633.308    34.729546    224.82331 
    6800    130.37749   -1113.2805    145988.31   -39971.637    2629.8629     -42601.5    34.830623    220.18081 
    6850    132.31556   -1124.7988     146036.8   -40019.188    2668.9558   -42688.144    35.071994     223.4538 
    6900     131.1767   -1248.6928    146041.53   -40016.962    2645.9838   -42662.946    35.301253    221.53051 
    6950    132.47383   -1216.4078    145955.66    -40001.35    2672.1484   -42673.498    35.342027    223.72109 
    7000    133.04267   -1159.8052    145950.44   -39957.472    2683.6225   -42641.095    35.446912    224.68174 
    7050    132.91983   -999.41371    146004.33   -39953.411    2681.1447   -42634.556    35.537463    224.47429 
    7100    132.75293    -1150.312    146077.51   -39928.428    2677.7782   -42606.206    35.690869    224.19244 
    7150     131.4235   -1179.3235    146068.78   -39913.954    2650.9619   -42564.916    35.869106    221.94729 
    7200    135.04937   -925.52774    146109.22   -39848.652    2724.0999   -42572.752    35.927838    228.07065 
    7250    135.04564   -1269.8998    146140.39   -39853.638    2724.0248   -42577.663    35.929196    228.06435 
    7300    134.40544   -1227.8165    146131.03   -39879.738    2711.1112   -42590.849    36.108257    226.98319 
    7350    131.17831   -1116.0615    146030.07   -39853.646    2646.0162   -42499.663    36.279403    221.53322 
    7400    131.98093   -1183.4565    145973.25   -39840.927    2662.2061   -42503.133    36.379024    222.88869 
    7450    135.11736   -1264.1187    146067.91   -39875.089    2725.4715   -42600.561    36.604476    228.18548 
    7500    132.67906   -1214.9322    146052.08   -39852.828     2676.288   -42529.117    36.653425    224.06768 
    7550    133.02465    -1343.114    145958.21   -39863.129     2683.259   -42546.388    36.858005    224.65131 
    7600    136.69076   -1323.0381    145878.51   -39798.766    2757.2087   -42555.975    37.014733    230.84262 
    7650    133.38739   -1339.6076    145831.09    -39797.94    2690.5759   -42488.516    37.100251     225.2639 
    7700    134.60201    -1081.762     145802.3   -39819.444    2715.0763    -42534.52    37.326145    227.31516 
    7750    134.35767   -1078.9181    145793.12   -39814.641    2710.1476   -42524.789    37.549567    226.90251 
    7800    134.77306   -1171.8394    145820.13   -39801.919    2718.5265   -42520.446     37.77435    227.60402 
    7850    132.67079   -1173.8341    145814.96   -39797.218    2676.1213   -42473.339    37.981758    224.05372 
    7900    133.76648   -979.23614    145813.17   -39839.568    2698.2225    -42537.79    38.286402     225.9041 
    7950    133.36961    -1207.348    145782.04    -39898.38    2690.2172   -42588.597    38.557264    225.23388 
    8000    135.31954   -1235.3158    145787.91   -39898.352    2729.5496   -42627.902     38.66513    228.52691 
    8050    134.73709   -1056.6196    145834.62   -39860.312    2717.8008   -42578.113    38.914558    227.54326 
    8100    133.63656   -1110.2463    145888.94   -39847.293    2695.6019   -42542.895    39.158961     225.6847 
    8150    133.38195   -1264.6131    145877.93   -39849.092    2690.4662   -42539.558      39.3421    225.25471 
    8200    135.17147   -1108.0936    145899.79   -39802.183    2726.5629   -42528.746    39.542013    228.27686 
    8250    133.42553   -1272.5018    145846.48   -39787.756    2691.3452   -42479.101    39.701322    225.32831 
    8300    133.64419    -1057.957    145835.36   -39807.495    2695.7559   -42503.251    39.804508    225.69759 
    8350    135.18663    -1049.766    145836.99   -39743.848    2726.8686   -42470.716    40.015374    228.30245 
    8400    137.61426   -1149.8214     145837.1   -39737.985    2775.8368   -42513.821    40.194907    232.40223 
    8450    135.81956   -1242.9385     145855.9   -39774.344    2739.6355   -42513.979    40.303567    229.37133 
    8500    132.64386   -1260.4139     145819.9   -39822.593     2675.578   -42498.171    40.271959    224.00823 
    8550    132.81418    -1034.753    145801.34   -39810.346    2679.0137   -42489.359     40.48131    224.29588 
    8600    134.29538   -1046.9877    145878.78    -39786.52    2708.8912   -42495.411    40.540464    226.79732 
    8650    135.10612   -1142.4772    145934.45   -39820.848    2725.2447   -42546.092    40.500345    228.16649 
    8700     136.3167   -1145.4436    145965.79   -39807.005    2749.6635   -42556.669    40.616403    230.21091 
    8750    134.04318   -1224.8944    145970.34   -39785.735    2703.8041   -42489.539    40.896639    226.37141 
    8800    132.36402   -1151.0443    145939.03   -39730.762    2669.9333   -42400.695    41.067777    223.53564 
    8850    135.08537   -1192.1165    145914.92   -39697.491     2724.826   -42422.317    41.263737    228.13144 
    8900    134.79091   -1216.6144    145925.88   -39745.771    2718.8865   -42464.657    41.481654    227.63416 
    8950    133.34334   -1201.2364    145866.34    -39768.66    2689.6875   -42458.347    41.765831    225.18952 
    9000    134.11656   -1084.7768    145907.97   -39806.245    2705.2842    -42511.53      41.7228    226.49533 
    9050    135.69752   -1231.4225    145922.48   -39823.601    2737.1739   -42560.775    41.913908    229.16524 
    9100     134.1423   -1183.0913    145959.48   -39825.901    2705.8033   -42531.704    42.048956    226.53879 
    9150     133.9218   -1307.0752    145981.28   -39835.496    2701.3555   -42536.851    42.262139    226.16641 
    9200     132.6749   -1205.6186    145984.68   -39852.653    2676.2042   -42528.858    42.374008    224.06066 
    9250    131.72456   -1193.5784    146004.99   -39898.054    2657.0347   -42555.088    42.627795    222.45572 
    9300    132.82555   -1267.4815    145995.16   -39917.283    2679.2431   -42596.526    42.741054    224.31508 
    9350    132.44036   -1086.9015    145978.54   -39891.017    2671.4732   -42562.491    42.961905    223.66456 
    9400    132.63734   -1091.5843     145996.9   -39917.472    2675.4467   -42592.918    43.035545    223.99723 
    9450    130.98669   -1195.9667    145928.88   -39926.029     2642.151    -42568.18    43.151527    221.20961 
    9500    135.42212    -1163.042     145927.6   -39857.593    2731.6187   -42589.212    43.224932    228.70014 
    9550     133.4138   -1194.7591    145899.35   -39793.508    2691.1086   -42484.617    43.464795     225.3085 
    9600    135.97072   -1259.8926    145853.22    -39762.09    2742.6847   -42504.775    43.649562    229.62662 
    9650    134.98336   -1018.5494     145909.1   -39756.775    2722.7684   -42479.543    43.756989    227.95916 
    9700    133.92195   -1206.6593    145985.48     -39772.4    2701.3587   -42473.758    44.089471    226.16667 
    9750    132.46014   -1378.6495    145890.16   -39811.377    2671.8722    -42483.25    44.321609    223.69797 
    9800    131.66091   -1244.3611    145815.05   -39845.569    2655.7509    -42501.32    44.553504    222.34823 
    9850    132.22413   -1142.2521    145762.62   -39869.993    2667.1116   -42537.105    44.752531     223.2994 
    9900     132.7895   -1271.7609    145810.23   -39860.187    2678.5158   -42538.703    44.943668    224.25419 
    9950    131.56993   -1077.9071    145853.68   -39898.044    2653.9156    -42551.96    45.135608    222.19459 
   10000    130.41462   -1185.9251     145833.5   -39925.946    2630.6117   -42556.558    45.254612     220.2435 
   10050    132.72713   -1128.5015    145856.33   -39907.711    2677.2577   -42584.969      45.2658    224.14886 
   10100    135.66619   -1044.8753    145910.79    -39856.85     2736.542   -42593.392    45.338375    229.11233 
   10150    134.59014   -1072.3989    145969.49   -39875.343    2714.8368    -42590.18    45.497033    227.29511 
   10200    136.35329   -1122.6809    146005.43   -39900.628    2750.4015   -42651.029    45.803942     230.2727 
   10250    132.66186   -1262.8988    146001.87   -39916.224    2675.9411   -42592.166     46.05375    224.03863 
   10300    134.10419   -1210.7713     145940.5   -39898.491    2705.0345   -42603.525    46.248895    226.47442 
   10350    131.96452   -978.34145    145981.97    -39938.63    2661.8751   -42600.505    46.442645    222.86098 
   10400    133.66335   -1315.0445    146007.13   -39963.428    2696.1423    -42659.57    46.605894    225.72994 
   10450    133.23424   -1151.4419     145899.8   -39937.128    2687.4868   -42624.615    46.966378    225.00527 
   10500    131.18834   -1162.2876     145850.2   -39938.232    2646.2187   -42584.451    46.950203    221.55017 
   10550    129.80385   -1214.3283    145763.02   -39977.846    2618.2918   -42596.138    46.957775    219.21204 
   10600    130.88986   -1149.2022    145725.37   -39969.423    2640.1979   -42609.621    47.120239    221.04609 
   10650    131.49176    -1222.017    145708.93   -39940.078     2652.339   -42592.417    47.357232    222.06258 
   10700    134.55568   -1049.0536    145666.11   -39951.392    2714.1417   -42665.534      47.4132    227.23691 
   10750    133.49231    -1332.735    145681.85   -39937.587    2692.6923   -42630.279    47.552301    225.44109 
   10800    132.01893   -1133.9449    145702.56   -39955.254    2662.9725   -42618.226    47.699742    222.95286 
   10850    131.16137   -1187.3409    145698.77   -39856.395    2645.6745    -42502.07    47.821504    221.50461 
   10900    134.78864   -1317.2079    145674.75   -39859.098    2718.8407   -42577.939    48.086416    227.63033 
   10950    136.89783   -949.04082    145747.21   -39810.468    2761.3856   -42571.854    48.626006    231.19232 
   11000    134.51207   -1180.2005    145725.73   -39876.812     2713.262   -42590.074    49.005454    227.16326 
   11050    132.71224    -1293.301    145675.01    -39845.18    2676.9573   -42522.137    49.176222    224.12371 
   11100    133.83781   -864.51361    145617.76   -39870.942    2699.6613   -42570.603    49.479859    226.02457 
   11150    134.88187   -1109.5293     145599.1   -39838.768    2720.7213   -42559.489    49.644144    227.78778 
   11200    134.25013   -1064.0797     145626.8   -39872.347    2707.9785   -42580.325     49.85817     226.7209 
   11250     132.0733   -929.28461    145594.68   -39877.579    2664.0693   -42541.648    50.219104    223.04469 
   11300    131.91829   -1240.3435    145587.18   -39883.392    2660.9425   -42544.334    50.393142     222.7829 
   11350    132.85913   -890.23289    145624.17   -39876.219    2679.9204   -42556.139    50.598434    224.37179 
   11400    133.51373   -1423.7044    145666.89   -39841.601    2693.1244   -42534.725    50.779112    225.47727 
   11450    133.21012   -1351.8644    145576.01   -39835.525    2687.0003   -42522.526    50.865931    224.96454 
   11500    134.07281   -1040.6437    145533.42    -39843.15    2704.4017   -42547.551    51.085437    226.42144 
   11550    134.39806   -1088.0078     145682.4   -39834.203    2710.9623   -42545.165    51.099888    226.97072 
   11600    133.03232    -1111.381    145773.07   -39793.038    2683.4137   -42476.452    51.238153    224.66426 
   11650    135.11442   -887.95396    145848.24   -39747.124    2725.4122   -42472.536    51.472079    228.18051 
   11700    133.05108   -1162.7058    145890.08   -39789.379    2683.7923   -42473.171    51.633847    224.69595 
   11750    135.18455   -1051.8875    145895.92   -39768.794    2726.8267   -42495.621    51.891485    228.29894 
   11800    136.03386   -1155.5726    145920.47    -39763.78    2743.9583   -42507.739    52.019015    229.73326 
   11850    133.38755   -1013.5963     145892.3   -39754.204    2690.5791   -42444.783    52.238101    225.26417 
   11900    135.02117   -1010.6659    145907.77   -39759.049    2723.5311    -42482.58    52.372517    228.02302 
   11950    132.37989   -1031.2433    145982.02    -39763.29    2670.2535   -42433.544    52.566933    223.56244 
   12000    134.81216   -1164.2868    145962.77   -39759.077    2719.3152   -42478.392    52.856623    227.67005 
   12050     136.0432   -1170.4288    145896.83   -39722.505    2744.1466   -42466.652    53.127863    229.74902 
   12100    136.14962   -1125.7877    145873.17   -39700.439    2746.2933   -42446.732     53.40756    229.92874 
   12150     136.6866   -1017.8762    145928.34   -39700.613    2757.1247   -42457.737    53.609711    230.83559 
   12200     135.5736   -1186.4708    145969.33   -39722.081    2734.6743   -42456.755    53.490027    228.95597 
   12250    134.26954   -1245.6008    145950.61   -39753.379      2708.37   -42461.749    53.614844    226.75368 
   12300    134.26461    -1252.713    145874.63   -39780.909    2708.2704   -42489.179    53.887856    226.74534 
   12350    133.26546   -1315.2886    145775.25   -39784.253    2688.1165   -42472.369    54.157709    225.05799 
   12400     131.4543   -1152.7478    145742.88   -39792.753    2651.5832   -42444.336    54.337574    221.99931 
   12450     134.5099   -1125.7767     145768.3     -39749.9    2713.2183   -42463.118    54.317107     227.1596 
   12500    135.11026   -1093.6217    145833.36   -39777.059    2725.3283   -42502.387    54.217547    228.17349 
   12550    134.82749   -1164.8778    145848.35   -39802.773    2719.6244   -42522.398    54.230915    227.69594 
   12600    133.46142    -1101.408    145873.74   -39809.469    2692.0692   -42501.538    54.207786    225.38893 
   12650    134.55807   -1468.5633    145823.14   -39806.148    2714.1898   -42520.338    54.223494    227.24094 
   12700    132.98629   -1228.9344    145795.02   -39824.227    2682.4852   -42506.712     54.33328    224.58652 
   12750    136.25339   -1166.2585    145746.84   -39778.723    2748.3864   -42527.109    54.400924    230.10399 
   12800    134.74208   -1036.8652    145757.58   -39809.423    2717.9016   -42527.325    54.565853     227.5517 
   12850    134.00994   -828.73332    145792.69   -39774.968    2703.1335   -42478.101    54.826125    226.31527 
   12900     134.8152   -1288.6372    145806.86   -39774.428    2719.3765   -42493.804    54.975383    227.67519 
   12950     138.2397   -1230.9353    145777.24   -39734.205    2788.4526   -42522.657    55.040576    233.45847 
   13000    133.68465   -980.36969    145768.44   -39782.378     2696.572    -42478.95    55.118414    225.76591 
   13050    134.34095      -1319.4    145754.92   -39779.479    2709.8103    -42489.29    55.240101    226.87427 
   13100     134.2969   -960.49775    145671.35   -39783.677    2708.9218   -42492.598    55.500063    226.79988 
   13150     135.4317   -1227.0868    145631.58   -39826.615    2731.8119   -42558.427    55.706041    228.71632 
   13200    135.48247   -1157.0359    145585.11   -39832.324     2732.836    -42565.16    55.792083    228.80206 
   13250    134.81299   -1155.6084    145608.13   -39893.981    2719.3319   -42613.313    55.998583    227.67145 
   13300    130.83478   -1155.5544     145615.4   -39914.245    2639.0868   -42553.332    56.165683    220.95306 
   13350     131.4255    -1078.307    145580.99   -39911.597    2651.0024   -42562.599    56.294179    221.95068 
   13400     130.7272   -1122.7563    145591.74   -39876.009    2636.9168   -42512.926      56.6943    220.77139 
   13450    130.23075   -949.83853    145693.83   -39858.103     2626.903   -42485.006     56.75946      219.933 
   13500    134.87033   -1012.0718    145717.23   -39826.517    2720.4885   -42547.005    56.586165    227.76828 
   13550    133.87292    -1031.794    145836.21   -39821.128    2700.3697   -42521.497    56.606556    226.08387 
   13600     134.3602    -1073.153    145872.81   -39831.326    2710.1986   -42541.525    56.457929    226.90678 
   13650    137.11092    -1219.281    145945.71   -39857.853    2765.6839   -42623.536    56.518154    231.55219 
   13700    132.83881    -1118.839    145955.61   -39901.783    2679.5105   -42581.294    56.512103    224.33747 
   13750    132.17379   -971.13835    146020.68   -39899.051    2666.0962   -42565.147    56.646882    223.21438 
   13800    135.00443    -1154.884    146097.03   -39921.116    2723.1935    -42644.31    56.445952    227.99476 
   13850    131.91306   -1147.3962    146126.25    -39875.21     2660.837   -42536.047    56.388026    222.77406 
   13900     129.9987   -1164.9708    146178.48   -39921.543    2622.2222   -42543.765    56.411841    219.54111 
   13950    132.50273   -1297.1857    146134.44   -39898.491    2672.7313   -42571.222    56.378767     223.7699 
   14000    130.65205   -1255.2785    146102.98   -39878.799     2635.401     -42514.2    56.467643    220.64448 
   14050     133.8033   -1137.3958    146080.43   -39872.636    2698.9654   -42571.601    56.689612     225.9663 
   14100    132.14491   -1078.3073    146103.39   -39897.672    2665.5138   -42563.186    56.663066    223.16562 
   14150    132.46121   -1007.6825    146106.26   -39861.337    2671.8938    -42533.23    56.734433    223.69978 
   14200    134.89459   -1121.5016     146107.4   -39878.449    2720.9779   -42599.427    56.907884    227.80926 
   14250     134.8088   -987.26591    146110.99   -39859.316    2719.2474   -42578.563    57.084862    227.66437 
   14300    130.38202   -1051.8131    146164.45   -39886.797    2629.9542   -42516.751    57.320299    220.18845 
   14350    131.33981   -1197.1163    146236.77   -39910.109    2649.2738   -42559.383    57.420857    221.80596 
   14400    130.57097   -1289.2978    146220.93   -39903.959    2633.7656   -42537.725    57.499349    220.50755 
   14450    131.76973   -1047.5694    146192.33   -39935.358    2657.9458   -42593.304    57.639923      222.532 
   14500    133.27521    -1091.756    146265.79   -39873.364    2688.3132   -42561.677    57.728501    225.07446 
   14550    132.92809   -980.43423    146277.29   -39865.655    2681.3114   -42546.966    57.914375    224.48824 
   14600     134.5176   -885.94093    146319.56   -39883.927    2713.3736     -42597.3    57.916827     227.1726 
   14650    131.68581   -1188.7162    146294.73   -39914.067     2656.253    -42570.32    58.210782    222.39028 
   14700    133.43372   -999.39959    146323.83   -39880.289    2691.5104   -42571.799    58.258042    225.34214 
   14750    134.44256   -1195.7643    146350.01   -39833.969    2711.8599   -42545.829    58.478486    227.04587 
   14800    135.98933   -1319.0652    146259.42   -39846.743      2743.06   -42589.803    58.713643    229.65804 
   14850     132.5145   -1074.8794    146223.37   -39853.913    2672.9688   -42526.882    58.805019    223.78978 
   14900     133.5237   -1006.3375    146253.98   -39861.417    2693.3254   -42554.742    59.104587     225.4941 
   14950    136.10415   -1117.0322    146243.71   -39804.488    2745.3761   -42549.864     59.37097    229.85195 
   15000    133.34514   -1261.3925    146251.35   -39822.445    2689.7236   -42512.168    59.622878    225.19255 
   15050    134.54611    -1083.537     146288.1   -39829.695    2713.9486   -42543.644    59.986036    227.22074 
   15100    133.80913   -1270.1549    146272.69   -39880.491    2699.0828   -42579.574    60.050949    225.97613 
   15150    134.81524   -1102.2222     146228.5   -39915.042    2719.3772   -42634.419    60.039112    227.67525 
   15200    134.78948   -1176.3868    146302.25    -39891.15    2718.8577   -42610.007    60.175305    227.63175 
   15250    132.09483   -1038.2073    146304.89   -39927.139    2664.5036   -42591.643    60.393435    223.08104 
   15300    131.70812   -1264.5513    146344.19   -39854.623    2656.7031   -42511.326    60.610586    222.42796 
   15350    133.89499   -1156.9814    146251.21   -39865.253    2700.8149   -42566.067    60.704827    226.12114 
   15400     133.0144   -1177.4831    146273.47    -39884.83    2683.0523   -42567.882    60.979438      224.634 
   15450    136.04401   -1338.1971    146228.05   -39878.611    2744.1631   -42622.774     61.02493     229.7504 
   15500     134.2818   -1256.9395    146211.63   -39881.432    2708.6172   -42590.049    61.118353    226.77438 
   15550    133.97906   -899.65908    146288.15   -39859.203    2702.5106   -42561.714    61.142898    226.26312 
   15600    134.20055   -1222.8703     146313.2   -39832.399    2706.9783   -42539.378    61.213007    226.63717 
   15650    132.61425    -1030.149    146232.38   -39812.329    2674.9808    -42487.31    61.470717    223.95823 
   15700    135.44509   -1214.8463    146201.97   -39795.541    2732.0821   -42527.624    61.686683    228.73894 
   15750    131.47724   -1362.5969    146112.31   -39838.264    2652.0461    -42490.31    61.706162    222.03806 
   15800    135.59015   -1195.4132    146011.91   -39804.869    2735.0082   -42539.877    61.701747    228.98392 
   15850    135.36025   -1055.9194    145932.26   -39819.404    2730.3708   -42549.775    61.874822    228.59567 
   15900      135.496   -1183.9659    145926.72   -39781.709    2733.1089   -42514.818    61.987374    228.82491 
   15950    135.69919   -1195.3937    145888.89   -39749.665    2737.2076   -42486.873    62.171498    229.16806 
   16000    136.48029   -1178.4447    145851.93    -39773.19    2752.9633   -42526.153    62.399992    230.48718 
   16050    134.23165   -1221.7816    145901.82    -39772.67    2707.6056   -42480.276     62.81386    226.68968 
   16100    132.97152   -1313.2617    145841.27   -39757.656    2682.1874   -42439.844    63.091409    224.56159 
   16150    134.97414   -1127.5077    145829.76   -39757.995    2722.5825   -42480.577    63.350047     227.9436 
   16200    131.57652   -1249.7103    145852.63   -39834.059    2654.0487   -42488.108     63.50936    222.20573 
   16250    130.97243   -1144.7204    145701.28    -39823.28    2641.8635   -42465.144    63.694846    221.18554 
   16300    131.28848   -1337.4128    145640.27   -39814.924    2648.2385   -42463.162    63.965845    221.71927 
   16350    134.22503   -1178.0205     145641.6   -39803.578    2707.4721   -42511.051    64.006852    226.67851 
   16400    131.53419   -1369.5594    145619.74   -39848.894    2653.1949   -42502.089    64.339127    222.13424 
   16450    132.11391   -1260.7773    145528.15   -39888.717    2664.8883   -42553.606    64.662269    223.11325 
   16500    131.35356   -1247.9719     145472.6   -39883.909    2649.5513    -42533.46    64.976886    221.82919 
   16550    132.24008   -1218.7203    145448.49   -39830.205    2667.4334   -42497.638    65.270551    223.32633 
   16600    130.78198   -1000.3118     145420.4   -39825.617    2638.0218   -42463.639    65.457028     220.8639 
   16650    130.07438   -1184.2989    145403.45    -39843.88    2623.7487   -42467.629    65.816868    219.66891 
   16700    135.79678   -1253.0271    145435.14   -39795.215    2739.1761   -42534.391    65.982088    229.33287 
   16750    134.36895   -1098.2536    145477.85   -39769.505     2710.375    -42479.88    66.301411    226.92155 
   16800    135.64848   -1089.3036    145490.44   -39783.675    2736.1848    -42519.86    66.362082    229.08243 
   16850    134.13409   -1122.1096    145513.21   -39832.506    2705.6378   -42538.144    66.586602    226.52494 
   16900    132.88135   -1238.1228    145634.59   -39845.063    2680.3686   -42525.432    66.854662    224.40931 
   16950    134.45104   -1053.8915    145634.17   -39863.428    2712.0309   -42575.459    67.117264    227.06019 
   17000    132.56657   -1257.5671    145626.58   -39843.239     2674.019   -42517.258    67.087321    223.87771 
   17050    131.87026   -1052.6381    145571.52     -39894.1    2659.9738   -42554.074     67.18232    222.70179 
   17100    132.28387   -1244.7403    145553.18    -39920.25    2668.3166   -42588.566     67.21273    223.40028 
   17150    134.79001   -1072.9654    145593.01   -39847.842    2718.8684    -42566.71    67.426854    227.63264 
   17200    135.50978   -1093.8441    145593.72    -39837.01     2733.387   -42570.397     67.68107    228.84819 
   17250    131.34327   -1172.0491    145566.07   -39844.196    2649.3438    -42493.54    67.720298    221.81181 
   17300    132.86768   -1059.4008    145551.91   -39810.691    2680.0928   -42490.784    68.086213    224.38622 
   17350    133.43634   -1336.5462    145514.15   -39845.456    2691.5634    -42537.02     68.27663    225.34658 
   17400    132.78328   -1165.1219    145515.78   -39890.562    2678.3903   -42568.952    68.245039    224.24369 
   17450    133.21114     -1064.95    145563.56   -39813.347    2687.0207   -42500.368    68.287065    224.96625 
   17500     131.9275    -1029.222    145502.96   -39863.202    2661.1284    -42524.33    68.436273    222.79846 
   17550    132.23792   -1166.3316     145513.3   -39823.083    2667.3898   -42490.473    68.410643    223.32269 
   17600    131.47476   -1505.1242    145396.88   -39857.793    2651.9961    -42509.79    68.467283    222.03387 
   17650    131.25351   -1261.0351    145315.64   -39885.769    2647.5331   -42533.302    68.233575    221.66022 
   17700    132.89414   -1189.9322    145227.23   -39895.353    2680.6265   -42575.979    68.275647     224.4309 
   17750    130.79475   -1241.2775    145174.63   -39890.307    2638.2794   -42528.586    68.503982    220.88546 
   17800    135.51775   -1053.6442    145205.07   -39817.521    2733.5477   -42551.068    68.528869    228.86164 
   17850    134.36826   -1257.6044    145190.96   -39828.983    2710.3613   -42539.345    68.495107     226.9204 
   17900    134.87745   -1137.5458    145185.53   -39772.274    2720.6322   -42492.907    68.552883    227.78032 
   17950    134.95018   -1302.5454    145141.74   -39798.012    2722.0991   -42520.111    68.638813    227.90313 
   18000    134.55438   -1217.9812    145154.17   -39772.681    2714.1154   -42486.796    68.538494    227.23471 
   18050     134.9986    -929.5269     145102.8   -39738.913    2723.0759   -42461.989    68.522282    227.98491 
   18100    135.80936   -1034.2722    145243.26   -39777.121    2739.4298   -42516.551    68.437627    229.35411 
   18150    136.51586   -1172.5569    145299.81   -39705.852    2753.6808   -42459.533    68.746254    230.54725 
   18200     132.0903   -1291.6479    145214.34   -39763.686    2664.4122   -42428.098    68.881976    223.07339 
   18250    133.25952   -1122.0003    145191.97    -39801.52    2687.9966   -42489.517    69.101483    225.04795 
   18300    132.10562   -1243.5513    145203.95   -39816.768    2664.7211    -42481.49    69.169291    223.09926 
   18350    135.30939   -1167.3771    145098.85   -39831.119    2729.3448   -42560.464    69.385767    228.50977 
   18400    134.86012   -1161.8147    145056.63   -39765.428    2720.2826    -42485.71    69.621672    227.75105 
   18450    133.34145   -1224.9751    145018.22   -39787.967    2689.6493   -42477.616     69.89422    225.18633 
   18500    131.37011   -1211.9521    145036.38   -39809.858    2649.8851   -42459.743     70.01021    221.85714 
   18550    131.55129   -1184.0893    145012.44   -39805.163    2653.5396   -42458.703    70.354207     222.1631 
   18600     134.3836   -1011.4472     145054.6   -39791.616    2710.6707   -42502.287    70.234638    226.94631 
   18650    134.63336   -1043.7847    145122.77    -39819.62    2715.7087   -42535.328    70.215282     227.3681 
   18700    134.59986   -1131.6144    145209.67   -39842.524    2715.0328   -42557.557    70.486455    227.31151 
   18750    130.97267   -1235.2862    145176.24   -39850.623    2641.8683   -42492.492    70.684654    221.18594 
   18800    131.70192   -1135.6396    145248.63   -39830.432     2656.578    -42487.01    70.845512    222.41749 
   18850     133.3039   -1214.9832    145271.84   -39812.614    2688.8919   -42501.506    70.963687    225.12291 
   18900      134.066   -1145.5653    145270.77   -39813.574    2704.2643   -42517.838    71.235999    226.40994 
   18950    133.96189   -1033.2993    145288.75   -39855.125    2702.1642   -42557.289    71.536355    226.23411 
   19000    130.87468   -1121.0377    145251.87   -39884.648    2639.8918    -42524.54    71.616922    221.02046 
   19050      131.778   -1073.1233    145280.06   -39861.111    2658.1127   -42519.224    71.607463    222.54598 
   19100    133.31473   -1179.2287    145304.92   -39849.205    2689.1102   -42538.315    71.640424    225.14119 
   19150    133.79673   -1181.9894    145241.36   -39852.707    2698.8327    -42551.54    71.585053    225.95519 
   19200    134.53402   -954.99455    145260.18   -39841.612    2713.7048   -42555.317      71.6425    227.20033 
   19250    131.70721   -1138.5614    145287.84   -39798.649    2656.6848   -42455.333    71.799152    222.42643 
   19300    132.60392   -1064.2351    145349.24   -39831.229    2674.7724   -42506.002    71.867852    223.94078 
   19350    131.79483   -1037.5324    145346.64   -39846.475    2658.4522   -42504.928    72.184631     222.5744 
   19400    132.50386   -1134.1877    145336.23    -39841.67     2672.754   -42514.424    72.429115     223.7718 
   19450    131.33562   -1274.4521    145337.74   -39866.723    2649.1894   -42515.913    72.767395    221.79889 
   19500    133.10376   -1093.2307    145301.17    -39879.86    2684.8549   -42564.715    72.898809    224.78492 
   19550    132.96462   -1101.9137    145319.89   -39857.011    2682.0482   -42539.059    73.061044    224.54993 
   19600    133.02358   -1496.4097    145281.14   -39836.051    2683.2374   -42519.289    73.209414     224.6495 
   19650    133.22392    -1108.831    145248.24   -39799.613    2687.2786   -42486.891      73.5831    224.98784 
   19700    132.99519   -1024.3242    145280.24   -39827.681    2682.6649   -42510.346    73.637974    224.60156 
   19750    132.85202   -1135.2237    145308.28   -39776.693     2679.777    -42456.47    73.663891    224.35978 
   19800     135.5424   -952.90104    145297.76   -39723.854     2734.045   -42457.899    73.827004    228.90328 
   19850    137.22221   -1164.9366    145277.98   -39779.986    2767.9286   -42547.914    73.786984    231.74013 
   19900     136.6765   -1009.3849    145314.98   -39761.145     2756.921   -42518.066    73.766346    230.81854 
   19950    133.58099   -1152.7673    145335.31   -39718.316    2694.4811   -42412.797    73.874093    225.59086 
   20000    136.43533   -996.70372    145312.37    -39768.62    2752.0563   -42520.676    73.883731    230.41124 
   20050    137.09731    -1083.553    145353.68   -39750.302    2765.4093   -42515.712    73.872604     231.5292 
   20100    136.06905   -1049.2759    145430.08    -39753.63     2744.668   -42498.298    74.238748    229.79268 
   20150    135.36711   -1184.0158     145430.7    -39776.53    2730.5092   -42507.039    74.798773    228.60725 
   20200    135.70315   -1288.2602    145500.09    -39793.26    2737.2874   -42530.548    75.192281    229.17475 
   20250    132.54437   -1300.1458    145385.81   -39852.501    2673.5713   -42526.072    75.469648    223.84022 
   20300    131.99673    -1216.148    145403.07   -39834.685    2662.5247    -42497.21    75.375938    222.91536 
   20350    132.39767   -1131.9132    145379.37   -39857.865    2670.6121   -42528.477    75.610571    223.59247 
   20400    134.13199   -1017.7233    145382.97   -39830.205    2705.5953     -42535.8    75.827516    226.52138 
   20450    133.99699   -1090.8506    145407.78    -39823.91    2702.8722   -42526.782    76.048835    226.29339 
   20500    134.57733   -1358.3164    145335.56   -39868.922    2714.5783   -42583.501    76.360382    227.27347 
   20550    133.45096   -1169.2514    145251.19   -39805.035    2691.8583   -42496.893    76.481636    225.37127 
   20600     130.6151   -1246.7429    145201.13   -39853.568    2634.6556   -42488.224    76.835081    220.58207 
   20650    132.24794   -1380.3337    145178.49   -39870.792    2667.5919   -42538.384     77.13623     223.3396 
   20700    135.09435   -1130.9309    145163.33   -39809.586    2725.0072   -42534.593    77.430089    228.14661 
   20750    132.01249   -1077.8972    145191.46    -39835.82    2662.8427   -42498.662     77.54407    222.94199 
   20800    132.63302   -1297.7967    145205.71   -39876.764    2675.3595   -42552.124    77.875183    223.98994 
   20850    135.36382   -1077.4377    145256.13   -39799.587    2730.4427   -42530.029    77.995101    228.60168 
   20900    131.88082   -1085.0654    145307.89   -39812.897    2660.1867   -42473.083    78.194886    222.71962 
   20950    132.38774   -1353.5614     145345.8    -39833.66    2670.4119   -42504.072    78.421839    223.57571 
   21000    133.53426   -1122.7554    145346.16   -39821.622    2693.5385    -42515.16    78.396156    225.51194 
   21050    130.89441   -1150.6658    145317.55   -39830.968    2640.2897   -42471.258    78.481033    221.05378 
   21100     132.6746   -1146.6131    145350.49   -39816.693    2676.1982   -42492.891     78.66988    224.06016 
   21150    135.60495   -1118.5865    145436.01   -39807.085    2735.3066   -42542.391    78.726777    229.00891 
   21200    131.62332   -1151.6663    145514.33    -39826.72    2654.9927   -42481.713     78.76231    222.28476 
   21250    133.80179   -1093.9602    145552.87   -39801.582    2698.9349   -42500.517     78.89364    225.96375 
   21300    136.31384   -1135.1745    145633.35   -39796.685    2749.6058    -42546.29    78.723437    230.20608 
   21350    133.51161   -1190.3783    145605.09   -39793.166    2693.0815   -42486.248    78.796436    225.47368 
   21400    133.63597   -1274.4904    145543.02   -39813.948    2695.5901   -42509.538    79.075167    225.68371 
   21450    134.87902     -1046.92    145570.49    -39787.41    2720.6638   -42508.074    79.173273    227.78296 
   21500    131.48391    -1151.553    145578.05   -39799.447    2652.1806   -42451.627    79.256256    222.04932 
   21550    131.88516   -1331.8501    145548.72   -39847.431    2660.2743   -42507.705    79.505011    222.72695 
   21600    130.39906   -1041.9289    145510.03   -39843.103     2630.298   -42473.401    79.657533    220.21724 
   21650    134.69299   -1093.1646    145545.05   -39806.185    2716.9114   -42523.096    79.723118     227.4688 
   21700    132.35583   -1304.6195    145610.49   -39803.875    2669.7681   -42473.643    79.696946    223.52181 
   21750    132.61694   -1175.5813    145521.29   -39857.186    2675.0351   -42532.221    80.084698    223.96277 
   21800    131.32568   -1167.7233    145514.62   -39890.557    2648.9888   -42539.546    80.335884     221.7821 
   21850    130.81276   -1001.6877    145531.32   -39923.782    2638.6426   -42562.425    80.386336    220.91588 
   21900    135.10866   -971.98984    145559.74    -39902.49    2725.2959   -42627.786    80.652923    228.17077 
   21950    130.23245   -1020.2242    145662.96   -39916.632    2626.9373   -42543.569    80.981552    219.93587 
   22000    133.03684    -835.4464    145677.42   -39927.906     2683.505   -42611.411    81.146128     224.6719 
   22050    130.19877   -1010.4791     145722.3   -39945.121    2626.2579   -42571.379    81.215619    219.87899 
   22100    132.25227   -1103.3801    145695.32   -39882.915    2667.6792   -42550.595    81.357685    223.34691 
   22150    133.18235   -951.05381    145797.33   -39899.983    2686.4401   -42586.423     81.46112    224.91764 
   22200     133.7047   -870.17375    145860.69   -39904.565    2696.9764   -42601.541    81.632063    225.79977 
   22250    132.30074   -900.38538    145991.46   -39892.389    2668.6571   -42561.046    81.814536    223.42878 
   22300    134.36139   -1225.3249     146018.5   -39874.575    2710.2226   -42584.797    81.953752    226.90879 
   22350    131.90407   -1080.6156    145913.39   -39941.588    2660.6556   -42602.244    82.083321    222.75888 
   22400    132.72905   -1307.3471    145894.83   -39919.955    2677.2964   -42597.251    82.164452     224.1521 
   22450    131.60146   -1238.2003    145852.66   -39902.931    2654.5517   -42557.483    82.414722    222.24784 
   22500    135.29981   -1127.9822    145838.21   -39885.449    2729.1516     -42614.6    82.736831    228.49359 
   22550    131.72003   -975.64714    145926.46   -39875.653    2656.9433   -42532.596    82.833915    222.44807 
   22600    132.61752   -1146.5665    145949.04   -39842.726    2675.0467   -42517.772    83.024405    223.96375 
   22650    134.22979   -1124.1071    145879.63   -39807.859     2707.568   -42515.427     83.34989    226.68654 
   22700    133.19182   -1027.4081    145839.71     -39798.5    2686.6311   -42485.131     83.30089    224.93363 
   22750    134.16517   -1096.6229    145849.04   -39772.432    2706.2646   -42478.697    83.393625    226.57741 
   22800     135.9049   -1009.9127    145873.51    -39744.39     2741.357   -42485.747      83.8415    229.51546 
   22850    133.66539    -1028.696    145861.19   -39774.854    2696.1835   -42471.037    83.779065    225.73339 
   22900    133.79937   -1039.5717    145863.52   -39803.329     2698.886   -42502.215    83.906969    225.95965 
   22950    133.73358    -815.8821    145899.48   -39800.501     2697.559    -42498.06    84.311976    225.84855 
   23000    133.49883   -1183.2278     145951.9   -39813.646    2692.8238    -42506.47    84.480584    225.45211 
   23050    135.22968   -972.89757    145967.03       -39807    2727.7371   -42534.737    84.598249    228.37516 
   23100    133.54874   -1115.3724    146024.46   -39793.921    2693.8305   -42487.752    84.655427    225.53639 
   23150    136.48932   -1230.6499    145955.27   -39797.265    2753.1454   -42550.411      84.8793    230.50243 
   23200    134.52425   -1257.5901    145950.83   -39836.657    2713.5077   -42550.165    85.243624    227.18383 
   23250    132.21241   -1100.2759    145936.85   -39887.163    2666.8753   -42554.038    85.480536    223.27961 
   23300    132.46189   -1076.4985    145922.79    -39889.88    2671.9076   -42561.787     85.79919    223.70093 
   23350    134.09166   -1195.4477    146020.85   -39869.068    2704.7818   -42573.849    86.061067    226.45327 
   23400    133.41726   -1180.1317    146047.52   -39894.401    2691.1784   -42585.579    86.234888    225.31435 
   23450    132.01009   -1345.9373    145943.53   -39904.098    2662.7942   -42566.892     86.56326    222.93792 
   23500    131.77433   -1246.6682    145942.52   -39890.336    2658.0387   -42548.374    86.735434    222.53978 
   23550    132.35916   -1275.1771    145883.37   -39877.786    2669.8353   -42547.621    86.829085    223.52743 
   23600     133.7077    -1197.497    145879.33   -39899.476     2697.037   -42596.513    86.850658    225.80485 
   23650    133.57029   -1259.3922    145948.78   -39853.009    2694.2651   -42547.274    86.819069    225.57278 
   23700    132.90859   -1353.5956     146011.8   -39940.663    2680.9181   -42621.581    86.823317    224.45532 
   23750    132.80659   -1222.9065    146008.95   -39984.054    2678.8605   -42662.915    87.201957    224.28305 
   23800    131.74992   -1402.4134    145962.37    -40026.97    2657.5463   -42684.516    87.101628    222.49856 
   23850    134.46274   -1270.3707    145954.24    -39954.01    2712.2669   -42666.277    87.203712    227.07995 
   23900    132.81001   -1294.3238    145955.13     -39965.8    2678.9296   -42644.729    87.177915    224.28884 
   23950    134.13108   -1169.3769    145994.93   -39939.998     2705.577   -42645.575    87.466272    226.51984 
   24000    131.74865   -1192.4813    146000.29   -39968.244    2657.5207   -42625.765    87.606066    222.49641 
   24050    133.28475   -1278.6291    145998.28    -40010.51    2688.5056   -42699.015    87.868029    225.09057 
   24100    131.33242   -1102.7926       145912   -40021.973    2649.1249   -42671.097     88.19306    221.79349 
   24150    134.49855   -1069.3619    146001.78   -39981.189    2712.9894   -42694.179     88.36096    227.14043 
   24200    131.57008    -1128.162    146157.53   -40008.494    2653.9187   -42662.413    88.435349    222.19484 
   24250    132.24884   -1206.4292    146223.57   -40019.362      2667.61   -42686.972    88.583398    223.34112 
   24300    131.44688    -1053.609    146284.71    -40016.79    2651.4336   -42668.223    88.509522    221.98678 
   24350    132.35988   -1387.1939    146285.99   -40017.772      2669.85   -42687.622    88.508511    223.52866 
   24400    133.33476    -1214.597    146249.52   -40007.392    2689.5142   -42696.906    88.584142    225.17502 
   24450     131.6492   -1366.3946    146248.63   -40015.573    2655.5147   -42671.088    88.477473    222.32846 
   24500    132.46423   -1213.6336    146223.81   -40000.127    2671.9547   -42672.082    88.650835    223.70488 
   24550    133.68535   -1146.0434    146139.88   -39986.371    2696.5862   -42682.957    88.738321     225.7671 
   24600    133.75127   -1135.0981    146180.43   -39950.942    2697.9158   -42648.858    88.970784    225.87842 
   24650     132.9601    -1245.965    146212.33   -39970.562    2681.9571   -42652.519     89.20186    224.54231 
   24700    133.72458   -1271.3489    146216.73   -39959.833    2697.3774    -42657.21    89.439412    225.83335 
   24750    134.26053   -1039.4028    146215.79   -39985.329    2708.1882   -42693.518    89.423723    226.73846 
   24800    132.96795   -1303.5935    146268.14   -39987.189    2682.1153   -42669.304    89.555166    224.55555 
   24850    133.30605   -1323.4588    146216.83   -40005.812    2688.9352   -42694.747    89.583761    225.12654 
   24900    132.43111   -1312.8985    146178.85   -39999.088    2671.2867   -42670.375    89.808277    223.64895 
   24950    133.32879   -1218.1955    146171.42   -39978.281     2689.394   -42667.675    89.924578    225.16495 
   25000    132.17912   -1470.8011    146067.43   -39932.887    2666.2037    -42599.09    90.068388    223.22338 
   25050     134.4882   -1054.1978    146054.23   -39950.085    2712.7805   -42662.865    90.168253    227.12294 
   25100    132.56429    -1237.864       145987   -39914.983     2673.973   -42588.956    90.357311    223.87385 
   25150    130.85144   -1430.1927    145960.03    -39924.42    2639.4228   -42563.843    90.546384     220.9812 
   25200    135.25497   -1425.6236    145866.31    -39871.76    2728.2471   -42600.008    90.695872    228.41786 
   25250    134.19195   -1150.8412    145820.73   -39859.955    2706.8049    -42566.76    90.981487    226.62264 
   25300    133.78086   -1397.4521    145823.18   -39902.148    2698.5126   -42600.661     91.11555    225.92839 
   25350    133.28749     -1277.78    145765.36   -39837.864    2688.5607   -42526.425    91.171973    225.09519 
   25400    134.44791   -1345.5787    145759.98   -39831.334    2711.9679   -42543.302    91.262197    227.05491 
   25450    134.59679   -1000.7753    145727.14   -39803.044    2714.9709   -42518.015    91.146977    227.30633 
   25500    133.88212   -1245.1466    145748.67   -39848.715    2700.5552    -42549.27    91.296601     226.0994 
   25550    136.06945   -1166.5241    145759.45   -39871.817    2744.6761   -42616.493    91.676023    229.79335 
   25600    134.74834   -1179.4005    145717.61    -39843.76    2718.0279   -42561.788    91.775645    227.56228 
   25650    135.07065   -1169.9822    145742.91   -39829.017    2724.5292   -42553.546    91.825171    228.10658 
   25700    135.10375   -1125.1067    145743.34   -39801.664    2725.1968   -42526.861    91.855558    228.16248 
   25750    134.17047   -1014.0695    145748.64   -39828.985    2706.3715   -42535.357    92.005901    226.58636 
   25800    137.12731   -1147.4071    145792.36   -39835.759    2766.0145   -42601.774    92.426437    231.57987 
   25850    133.95398   -1127.9872    145742.95   -39889.554    2702.0046   -42591.559    92.535037    226.22075 
   25900     135.1585   -1135.2513    145747.41   -39887.212    2726.3013   -42613.514    92.571799    228.25495 
   25950    132.90451   -935.77775    145798.39   -39937.463    2680.8358   -42618.299    92.559971    224.44843 
   26000    135.32591   -1064.1885     145875.8   -39942.197    2729.6781   -42671.875    92.801499    228.53766 
   26050    134.21543   -1106.9906    145918.77   -39881.031    2707.2785    -42588.31     92.70987     226.6623 
   26100    134.28514   -1137.5079    145979.69   -39927.835    2708.6846    -42636.52    92.784524    226.78002 
   26150    136.17294   -994.73306    145933.06   -39977.899    2746.7637   -42724.663    93.023889    229.96813 
   26200    131.61374   -1049.1594    145957.17   -39944.939    2654.7994   -42599.739    93.052023    222.26857 
   26250    135.51274    -1097.846     146002.4   -39936.163    2733.4467   -42669.609    93.202907    228.85319 
   26300    134.38573    -1212.109    145983.04   -39906.368    2710.7135   -42617.082    93.438001    226.94989 
   26350    133.29201   -1271.2195    146041.91   -39907.165    2688.6521   -42595.817    93.316906    225.10283 
   26400     136.4248   -1274.1559    145981.74   -39963.107    2751.8439   -42714.951    93.313958    230.39346 
   26450    133.02261   -1188.6132    145921.39   -40004.972     2683.218    -42688.19    93.261855    224.64787 
   26500    134.15187   -987.55682    145927.06   -39992.954    2705.9965   -42698.951    93.385536    226.55496 
   26550    131.93176   -1045.0042    145998.47     -39967.2    2661.2142   -42628.415    93.654381    222.80565 
   26600    133.77015   -1040.7854    146106.64   -39955.142    2698.2966   -42653.438    93.982534    225.91031 
   26650    133.77683   -1272.8528     146084.3   -39936.878    2698.4313   -42635.309    94.301217    225.92158 
   26700    132.26342   -1300.3216    145986.21    -39930.32    2667.9041   -42598.224    94.303309    223.36574 
   26750     130.5534   -1339.1565    145868.98   -39997.657    2633.4111   -42631.068    94.474848    220.47787 
   26800    131.84367   -1215.2171    145774.34   -39985.806    2659.4373   -42645.244    94.672875    222.65687 
   26850    132.54888   -1190.3323     145818.5   -39961.825    2673.6623   -42635.488    95.022958    223.84784 
   26900    133.13768   -953.12976    145915.04   -39914.643     2685.539   -42600.182    95.056018     224.8422 
   26950    136.32129   -1176.8208    146012.91   -39921.109    2749.7561   -42670.865    95.093193    230.21866 
   27000    133.07473   -1280.6342    146009.53   -39926.643    2684.2693   -42610.912    95.252827    224.73589 
   27050    133.74417   -1167.5024    145895.76    -39972.44    2697.7725   -42670.213     95.34377    225.86643 
   27100    131.20231   -1139.4534    145903.52   -40011.276    2646.5004   -42657.777      95.5735    221.57375 
   27150    132.44414   -924.41168    145829.75   -39999.881    2671.5494   -42671.431    95.691819    223.67094 
   27200    132.46566   -1024.9528    145897.65   -40081.628    2671.9836   -42753.612    95.686027     223.7073 
   27250      130.916   -1118.8321    145873.78   -40056.411    2640.7251   -42697.136    95.734654    221.09023 
   27300    132.91715   -1129.0053    145856.99   -40070.477    2681.0906   -42751.568      95.9945    224.46977 
   27350    129.81857    -1151.254    145822.72   -40057.108    2618.5888   -42675.697     96.36021    219.23691 
   27400    130.24941   -1067.9754    145762.19   -40041.301    2627.2794   -42668.581    96.665469    219.96451 
   27450    135.58436   -989.79748    145732.22   -40049.959    2734.8914   -42784.851    96.915423    228.97414 
   27500    130.81377    -1112.108    145777.32   -40028.312    2638.6631   -42666.975    97.005413    220.91759 
   27550     131.3226   -966.42754    145798.45   -40016.628    2648.9267   -42665.554    97.187739    221.77689 
   27600    135.81044   -1215.2656    145820.62   -39982.073    2739.4516   -42721.525    97.084206    229.35594 
   27650    133.04999   -1211.7267     145764.3   -39971.346    2683.7701   -42655.116    97.191951     224.6941 
   27700    131.33432   -1200.7514    145706.38   -40036.158    2649.1631   -42685.322    97.374645    221.79668 
   27750    130.98148   -1074.1422    145684.73   -40010.949    2642.0459   -42652.995     97.60626    221.20081 
   27800     134.6804   -1189.6367    145713.41   -39990.401    2716.6574   -42707.058    97.540402    227.44753 
   27850    133.73194   -1065.1275    145726.92   -39979.751    2697.5258   -42677.277    97.915078    225.84577 
   27900    129.88902   -1001.1266    145752.78   -39994.916    2620.0099   -42614.926    98.005135    219.35588 
   27950    134.31659   -1213.5163    145822.31   -39988.128    2709.3189   -42697.447    98.154841    226.83313 
   28000     132.5731   -1141.4665    145766.85   -39949.132    2674.1507   -42623.282    98.533661    223.88873 
   28050    133.61236   -1112.3439    145773.39   -39970.209    2695.1139   -42665.323    98.653243    225.64383 
   28100    133.49878   -1244.0366    145801.85   -39997.214    2692.8228   -42690.037    98.793703    225.45202 
   28150    135.47727   -1183.0467    145792.56   -39971.164    2732.7312   -42703.895    98.863478    228.79328 
   28200    133.71945   -1093.7326    145763.16   -39986.362    2697.2739   -42683.636    98.844922    225.82468 
   28250    133.46247   -1051.5979    145854.13    -40003.38    2692.0904   -42695.471     98.93104     225.3907 
   28300    133.14599   -1334.8196    145877.18   -39971.324    2685.7066   -42657.031    98.965433    224.85623 
   28350    132.11444   -1145.8069    145801.16   -40019.147    2664.8991   -42684.046    99.069486    223.11415 
   28400    133.08024   -1098.4439    145805.76    -39957.08    2684.3804    -42641.46    99.160726     224.7452 
   28450    132.64543   -1114.3823     145793.3   -40004.282    2675.6098   -42679.891    99.116551    224.01089 
   28500     132.1211   -1231.5516    145868.15   -39986.529    2665.0334   -42651.562    99.285055     223.1254 
   28550    131.07154    -1164.576    145909.97   -39997.822    2643.8627   -42641.685    99.454323    221.35292 
   28600    133.49091   -1072.0363    145873.21   -40035.005     2692.664   -42727.669    99.606809    225.43872 
   28650    131.28318   -1085.7566    145877.99   -40049.822    2648.1317   -42697.954    99.366688    221.71033 
   28700    132.63135   -1266.9388    145910.94   -40060.211    2675.3257   -42735.537     99.31526     223.9871 
   28750    130.11777    -1109.547    145904.93   -40023.085     2624.624   -42647.709    99.365784    219.74219 
   28800     134.4048    -1078.445    145922.12   -39978.874    2711.0982   -42689.973    99.318748     226.9821 
   28850    133.98058   -1173.5815    145943.69   -39942.216    2702.5413   -42644.758    99.567077    226.26568 
   28900     134.9799   -977.88607    145946.63   -39922.157    2722.6987   -42644.856    99.613009    227.95333 
   28950    135.68833   -978.32311    145952.65   -39880.995    2736.9885   -42617.984    99.876972    229.14972 
   29000    136.03997   -1047.3077    146013.75   -39856.931    2744.0816   -42601.012    100.13206    229.74358 
   29050     136.3655   -1035.3322    146059.03   -39833.302    2750.6479    -42583.95    99.977741    230.29333 
   29100    136.04329   -789.55289    146042.42   -39873.862    2744.1485    -42618.01    99.965951    229.74918 
   29150    131.82087   -1080.8657    146023.82   -39907.063    2658.9774   -42566.041    100.16672    222.61837 
   29200    135.24916   -1058.3181     145954.2    -39943.67    2728.1299     -42671.8    100.15717    228.40804 
   29250    136.47557   -983.99196    145973.14   -39954.642    2752.8681    -42707.51    100.36098    230.47921 
   29300    134.50691   -1020.0309    146004.44   -39942.323     2713.158   -42655.481    100.37117    227.15455 
   29350     133.4495   -1067.1642    145951.92   -39883.764    2691.8289   -42575.593    100.56719     225.3688 
   29400    133.73032   -1190.9486    145950.97   -39912.293    2697.4932   -42609.787       100.93    225.84304 
   29450    133.13004   -1041.0819    145915.75   -39966.723     2685.385   -42652.108    100.98373     224.8293 
   29500    131.64037   -1167.0588    145930.25   -39932.117    2655.3365   -42587.454    100.96168    222.31355 
   29550    130.66388   -1206.3533     145882.1   -39966.287    2635.6395   -42601.927    100.90741    220.66445 
   29600    133.23687   -1068.5519    145870.48   -40006.566    2687.5398   -42694.106    101.24013    225.00971 
   29650     132.3497   -1123.8842     145825.7   -40014.911    2669.6445   -42684.555    101.16162    223.51146 
   29700      131.258   -1101.7876    145813.26   -40015.627    2647.6237   -42663.251     101.0246     221.6678 
   29750    133.49312   -976.83837    145813.14   -39972.187    2692.7086   -42664.896    101.30307    225.44246 
   29800    132.09162   -1214.4896    145761.58   -39965.723    2664.4388   -42630.162    101.38361    223.07561 
   29850    133.80243   -965.16458    145780.55   -39903.416    2698.9478   -42602.363    101.50909    225.96483 
   29900    132.57821   -1384.2739    145734.41   -39930.225    2674.2538   -42604.478    101.54647    223.89737 
   29950    135.70907   -1032.9357     145758.4   -39923.433    2737.4069    -42660.84    101.57742    229.18475 
   30000    134.68094   -1081.5539    145765.68   -39983.224    2716.6684   -42699.892    101.75027    227.44845 
   30050    132.03421   -1120.5208    145773.13   -39997.581    2663.2807   -42660.861    101.94429    222.97866 
   30100    134.03342   -1127.4754    145804.95   -39982.265    2703.6071   -42685.872    102.00068    226.35491 
   30150    132.44642   -1249.1031    145820.58   -39959.737    2671.5956   -42631.332    102.09206    223.67481 
   30200    131.59642   -1220.5155    145828.37   -39925.192      2654.45   -42579.642    102.21233    222.23932 
   30250    132.82761   -1420.7365    145844.38   -39856.775    2679.2845   -42536.059    102.39718    224.31855 
   30300    135.53884   -1302.4097    145717.56   -39857.214    2733.9731   -42591.188    102.65995    228.89726 
   30350    137.50142   -1290.0771    145712.12   -39842.999    2773.5607    -42616.56    102.98157    232.21166 
   30400    132.75628   -1183.3467    145664.67   -39870.442    2677.8457   -42548.287    103.13091    224.19809 
   30450    135.13905   -1139.9843    145698.83   -39853.712    2725.9089   -42579.621    103.19019     228.2221 
   30500    132.64173   -1150.9769    145599.48   -39860.039    2675.5351   -42535.574    103.19152    224.00463 
   30550    133.29496   -1100.8377    145567.93   -39804.626    2688.7114   -42493.337    103.32767     225.1078 
   30600    131.56694   -1128.1672    145548.11   -39825.619    2653.8554   -42479.474     103.6301    222.18954 
   30650    133.50444   -1030.1775    145599.85   -39787.614    2692.9369   -42480.551    103.88974    225.46158 
   30700    131.87776   -1216.9715    145591.02    -39810.27    2660.1249   -42470.395    104.08806    222.71445 
   30750    136.85721   -1044.0542       145631   -39775.634    2760.5662     -42536.2     104.1973    231.12372 
   30800    134.00024    -1244.452    145702.62    -39804.64    2702.9379   -42507.578    104.46832    226.29889 
   30850    135.10705   -999.90969    145749.75   -39790.192    2725.2635   -42515.455    104.50599    228.16806 
   30900    134.50403   -1297.7314    145786.26   -39837.738    2713.0998   -42550.838    104.87702    227.14968 
   30950    135.40183   -1191.0014    145772.48   -39801.233    2731.2095   -42532.443    104.86799    228.66588 
   31000    132.08304   -1090.4506    145804.62   -39851.178    2664.2657   -42515.444    104.90469    223.06113 
   31050    132.80656   -1288.1439    145825.28   -39810.193    2678.8599   -42489.053    105.07306      224.283 
   31100    132.71114   -1243.0563    145819.56   -39837.701    2676.9352   -42514.636    105.26761    224.12186 
   31150    131.35897   -1322.7003    145780.82     -39847.8    2649.6604   -42497.461    105.20601    221.83832 
   31200    132.52007   -1317.2301     145734.9   -39800.976     2673.081   -42474.057    105.55496    223.79918 
   31250    135.79925   -1216.1134    145708.09   -39791.271    2739.2258   -42530.497    105.62601    229.33704 
   31300    135.48312   -1383.9218     145695.5   -39767.579    2732.8491   -42500.428     105.7007    228.80316 
   31350    133.47997   -1169.3448    145677.43   -39715.687    2692.4433    -42408.13    105.90841    225.42025 
   31400     135.1867   -1228.5292    145653.59   -39748.232    2726.8701   -42475.103    106.13973    228.30257 
   31450    132.99129   -1155.3932    145707.77    -39800.53    2682.5861   -42483.116    106.05539    224.59497 
   31500    133.66562   -1208.2346    145715.31   -39841.884    2696.1881   -42538.072     105.9025    225.73377 
   31550    131.47656   -1217.0266    145774.64   -39874.999    2652.0323   -42527.031     106.0999    222.03691 
   31600    134.45374   -1140.1512    145812.79    -39838.24    2712.0855   -42550.326    106.37235    227.06476 
   31650    131.72289   -1368.2495    145845.67   -39900.922    2657.0011   -42557.923    106.79483    222.45291 
   31700    134.32177   -1089.5164    145860.98   -39894.561    2709.4235   -42603.985    106.77103    226.84189 
   31750    132.48151   -1186.4643     145865.9   -39878.759    2672.3033   -42551.062    106.98346    223.73406 
   31800      133.298   -1174.9438    145812.83   -39854.468    2688.7728   -42543.241    107.32587    225.11294 
   31850    134.65153   -1082.8143    145808.36   -39905.165    2716.0752   -42621.241    107.50188    227.39879 
   31900    133.58086   -1219.3794    145812.82   -39925.408    2694.4785   -42619.886    107.60176    225.59064 
   31950     132.4152   -1309.2991    145724.46   -39946.972    2670.9657   -42617.938    107.67575    223.62207 
   32000    131.95564   -1171.5237    145713.09   -39898.526    2661.6959   -42560.222    107.75077    222.84597 
   32050    133.47798   -1106.8432    145727.11   -39947.252    2692.4032   -42639.656    107.83876    225.41689 
   32100    131.59267   -1305.0797    145706.45   -39954.048    2654.3744   -42608.422    107.79445    222.23299 
   32150    131.21474   -1132.3898    145790.31   -39996.335     2646.751   -42643.086    107.89269    221.59474 
   32200     132.0694   -1135.5473    145852.22    -39989.26    2663.9907    -42653.25    108.09246     223.0381 
   32250    133.19033   -1393.5566    145845.75   -40002.568    2686.6011   -42689.169    108.09931    224.93112 
   32300    131.08173   -1255.9412    145847.02   -39960.309     2644.068   -42604.377    108.18278    221.37011 
   32350    131.72007     -1261.95    145861.21   -39971.342    2656.9443   -42628.287    108.39714    222.44815 
   32400    131.47749   -1312.0155    145806.34   -39928.608     2652.051   -42580.659    108.52017    222.03847 
   32450    132.60509   -1175.0186    145779.29   -39911.839     2674.796   -42586.635    108.31738    223.94276 
   32500    131.23666   -1278.4307    145808.94   -39902.312    2647.1933   -42549.506     108.8613    221.63177 
   32550     133.3259   -1066.1963    145793.83   -39885.163    2689.3357   -42574.499    109.24856    225.16006 
   32600    132.74081   -854.23762    145843.99   -39882.125    2677.5336   -42559.659    109.38017    224.17196 
   32650    133.31634   -1151.8919    145872.66   -39891.192    2689.1427   -42580.334    109.53069    225.14391 
   32700    132.55516   -1310.7514    145819.29   -39879.169    2673.7889   -42552.958     109.6161    223.85844 
   32750    131.55811   -1345.0291    145771.96   -39861.011    2653.6773   -42514.688    109.92143    222.17463 
   32800    135.16322   -1275.0738    145824.03   -39849.875    2726.3964   -42576.271    110.12233    228.26291 
   32850    132.39808    -1174.339    145868.11   -39921.852    2670.6204   -42592.472    110.47553    223.59316 
   32900    133.90805   -1189.9975     145933.8   -39880.029    2701.0783   -42581.107     110.5034     226.1432 
   32950    131.81721   -1058.6423    145908.87    -39914.68    2658.9036   -42573.583    110.43339    222.61219 
   33000    131.26781   -1191.0079    145920.84   -39933.027    2647.8217   -42580.848      110.615    221.68438 
   33050    133.25927   -1193.6706    145932.24   -39839.585    2687.9916   -42527.577    110.83885    225.04754 
   33100    132.99048    -1321.948    145995.49   -39905.816    2682.5699   -42588.386    110.90318    224.59361 
   33150    135.69341   -1176.5047    146103.62   -39851.451    2737.0909   -42588.542    111.07821     229.1583 
   33200    135.06154   -1274.2211    146076.41   -39834.184    2724.3454   -42558.529     111.2057     228.0912 
   33250    137.24434    -1174.681    146067.39   -39833.646     2768.375   -42602.021    111.46744     231.7775 
   33300    135.68963   -1151.6204    146088.91   -39822.351    2737.0148   -42559.366    111.50336    229.15192 
   33350    135.08166   -998.32143    146166.65   -39831.493    2724.7513   -42556.244    111.88056    228.12518 
   33400    132.68343   -1271.0175    146188.17   -39817.754    2676.3763   -42494.131    112.04059    224.07507 
   33450    134.45993   -1135.2577    146150.94   -39820.233    2712.2103   -42532.444    112.20245    227.07521 
   33500    134.92861   -1316.2663    146093.18   -39837.465    2721.6642    -42559.13    112.42307    227.86671 
   33550     130.9252   -1203.2535    145971.45   -39864.678    2640.9108   -42505.588    112.67721    221.10577 
   33600    133.91806   -1160.0871    145888.07   -39837.077    2701.2801   -42538.357    112.82004     226.1601 
   33650    136.33496   -1246.8585    145800.76   -39826.632    2750.0318   -42576.664    113.02608    230.24175 
   33700    131.64735    -1230.051    145742.08   -39863.318    2655.4774   -42518.796    113.05496    222.32534 
   33750    134.39738   -1234.6429    145675.56   -39853.618    2710.9487   -42564.566    113.28051    226.96958 
   33800    136.86047   -1010.8747    145734.14    -39818.33     2760.632   -42578.962    113.59991    231.12923 
   33850    132.64447   -1223.1881    145795.05   -39907.242    2675.5904   -42582.832    113.76766    224.00927 
   33900    131.26912   -1286.6724    145863.65   -39867.695    2647.8481   -42515.543    114.08927    221.68659 
   33950     133.7963   -1135.6794    145942.02   -39843.044    2698.8241   -42541.868    114.25715    225.95447 
[...]
   92000    133.38846   -1071.8988    145722.08   -39904.517    2690.5975   -42595.115    259.56408    225.26571 
   92050    132.86879   -1170.7048    145786.83   -39869.817    2680.1152   -42549.932    259.76979     224.3881 
   92100    135.06988   -1251.5974    145815.62    -39907.01    2724.5137   -42631.523    259.60686    228.10529 
   92150    133.15768   -1243.7039    145742.27   -39929.883    2685.9425   -42615.826    259.53316    224.87598 
   92200    130.66783   -1185.8194    145713.08   -39928.992    2635.7194   -42564.711    259.75044    220.67113 
   92250    131.95154    -1257.428    145693.93   -39904.031    2661.6131   -42565.644     259.8828    222.83904 
   92300    131.74439    -1137.163    145677.48   -39911.451    2657.4347   -42568.886    260.18064    222.48921 
   92350    133.01143     -1113.96    145664.61   -39884.155    2682.9924   -42567.147    260.15048    224.62899 
   92400    131.97265   -1139.6617    145709.29   -39882.274     2662.039   -42544.313    260.40067     222.8747 
   92450    131.31168   -1256.5705    145696.94   -39869.054    2648.7065   -42517.761    260.37416    221.75845 
   92500    134.41286   -1042.1103    145665.38   -39861.517    2711.2608   -42572.778    260.38459    226.99571 
   92550    135.43298   -977.42957     145675.1   -39806.789    2731.8378   -42538.626     260.6001    228.71849 
   92600     134.2103   -1071.3603    145721.52   -39762.503    2707.1749   -42469.678    260.91328    226.65363 
   92650    134.34091   -996.36828    145695.22   -39799.849    2709.8094   -42509.659    260.79578     226.8742 
   92700    134.02133   -1044.3517    145700.47   -39792.109    2703.3633   -42495.473    260.78278    226.33451 
   92750    132.34981   -1102.2098    145746.43   -39762.723    2669.6467    -42432.37    260.68776    223.51164 
   92800    134.68809   -1171.3974    145729.57   -39774.003    2716.8125   -42490.815    261.12558    227.46052 
   92850    134.82213   -1221.7726    145722.31   -39786.233    2719.5162   -42505.749    261.64328    227.68688 
   92900    133.94763   -1281.3928    145713.29   -39829.231    2701.8767   -42531.108    261.66423    226.21004 
   92950    133.23257   -1179.8669    145716.87   -39849.968     2687.453   -42537.421    262.05086    225.00244 
   93000    132.92998   -1146.4333     145660.8   -39831.714    2681.3494   -42513.063    262.32477    224.49143 
   93050    134.45522     -1223.04    145662.58   -39779.142    2712.1152   -42491.258    262.50669    227.06725 
   93100    134.70915   -1017.4478    145657.54   -39795.492    2717.2374    -42512.73    262.46978    227.49609 
   93150    133.90064   -993.61804    145678.48   -39767.409    2700.9288   -42468.337    262.47696    226.13068 
   93200    135.81753   -1157.1739       145701   -39805.762    2739.5947   -42545.357    262.76627    229.36792 
   93250    134.11081    -1167.864    145690.99   -39835.767    2705.1681   -42540.935    262.70684    226.48561 
   93300    134.04508   -1296.4338    145700.79   -39840.527    2703.8423    -42544.37    262.78961    226.37461 
   93350    137.87007   -978.68145    145697.48   -39813.832    2780.9967   -42594.829    262.77308    232.83423 
   93400    135.02584   -1209.5302    145805.93   -39817.683    2723.6253   -42541.308    263.19377     228.0309 
   93450    132.94549   -1343.8786    145719.04   -39825.101    2681.6622   -42506.763    263.35733    224.51762 
   93500    132.38759   -1151.9047    145692.36   -39851.584    2670.4087   -42521.993    263.16872    223.57544 
   93550    134.65318   -1031.0343    145775.78   -39804.864    2716.1083   -42520.973    263.46194    227.40156 
   93600    131.30239   -1252.4429    145862.37   -39880.411    2648.5191    -42528.93    264.20209    221.74277 
   93650    131.45356   -1176.4901    145904.76   -39911.813    2651.5683   -42563.382    264.35357    221.99806 
   93700    131.28525   -1214.9977    145836.08   -39897.579    2648.1734   -42545.753    264.73612    221.71383 
   93750    133.34411   -1186.4922    145848.61   -39863.958    2689.7029   -42553.661    264.72667    225.19082 
   93800    132.14931   -1194.7092    145764.31   -39881.015    2665.6025   -42546.618    264.59572    223.17304 
   93850    131.33835   -1264.4155    145714.01   -39911.183    2649.2445   -42560.428    264.82148     221.8035 
   93900    131.62094   -1151.5536    145733.94   -39925.387    2654.9446   -42580.332    265.07933    222.28073 
   93950    130.81425   -1113.9916    145743.51   -39929.205    2638.6727   -42567.878    265.68525    220.91839 
   94000    132.10175   -1303.7898    145800.03    -39911.38     2664.643   -42576.023    265.95117    223.09272 
   94050    132.76264   -1220.0631    145766.59    -39913.42    2677.9741   -42591.394    265.96737    224.20884 
   94100    134.81443   -985.16172    145765.74   -39871.903     2719.361   -42591.264    265.95796    227.67389 
   94150    131.18952   -1079.0471    145851.46    -39878.33    2646.2425   -42524.572    266.33362    221.55216 
   94200    133.64151   -1072.7123    145927.11   -39878.869    2695.7018   -42574.571    266.21458    225.69306 
   94250    129.14858   -985.91246     146010.9   -39910.677    2605.0742   -42515.751     266.2283    218.10542 
   94300    131.59781   -1105.9661    146032.79   -39887.508     2654.478   -42541.987    266.31189    222.24167 
   94350    131.79803   -1318.7012    146018.52   -39940.903    2658.5168    -42599.42     266.7772    222.57981 
   94400    131.54888   -1435.8158    145884.66   -39878.945    2653.4911   -42532.436    267.19441    222.15904 
   94450    130.76097   -1110.9844    145887.17   -39848.658     2637.598   -42486.256    267.27988    220.82842 
   94500    134.43257   -1150.0355    145885.39   -39858.387    2711.6585   -42570.045    266.99437    227.02901 
   94550    132.79014   -1215.3693     145924.3   -39819.331    2678.5286    -42497.86    267.05579    224.25527 
   94600    137.07402   -1161.8817    145834.78   -39783.933    2764.9394   -42548.873    267.32996    231.48986 
   94650    131.20979   -1024.1268     145789.6   -39800.908    2646.6513   -42447.559     267.4532    221.58639 
   94700    134.05719   -998.71833    145825.25    -39758.26    2704.0866   -42462.347    267.77947    226.39507 
   94750    133.81655   -1170.5828    145804.31   -39777.214    2699.2326   -42476.447    268.14008    225.98867 
   94800    134.69586   -1065.9426    145765.86   -39847.333    2716.9692   -42564.303    268.08249    227.47364 
   94850    133.02779   -885.88649    145799.11   -39838.294    2683.3223   -42521.616    268.34358    224.65661 
   94900    131.44656   -1042.3295    145873.65   -39821.142    2651.4273   -42472.569    268.40007    221.98625 
   94950    131.71697    -1146.733    145849.43    -39850.17    2656.8816   -42507.052    268.53517     222.4429 
   95000    135.34102   -1029.0266    145795.39   -39835.924     2729.983   -42565.907    269.01716    228.56319 
   95050    135.27621   -1070.1498    145753.46   -39845.005    2728.6756    -42573.68    268.92659    228.45373 
   95100     133.0842   -1136.9979    145819.49   -39854.563    2684.4603   -42539.024    268.94052    224.75188 
   95150    131.51183    -1053.108    145823.24   -39862.232    2652.7438   -42514.976    268.96389    222.09648 
   95200    133.48784   -1230.7009    145933.41   -39833.063    2692.6022   -42525.665    269.16038    225.43355 
   95250    132.11098   -1104.8431    145987.51   -39832.998    2664.8292   -42497.827    269.95879    223.10831 
   95300    134.30528   -1305.3848    145964.74   -39819.146    2709.0908   -42528.237    270.19368    226.81404 
   95350    134.15421   -1159.2518    145873.87    -39788.78    2706.0436   -42494.823    270.15362    226.55891 
   95400    132.76119    -1162.552    145908.25   -39795.484    2677.9447   -42473.429    270.47651    224.20638 
   95450     131.1084   -1228.8546    145918.02   -39780.416    2644.6061   -42425.022    270.49288    221.41516 
   95500    135.28306   -1000.7324    145919.33   -39747.403    2728.8138   -42476.217    270.82185    228.46531 
   95550    133.25624   -1178.3185    145992.36   -39779.485    2687.9306   -42467.415    270.99874    225.04243 
   95600    135.85593   -1217.8149    145994.32   -39760.207    2740.3693   -42500.576    271.05561    229.43277 
   95650    135.41099   -1084.6125    145954.11   -39784.383    2731.3943   -42515.777    271.09999    228.68135 
   95700    134.47916   -1273.0792    145950.42   -39791.543    2712.5983   -42504.141     271.1554    227.10769 
   95750    133.60107   -1117.1636    145854.11   -39823.419    2694.8861   -42518.305    271.14623    225.62477 
   95800    135.65706   -1209.6908    145905.35   -39804.487    2736.3577   -42540.845    271.49028     229.0969 
   95850    137.01441   -1224.3028    145979.68   -39801.547    2763.7371   -42565.285    271.86984     231.3892 
   95900    135.59145   -1116.3199     145963.2   -39754.338    2735.0344   -42489.372    271.65923    228.98612 
   95950    135.91889   -1217.0291    146006.18   -39763.638    2741.6391   -42505.277    271.52561    229.53909 
   96000    132.44729   -1070.0999    146057.32   -39751.461     2671.613   -42423.074    271.59588    223.67626 
   96050    135.51652   -1001.3154    146138.14    -39759.49    2733.5228   -42493.013     271.7248    228.85956 
   96100     131.8926   -1356.6678    146136.58   -39816.982    2660.4244   -42477.406    271.79033    222.73952 
   96150    130.33299   -1035.3443     146142.4   -39864.697    2628.9652   -42493.662    272.04586    220.10565 
   96200    132.35102    -1197.611    146112.59   -39849.382    2669.6711   -42519.053    272.34587    223.51369 
   96250    132.65466   -937.01721    146122.11   -39839.372     2675.796   -42515.168    272.54117    224.02648 
   96300    134.02301   -956.87499    146229.26   -39832.194    2703.3971   -42535.591    272.67402    226.33734 
   96350    132.26012   -1201.5167    146203.28    -39864.61    2667.8376   -42532.447    272.61864    223.36018 
   96400    131.99532    -1039.221    146211.29   -39851.315    2662.4962   -42513.811    273.09497    222.91298 
   96450    133.90848   -1189.0491    146171.74   -39809.108    2701.0869   -42510.195    272.92389    226.14392 
   96500    133.35802   -1278.3612    146124.04   -39828.248    2689.9836   -42518.231    273.04489    225.21431 
   96550    132.83952   -1246.0158     146048.6    -39850.05    2679.5247   -42529.574    272.99547    224.33866 
   96600     133.9228   -1067.1117    146072.96   -39824.481    2701.3758   -42525.857    272.98965     226.1681 
   96650    132.44094   -1107.5719    146116.08    -39800.59     2671.485   -42472.075     273.0935    223.66555 
   96700    132.83862    -1249.753    146064.76    -39836.87    2679.5065   -42516.377    273.33517    224.33714 
   96750    133.09629   -1074.6816    146050.63   -39826.299    2684.7041   -42511.003    273.13591     224.7723 
   96800    134.05853   -1224.2003    146011.54    -39832.73    2704.1136   -42536.844     273.0453    226.39732 
   96850    136.13075   -1202.1389    145991.16   -39843.934    2745.9126   -42589.846    272.95123    229.89687 
   96900    134.36116   -1052.8186    146008.16   -39806.839    2710.2179   -42517.057    273.02839     226.9084 
   96950    133.98824   -1208.4401    146012.84   -39797.636    2702.6957   -42500.331    272.87359    226.27862 
   97000    132.24647   -1234.2232     145928.4   -39844.683    2667.5622   -42512.245    273.12278    223.33712 
   97050    133.16292   -1249.7807    145812.37   -39816.682     2686.048    -42502.73    273.61123    224.88481 
   97100    133.78111     -1151.73    145761.87   -39836.695    2698.5177   -42535.213    273.50397    225.92882 
   97150    135.81844    -1193.438    145828.23    -39853.96     2739.613   -42593.573    273.78244    229.36945 
   97200    134.56838   -1101.7176    145832.69   -39799.667    2714.3978   -42514.065    273.40859    227.25835 
   97250    134.09741   -1272.0017    145721.23   -39868.117    2704.8979   -42573.015    273.56906    226.46299 
   97300    135.10118   -1329.1539     145747.4   -39842.757     2725.145   -42567.902    274.36908    228.15814 
   97350    135.22538    -1185.731     145677.6   -39823.048    2727.6503   -42550.698    274.07559     228.3679 
   97400    136.24105   -1113.2232    145713.07   -39826.133    2748.1376    -42574.27    274.07776    230.08316 
   97450    134.09729   -1045.1599    145665.16   -39830.948    2704.8954   -42535.844    274.14926    226.46278 
   97500    135.85534    -1244.782    145697.36   -39849.297    2740.3573   -42589.654    273.98411    229.43177 
   97550    135.13356   -1192.1068    145663.33   -39863.846    2725.7981   -42589.644     274.0449    228.21282 
   97600    133.43046   -1243.2579    145717.98   -39863.937    2691.4448   -42555.381    274.16602    225.33665 
   97650    135.60067   -1173.4422    145663.27   -39913.005    2735.2204   -42648.226    274.26173    229.00169 
   97700    130.59705   -985.38648    145704.44   -39925.929    2634.2917   -42560.221    274.36387     220.5516 
   97750    132.30185   -1077.3864    145698.25    -39933.07    2668.6794   -42601.749    274.65275    223.43065 
   97800    133.34319   -1043.0282    145728.33   -39946.324    2689.6844   -42636.009    274.84023    225.18926 
   97850    131.20922   -1096.1743    145741.34   -39952.476    2646.6397   -42599.115    274.71582    221.58542 
   97900    134.36363   -1129.9416    145726.45   -39959.376    2710.2679   -42669.643    274.91311    226.91258 
   97950     134.6969   -1078.9007    145720.72   -39959.547    2716.9902   -42676.538    274.74638    227.47539 
   98000    133.24175   -1204.9807    145691.95   -39932.495    2687.6383   -42620.133    274.67539    225.01796 
   98050    134.13214   -1318.0563    145661.79   -39919.103    2705.5984   -42624.701    274.62043    226.52164 
   98100    133.26097   -1038.1191    145752.19   -39936.037    2688.0258   -42624.063    274.79157     225.0504 
   98150    133.34768   -996.33182    145875.73   -39938.454    2689.7749   -42628.229    274.91566    225.19684 
   98200    131.93679   -1129.6831    145847.83   -39966.799    2661.3156   -42628.115    275.11322    222.81413 
   98250    133.55189   -1034.0082    145785.19   -39969.969    2693.8941   -42663.864     274.8664    225.54171 
   98300    132.16446   -925.67922    145817.59   -39990.393     2665.908   -42656.301    274.58843    223.19862 
   98350    134.13996   -1089.5547    145850.63   -40021.808    2705.7562   -42727.564    274.41025    226.53484 
   98400    131.74085   -1229.0325    145837.92   -40026.731    2657.3633   -42684.094    274.59944    222.48323 
   98450     132.4997   -1114.3042    145820.54   -39993.909    2672.6702   -42666.579     274.8026    223.76477 
   98500    131.00589   -1192.9811    145798.42   -40013.356    2642.5383   -42655.894    274.64227    221.24204 
   98550    130.20421   -1201.6936    145840.53   -40049.676    2626.3676   -42676.044    274.95117    219.88817 
   98600    135.12836   -1068.5653    145814.49    -40027.55    2725.6933   -42753.243    275.19918    228.20404 
   98650    135.71516   -991.29432    145882.41   -39968.331    2737.5297   -42705.861     275.2806    229.19503 
   98700    133.29936   -1126.7011    145973.23   -39967.067    2688.8002   -42655.867    275.37952    225.11524 
   98750    131.78122   -1283.7322    145948.14   -39942.768    2658.1776   -42600.946    275.60299    222.55141 
   98800    132.64234   -1359.6967    145912.01   -39940.194    2675.5474   -42615.741    276.10682    224.00567 
   98850    134.77084   -1165.4936    145881.21   -39906.581    2718.4818   -42625.063    275.87804    227.60027 
   98900    132.10309   -976.32988    145972.73   -39949.222    2664.6702   -42613.892    275.90884    223.09499 
   98950    131.74524   -1217.5283    145999.72   -39920.623    2657.4518   -42578.075    276.16102    222.49064 
   99000    134.86505   -1122.8106    145994.47   -39874.894    2720.3821   -42595.276    276.10224    227.75937 
   99050    138.28334     -1095.91       146062   -39774.629    2789.3329   -42563.962     276.1102    233.53217 
   99100    134.33849   -1211.3038    146129.88    -39792.55    2709.7607   -42502.311     276.4252    226.87012 
   99150    132.92438    -1145.129    146060.86   -39854.916    2681.2366   -42536.152    276.70947    224.48198 
   99200    131.74145   -1235.5544    146042.41   -39912.466    2657.3755   -42569.842    276.45652    222.48425 
   99250    130.76332   -1421.5544    146004.32   -39896.886    2637.6455   -42534.532    276.48357    220.83239 
   99300    135.76862   -1351.1292    145900.39   -39875.555    2738.6081   -42614.163    276.67769    229.28532 
   99350    134.49403   -1313.1544    145826.56   -39900.529     2712.898   -42613.427    276.85659    227.13278 
   99400    133.14562   -1193.6345    145837.75   -39887.586    2685.6991   -42573.285    277.23823     224.8556 
   99450    131.78107   -1233.7364    145788.33   -39897.784    2658.1747   -42555.959    277.33826    222.55117 
   99500    133.94097   -1140.3191    145780.73   -39914.704    2701.7423   -42616.447    277.35656    226.19879 
   99550    133.53526    -1264.051    145707.58   -39953.713    2693.5586   -42647.271     277.6824    225.51362 
   99600    131.72082   -1225.4215     145656.8    -39999.31    2656.9593    -42656.27    277.73607    222.44941 
   99650      133.906   -1201.9272    145664.33   -39996.764    2701.0369   -42697.801    278.04202    226.13973 
   99700    130.73275   -1212.1698    145656.26   -40025.983    2637.0288   -42663.011    278.33129    220.78076 
   99750    133.12013    -1305.611     145722.6   -39981.398     2685.185   -42666.583    278.61185    224.81256 
   99800    131.60075   -1131.2592    145753.04   -39929.877    2654.5374   -42584.414    278.86742    222.24664 
   99850    132.22533   -1070.1857    145836.89   -39924.978    2667.1358   -42592.114    278.77762    223.30142 
   99900    133.60182    -1312.993    145888.38   -39937.117    2694.9013   -42632.018    278.61135    225.62604 
   99950     130.8003   -1189.4701    145877.45   -39957.446    2638.3914   -42595.838    278.47064    220.89485 
  100000    130.58527    -1164.252    145844.71   -39938.601    2634.0539   -42572.655    278.63656    220.53169 
Loop time of 182.183 on 64 procs for 100000 steps with 6768 atoms

Performance: 237.124 ns/day, 0.101 hours/ns, 548.899 timesteps/s
100.0% CPU use with 64 MPI tasks x no OpenMP threads

MPI task timing breakdown:
Section |  min time  |  avg time  |  max time  |%varavg| %total
---------------------------------------------------------------
Pair    | 32.889     | 84.909     | 142.2      | 556.3 | 46.61
Neigh   | 1.2817     | 2.6218     | 4.9311     |  88.1 |  1.44
Comm    | 26.395     | 82.635     | 136.78     | 543.2 | 45.36
Output  | 0.12874    | 0.13038    | 0.14356    |   0.5 |  0.07
Modify  | 6.5849     | 11.142     | 19.871     | 127.6 |  6.12
Other   |            | 0.7447     |            |       |  0.41

Nlocal:    105.75 ave 174 max 69 min
Histogram: 31 1 0 12 4 0 0 0 4 12
Nghost:    989.766 ave 1339 max 666 min
Histogram: 32 0 0 0 0 0 0 0 9 23
Neighs:    0 ave 0 max 0 min
Histogram: 64 0 0 0 0 0 0 0 0 0
FullNghs:  12448.2 ave 27321 max 4261 min
Histogram: 32 0 0 0 16 0 0 0 1 15

Total # of neighbors = 796682
Ave neighs/atom = 117.713
Neighbor list builds = 6144
Dangerous builds = 0

write_data		${DIR}/data.eq-${NAME}-${TEMP}
write_data		run_19/data.eq-${NAME}-${TEMP}
write_data		run_19/data.eq-het_freeze_19-${TEMP}
write_data		run_19/data.eq-het_freeze_19-225
undump          1

reset_timestep  0

unfix           2
unfix           3
unfix           4


################################################
#######         Run Simulation         #########
################################################

log				${DIR}/log.run_${NAME}
log				run_19/log.run_${NAME}
log				run_19/log.run_het_freeze_19
