LAMMPS data file via write_data, version 16 Mar 2018, timestep = 8000000

4063 atoms
2 atom types

0.0000000000000000e+00 4.9219999999999999e+01 xlo xhi
0.0000000000000000e+00 4.9019635930410494e+01 ylo yhi
1.0692225707922081e+00 2.6870777429204402e+01 zlo zhi

Masses

1 18.015
2 12.01

Atoms # atomic

53 2 0.0000000000000000e+00 2.8417180249513345e+00 2.6785414676461317e+00 0 0 0
55 2 0.0000000000000000e+00 0.0000000000000000e+00 2.6785414676461317e+00 0 0 0
57 2 1.2305000000000001e+00 7.1042950623783474e-01 2.6785414676461317e+00 0 0 0
64 2 1.2305000000000001e+00 2.1312885187134998e+00 2.6785414676461317e+00 0 0 0
66 2 2.4610000000000003e+00 2.8417180249513345e+00 2.6785414676461317e+00 0 0 0
68 2 2.4610000000000003e+00 0.0000000000000000e+00 2.6785414676461317e+00 0 0 0
70 2 3.6915000000000004e+00 7.1042950623783474e-01 2.6785414676461317e+00 0 0 0
85 2 3.6914999999999996e+00 2.1312885187134998e+00 2.6785414676461317e+00 0 0 0
87 2 4.9220000000000006e+00 2.8417180249513332e+00 2.6785414676461317e+00 0 0 0
89 2 4.9220000000000006e+00 0.0000000000000000e+00 2.6785414676461317e+00 0 0 0
60 2 0.0000000000000000e+00 4.2625770374269996e+00 2.6785414676461317e+00 0 0 0
81 2 2.4610000000000003e+00 4.2625770374269996e+00 2.6785414676461317e+00 0 0 0
110 2 4.9220000000000006e+00 4.2625770374269978e+00 2.6785414676461317e+00 0 0 0
62 2 1.2305000000000001e+00 4.9730065436648339e+00 2.6785414676461317e+00 0 0 0
77 2 1.2305000000000001e+00 6.3938655561404980e+00 2.6785414676461317e+00 0 0 0
83 2 3.6914999999999996e+00 4.9730065436648339e+00 2.6785414676461317e+00 0 0 0
106 2 3.6914999999999996e+00 6.3938655561404980e+00 2.6785414676461317e+00 0 0 0
58 2 0.0000000000000000e+00 7.1042950623783341e+00 2.6785414676461317e+00 0 0 0
73 2 0.0000000000000000e+00 8.5251540748539991e+00 2.6785414676461317e+00 0 0 0
75 2 1.2305000000000001e+00 9.2355835810918343e+00 2.6785414676461317e+00 0 0 0
79 2 2.4610000000000003e+00 7.1042950623783341e+00 2.6785414676461317e+00 0 0 0
102 2 2.4610000000000003e+00 8.5251540748539991e+00 2.6785414676461317e+00 0 0 0
104 2 3.6915000000000004e+00 9.2355835810918343e+00 2.6785414676461317e+00 0 0 0
108 2 4.9220000000000006e+00 7.1042950623783341e+00 2.6785414676461317e+00 0 0 0
139 2 4.9220000000000006e+00 8.5251540748539991e+00 2.6785414676461317e+00 0 0 0
54 2 0.0000000000000000e+00 1.4208590124756650e+00 5.7592826957838605e+00 0 0 0
56 2 0.0000000000000000e+00 0.0000000000000000e+00 5.7592826957838605e+00 0 0 0
65 2 1.2305000000000001e+00 2.1312885187134998e+00 5.7592826957838605e+00 0 0 0
67 2 2.4610000000000003e+00 1.4208590124756650e+00 5.7592826957838605e+00 0 0 0
69 2 2.4610000000000003e+00 0.0000000000000000e+00 5.7592826957838605e+00 0 0 0
86 2 3.6914999999999996e+00 2.1312885187134998e+00 5.7592826957838605e+00 0 0 0
382 2 0.0000000000000000e+00 2.8417180249513345e+00 8.8400239239188547e+00 0 0 0
383 2 0.0000000000000000e+00 0.0000000000000000e+00 8.8400239239188547e+00 0 0 0
384 2 1.2305000000000001e+00 7.1042950623783474e-01 8.8400239239188547e+00 0 0 0
388 2 1.2305000000000001e+00 2.1312885187134998e+00 8.8400239239188547e+00 0 0 0
389 2 2.4610000000000003e+00 2.8417180249513345e+00 8.8400239239188547e+00 0 0 0
390 2 2.4610000000000003e+00 0.0000000000000000e+00 8.8400239239188547e+00 0 0 0
391 2 3.6915000000000004e+00 7.1042950623783474e-01 8.8400239239188547e+00 0 0 0
399 2 3.6914999999999996e+00 2.1312885187134998e+00 8.8400239239188547e+00 0 0 0
88 2 4.9220000000000006e+00 1.4208590124756650e+00 5.7592826957838605e+00 0 0 0
90 2 4.9220000000000006e+00 0.0000000000000000e+00 5.7592826957838605e+00 0 0 0
400 2 4.9220000000000006e+00 2.8417180249513332e+00 8.8400239239188547e+00 0 0 0
401 2 4.9220000000000006e+00 0.0000000000000000e+00 8.8400239239188547e+00 0 0 0
61 2 0.0000000000000000e+00 4.2625770374269996e+00 5.7592826957838605e+00 0 0 0
63 2 1.2305000000000001e+00 3.5521475311891644e+00 5.7592826957838605e+00 0 0 0
82 2 2.4610000000000003e+00 4.2625770374269996e+00 5.7592826957838605e+00 0 0 0
84 2 3.6914999999999996e+00 3.5521475311891644e+00 5.7592826957838605e+00 0 0 0
386 2 0.0000000000000000e+00 4.2625770374269996e+00 8.8400239239188547e+00 0 0 0
397 2 2.4610000000000003e+00 4.2625770374269996e+00 8.8400239239188547e+00 0 0 0
111 2 4.9220000000000006e+00 4.2625770374269978e+00 5.7592826957838605e+00 0 0 0
412 2 4.9220000000000006e+00 4.2625770374269978e+00 8.8400239239188547e+00 0 0 0
59 2 0.0000000000000000e+00 5.6834360499026637e+00 5.7592826957838605e+00 0 0 0
78 2 1.2305000000000001e+00 6.3938655561404980e+00 5.7592826957838605e+00 0 0 0
80 2 2.4610000000000003e+00 5.6834360499026637e+00 5.7592826957838605e+00 0 0 0
107 2 3.6914999999999996e+00 6.3938655561404980e+00 5.7592826957838605e+00 0 0 0
387 2 1.2305000000000001e+00 4.9730065436648339e+00 8.8400239239188547e+00 0 0 0
395 2 1.2305000000000001e+00 6.3938655561404980e+00 8.8400239239188547e+00 0 0 0
398 2 3.6914999999999996e+00 4.9730065436648339e+00 8.8400239239188547e+00 0 0 0
410 2 3.6914999999999996e+00 6.3938655561404980e+00 8.8400239239188547e+00 0 0 0
109 2 4.9220000000000006e+00 5.6834360499026637e+00 5.7592826957838605e+00 0 0 0
74 2 0.0000000000000000e+00 8.5251540748539991e+00 5.7592826957838605e+00 0 0 0
76 2 1.2305000000000001e+00 7.8147245686161639e+00 5.7592826957838605e+00 0 0 0
103 2 2.4610000000000003e+00 8.5251540748539991e+00 5.7592826957838605e+00 0 0 0
105 2 3.6914999999999996e+00 7.8147245686161639e+00 5.7592826957838605e+00 0 0 0
385 2 0.0000000000000000e+00 7.1042950623783341e+00 8.8400239239188547e+00 0 0 0
393 2 0.0000000000000000e+00 8.5251540748539991e+00 8.8400239239188547e+00 0 0 0
394 2 1.2305000000000001e+00 9.2355835810918343e+00 8.8400239239188547e+00 0 0 0
396 2 2.4610000000000003e+00 7.1042950623783341e+00 8.8400239239188547e+00 0 0 0
408 2 2.4610000000000003e+00 8.5251540748539991e+00 8.8400239239188547e+00 0 0 0
409 2 3.6915000000000004e+00 9.2355835810918343e+00 8.8400239239188547e+00 0 0 0
140 2 4.9220000000000006e+00 8.5251540748539991e+00 5.7592826957838605e+00 0 0 0
411 2 4.9220000000000006e+00 7.1042950623783341e+00 8.8400239239188547e+00 0 0 0
427 2 4.9220000000000006e+00 8.5251540748539991e+00 8.8400239239188547e+00 0 0 0
1269 1 3.9265577165081469e+00 1.7694421105274107e+00 1.1907005424393576e+01 0 2 0
1434 1 3.9772313741069247e+00 4.4059739618682716e+00 1.0928961146029700e+01 -1 0 0
2635 1 1.9421737895293798e+00 6.2234654951006245e+00 1.1813883914331544e+01 0 0 1
700 1 1.6597568664007405e+00 8.8899574433387354e+00 1.1041252525848233e+01 0 2 0
3460 1 5.9254236270922434e+00 6.1959124739684057e+00 1.1864214989511396e+01 -1 -2 0
563 1 1.4091830286689546e+00 1.2266996677428992e+00 1.5624238737871636e+01 1 2 1
627 1 1.5350698455258904e+00 1.1245334883809210e+00 1.8410186116456899e+01 0 3 0
29 1 3.4617952912256347e+00 2.6201056762368662e+00 1.4592354881246209e+01 0 -1 0
2051 1 3.9343950938272343e+00 5.0465506369449846e+00 1.5470423156271446e+01 0 2 0
3378 1 2.0174930041554577e+00 9.2853246746745270e+00 1.5390837573129740e+01 0 3 0
3336 1 1.7139105723929557e+00 6.5102448104827975e+00 1.4650804190008017e+01 -2 -1 0
684 1 4.0098737919012244e+00 5.1407946932451480e+00 1.8127587415431790e+01 3 0 -1
1385 1 1.6984619111731933e+00 9.0027533119935317e+00 1.8206153080948916e+01 1 -1 0
2765 1 4.1533510161540512e+00 2.2180476914858236e+00 1.8870538323494230e+01 0 1 -1
3357 1 4.0799710272489467e+00 2.5991735194880246e+00 2.1690366499598831e+01 2 2 0
27 1 1.7791865413912475e+00 3.8996798594832480e+00 2.2132232110581846e+01 -1 3 -1
3362 1 4.1731568365035336e+00 7.7557093929649437e+00 2.5693598751199460e+01 -1 1 0
2108 1 1.9419210905868760e+00 6.4756549195879503e+00 1.9063311558852597e+01 1 -3 0
3905 1 1.9660914474240951e+00 6.7881569318532611e+00 2.1775407334867239e+01 -1 0 -1
36 1 4.2024249126445872e+00 7.8748683398408170e+00 2.3005415895567367e+01 1 -1 0
668 1 1.4341124785647901e+00 3.9057241803052469e+00 2.5048213090712800e+01 -2 -1 1
1319 1 3.7752715462092676e+00 2.4083227285184527e+00 2.6033573204664407e+01 -2 2 -1
3435 1 1.7691060275052404e+00 6.5080329920198015e+00 2.6083686055395439e+01 2 2 1
632 1 5.9449107188920518e+00 3.8991097657159810e+00 2.5247776509120257e+01 0 1 0
3 1 5.8498007119916240e+00 1.4385463757876715e+00 1.5393614318106433e+01 -1 2 0
71 2 0.0000000000000000e+00 1.1366872099805333e+01 2.6785414676461317e+00 0 0 0
94 2 0.0000000000000000e+00 1.2787731112280996e+01 2.6785414676461317e+00 0 0 0
96 2 1.2305000000000001e+00 1.3498160618518829e+01 2.6785414676461317e+00 0 0 0
98 2 1.2305000000000001e+00 1.0656442593567498e+01 2.6785414676461317e+00 0 0 0
100 2 2.4610000000000003e+00 1.1366872099805333e+01 2.6785414676461317e+00 0 0 0
131 2 2.4610000000000003e+00 1.2787731112280996e+01 2.6785414676461317e+00 0 0 0
133 2 3.6915000000000004e+00 1.3498160618518829e+01 2.6785414676461317e+00 0 0 0
135 2 3.6914999999999996e+00 1.0656442593567499e+01 2.6785414676461317e+00 0 0 0
137 2 4.9220000000000006e+00 1.1366872099805333e+01 2.6785414676461317e+00 0 0 0
176 2 4.9220000000000006e+00 1.2787731112280996e+01 2.6785414676461317e+00 0 0 0
178 2 6.1524999999999990e+00 1.3498160618518829e+01 2.6785414676461317e+00 0 0 0
92 2 0.0000000000000000e+00 1.5629449137232333e+01 2.6785414676461317e+00 0 0 0
123 2 0.0000000000000000e+00 1.7050308149707998e+01 2.6785414676461317e+00 0 0 0
127 2 1.2305000000000001e+00 1.4919019630994494e+01 2.6785414676461317e+00 0 0 0
129 2 2.4610000000000003e+00 1.5629449137232328e+01 2.6785414676461317e+00 0 0 0
168 2 2.4610000000000003e+00 1.7050308149707998e+01 2.6785414676461317e+00 0 0 0
172 2 3.6915000000000004e+00 1.4919019630994494e+01 2.6785414676461317e+00 0 0 0
174 2 4.9220000000000006e+00 1.5629449137232333e+01 2.6785414676461317e+00 0 0 0
215 2 4.9220000000000006e+00 1.7050308149707998e+01 2.6785414676461317e+00 0 0 0
219 2 6.1524999999999990e+00 1.4919019630994494e+01 2.6785414676461317e+00 0 0 0
125 2 1.2305000000000001e+00 1.7760737655945832e+01 2.6785414676461317e+00 0 0 0
164 2 1.2305000000000001e+00 1.9181596668421495e+01 2.6785414676461317e+00 0 0 0
170 2 3.6914999999999996e+00 1.7760737655945832e+01 2.6785414676461317e+00 0 0 0
211 2 3.6914999999999996e+00 1.9181596668421495e+01 2.6785414676461317e+00 0 0 0
72 2 0.0000000000000000e+00 9.9460130873296642e+00 5.7592826957838605e+00 0 0 0
101 2 2.4610000000000003e+00 9.9460130873296642e+00 5.7592826957838605e+00 0 0 0
138 2 4.9220000000000006e+00 9.9460130873296642e+00 5.7592826957838605e+00 0 0 0
95 2 0.0000000000000000e+00 1.2787731112280996e+01 5.7592826957838605e+00 0 0 0
97 2 1.2305000000000001e+00 1.2077301606043163e+01 5.7592826957838605e+00 0 0 0
99 2 1.2305000000000001e+00 1.0656442593567498e+01 5.7592826957838605e+00 0 0 0
132 2 2.4610000000000003e+00 1.2787731112280996e+01 5.7592826957838605e+00 0 0 0
134 2 3.6914999999999996e+00 1.2077301606043163e+01 5.7592826957838605e+00 0 0 0
136 2 3.6914999999999996e+00 1.0656442593567499e+01 5.7592826957838605e+00 0 0 0
392 2 0.0000000000000000e+00 1.1366872099805333e+01 8.8400239239188547e+00 0 0 0
404 2 0.0000000000000000e+00 1.2787731112280996e+01 8.8400239239188547e+00 0 0 0
405 2 1.2305000000000001e+00 1.3498160618518829e+01 8.8400239239188547e+00 0 0 0
406 2 1.2305000000000001e+00 1.0656442593567498e+01 8.8400239239188547e+00 0 0 0
407 2 2.4610000000000003e+00 1.1366872099805333e+01 8.8400239239188547e+00 0 0 0
423 2 2.4610000000000003e+00 1.2787731112280996e+01 8.8400239239188547e+00 0 0 0
424 2 3.6915000000000004e+00 1.3498160618518829e+01 8.8400239239188547e+00 0 0 0
425 2 3.6914999999999996e+00 1.0656442593567499e+01 8.8400239239188547e+00 0 0 0
177 2 4.9220000000000006e+00 1.2787731112280996e+01 5.7592826957838605e+00 0 0 0
426 2 4.9220000000000006e+00 1.1366872099805333e+01 8.8400239239188547e+00 0 0 0
446 2 4.9220000000000006e+00 1.2787731112280996e+01 8.8400239239188547e+00 0 0 0
447 2 6.1524999999999990e+00 1.3498160618518829e+01 8.8400239239188547e+00 0 0 0
93 2 0.0000000000000000e+00 1.4208590124756663e+01 5.7592826957838605e+00 0 0 0
130 2 2.4610000000000003e+00 1.4208590124756663e+01 5.7592826957838605e+00 0 0 0
175 2 4.9220000000000006e+00 1.4208590124756663e+01 5.7592826957838605e+00 0 0 0
124 2 0.0000000000000000e+00 1.7050308149707998e+01 5.7592826957838605e+00 0 0 0
126 2 1.2305000000000001e+00 1.6339878643470165e+01 5.7592826957838605e+00 0 0 0
128 2 1.2305000000000001e+00 1.4919019630994494e+01 5.7592826957838605e+00 0 0 0
169 2 2.4610000000000003e+00 1.7050308149707998e+01 5.7592826957838605e+00 0 0 0
171 2 3.6915000000000004e+00 1.6339878643470165e+01 5.7592826957838605e+00 0 0 0
173 2 3.6915000000000004e+00 1.4919019630994494e+01 5.7592826957838605e+00 0 0 0
403 2 0.0000000000000000e+00 1.5629449137232333e+01 8.8400239239188547e+00 0 0 0
419 2 0.0000000000000000e+00 1.7050308149707998e+01 8.8400239239188547e+00 0 0 0
421 2 1.2305000000000001e+00 1.4919019630994494e+01 8.8400239239188547e+00 0 0 0
422 2 2.4610000000000003e+00 1.5629449137232328e+01 8.8400239239188547e+00 0 0 0
442 2 2.4610000000000003e+00 1.7050308149707998e+01 8.8400239239188547e+00 0 0 0
444 2 3.6915000000000004e+00 1.4919019630994494e+01 8.8400239239188547e+00 0 0 0
216 2 4.9220000000000006e+00 1.7050308149707998e+01 5.7592826957838605e+00 0 0 0
220 2 6.1524999999999990e+00 1.4919019630994494e+01 5.7592826957838605e+00 0 0 0
445 2 4.9220000000000006e+00 1.5629449137232333e+01 8.8400239239188547e+00 0 0 0
466 2 4.9220000000000006e+00 1.7050308149707998e+01 8.8400239239188547e+00 0 0 0
468 2 6.1524999999999990e+00 1.4919019630994494e+01 8.8400239239188547e+00 0 0 0
122 2 0.0000000000000000e+00 1.8471167162183658e+01 5.7592826957838605e+00 0 0 0
165 2 1.2305000000000001e+00 1.9181596668421495e+01 5.7592826957838605e+00 0 0 0
167 2 2.4610000000000003e+00 1.8471167162183658e+01 5.7592826957838605e+00 0 0 0
212 2 3.6914999999999996e+00 1.9181596668421495e+01 5.7592826957838605e+00 0 0 0
420 2 1.2305000000000001e+00 1.7760737655945832e+01 8.8400239239188547e+00 0 0 0
440 2 1.2305000000000001e+00 1.9181596668421495e+01 8.8400239239188547e+00 0 0 0
443 2 3.6914999999999996e+00 1.7760737655945832e+01 8.8400239239188547e+00 0 0 0
464 2 3.6914999999999996e+00 1.9181596668421495e+01 8.8400239239188547e+00 0 0 0
214 2 4.9220000000000006e+00 1.8471167162183658e+01 5.7592826957838605e+00 0 0 0
1422 1 3.3116572451043740e+00 1.3206243986919716e+01 1.1193828028215709e+01 2 -1 0
3286 1 3.9545034081963735e+00 1.0285883727908077e+01 1.1762602358544752e+01 -1 -1 -1
3270 1 1.0754893006150481e+00 1.4760254295565954e+01 1.1966859612938908e+01 -1 2 0
2130 1 1.2416127775569772e+00 1.7671658039890495e+01 1.1636788898934334e+01 -2 0 -1
2780 1 3.9346633567657556e+00 1.8748439061539333e+01 1.1344743030590783e+01 -2 2 0
1401 1 5.8799115000169406e+00 1.4559004084052477e+01 1.1585722493968598e+01 2 -2 0
1412 1 4.2759952311180873e+00 1.3131244507991546e+01 1.5353551677114764e+01 1 -3 -1
3290 1 4.5082796075249725e+00 1.0306072416436797e+01 1.4346708942669405e+01 -1 -1 0
1357 1 1.8951508757271212e+00 1.4847490474161484e+01 1.4497365383945469e+01 1 0 1
1911 1 1.6817713563825072e+00 1.7427121617615459e+01 1.5048535916466662e+01 -3 3 -1
3916 1 3.8955262915533906e+00 1.8636902005130825e+01 1.4264417346381222e+01 0 4 0
2596 1 4.3120100730942337e+00 1.3251526700009341e+01 1.8061400628736003e+01 0 3 0
1347 1 3.8367406970051254e+00 1.0595963649826620e+01 1.9130400600963092e+01 2 0 0
2740 1 3.8540365869405959e+00 1.0542579269450366e+01 2.2108942101571436e+01 3 0 -1
1989 1 1.9313351246715567e+00 1.4569722504991105e+01 1.9195161567904776e+01 0 0 0
3380 1 1.8570624331016881e+00 1.4849065739845129e+01 2.2013442286201915e+01 -1 1 0
1944 1 1.5794660409790917e+00 1.2012637787660434e+01 2.2709735334353560e+01 4 -2 0
2587 1 1.8905192450778572e+00 1.7044601767851837e+01 1.7921261101368863e+01 2 3 0
4025 1 3.8936342848486318e+00 1.8358611919479504e+01 1.8965422188230747e+01 -1 0 0
699 1 3.8708304327794543e+00 1.8814731161346959e+01 2.1702496365475128e+01 1 -2 -1
638 1 2.0892167786399924e+00 1.4788765366110363e+01 2.6039898596103711e+01 2 -1 -1
2131 1 1.4814861068369847e+00 1.1984639273641884e+01 2.5409473578241531e+01 -2 -1 0
4055 1 3.9361692250485891e+00 1.0537651188544960e+01 2.5630962427300624e+01 1 -3 0
3329 1 4.4509094528039421e+00 1.6171603078494979e+01 2.5402454040151362e+01 1 0 1
1430 1 4.2345457506420976e+00 1.6509624440569262e+01 2.2744393719427457e+01 5 1 0
1961 1 4.3027818926087118e+00 1.8621458209219977e+01 2.6302152920631521e+01 6 2 -1
3288 1 5.9935158006899760e+00 1.2207655340788852e+01 2.5164984588717566e+01 5 1 -1
121 2 0.0000000000000000e+00 1.9892026174659328e+01 2.6785414676461317e+00 0 0 0
166 2 2.4610000000000003e+00 1.9892026174659328e+01 2.6785414676461317e+00 0 0 0
213 2 4.9220000000000006e+00 1.9892026174659328e+01 2.6785414676461317e+00 0 0 0
158 2 0.0000000000000000e+00 2.4154603212086325e+01 2.6785414676461317e+00 0 0 0
160 2 0.0000000000000000e+00 2.1312885187134999e+01 2.6785414676461317e+00 0 0 0
162 2 1.2304999999999993e+00 2.2023314693372832e+01 2.6785414676461317e+00 0 0 0
203 2 1.2304999999999993e+00 2.3444173705848499e+01 2.6785414676461317e+00 0 0 0
205 2 2.4610000000000003e+00 2.4154603212086325e+01 2.6785414676461317e+00 0 0 0
207 2 2.4610000000000003e+00 2.1312885187134995e+01 2.6785414676461317e+00 0 0 0
209 2 3.6914999999999996e+00 2.2023314693372832e+01 2.6785414676461317e+00 0 0 0
250 2 3.6915000000000004e+00 2.3444173705848499e+01 2.6785414676461317e+00 0 0 0
252 2 4.9220000000000006e+00 2.4154603212086325e+01 2.6785414676461317e+00 0 0 0
254 2 4.9220000000000006e+00 2.1312885187134995e+01 2.6785414676461317e+00 0 0 0
256 2 6.1524999999999990e+00 2.2023314693372832e+01 2.6785414676461317e+00 0 0 0
777 2 0.0000000000000000e+00 2.5575462224561992e+01 2.6785414676461317e+00 0 0 0
779 2 1.2305000000000001e+00 2.6285891730799833e+01 2.6785414676461317e+00 0 0 0
787 2 1.2305000000000010e+00 2.7706750743275496e+01 2.6785414676461317e+00 0 0 0
791 2 2.4610000000000003e+00 2.5575462224561992e+01 2.6785414676461317e+00 0 0 0
793 2 3.6914999999999991e+00 2.6285891730799833e+01 2.6785414676461317e+00 0 0 0
809 2 3.6914999999999996e+00 2.7706750743275496e+01 2.6785414676461317e+00 0 0 0
813 2 4.9220000000000006e+00 2.5575462224561992e+01 2.6785414676461317e+00 0 0 0
839 2 6.1524999999999990e+00 2.7706750743275496e+01 2.6785414676461317e+00 0 0 0
775 2 0.0000000000000000e+00 2.8417180249513333e+01 2.6785414676461317e+00 0 0 0
789 2 2.4610000000000003e+00 2.8417180249513326e+01 2.6785414676461317e+00 0 0 0
811 2 4.9220000000000006e+00 2.8417180249513336e+01 2.6785414676461317e+00 0 0 0
163 2 1.2305000000000001e+00 2.0602455680897162e+01 5.7592826957838605e+00 0 0 0
210 2 3.6915000000000004e+00 2.0602455680897162e+01 5.7592826957838605e+00 0 0 0
418 2 0.0000000000000000e+00 1.9892026174659328e+01 8.8400239239188547e+00 0 0 0
441 2 2.4610000000000003e+00 1.9892026174659328e+01 8.8400239239188547e+00 0 0 0
465 2 4.9220000000000006e+00 1.9892026174659328e+01 8.8400239239188547e+00 0 0 0
159 2 0.0000000000000000e+00 2.2733744199610655e+01 5.7592826957838605e+00 0 0 0
161 2 0.0000000000000000e+00 2.1312885187134999e+01 5.7592826957838605e+00 0 0 0
204 2 1.2304999999999993e+00 2.3444173705848499e+01 5.7592826957838605e+00 0 0 0
206 2 2.4610000000000003e+00 2.2733744199610655e+01 5.7592826957838605e+00 0 0 0
208 2 2.4610000000000003e+00 2.1312885187134995e+01 5.7592826957838605e+00 0 0 0
251 2 3.6915000000000004e+00 2.3444173705848499e+01 5.7592826957838605e+00 0 0 0
437 2 0.0000000000000000e+00 2.4154603212086325e+01 8.8400239239188547e+00 0 0 0
438 2 0.0000000000000000e+00 2.1312885187134999e+01 8.8400239239188547e+00 0 0 0
439 2 1.2304999999999993e+00 2.2023314693372832e+01 8.8400239239188547e+00 0 0 0
460 2 1.2304999999999993e+00 2.3444173705848499e+01 8.8400239239188547e+00 0 0 0
461 2 2.4610000000000003e+00 2.4154603212086325e+01 8.8400239239188547e+00 0 0 0
462 2 2.4610000000000003e+00 2.1312885187134995e+01 8.8400239239188547e+00 0 0 0
463 2 3.6914999999999996e+00 2.2023314693372832e+01 8.8400239239188547e+00 0 0 0
484 2 3.6915000000000004e+00 2.3444173705848499e+01 8.8400239239188547e+00 0 0 0
253 2 4.9220000000000006e+00 2.2733744199610655e+01 5.7592826957838605e+00 0 0 0
255 2 4.9220000000000006e+00 2.1312885187134995e+01 5.7592826957838605e+00 0 0 0
485 2 4.9220000000000006e+00 2.4154603212086325e+01 8.8400239239188547e+00 0 0 0
486 2 4.9220000000000006e+00 2.1312885187134995e+01 8.8400239239188547e+00 0 0 0
487 2 6.1524999999999990e+00 2.2023314693372832e+01 8.8400239239188547e+00 0 0 0
776 2 0.0000000000000000e+00 2.6996321237037659e+01 5.7592826957838605e+00 0 0 0
778 2 0.0000000000000000e+00 2.5575462224561992e+01 5.7592826957838605e+00 0 0 0
780 2 1.2305000000000001e+00 2.4865032718324155e+01 5.7592826957838605e+00 0 0 0
788 2 1.2305000000000010e+00 2.7706750743275496e+01 5.7592826957838605e+00 0 0 0
790 2 2.4610000000000003e+00 2.6996321237037659e+01 5.7592826957838605e+00 0 0 0
792 2 2.4610000000000003e+00 2.5575462224561992e+01 5.7592826957838605e+00 0 0 0
794 2 3.6914999999999996e+00 2.4865032718324166e+01 5.7592826957838605e+00 0 0 0
810 2 3.6914999999999996e+00 2.7706750743275496e+01 5.7592826957838605e+00 0 0 0
1091 2 0.0000000000000000e+00 2.5575462224561992e+01 8.8400239239188547e+00 0 0 0
1092 2 1.2305000000000001e+00 2.6285891730799833e+01 8.8400239239188547e+00 0 0 0
1096 2 1.2305000000000010e+00 2.7706750743275496e+01 8.8400239239188547e+00 0 0 0
1098 2 2.4610000000000003e+00 2.5575462224561992e+01 8.8400239239188547e+00 0 0 0
1099 2 3.6914999999999991e+00 2.6285891730799833e+01 8.8400239239188547e+00 0 0 0
1107 2 3.6914999999999996e+00 2.7706750743275496e+01 8.8400239239188547e+00 0 0 0
812 2 4.9220000000000006e+00 2.6996321237037659e+01 5.7592826957838605e+00 0 0 0
814 2 4.9220000000000006e+00 2.5575462224561992e+01 5.7592826957838605e+00 0 0 0
816 2 6.1524999999999990e+00 2.4865032718324155e+01 5.7592826957838605e+00 0 0 0
840 2 6.1524999999999990e+00 2.7706750743275496e+01 5.7592826957838605e+00 0 0 0
1109 2 4.9220000000000006e+00 2.5575462224561992e+01 8.8400239239188547e+00 0 0 0
1122 2 6.1524999999999990e+00 2.7706750743275496e+01 8.8400239239188547e+00 0 0 0
786 2 1.2304999999999993e+00 2.9127609755751163e+01 5.7592826957838605e+00 0 0 0
808 2 3.6914999999999991e+00 2.9127609755751152e+01 5.7592826957838605e+00 0 0 0
1090 2 0.0000000000000000e+00 2.8417180249513333e+01 8.8400239239188547e+00 0 0 0
1097 2 2.4610000000000003e+00 2.8417180249513326e+01 8.8400239239188547e+00 0 0 0
838 2 6.1524999999999981e+00 2.9127609755751152e+01 5.7592826957838605e+00 0 0 0
1108 2 4.9220000000000006e+00 2.8417180249513336e+01 8.8400239239188547e+00 0 0 0
3929 1 1.6494456424903057e+00 2.2594388414296205e+01 1.1677066283169696e+01 4 0 0
2566 1 4.1799791565973603e+00 2.1606475446920545e+01 1.1094891726253262e+01 4 1 -1
3363 1 4.2619538054026211e+00 2.6878159979187011e+01 1.1632504696109866e+01 1 0 -1
1240 1 1.7884006700886912e+00 2.5380722316414513e+01 1.1364723183648536e+01 0 -1 1
3339 1 4.0610565625607320e+00 2.1384201186677466e+01 1.5361264682351381e+01 0 -1 0
2560 1 1.7964330675214506e+00 2.2823444300689616e+01 1.4382871022064688e+01 0 -5 0
4020 1 3.9341626367699098e+00 2.1203403098958443e+01 1.8002729872596767e+01 -1 -1 1
2074 1 1.6984116292263698e+00 2.5376126220207940e+01 1.5105155912379487e+01 2 1 0
1971 1 4.0403724898845397e+00 2.6817768007104991e+01 1.4599099740023245e+01 0 1 0
2649 1 1.8175876081905191e+00 2.5149176148511827e+01 1.7890307584922347e+01 4 -3 0
1423 1 1.8084840224228702e+00 2.8278644509302225e+01 2.4916013581946672e+01 0 -1 0
1345 1 1.9277278838010947e+00 2.8382663105719796e+01 2.2378693380288539e+01 2 -1 0
1908 1 1.7683263757938441e+00 2.2635861633768897e+01 1.9026231199851750e+01 1 1 0
1337 1 1.3607067346535009e+00 2.2829752170538971e+01 2.1775419406112810e+01 1 4 -1
1904 1 1.6106158331241878e+00 2.0320803457747779e+01 2.2407926358623648e+01 -1 0 0
1290 1 3.8538294815689280e+00 2.4257267531753882e+01 2.2407222996707567e+01 4 -1 -1
4041 1 3.8844162105327573e+00 2.7146769353899220e+01 2.6087769529977869e+01 2 0 0
2075 1 3.8799168269505082e+00 2.6810055942637121e+01 1.8889674839841369e+01 2 0 0
1916 1 3.8468487991450577e+00 2.6891811771011220e+01 2.1584739694344591e+01 -3 -1 0
3383 1 4.0280396952411515e+00 2.4245339181275529e+01 2.5213527361535384e+01 -2 2 0
1381 1 1.7724576813257840e+00 2.0257166809889146e+01 2.5229074793069401e+01 0 0 0
3394 1 1.7698028321351491e+00 2.2746344454652387e+01 2.5781740477542016e+01 1 2 -1
648 1 6.1286800864055095e+00 2.5186412416327734e+01 1.8354042136041137e+01 0 2 -1
633 1 6.1177841692919603e+00 2.2749165370885400e+01 2.1842247690430362e+01 2 0 1
564 1 6.1491721666880252e+00 2.2951710194650310e+01 2.6055319961438094e+01 0 0 1
783 2 0.0000000000000000e+00 2.9838039261988989e+01 2.6785414676461317e+00 0 0 0
785 2 1.2304999999999993e+00 3.0548468768226829e+01 2.6785414676461317e+00 0 0 0
805 2 2.4610000000000003e+00 2.9838039261988989e+01 2.6785414676461317e+00 0 0 0
807 2 3.6915000000000004e+00 3.0548468768226829e+01 2.6785414676461317e+00 0 0 0
835 2 4.9220000000000006e+00 2.9838039261988989e+01 2.6785414676461317e+00 0 0 0
781 2 0.0000000000000000e+00 3.2679757286940330e+01 2.6785414676461317e+00 0 0 0
797 2 0.0000000000000000e+00 3.4100616299415996e+01 2.6785414676461317e+00 0 0 0
801 2 1.2304999999999993e+00 3.1969327780702493e+01 2.6785414676461317e+00 0 0 0
803 2 2.4610000000000003e+00 3.2679757286940337e+01 2.6785414676461317e+00 0 0 0
827 2 2.4609999999999985e+00 3.4100616299415996e+01 2.6785414676461317e+00 0 0 0
831 2 3.6914999999999996e+00 3.1969327780702493e+01 2.6785414676461317e+00 0 0 0
833 2 4.9220000000000015e+00 3.2679757286940337e+01 2.6785414676461317e+00 0 0 0
865 2 4.9220000000000006e+00 3.4100616299415996e+01 2.6785414676461317e+00 0 0 0
799 2 1.2305000000000010e+00 3.4811045805653833e+01 2.6785414676461317e+00 0 0 0
829 2 3.6915000000000018e+00 3.4811045805653833e+01 2.6785414676461317e+00 0 0 0
795 2 0.0000000000000000e+00 3.6942334324367337e+01 2.6785414676461317e+00 0 0 0
819 2 0.0000000000000000e+00 3.8363193336842990e+01 2.6785414676461317e+00 0 0 0
823 2 1.2304999999999993e+00 3.6231904818129486e+01 2.6785414676461317e+00 0 0 0
825 2 2.4610000000000021e+00 3.6942334324367337e+01 2.6785414676461317e+00 0 0 0
857 2 2.4610000000000003e+00 3.8363193336842990e+01 2.6785414676461317e+00 0 0 0
861 2 3.6914999999999996e+00 3.6231904818129486e+01 2.6785414676461317e+00 0 0 0
863 2 4.9220000000000006e+00 3.6942334324367316e+01 2.6785414676461317e+00 0 0 0
902 2 4.9220000000000006e+00 3.8363193336842990e+01 2.6785414676461317e+00 0 0 0
821 2 1.2305000000000010e+00 3.9073622843080841e+01 2.6785414676461317e+00 0 0 0
859 2 3.6915000000000018e+00 3.9073622843080820e+01 2.6785414676461317e+00 0 0 0
782 2 0.0000000000000000e+00 3.1258898274464656e+01 5.7592826957838605e+00 0 0 0
784 2 0.0000000000000000e+00 2.9838039261988989e+01 5.7592826957838605e+00 0 0 0
804 2 2.4609999999999985e+00 3.1258898274464656e+01 5.7592826957838605e+00 0 0 0
806 2 2.4610000000000003e+00 2.9838039261988989e+01 5.7592826957838605e+00 0 0 0
1094 2 0.0000000000000000e+00 2.9838039261988989e+01 8.8400239239188547e+00 0 0 0
1095 2 1.2304999999999993e+00 3.0548468768226829e+01 8.8400239239188547e+00 0 0 0
1105 2 2.4610000000000003e+00 2.9838039261988989e+01 8.8400239239188547e+00 0 0 0
1106 2 3.6915000000000004e+00 3.0548468768226829e+01 8.8400239239188547e+00 0 0 0
834 2 4.9219999999999979e+00 3.1258898274464656e+01 5.7592826957838605e+00 0 0 0
836 2 4.9220000000000006e+00 2.9838039261988989e+01 5.7592826957838605e+00 0 0 0
1120 2 4.9220000000000006e+00 2.9838039261988989e+01 8.8400239239188547e+00 0 0 0
798 2 0.0000000000000000e+00 3.4100616299415996e+01 5.7592826957838605e+00 0 0 0
800 2 1.2304999999999993e+00 3.3390186793178160e+01 5.7592826957838605e+00 0 0 0
802 2 1.2304999999999993e+00 3.1969327780702493e+01 5.7592826957838605e+00 0 0 0
828 2 2.4609999999999985e+00 3.4100616299415996e+01 5.7592826957838605e+00 0 0 0
830 2 3.6914999999999978e+00 3.3390186793178160e+01 5.7592826957838605e+00 0 0 0
832 2 3.6914999999999996e+00 3.1969327780702493e+01 5.7592826957838605e+00 0 0 0
1093 2 0.0000000000000000e+00 3.2679757286940330e+01 8.8400239239188547e+00 0 0 0
1101 2 0.0000000000000000e+00 3.4100616299415996e+01 8.8400239239188547e+00 0 0 0
1103 2 1.2304999999999993e+00 3.1969327780702493e+01 8.8400239239188547e+00 0 0 0
1104 2 2.4610000000000003e+00 3.2679757286940337e+01 8.8400239239188547e+00 0 0 0
1116 2 2.4609999999999985e+00 3.4100616299415996e+01 8.8400239239188547e+00 0 0 0
1118 2 3.6914999999999996e+00 3.1969327780702493e+01 8.8400239239188547e+00 0 0 0
866 2 4.9220000000000006e+00 3.4100616299415996e+01 5.7592826957838605e+00 0 0 0
868 2 6.1524999999999990e+00 3.3390186793178160e+01 5.7592826957838605e+00 0 0 0
1119 2 4.9220000000000015e+00 3.2679757286940337e+01 8.8400239239188547e+00 0 0 0
1135 2 4.9220000000000006e+00 3.4100616299415996e+01 8.8400239239188547e+00 0 0 0
1102 2 1.2305000000000010e+00 3.4811045805653833e+01 8.8400239239188547e+00 0 0 0
1117 2 3.6915000000000018e+00 3.4811045805653833e+01 8.8400239239188547e+00 0 0 0
796 2 0.0000000000000000e+00 3.5521475311891649e+01 5.7592826957838605e+00 0 0 0
820 2 0.0000000000000000e+00 3.8363193336842990e+01 5.7592826957838605e+00 0 0 0
822 2 1.2304999999999993e+00 3.7652763830605153e+01 5.7592826957838605e+00 0 0 0
824 2 1.2304999999999993e+00 3.6231904818129486e+01 5.7592826957838605e+00 0 0 0
826 2 2.4609999999999985e+00 3.5521475311891663e+01 5.7592826957838605e+00 0 0 0
858 2 2.4610000000000003e+00 3.8363193336842990e+01 5.7592826957838605e+00 0 0 0
860 2 3.6914999999999996e+00 3.7652763830605153e+01 5.7592826957838605e+00 0 0 0
862 2 3.6914999999999996e+00 3.6231904818129486e+01 5.7592826957838605e+00 0 0 0
1100 2 0.0000000000000000e+00 3.6942334324367337e+01 8.8400239239188547e+00 0 0 0
1112 2 0.0000000000000000e+00 3.8363193336842990e+01 8.8400239239188547e+00 0 0 0
1114 2 1.2304999999999993e+00 3.6231904818129486e+01 8.8400239239188547e+00 0 0 0
1115 2 2.4610000000000021e+00 3.6942334324367337e+01 8.8400239239188547e+00 0 0 0