LAMMPS data file via write_data, version 29 Oct 2020, timestep = 50000

6472 atoms
2 atom types

0.0 49.22 xlo xhi
0.0 49.019635930410494 ylo yhi
1.595370159894692 58.46662984010632 zlo zhi

Masses

1 18.015
2 12.01

Atoms # atomic

2090 1 17.116471501729837 0.7572823302233925 7.014557510189751 0 0 0
1752 1 4.383176310912471 1.3476466010756007 4.24011656556995 0 0 1
172 1 0.04600441875377732 21.146119071561913 9.775077156821347 0 0 0
71 1 0.21857158889837142 1.017013615674135 12.202911800974498 0 0 1
199 1 13.789236415412107 1.3199082886912135 4.957619204293297 0 0 0
143 1 10.70350498496444 0.32374906718189617 17.987256306971084 0 1 0
3395 1 3.6320809498761206 8.466283059367626 2.288080106753834 1 1 0
3367 1 19.137479955972392 0.7072554183402016 3.124160966836574 0 1 0
575 1 1.752863675088794 10.286196838548815 16.86506528931884 1 0 0
2911 1 12.709748148580744 20.64658920691935 1.700846741726603 0 0 1
74 1 5.466877180653514 3.697152095486596 5.459010981870029 0 0 0
3366 1 0.57198387275948 17.099644402441445 6.506628132894625 0 0 1
158 1 5.819191370767803 4.605170746193459 2.7643259385545993 0 0 0
6386 1 1.5452786748542984 16.866006922205113 2.0783692461994483 0 0 1
1564 1 9.229939060820573 3.131786805983535 3.165394569468998 0 0 0
3217 1 11.263641738900128 4.7909393762945225 2.8352050265146507 0 1 0
1519 1 12.897713128363156 2.385420007811374 2.413316142157433 0 0 1
3026 1 13.561919919850551 3.80430594132301 6.55556032490311 0 1 1
1811 1 17.079513798083354 4.055241835510775 2.3937244011603256 0 0 0
1271 1 15.840180329341752 4.594438004841404 4.938074777953821 1 0 1
91 1 19.67049465217445 3.2798872679012736 3.072757729993618 0 0 1
1875 1 21.67442636169862 4.426535333427981 4.720492197275996 0 1 0
4786 1 24.145470083594628 6.290046357237659 4.245202090913876 0 0 0
4983 1 2.2727194726530158 4.5923366634229 20.32138545160236 1 1 0
2020 1 3.7396910725074006 6.15489808680929 5.908395828054827 0 0 0
3086 1 8.00912285652054 0.5524223862751131 6.361321025545031 1 1 1
1610 1 7.596499863339297 6.675448195948394 3.208013439347713 0 0 1
1630 1 9.455317797476862 8.983822416027477 3.518800197025975 0 0 1
1824 1 14.279603964582904 1.1545548538771595 8.289946796903891 0 1 1
50 1 5.28153483327804 20.626074696528658 18.125037366837105 1 0 0
4723 1 21.952204841726715 21.379202987124177 2.797042697130227 0 0 1
3453 1 19.000034340322742 7.417403983009041 2.7358512203506677 0 0 1
1817 1 24.602000687654336 6.7040356817747915 14.34991921105646 0 1 0
4808 1 2.6506409350562006 12.574401150887578 2.452814949625967 1 0 1
221 1 5.0404007412504495 10.7791192212776 3.8076064668003404 0 1 1
1588 1 8.64322320770157 11.640704696048697 3.1898383188773063 0 1 1
196 1 10.12909643724242 12.132195773605998 6.067925367959992 0 1 1
2039 1 6.759348030554127 22.946968869361964 17.590479232834923 0 0 0
1838 1 14.519448546254038 11.649567625420438 3.649929593815492 0 1 0
1902 1 14.662778588450848 9.557376920945291 5.48941035432169 0 0 0
62 1 16.18306579405693 10.867396487837915 1.6631165182052037 0 0 0
88 1 18.91786300924952 10.113767479651667 2.803328817138938 0 0 1
4769 1 21.010811588426062 11.41540776506917 1.9496707085326601 0 0 1
356 1 23.344089213453387 10.526006762363885 3.4425556488970157 0 0 0
1612 1 3.0167904987252414 13.085938241822046 5.297451198500632 0 0 0
181 1 7.457980829556449 14.859945499932788 3.6547782140254634 0 0 0
6233 1 10.109560150357103 14.69308567091497 5.245307403236961 0 0 0
1976 1 15.749597742595112 23.71747887183981 18.31116013167817 0 0 0
23 1 11.610180594145588 12.611131206911248 3.0056811612731895 0 1 0
3288 1 12.8702706485064 16.625835506782106 1.6958243447251926 1 0 1
125 1 16.077080363674035 13.960321488521727 4.385326498943484 0 0 0
3549 1 23.29851856731443 11.606512791609537 20.421934666010703 0 0 1
1549 1 21.24809116522414 14.685139639223324 3.8345334734476495 0 0 1
434 1 20.274235475662685 17.611179471077133 3.876714409233989 0 0 0
2940 1 5.393837914988371 19.367362231452443 2.0222528880815664 0 0 0
3346 1 1.2974033011617636 8.984105483822795 3.4132604964830957 0 1 0
3695 1 22.170064579095357 18.76407962650368 1.7648894449681427 0 0 1
1664 1 5.823954230340885 19.662009456735753 4.696809237170413 1 0 0
1716 1 8.86081892836203 18.639110659662528 4.2499389307368265 0 0 0
1477 1 13.729589249996025 18.572744059105496 3.409414167818305 0 0 1
1360 1 16.11938092041897 20.448694812817457 4.445688942422048 1 0 1
1986 1 16.031997742319348 17.008835179159824 4.393642022353751 0 0 0
1404 1 17.837453472629832 17.569249087880817 2.5713327032169326 0 0 1
289 1 20.808123137479164 18.754886485783185 6.196873439761064 0 0 0
182 1 17.856127951445877 20.41233676163263 2.335877327915011 0 0 0
5262 1 13.844534952045397 24.409875908265434 11.207003707489902 0 0 0
6354 1 1.0347209524896612 21.46581382589068 2.9835367466113034 1 0 0
3433 1 2.574518052820818 23.79173232601205 3.131929101019341 0 0 0
3180 1 6.020318315579653 23.65416520085586 2.853907328649295 1 0 0
1685 1 10.61661471073561 23.32684823486944 11.535940467299088 0 0 1
4541 1 8.856914154065288 21.17831458365058 5.863038164943295 1 0 0
311 1 0.9288109966129715 10.488184919348717 19.491330426947112 0 0 0
2124 1 1.4774188986217673 3.4127458330077287 12.844003277238684 0 1 0
200 1 13.846988062926654 22.315237331267014 3.8116160999571216 0 1 0
273 1 21.187279332435835 4.2440494028596065 18.768812430527785 0 0 0
4869 1 18.124858759919093 23.073683623832633 5.330131869005857 0 0 1
4946 1 0.2550200913947789 2.8078619682086168 8.253859857755982 0 1 0
320 1 16.131544357752855 22.900715484345156 10.911941096296056 1 0 0
6372 1 20.470566348834954 23.974124784277905 6.265506633174531 0 0 1
4561 1 5.9875153226279565 0.9111464494299194 8.238914751841836 1 1 1
163 1 3.6390540753867966 23.602972564074513 9.4950939196175 0 0 0
6447 1 10.3555863913158 0.8179206244506285 9.288548647111345 0 1 1
452 1 12.286598244045571 2.786150858874566 9.733087379337066 0 0 0
2 1 21.79204746449048 23.74544214679263 10.661493844712213 0 1 1
3408 1 18.18007557232565 2.7503706098469367 8.6533980491248 0 0 1
357 1 0.2950755110463352 2.4375868551958226 19.94811287244249 1 0 0
1808 1 22.47653536792172 2.4568362609350403 6.779270938925777 0 1 0
3353 1 2.345823743877825 4.6932281671827285 8.199972373142758 0 0 1
5312 1 1.851888528005136 0.5046590268720444 17.75187398017863 1 1 0
5114 1 8.277255251531036 3.4243387995620416 5.875544193081952 1 1 1
3459 1 9.562486296522726 5.948658354897551 5.40868733544085 1 0 0
102 1 14.706971940258368 4.59803102026651 9.103558905692168 0 0 0
3500 1 19.880659137639185 6.2526218605490405 5.135691097247641 0 1 1
1885 1 17.838330939416448 5.136780822114895 6.820846126823357 0 0 0
1639 1 20.954807408670888 2.803544871483302 8.970551260917862 0 0 0
1959 1 23.87367081418634 7.326466789711621 7.017647349495908 0 0 0
242 1 1.6884795324277955 9.057600230982839 6.378643198330962 0 0 0
331 1 10.357420240708 15.265646565236622 2.210190127762741 0 1 1
3462 1 7.245246483658747 9.057674848477454 6.739652160302653 1 1 1
4797 1 5.601359378516366 7.86527749384888 4.666556915155828 1 0 1
89 1 8.900394704271541 7.1614356283009535 8.052091581595725 0 1 0
3273 1 12.558136226675993 6.006414874176546 5.109952398769014 0 0 1
256 1 11.595790612197996 10.011417129247151 4.683817314400942 0 0 0
1793 1 13.24057019620576 10.182319428681456 7.839661034515075 0 1 0
1880 1 14.72827877699003 7.06017902191848 3.7722209431263356 0 0 0
327 1 16.929986609949303 9.660920910556968 6.960851388553472 0 0 0
3266 1 17.265017365845793 7.062182463545992 8.322348495727688 0 0 0
1688 1 20.96816615216999 8.513442015210392 6.545080430096079 1 0 0
1734 1 10.515369710751088 0.6224160465109502 2.373206117519319 0 1 0
236 1 3.305179251575557 13.622227617162489 8.704646870260268 1 0 0
41 1 4.113575711454006 11.2734985273144 7.039616719591648 0 0 1
127 1 7.669711532069594 11.738622865541826 6.796912875716366 0 0 0
1868 1 12.082989798889843 12.787201152912854 7.619705233901529 0 1 0
3099 1 19.03430574224633 10.635545349804406 5.561682095606269 0 0 1
365 1 21.17812780047241 11.726172180121265 9.044218900083596 0 0 0
98 1 22.95696583944633 10.585037602395165 6.436266530719886 0 0 1
3348 1 3.9667273567132466 15.739003379800327 5.509404186554512 1 0 0
56 1 13.527152117307539 23.91282365661603 8.419092660159603 0 0 0
4872 1 6.142532646038504 13.06874992999148 5.03056928031673 1 0 1
133 1 5.404660266419175 15.619174009258792 8.317050285809977 1 1 1
334 1 4.192479781438302 18.484140363869546 8.58255749174726 0 0 0
4897 1 6.564377731564911 16.785579810336856 5.111786852568707 1 0 0
180 1 8.40052364943035 16.059692909089147 7.256525269309496 0 0 0
170 1 12.949898754894669 15.588584073300764 4.753382472022286 0 0 1
1974 1 14.353193949390517 14.4859112657959 7.222872620664557 0 0 0
296 1 17.075205255991623 14.649508208905575 8.091462225651952 0 0 0
1692 1 17.810999968921237 13.052857072994678 6.196375216376432 0 1 1
3475 1 21.057387826308418 12.884884580214054 6.390581831321318 -1 0 0
287 1 22.7944624928736 17.29922603211743 7.134029235296716 1 0 0
6313 1 2.397517840966858 17.818355146227802 4.493181464047155 1 0 1
1775 1 6.34277859859616 19.12758761148888 20.27675448003166 0 0 0
3571 1 3.2061130782431766 19.846604914120352 6.422856069836984 1 0 0
111 1 5.94981324614674 20.277843750450913 9.631489502344596 0 0 0
244 1 11.648683898549896 21.68465237073407 5.463358972063443 1 0 0
51 1 11.560939217241966 18.310408481868897 5.3776848302183105 0 0 1
126 1 15.130957277735304 18.86233958207335 8.25307042604295 0 0 0
345 1 16.951583456003515 17.011676109399595 7.03018560635421 0 0 0
353 1 13.336314117095664 21.119064712914028 7.988492379663663 0 1 0
135 1 18.895252323988032 18.571670730309524 8.281631342564982 0 0 0
92 1 17.541263018624864 14.709952101248422 1.8928925384277586 0 0 1
6301 1 0.9393247155767379 23.188930482453337 7.791701917598379 1 0 1
410 1 4.459978207535364 22.264161201871428 5.06662461968784 0 0 0
192 1 14.511839722105229 23.458053249932952 14.056975973564555 0 0 0
128 1 7.32333110763319 21.900779309221484 8.069879161980609 0 0 1
3479 1 0.09215001084967867 22.599137034705223 20.1712426784035 0 0 0
1738 1 17.023813594541853 20.793217025069236 7.391262746018572 0 1 0
86 1 23.343681381965357 19.54028495831376 9.740367586418879 0 0 0
1272 1 17.580092444163483 23.11759356126359 8.713723406812493 0 0 0
1733 1 22.01240326399488 21.660184993384714 5.634933601580213 0 0 0
5213 1 23.88516661650989 22.382208151316505 9.413134513191087 0 0 0
2099 1 6.088827724433399 1.8116255949904416 12.630395271485162 0 1 0
5349 1 2.3914736381645363 20.978264676803455 19.23041283947391 0 0 0
2013 1 8.53615894807643 3.1548363075671975 11.383235371058424 0 1 0
2007 1 11.616636836795827 5.869457121608792 11.332103415766035 0 1 0
217 1 12.223605643071588 3.3029310859740884 12.756267260619966 0 0 0
207 1 14.699543144890248 1.4393737821112298 12.341594645388124 0 1 0
1751 1 16.374412886858916 3.155426787131369 10.92264635618312 1 1 0
3580 1 18.545764456533654 1.0477532653984296 12.485197754910086 0 0 0
1951 1 22.209033700551778 0.981067925442203 10.60918204245493 1 0 0
4683 1 0.5577847710027215 14.432472349099074 9.204231834859678 1 0 0
336 1 12.664788297511574 24.1736977170843 18.12171345113759 0 0 0
1669 1 1.1218847188385568 6.799959094677117 10.193211532194091 1 1 0
4936 1 22.671119163547928 3.4588398287626037 16.048957670939842 0 0 0
1947 1 4.828563466568538 3.355935475055322 8.612286773163081 1 0 1
120 1 6.991641792643364 5.401214768446569 9.383054906755667 0 0 0
69 1 7.151139576789355 6.416963150916223 11.894455698782924 0 1 0
79 1 9.294647985277622 3.4328786874090795 8.53185511164925 0 1 1
1840 1 11.186840055069334 5.38680477369897 8.533032349859766 0 0 0
366 1 14.133943579910422 5.9786281363365 12.996652810137764 0 0 0
145 1 17.881665486256484 5.208444186227764 11.729323153754386 1 0 0
3350 1 23.144961964067207 4.991163512879021 8.976186708531795 0 0 0
29 1 20.678453171631645 5.100076944353258 11.02534012767256 1 0 0
4688 1 10.446380453791637 22.30052370789989 2.4595388275142467 1 0 1
426 1 3.231714690644405 7.84259276875687 8.54894012241225 1 0 0
4758 1 1.5579523925476402 10.663794935842978 11.11395234627773 1 0 1
3271 1 5.49960230542101 9.405155093193768 9.124749520065954 0 1 1
83 1 9.342335180991979 9.402809783146134 10.110530055549559 0 1 0
4697 1 11.469294803901988 8.008865084609651 7.006135887935208 1 0 1
97 1 14.640066049178422 9.830212317558003 10.23726716286025 0 0 0
113 1 15.587423173398397 6.657869475747323 10.283603067217038 0 0 0
1864 1 20.022769843702697 7.501929848124341 9.236284350677508 0 1 0
263 1 22.393575822350094 7.939923354190163 10.677931795228126 0 0 0
230 1 21.36591446332194 8.504367061323409 13.219652046188676 0 0 0
3435 1 2.780695958341611 15.07895426974077 11.367448419347078 1 0 1
3413 1 5.381160700815748 12.071436946536013 10.060750400307066 0 0 0
5067 1 7.492114447056341 13.339637536182702 8.847336773308495 0 1 0
1603 1 10.104472027447404 12.256065354780747 9.717957622423725 1 0 0
1582 1 16.92574344886982 11.365621715960392 9.007640969675185 0 0 0
281 1 19.03878730673916 10.220957594589253 10.076899658985377 0 0 0
25 1 21.128646707791777 12.48544659693938 12.194403974927267 0 0 1
1535 1 23.611264748858087 10.35648981601164 9.350737886888133 0 0 0
3374 1 2.637492913906427 17.80469949694776 10.897914039083352 1 0 0
399 1 24.00697074668711 0.02193645717408127 17.845090184800707 0 0 0
109 1 11.221285230328144 15.226367798934126 8.560127230131966 0 1 0
3331 1 14.394297045620306 15.496507781555309 11.312788164319219 0 1 1
47 1 11.483220051599274 15.124861283414335 11.30315092022041 0 0 1
3537 1 16.650388965610706 14.23089325429874 10.692832536292789 0 0 0
150 1 21.50386558805451 14.911287477621233 8.491960654970395 0 0 0
5148 1 20.213793336088788 17.09398951103677 13.42395338470401 0 0 0
218 1 19.31257138797656 16.090359775023842 9.494251798524505 0 0 1
3156 1 7.892655988249391 0.5028849140171169 1.6857673367913837 0 0 1
4952 1 8.3285583864814 23.86757009731453 9.965787962035135 0 0 0
1555 1 5.482124723148243 23.79581937463949 7.291880519222343 1 0 1
4908 1 23.474237021385072 7.991517386077578 2.126014625292984 0 1 0
1774 1 3.3033958033311412 20.100740519169584 12.484178072080086 1 0 0
1571 1 7.706247289809646 17.943251409500505 9.431682463101437 0 0 0
30 1 12.099747410848074 18.075306552628557 7.906764900344835 0 0 1
3341 1 12.639849907950344 19.775096125378397 11.859604124581368 0 0 0
1490 1 14.764241208986267 18.28294003118059 10.937276722500684 0 0 1
231 1 22.886432526942336 18.456521597883636 12.413656063986533 0 0 0
4751 1 0.7674565830196453 21.693402486698975 12.69156766135729 1 0 1
2157 1 5.850681392122097 23.913876039453143 11.258715165391402 0 0 0
206 1 1.2074346957015416 6.0538462552447 18.012901167352467 0 0 0
3356 1 24.18798631945385 16.102686265688153 11.893005433129234 0 0 0
3283 1 9.675849884217312 19.371508917611802 8.266396268120491 0 1 1
152 1 11.229580916072978 21.174308678971293 9.974690768347749 0 0 0
4885 1 19.086647317503008 19.36766104269768 10.981225482381744 0 0 0
3516 1 1.2613476171402869 6.1812677053981 4.382791005136257 0 0 0
304 1 12.796264277223289 21.475011953712862 19.18351016820923 0 0 0
1992 1 20.043589609554576 21.86139948739179 11.848040204738464 0 0 0
3583 1 0.5482297555690866 19.73005664218003 16.51082492647632 1 0 0
219 1 21.11780444617742 7.941309285590622 20.33021348701358 0 0 0
5016 1 2.8559851475243008 2.2286976943480754 16.029787435589093 1 1 0
2086 1 4.958507940405234 8.978804064267598 19.585596134803627 0 0 0
335 1 7.993795569688989 1.596589639115282 14.803558971290924 0 0 0
5135 1 9.347452014776172 5.292200954116864 13.12292334457771 1 0 0
169 1 15.204837104009899 3.4298695076523735 16.470876370933027 0 0 1
259 1 18.012431645804416 0.425901286016403 15.105510721418183 0 1 1
3308 1 19.466540673279965 4.410484858364644 15.478714477619322 0 1 0
5160 1 20.230298824629013 3.0606314029618624 13.16700869264389 0 1 0
3744 1 22.82447431485149 2.0744782540913276 13.60449803883896 0 0 0
260 1 3.9678337066501594 3.7579070226387254 11.488544559347968 0 0 0
1750 1 4.682042120786754 5.951150977692872 13.191312302153856 0 1 0
458 1 8.613652646022013 4.397010137862448 15.758904655286981 0 0 0
1948 1 12.702597278625072 4.415694797646286 15.305404902163197 1 0 0
398 1 17.297748391632467 5.234992863737811 17.341584184006777 0 0 0
144 1 17.20950856581482 6.159253537368984 14.201259044778096 0 0 0
3319 1 22.133387053479805 6.219163434899887 15.23887156285368 0 1 1
1743 1 4.317128651016943 0.4590832087230408 14.369826691035284 0 1 0
3521 1 1.0721713113681506 8.041070583575438 12.620637466338168 1 0 0
432 1 3.3472613804311866 8.060578078032368 14.213387565692317 0 0 0
462 1 5.342862871053865 9.833538262000287 13.815511272442656 0 0 0
1891 1 6.823197809263485 9.012663336789059 11.764746342162626 0 0 1
463 1 9.413344220010094 7.656729433030255 14.562501828914995 0 1 0
136 1 10.973290204078735 8.561360003372062 12.290807135505725 0 1 0
416 1 13.42977052239909 10.244854106830248 12.3933178361153 0 0 0
202 1 14.503924462083656 8.478353955858074 14.307635998087722 1 0 0
59 1 19.43084902536574 10.27971678339541 12.89041325025556 1 0 0
329 1 19.309727718066313 7.784397003490842 15.142333676596449 0 0 0
561 1 19.89587087611598 8.661252798457415 17.6317174541622 0 0 0
6394 1 23.221545645150933 3.4643345290690046 2.51937265065631 0 1 1
3730 1 3.1086414426058293 12.536920567488561 15.627595563410553 1 0 0
222 1 1.8665088307553765 12.787300050949709 12.98800280881039 0 0 0
37 1 4.967840197455077 12.129439579406693 12.703373425288188 1 1 1
297 1 6.788240496413282 13.761857627467307 13.972277071917663 0 0 0
195 1 11.172368716284524 12.402562713815987 12.310654710883217 0 1 0
478 1 13.424797601885292 11.969157076016225 14.605581759442428 0 0 0
177 1 17.37390080439115 13.97993148383787 14.672264098253647 0 0 0
400 1 17.658531120700022 11.352957929104047 15.208110726679857 1 0 0
3477 1 22.739813251342415 11.927443443871017 14.234535646247217 0 0 0
3518 1 21.78468655066432 12.870137896247808 16.553248468790336 0 0 0
3739 1 1.5169744195668924 14.845409685488848 16.30047322271951 1 0 0
3439 1 1.7862637456818538 16.311723967078496 14.03741785627924 1 0 0
3246 1 4.063585670404601 17.974417496927547 13.960551653700591 0 1 1
142 1 6.427647709553962 16.50887083660747 13.649016486464598 0 0 0
5366 1 9.591031140997261 13.304102967090127 14.620920549576114 1 0 0
1778 1 7.437135076533351 16.72067914265046 16.209879042184347 0 0 0
571 1 13.629085480820004 16.14155466573913 15.780562174963887 0 0 0
96 1 14.718572989786534 14.435019922321786 13.97948670648214 0 0 0
229 1 19.13621878782405 14.642844079392077 12.24132400813862 0 0 0
123 1 18.93925278742463 18.46296154657731 15.445276691957996 0 0 1
1975 1 18.794979851529742 15.842224347572403 16.680104963742714 0 0 0
461 1 22.42832461157699 17.386611132777464 15.408215706129727 0 0 0
1719 1 0.8636822495160897 21.37252717326508 5.7251832671949066 0 0 0
220 1 5.9318872443723265 14.972339462111561 19.90405044023122 1 0 0
251 1 3.4140661806460733 19.27199618682558 16.293068887760136 0 0 0
161 1 8.294403376491008 17.629303503967183 12.044835103596883 1 0 0
1640 1 7.76634778474182 20.06171008390447 13.638075378118018 0 0 0
148 1 11.300645851285818 17.71162783996675 15.346852661876852 0 0 0
3809 1 10.975441322056499 17.582736870056333 12.440570367763987 0 0 0
112 1 16.536566944071367 20.01565537296578 11.658321214520107 0 0 0
1913 1 16.65748112867655 19.928235358026207 14.517102716816403 0 0 1
1933 1 20.463056740640944 20.631733708491705 16.561500494924086 0 0 0
4911 1 24.087962680533717 20.90582621333656 13.453862342080297 0 0 1
422 1 24.570581693320406 16.049887486568853 14.832446322722705 0 0 0
1849 1 5.843291635520849 21.444535050395885 12.493507115679344 0 -1 0
1965 1 2.7720576375960237 22.015368582635144 15.17803318702258 0 0 0
1900 1 9.749040450450519 22.177388180619612 13.935245960767396 0 0 0
308 1 12.630020691131161 21.415155643604063 14.25426070405894 0 0 0
3545 1 18.12451702937587 23.533586323607935 13.145084084227369 -1 0 1
1814 1 21.633524255916715 22.04155291987344 14.333438145657377 0 0 0
32 1 17.7990292371037 22.40847837271775 19.819071859293977 0 0 0
5055 1 18.765196487230593 1.5603682246530466 19.340356335727083 0 1 0
6453 1 2.902474723812822 5.244434476022838 2.419113111874987 1 0 1
401 1 7.048767492972406 1.6628939881351268 17.46462155949098 0 1 0
1787 1 5.328060872180663 23.1116999281004 14.834926790315917 0 0 0
1593 1 23.198736269615583 13.945562170308673 10.596708038853995 0 0 1
2023 1 9.36727416943172 3.134719588204533 18.188172064696865 0 1 0
3632 1 13.974323746245906 2.4456847729521547 18.779255324672484 0 1 0
198 1 19.881462827531095 1.7912205463668138 16.51347194925478 0 0 0
471 1 0.7444812266675904 4.19636376565744 15.848260963764009 1 0 0
1676 1 18.711554300451752 22.46309244956814 17.046902346935966 0 0 0
43 1 0.23904045720822978 0.31385017697242923 9.510555866912245 1 0 0
388 1 4.846686009714775 3.499171555966905 17.483148781279667 0 1 0
4734 1 23.185999231507854 0.7974658197814841 2.0912347883166356 0 0 1
154 1 7.649425230608591 23.695614816079523 5.130790680768795 1 0 0
576 1 6.055497903066986 5.427132434389212 15.690085642213557 0 0 0
1949 1 9.180065047339982 6.341225356377019 18.339971620392372 0 0 0
95 1 21.471979989608048 20.240786520928232 19.266213884709227 0 1 0
1737 1 15.598258625858833 0.9253274859571718 15.047536986743252 0 1 0
21 1 16.683098903281028 0.27665854597166895 4.405926687731458 0 0 0
3415 1 17.27168935816991 7.735764503765399 18.01647646873105 0 0 1
3651 1 18.44216040111865 4.359170983935589 19.731941488554845 0 0 0
313 1 22.195665068679855 6.852495064144364 17.847399044854097 0 0 0
1923 1 5.051177757311507 3.8743375557082538 20.020800771323234 0 0 0
26 1 3.460803469133419 7.995561394013093 17.130663587796906 0 0 0
1731 1 19.547443106792755 22.508707636192163 2.993343063996365 0 0 0
5251 1 6.588115416651424 7.410889137392935 17.38934975400663 0 0 0
389 1 10.687715200676722 10.532737095778538 19.540652963178452 0 0 0
166 1 11.803314007383468 6.605554184631837 17.235365435651197 1 0 0
341 1 12.954868244698176 9.151320640057165 17.78301752120772 1 0 0
247 1 15.720324634951744 9.632001137086027 16.679812667348013 0 0 0
464 1 19.64394012158869 11.460929712634341 17.20395994257975 1 0 0
1935 1 10.10739134885884 22.593617947709177 17.550289114350576 0 0 0
3463 1 5.67302650703464 12.734826939470198 16.449191110078424 1 0 0
4986 1 7.626290876575427 9.282293236622136 15.606833882950564 1 1 0
246 1 5.796326760643685 11.51844323862243 19.007559725384603 0 0 0
186 1 8.784601682159437 11.544096174821327 16.69118523198832 1 0 0
412 1 11.674778073310842 11.828158592335429 16.93104982446228 1 0 0
362 1 16.219900121944907 11.671018154147253 18.83538571667673 0 0 0
3588 1 15.355024717466558 14.445222899288282 18.535566643080763 0 0 1
423 1 18.937235493584783 12.371502987886021 19.923463055034492 0 0 0
2200 1 23.850919813197308 12.31318053710449 17.821150040651816 0 0 0
3125 1 0.564097202717117 18.63434566885782 8.930936237412968 0 0 1
3626 1 23.667936839778136 14.70437016958593 6.0893714219555655 0 0 0
245 1 2.653237067355556 16.867553012435803 17.73307457860516 1 0 0
3414 1 23.343671814472962 19.47966437395472 17.29892992578553 0 0 0
307 1 5.378499325047323 15.548969877231936 17.426229423784164 1 0 0
3670 1 9.67053817243848 15.435821604322387 16.398609693868693 1 0 0
2045 1 10.51232079699999 15.440729559597429 19.369918800298077 1 0 0
288 1 12.847589697727344 14.276071887917242 17.64143696763892 0 0 0
3297 1 16.571330860700282 22.370821857935017 15.557515019958982 0 0 0
448 1 16.779229118809816 16.96535977418502 18.384344631594256 0 0 0
2037 1 8.355277778144332 22.972540774965278 19.836174552968668 0 0 0
3342 1 22.72551922339884 16.03617584396843 19.761484181700265 0 0 0
5 1 21.610319311276253 15.53469545010633 17.236659070104672 0 1 0
5100 1 7.260659649428116 19.389874697210214 16.081672617748136 1 0 1
3187 1 9.86219575851509 19.72419329821102 16.942902402947105 0 0 1
312 1 9.224694140386624 17.76672568272711 19.009393192768197 0 0 0
347 1 13.08938719373144 20.131598336515207 16.679318630841436 1 0 0
387 1 15.264592112392275 18.256552675328308 16.411820637184213 0 0 0
3618 1 24.434455392258197 5.692043850167274 11.57345050877556 0 0 0
225 1 23.99540508173378 9.563539066504395 14.326638369259074 0 0 0
261 1 10.129007005535616 1.0946063920075146 12.834186902759157 0 1 0
377 1 12.14003831874866 6.701156947094862 20.39254120176295 0 0 0
326 1 8.510625088584293 24.140363167677954 15.40965481006571 0 0 0
1614 1 23.943137361206265 15.747060300575386 3.523668308454705 0 0 0
332 1 2.2327501068874485 18.247586987981187 20.1645761443155 1 0 0
3345 1 0.2724744914090333 14.29741807925437 6.47341227038804 1 0 0
146 1 1.2827899095714903 2.8574802275673035 1.9099484341362947 0 1 1
1806 1 9.17398363747516 17.786743242284007 1.6615091383018628 0 0 0
279 1 8.270754292906656 11.614370646523422 20.22967672475267 1 0 0
103 1 11.809209687107165 24.291273251031402 6.309489563191025 0 0 0
5298 1 0.15648364883445964 22.443664376931157 17.42544302836565 1 0 0
1583 1 0.10119765553174176 11.514704344999766 5.20040601697028 0 1 0
1836 1 23.171493453874998 24.428263397168458 14.23008924237206 0 0 0
4877 1 1.8431280699747217 0.012832961578283175 4.8413052071469895 1 0 0
3526 1 0.5029277473897411 24.40402815309284 13.457155901157217 1 0 0
99 1 23.302665916419286 24.338042754204753 19.267863564486454 0 0 1
577 1 9.391249515435693 8.342071900534807 20.456274629458353 0 0 0
383 1 12.266314922957529 3.832490474596173 20.42979919066104 0 1 0
374 1 9.987095223818532 1.0371457875879317 23.727653910765245 0 1 0
1889 1 5.723598745670486 1.4819999819820595 23.897374558278408 0 1 0
2110 1 3.0302446241089513 1.5904137513594028 22.50951043061952 0 0 0
5393 1 14.9828990522032 22.17689028956865 21.05971395883691 0 0 0
2060 1 12.036349328856726 3.162332070876927 23.163797579694794 0 0 0
1804 1 16.77032002261653 1.9255887038248742 23.440343924087788 0 0 0
1904 1 5.7638464357760855 22.929433670318897 23.86202062791744 1 0 0
3194 1 21.41090898574587 14.006419730760028 38.93250618569162 0 -1 0
1 1 16.381249161746553 7.0972134617713785 20.582637289599685 0 0 0
429 1 18.942840458588734 14.682216267633251 21.57480903345117 0 0 0
414 1 1.9276336991835417 4.201560380976268 23.37206823809021 0 0 0
456 1 7.183126449036196 4.022032894045573 23.761483092135126 0 1 0
1446 1 10.989380056442364 20.1547754021821 38.4247103057097 0 0 0
3295 1 4.6222804544983624 5.4050408842210995 24.208440594407275 1 1 0
395 1 10.607795291421363 7.166510706160667 22.762931817062054 0 0 0
5296 1 6.401534727678856 0.1291737983657073 36.1272696029491 1 1 0
381 1 13.837175750184226 4.989445498636284 24.19450235625563 0 0 0
213 1 13.271536772484176 7.74090679011442 23.56449483381293 0 0 1
2085 1 16.511867696352347 4.586455184958014 24.16442573204241 0 1 0
539 1 20.02442239039858 5.783012353480853 21.79207627717789 0 1 0
2062 1 17.81271814014662 6.975828425003949 22.926810714137027 1 1 0
1286 1 14.55205650614109 23.016308617877595 37.89432177638978 1 0 0
396 1 23.585943744693363 7.0850637876954075 24.72530571224996 0 0 0
3717 1 21.379599964296794 5.511572894217507 24.122591830477788 0 0 0
235 1 2.4472809932246493 9.105654837538426 21.362273434258782 0 0 0
3644 1 2.977176092704771 10.009303035303736 23.916529986048964 1 0 0
5281 1 1.2541318274654718 12.99192662293298 20.7571016216821 0 0 0
354 1 7.906759890851252 10.54655509714638 22.916881905315158 0 0 0
3486 1 19.17611616672781 17.585841630784486 21.383183093292548 0 0 0
3709 1 14.027906786869737 10.33479648099346 24.409433162219354 0 1 0
1557 1 4.843339091984353 21.99671266019693 38.52156550135185 0 0 -1
10 1 16.74405785464649 11.132900604440966 23.826989116061224 0 0 0
321 1 14.840020725271694 4.912525254781134 21.312413208740274 0 0 0
239 1 20.817109905568092 10.70549322601141 24.39321145550721 0 0 0
2885 1 8.710062761380733 2.570289656786539 39.33074264316176 0 1 0
232 1 23.316110988834527 9.619538116086035 23.772474099424727 0 0 0
3440 1 23.80094578623858 9.01239827846709 21.28787665848953 0 0 0
1960 1 4.319662891972582 12.32571829148873 23.31006610657409 1 0 0
191 1 16.31442628876403 16.85798032897475 21.60324768505528 0 0 0
277 1 21.324462843686874 1.94767271834716 20.634714600155327 0 0 0
2048 1 12.051417281177622 11.834670904772608 21.498449665607836 0 0 0
2012 1 11.854474067288328 11.953592910626421 24.40254942878126 0 1 0
290 1 16.6542961280236 16.87830258796818 24.481996521345135 0 0 0
367 1 17.38492896510952 13.777046128185038 23.857063961213424 0 0 0
2916 1 12.426015629661991 23.681544793772495 36.031824644739224 0 0 0
3299 1 20.476386341255008 13.565661819723607 24.147129989053447 0 0 0
171 1 21.679943681570233 13.79416153088389 21.424938728815516 0 0 1
380 1 1.1463182448896008 0.005533905185160393 20.888361474206448 0 0 0
486 1 3.124994986907381 14.146971943539796 24.471361933222425 0 0 0
392 1 4.2257749606816715 16.661836421622976 23.88902021648148 0 0 0
1454 1 9.351889282247306 0.025473517074041593 39.08492066898564 0 0 0
2029 1 8.417080549192878 14.417299465239136 20.85429753226097 0 0 0
413 1 8.479134094597253 15.022104691581934 23.728870047478424 0 0 0
439 1 12.127749215547073 15.008735259207498 21.657106399238266 0 0 0
437 1 11.098894678356311 15.107256485296407 24.229444490280926 0 0 0
1815 1 11.788619990509806 17.8379277007956 24.16288261006905 1 0 0
405 1 19.376918773023057 17.95317804299557 24.357981354193537 0 0 0
298 1 21.972458152300348 17.426336777678628 23.545126071990996 0 0 0
3281 1 2.5313285878068004 18.644875184809525 23.177584243724098 1 0 0
2146 1 10.1442027398295 11.792654082232126 38.755198669313614 0 1 0
368 1 4.703108432349096 17.007358919661595 21.169990187643585 0 0 0
189 1 6.8575230732701105 17.68434461886664 23.805371887505128 0 0 0
5370 1 7.551415544294254 20.326533852685767 24.370166019624044 1 0 0
175 1 0.944135827493278 6.96107529926787 22.21882207912766 0 0 0
302 1 10.12779100991952 19.96797852841454 24.747180248716756 1 0 0
2098 1 9.393381430219764 18.61207302782047 21.728505378040865 1 0 0
497 1 14.564180550343835 18.820280291241783 24.134054309314823 0 0 0