LAMMPS data file via write_data, version 29 Oct 2020, timestep = 50000

6472 atoms
2 atom types

0.0 49.22 xlo xhi
0.0 49.019635930410494 ylo yhi
0.2580217891531653 59.80397821084867 zlo zhi

Masses

1 18.015
2 12.01

Atoms # atomic

2082 1 24.07118450105366 0.478227635923381 14.336041791001048 0 1 0
173 1 0.6480019457336627 12.285853213258846 11.349860234825476 0 0 0
3478 1 24.291525681098054 19.270206165211697 17.885507178347126 0 0 0
145 1 12.019013984028618 2.1916238385573674 3.7093197968918528 1 0 0
1653 1 0.7308581993057314 6.513134827448024 16.353112616188323 1 0 1
70 1 16.900332568818218 1.1969279923178633 2.28675877351026 0 0 0
562 1 19.571561135228585 2.7134017005143947 2.3092929954904924 0 0 0
1994 1 22.977204799512037 3.4418838702930263 17.67303933036144 0 1 0
1737 1 10.416154460854052 0.03420918929141692 4.296916947851195 0 1 0
1657 1 3.400571460589947 5.8119771465119445 1.5835416019253887 1 0 0
37 1 7.866883220065832 22.001469859599784 0.7425514778841573 1 1 1
2020 1 7.893261853048609 5.502698522859344 3.323127742033558 0 0 0
1793 1 10.462202165564891 4.3412093014307205 3.4129684967314153 0 1 0
1976 1 19.277440703376467 24.32516104132805 15.223092456705583 0 0 0
1764 1 13.863234555938735 4.611266625821023 2.9640376250126375 0 1 0
3408 1 13.473048452146797 6.956835395917316 4.387797649225943 0 0 1
1746 1 16.43676068105018 7.291339291321999 1.0801504038424008 0 1 1
3169 1 18.20897207393968 7.403563576678229 3.349471614772602 0 0 1
1838 1 20.349099209998194 8.066352690269833 1.6164069498123816 0 1 0
3453 1 21.954111607721895 4.067879707993015 1.5328450185008702 0 0 1
3602 1 23.36825424618086 6.316160217237049 3.319866769582318 -1 0 0
132 1 1.662143809768272 11.19278117161148 2.209588625977375 0 0 0
1512 1 4.260870411312963 10.085324752229686 0.8995572438088454 0 1 1
1688 1 8.673027231132991 8.790250788988153 2.2905684033854525 1 0 0
3266 1 12.9828246165829 10.079008655457192 2.038936413115704 0 0 0
1593 1 15.275723526034588 8.959517453335073 2.989820839417219 0 0 1
156 1 17.93516708634254 9.39769415917499 5.467931781728796 0 0 0
4936 1 22.51118558479835 9.080755710300283 3.3134980935693914 0 0 0
3367 1 23.673756354039703 7.598823413068879 7.6542147593746215 0 1 0
1797 1 17.380373839220194 23.107662417677616 0.49285491777012663 0 -1 0
1583 1 6.741571218842324 11.122484114255988 2.3695315786550264 0 1 0
1847 1 1.058105325319552 23.251572837019452 7.611619239452482 1 0 0
4983 1 4.685490593147093 1.216458265174997 10.680885391027005 1 1 0
54 1 9.844304356214602 13.826112616870512 0.3264008425544622 0 0 0
88 1 16.675828813470446 11.40026675725611 2.2722861346868743 0 0 1
167 1 20.521469962083685 14.439055830893524 3.972356740286303 0 0 0
1830 1 18.99365521912629 11.43299661491467 3.705763759323909 0 1 0
5115 1 5.002515732767577 0.4241751096512665 8.25765202888989 1 0 0
105 1 17.843020628064153 17.817937853330772 2.2112302729156457 0 0 0
1611 1 1.1019926450035669 14.269014516731898 0.9467888516343248 0 0 0
1597 1 5.138938324814121 13.441152411905966 2.8334545612336357 0 1 1
151 1 11.136063412525186 17.110869562750313 0.2925152642426703 0 0 0
1404 1 8.388945650760004 16.08490457386952 1.4612699063529146 0 0 1
398 1 16.91742341182181 4.022166935745992 19.521734452669467 0 0 0
1601 1 12.567278239268367 12.876384338440026 1.5529013297498087 0 0 0
62 1 14.779711245544553 16.211670798872643 3.863945941050281 0 0 0
265 1 0.11026707733177687 12.776611745444825 17.137933373198987 1 0 0
159 1 19.655060788928235 17.095049854593253 4.278151766573575 0 0 0
434 1 22.413850517558657 13.813432267268022 17.501200867557483 0 0 0
306 1 22.526999928315323 24.506892686524647 16.587386508931132 0 0 0
2031 1 20.091692676214322 23.273191419167173 12.854713033553141 0 0 0
4 1 12.514940296995352 5.8896284496068505 0.6064663749661634 0 0 0
256 1 1.1202355925419851 17.96326478828014 3.202659370277634 0 0 0
162 1 3.228660157492532 19.252804663003808 2.0699588337046393 1 0 0
1555 1 4.877196675612502 21.301145674021832 3.552677621004682 1 0 1
12 1 5.957851256641805 18.242263672383558 3.22037505876767 0 0 1
152 1 13.789115155681856 20.62326400728402 1.8058023870941289 0 0 0
113 1 17.158252452074283 16.83210041377475 5.850019042689558 0 0 0
1763 1 18.93133368946741 0.2554040389427383 6.647301149546053 0 0 0
126 1 18.295499034534963 20.971293539431525 2.3813020428265523 0 0 0
3217 1 7.966658074744742 6.215161668074347 0.5641170248603681 0 1 0
55 1 11.389921798180433 21.458565740896645 6.487610894391461 0 0 0
1676 1 21.241630333043677 22.37451571160129 19.367704774159073 0 0 0
103 1 13.033494917790938 23.258883593365443 6.489435066323009 0 0 0
111 1 5.558685813960561 23.288465218355622 1.6918979088837842 0 0 0
65 1 9.590984121502439 23.5849950828771 2.6302737937531218 0 0 1
3491 1 0.8253790790493318 23.73988349361611 17.37702190106198 1 0 1
33 1 12.31322751870319 23.52047758961467 1.5422721380922573 1 0 0
5021 1 18.367453940081315 23.342990944866113 4.036424778230194 0 0 1
1616 1 21.799221847885548 22.22027267848592 1.3095100753978735 0 0 0
48 1 22.00164436964603 23.17886935123419 4.104657758015775 0 0 0
5149 1 15.195770727665417 16.47836265060151 1.2027182455048753 0 0 1
4789 1 1.4501467257778893 21.19926905641296 0.5238914429611702 1 0 1
245 1 11.812396439061592 17.434556947829385 19.067236086606062 1 0 0
4946 1 9.417444295784973 0.4344601675909968 6.950766055629394 0 1 0
1762 1 7.1663327424220125 2.30587870389064 7.3323636586853755 0 0 0
5133 1 3.2996613526976186 0.5109532165868867 14.502835775043975 1 1 0
1946 1 13.2789437598172 1.161094752106658 6.3378392640888235 1 1 0
1868 1 16.39032749168635 3.5898553578669126 3.9698155050727433 0 1 0
2099 1 15.378807281843253 3.031061968266997 6.739640153203244 0 1 0
4908 1 19.03093552783199 4.707246613266082 4.192415130596496 0 1 0
1864 1 17.123593042348002 1.4565609555199102 8.450511405480338 0 1 0
1826 1 21.07477009300548 0.7764761512489047 3.0634428594703667 0 1 0
43 1 0.6207768964941015 5.766525700370022 3.643444887401721 1 0 0
5078 1 3.650209553715199 2.6677105097268607 6.735299288020689 1 0 0
146 1 4.123885467252298 1.8303258528650137 4.1475290977419546 0 1 1
1752 1 7.096329935204908 2.670697437701682 4.62595893411114 0 0 1
281 1 10.6305261995936 6.556470575969652 4.838164925196532 0 0 0
86 1 14.453624740735627 8.143615902743294 7.254615661823566 0 0 0
1959 1 20.839348705703284 4.403746482085682 6.291147984871498 0 0 0
1899 1 23.57011134501238 5.187164068520089 5.9856499937327685 0 1 0
3154 1 2.843939346550526 8.460157922739283 5.862455128833056 0 1 1
149 1 0.9498142894576695 2.390813798827935 8.190441463764248 1 0 0
185 1 14.039128537370804 23.498180529211144 3.9184075927141153 1 0 1
349 1 4.107473468475374 8.079200901308099 3.2388800717895636 1 0 1
3273 1 6.382489871291559 8.514235123918793 7.2644295775953776 0 0 1
94 1 6.733300697875713 7.665507127675546 4.379432140352723 0 0 0
1473 1 11.314876375788305 9.265566419317345 3.9402012426430515 0 0 0
196 1 10.845473700257088 11.22403219622788 5.997326754458647 0 1 1
135 1 15.50172183653878 10.274131656803492 5.845256280859664 0 0 0
3326 1 20.160347824118503 9.98568666002376 7.0779151250420185 0 1 0
3494 1 22.819601830147878 7.92795261268309 10.258621886529195 0 0 0
1633 1 3.2739426713395345 10.627852132357257 7.660778424161444 1 0 1
153 1 2.43966232924388 14.03911797836915 8.312609526416846 0 0 0
3413 1 4.212268784330107 11.744992739797413 5.040161888719193 0 0 0
3324 1 5.161070189865092 13.168622170384822 7.285944970565529 1 0 0
221 1 6.80845193776569 10.852639187555567 5.414817349761705 0 1 1
200 1 12.604063591455787 13.40842672764671 6.067060047877249 0 1 0
1692 1 14.733089691829832 12.435700780451326 4.038521184736622 0 1 1
532 1 15.97626953078301 14.213090808722253 6.005348634117654 0 0 0
230 1 19.81585172032711 12.733252824689442 8.56449759046276 0 0 0
3331 1 22.825663508645533 9.605876898166704 6.0280722227918595 0 1 1
361 1 23.020018884233963 14.41004364489654 5.40631391336781 0 0 0
3340 1 23.47231534766033 12.092574933190104 7.10675732542086 0 0 0
109 1 2.1036390759236805 15.92127495007403 4.596959236292801 0 1 0
28 1 4.71626174530877 15.57632748148626 6.168869651752145 1 0 0
1902 1 6.526662691225458 15.694208716792199 4.104799028155237 0 0 0
92 1 9.954741328261113 14.452052197398867 7.187196116320219 0 0 1
23 1 8.947981801873915 16.154755386576493 5.261172147394031 0 1 0
51 1 12.371938349832845 14.76410546508314 3.600109496384374 0 0 1
97 1 13.244802305491271 18.58457221799872 4.241897320157098 0 0 0
179 1 18.833807448168464 13.206733355941303 5.962668721842543 1 0 0
129 1 21.716617678034577 16.60030119377691 6.712334111583481 0 0 0
1813 1 12.30822886261613 0.38860913326591656 10.803321342366148 0 1 1
1723 1 2.5814509490358777 21.525833175531602 5.485479478654043 1 0 0
5067 1 5.260878085154491 18.08069350308657 7.832903828005145 0 1 0
127 1 6.437779339313782 19.840206038522687 5.93633154241944 0 0 0
41 1 8.927970541862466 19.633840557430702 4.175815556364093 0 0 1
3341 1 10.624830847799714 17.162077216460304 3.1929667812643046 0 0 0
244 1 9.448010660841394 18.450968998687603 6.651285553045072 1 0 0
112 1 12.214582985548468 19.030389445623218 6.768780159506177 0 0 0
99 1 16.8959776077555 17.565163055881182 8.464806405343714 0 0 1
160 1 21.695471684564215 18.905931964706994 4.47089309787752 0 0 0
90 1 20.95322233724222 21.358725675130188 6.040617172168547 0 0 1
3386 1 0.38113526380124796 9.602895001870584 12.07975284304277 1 0 1
248 1 6.224416741039445 22.85720526418009 6.390676531619863 0 0 0
224 1 8.936683033594967 22.36779264809074 5.093176202197018 0 0 0
1834 1 11.294029632299884 14.699351676378628 19.278874252957205 0 0 0
1733 1 15.150098572094821 20.834851613874456 4.427228168576171 0 0 0
3809 1 2.5279512726338638 23.877817440695907 19.636987448679726 0 0 0
3588 1 18.100459240706286 20.297295231971443 5.233541627255177 0 0 1
2 1 17.525214970176705 23.41915804388707 6.876323052814165 0 1 1
30 1 15.137814013918453 21.668063169747043 6.9476581464078695 0 0 1
182 1 18.619577107363288 20.06501023143573 7.938850949962321 0 0 0
3545 1 23.07991921697267 22.371307096663607 7.780593759671629 -1 0 1
6388 1 0.06580738471945832 4.195111675769631 12.452559123426028 1 1 1
3537 1 23.84784067947058 9.230600640722153 17.518071479666084 0 0 0
158 1 8.641289148759254 11.272990379144577 0.3575120183629057 0 0 0
1630 1 3.5970940114585472 14.742502597203158 1.0557284778892424 0 0 1
5035 1 6.8137751409929255 1.9366299567551104 11.952276163556235 1 1 1
24 1 7.657295394331664 3.4844065256015444 9.917136607955253 0 0 1
261 1 10.88110733458971 2.492698934845277 11.989764056002159 0 1 0
1873 1 11.546690566358063 1.6700610613367064 8.472845652929568 0 1 0
198 1 17.271449444319394 0.5109800583816909 11.61056127402554 0 0 0
1875 1 18.507468914445074 3.498089899753208 10.01874959430911 0 1 0
98 1 22.74428313920606 0.4847055718847837 7.408896612654986 0 0 1
217 1 21.329883062270486 2.395041562965659 10.600952440606187 0 0 0
5175 1 5.159009298428917 4.3623545511806086 8.011740109783114 1 1 0
1884 1 5.032747242887351 6.21056382739398 11.003161592481126 0 1 0
3415 1 7.679099550581118 6.101548738992545 11.108991947126468 0 0 1
1949 1 10.386103774984234 4.006742001896862 9.543442920672538 0 0 0
175 1 10.578247006442277 6.777452639439317 7.718031777122372 0 0 0
1891 1 14.313122470192742 5.345065066103683 10.519579182905563 0 0 1
199 1 15.909768962946572 5.675660908156834 7.817068885236755 0 0 0
144 1 16.18910213027149 7.113628261817637 10.9182239308262 0 0 0
3500 1 18.53787553822167 5.082641141960344 7.925250305896333 0 1 1
1817 1 18.533035841611813 5.773513434077644 12.038397393954527 0 1 0
5075 1 1.800439326596009 6.073482902336324 11.190927593500344 1 1 0
264 1 1.352495404838914 8.708775517696827 9.237277389276876 1 0 0
79 1 4.144874104237308 7.289232231395922 8.390640815297257 0 1 1
148 1 5.741187357310795 10.291395730729059 9.4066106462613 0 0 0
3216 1 8.557869822737974 7.9574452042910355 9.15448864664735 0 1 1
136 1 9.103202593953789 10.661175020269123 9.655879631336948 0 1 0
83 1 11.739379017211725 10.856342256366625 8.779405904591957 0 1 0
202 1 16.86030457818883 8.895612114223717 8.751354875971765 1 0 0
87 1 12.4889527152962 8.418313194459596 8.832269102169668 1 0 0
3587 1 19.39632155704248 8.022195158610717 8.771873854772965 0 0 0
1 1 20.347561796749183 7.994277589949974 11.633752358649998 0 0 0
2090 1 24.013213653141126 2.3095019629440707 9.443938559814153 0 0 0
371 1 0.2232527951414477 18.304704223146768 8.104339261688821 1 0 0
101 1 6.710866662374877 13.223078137861096 10.220928897675847 1 0 1
3246 1 8.160507918055988 12.505724358764601 7.757329300856611 0 1 1
1889 1 13.733394539777644 12.309531027238158 10.170311086666048 0 1 0
207 1 16.16643620994973 11.018663760141495 10.522548945552572 0 1 0
150 1 18.11374106764638 12.825441785334863 10.493686619621005 0 0 0
225 1 22.57514018938936 12.666699005906803 9.627752469972078 0 0 0
247 1 22.33548633744753 10.969025288125044 12.017104961076823 0 0 0
1592 1 20.77125807909433 19.631303952334743 1.8764712745950216 0 0 1
4889 1 24.08853692838367 0.6558316525310719 2.5671473325356904 0 1 0
133 1 3.096050584795844 15.257952161817393 10.69872655064364 1 1 1
334 1 4.757158455644737 17.234135652440127 10.594033040507515 0 0 0
1603 1 6.287849956284862 16.281655727976563 12.605966684327065 1 0 0
89 1 8.456051381818634 16.657571643796434 10.929944096818916 0 1 0
120 1 10.171118832986634 16.552423825516904 13.198239005401287 0 0 0
102 1 10.391850306832179 16.594866196606127 8.723183616792337 0 0 0
166 1 14.316384217261202 14.236490482334494 8.415252566101229 1 0 0
288 1 13.077073335426396 16.73057385826977 9.631536494150685 0 0 0
218 1 16.633020904257016 15.055260542649279 9.516474123403206 0 0 1
17 1 23.32431792591378 17.7099745302185 8.418086459083751 0 0 1
137 1 22.992958413582453 15.35611426145363 10.492718655088273 0 1 0
3371 1 2.8209736023003154 19.585651750138368 7.401639870077408 1 0 0
47 1 3.0609014682801385 19.24601026370514 11.64621620386343 0 0 1
186 1 7.872189156993915 19.048122947317243 8.959092700935686 1 0 0
96 1 8.199714619922517 21.555921536648164 9.822096725907073 0 0 0
1778 1 10.974758558610517 21.643343517551102 9.314058197711292 0 0 0
296 1 14.41872502336095 19.128386946560788 8.656124704752461 0 0 0
95 1 15.49096662738496 21.06346994702306 10.452583784898557 0 1 0
3674 1 19.588733405011933 15.644992964190765 7.921160251316084 0 0 0
174 1 20.50770669831588 20.630613269516044 10.563316853798842 0 0 0
170 1 23.00305279591152 20.226179351289005 9.662699684453004 0 0 1
142 1 2.3242946413467647 21.16135484578413 9.573662179516779 0 0 0
1768 1 3.832684656220309 23.109708839195758 10.873367451870772 0 0 0
3098 1 6.231602734504946 23.65252169383451 9.388016829156893 0 0 0
312 1 13.15222295304021 22.946469568964947 10.30371146915371 0 0 0
4577 1 23.53358666878061 10.954993909795396 1.5218443701290454 0 0 1
289 1 17.961009065862385 22.469509215432684 9.640058179659631 0 0 0
313 1 17.672544549483682 19.930588295643624 17.544437125067304 0 0 0
3251 1 3.156545499870605 3.509575783745677 10.113156696664525 0 1 0
206 1 6.898578162577893 3.7524905916981712 14.338482840467474 0 0 0
5016 1 7.751924510487522 1.313362399395323 15.438580478782317 1 1 0
3360 1 23.547472923977914 21.207131851510017 13.208361143508307 0 0 1
1948 1 10.904351346806843 1.6923655936086721 14.770939959208238 1 0 0
2001 1 14.708544364413598 0.4976406626483731 12.557444021012977 0 1 0
271 1 13.879723817289824 3.318423887127801 12.800238933913626 0 1 0
356 1 16.06233325197823 3.837887241808214 14.7647538409907 0 0 0
1537 1 24.16103630457404 17.267002426740305 4.275287795606021 0 1 1
214 1 17.963235835954634 2.0096886728828114 13.84577208039217 0 1 0
1951 1 22.775168259634317 2.7181951886813684 13.016106086332165 1 0 0
365 1 20.120362596145622 4.190567745435783 16.538795417633715 0 0 0
5321 1 3.3457174953544184 6.474478267026707 15.159852871885521 1 0 0
5251 1 4.392005952754187 4.614947297031552 13.2067602856765 0 0 0
3459 1 5.711239973803311 5.231173372758204 16.65024933923474 1 0 0
29 1 11.855753464620895 6.18069962807625 10.68137292897614 1 0 0
3526 1 8.63613138538474 5.991665148989179 13.588692864880324 1 0 0
69 1 11.369331968934997 5.128967142334373 13.648634712266146 0 1 0
195 1 12.994011493181127 8.012207117722342 16.79877985458244 0 1 0
458 1 17.101027802094872 6.3158307585153795 14.727326074696208 0 0 0
169 1 20.16855119732128 4.0500959556949905 13.86253178574596 0 0 1
3584 1 0.31970525690812057 9.262766692244488 15.108433921530773 1 0 0
140 1 2.3430548711132184 8.23284250047847 13.122550899748134 0 0 0
50 1 5.006068849625993 8.966477513496889 12.17307691590205 1 0 0
474 1 6.536612033965575 10.205071491145018 13.901230066178305 0 0 0
462 1 8.517605176590864 8.4106123240228 14.93776368060958 0 0 0
395 1 12.416901603952294 7.839907660080218 13.430547205003176 0 0 0
213 1 10.941548567462537 10.010812786088843 14.558029499137152 0 0 1
2062 1 15.28308986824072 7.804672438859294 13.381765824621741 1 1 0
2007 1 16.816605412998324 9.940477064544263 13.130005361262317 0 1 0
314 1 19.951696943791312 10.259820728854562 13.220910132607292 0 0 0
5193 1 22.389525700003873 6.3681219928510755 12.989515537753338 0 1 0
3350 1 24.06868360061985 8.021606602390024 14.974354655392437 0 0 0
228 1 5.091152228534822 14.226013143463057 14.863885199953552 1 0 0
416 1 5.077372842781318 11.733658367296053 15.93753573033642 0 0 0
74 1 4.599319740340567 13.660256062823008 11.936125781803723 0 0 0
154 1 8.111498980439828 11.765693771211234 12.196196725465482 1 0 0
414 1 10.80669150420983 12.354692415582722 13.410952769259538 0 0 0
223 1 13.188277626447661 13.414080772330914 12.557963406619724 0 0 0
287 1 15.22745610129081 12.543118207184895 14.187027382533998 1 0 0
171 1 19.56850992253887 12.956077533335973 13.02614932858492 0 0 1
316 1 24.150129521294488 10.948431875045816 14.285881423137166 0 0 0
523 1 1.054852158059342 15.235260591514049 13.021419332719459 0 0 0
478 1 0.8272235289003455 15.50501606402086 17.980622893344755 0 0 0
1960 1 2.593256911087283 15.65892497335212 15.462141033043851 1 0 0
236 1 6.060413290563551 18.59082558718674 14.025908740482164 1 0 0
222 1 9.336810420189853 14.473209438066418 15.019873148782164 0 0 0
80 1 7.036660048884478 15.667458597586469 16.428399921774442 0 0 0
1840 1 12.964239287857831 16.328685712951764 12.441948406744205 0 0 0
403 1 17.032694147218898 14.590142038808379 14.400602246731422 0 0 0
345 1 16.076470762604824 16.46448416308307 12.180768163626563 0 0 0
231 1 20.97209965770539 16.42905250999646 16.911536315074667 0 0 0
290 1 22.094087668133042 17.14487835861458 14.495520588113502 0 0 0
343 1 20.810528873806888 15.5595304746857 12.530038410213974 0 1 0
1766 1 3.5387731533803297 18.456196898311347 15.559863619490423 0 0 0
303 1 1.2868466750581575 19.552327803048957 13.859491742573313 0 0 0
1894 1 5.035993278187079 21.158552171800075 12.929563307709612 0 0 0
300 1 7.802255004669661 18.48100250671555 16.379121031528403 1 0 0
163 1 9.32038335566897 19.383145159326645 13.937079555993028 0 0 0
59 1 13.897795987907493 18.740111316805976 13.987454849632705 1 0 0
571 1 11.594000262785936 19.978815478842325 15.092863383628982 0 0 0
1965 1 11.543193619855598 22.766124436388683 15.234781546422756 0 0 0
304 1 16.23636093849086 19.44101473197937 12.664514149698194 0 0 0
375 1 18.822158028110316 17.596973748470372 12.312258437398034 0 0 0
353 1 19.431886119652955 20.565206374765317 13.21984213705281 0 1 0
1865 1 17.16761455971089 20.89636720292858 14.948730493250144 0 0 0
3423 1 1.1612026286178097 8.447857871766033 2.784405065431745 1 0 0
497 1 13.905940045507702 23.043456669918356 16.580675139029676 0 0 0
319 1 0.3633864318534451 21.197707778264704 15.776650938631846 1 0 0
1841 1 4.321016211558308 22.633499513899437 15.444508301377178 1 0 0
251 1 6.993934023022868 23.606271166708623 16.31895255505446 0 0 0
3571 1 7.71568446171899 21.14313826181099 12.415678868259251 1 0 0
5298 1 8.528546422263132 23.27270444683089 14.002468702365224 1 0 0
1691 1 10.197263016896786 4.533699643394597 0.42858240575846346 0 1 1
366 1 9.634857489210532 23.531013482667685 17.28728560520676 0 0 0
1974 1 23.408971350478353 21.626528213552074 16.459672935476217 0 0 0
1836 1 16.61059829010414 23.635861635290457 15.317581514546175 0 0 0
352 1 19.755990663849975 17.89612932778019 9.694303565736153 0 0 0
413 1 14.463554632297713 21.686644212404634 19.03362742812255 0 0 0
1973 1 22.839767709531486 23.40325996460007 11.828405682547809 0 0 0
3624 1 2.331072336413449 2.4745934822688125 12.925568402849182 1 0 0
5276 1 21.49817167171307 20.015506589893448 15.070234691668912 0 0 0
226 1 4.1010656477980305 3.6746882703238306 18.533082670450636 1 0 0
277 1 8.219044370065491 2.4948887509629887 17.982611640367697 0 0 0
1606 1 20.983262324769303 12.326071631471438 1.8055243464374875 0 0 1
1804 1 10.478863142480673 4.286794169004836 16.533611359067923 0 0 0
383 1 12.802104661205567 1.8732518524294801 17.435878403913186 0 1 0
5415 1 17.251348043253472 0.919008829836356 16.65087292797833 0 1 0
3648 1 15.260216032505944 3.0954729353638823 17.129248876780256 0 1 0
203 1 18.445653705619684 1.551947723588581 18.987448645347175 0 0 0
367 1 11.80713382975237 10.219604531143695 19.255701139919427 0 0 0
177 1 17.48716383865473 22.149560833722802 19.161727838053956 0 0 0
423 1 21.09123215789865 7.13083146291847 19.77795123359457 0 0 0
3404 1 0.1069997344928483 4.749366942315801 6.3338253593298806 0 0 0
307 1 6.4217950393027765 3.2799752298450477 20.001379117521104 1 0 0
227 1 0.5630090537921233 15.751691720104327 6.920515593532229 0 0 0
448 1 14.127178553472831 18.727507972635888 19.55407772376239 0 0 0
338 1 10.829550961870348 6.746705353238085 17.9824196116594 0 1 0
3516 1 2.2686368986782157 3.33248205388172 2.488395101869556 0 0 0
3268 1 23.811538073871915 4.88229931616043 11.048733826633665 0 0 0
282 1 18.53069280382182 6.256818282830352 18.5875484343028 0 0 0
215 1 23.206745043167405 6.314578992624027 18.08033342983974 0 0 0
3645 1 1.9952885216634628 9.418048291073028 18.536423109393628 1 0 0
3318 1 3.647692726662663 7.243460572576374 18.64339488315125 1 0 0
405 1 20.589237740060128 20.031750727969698 17.768638599443474 0 0 0
5220 1 6.460114115137087 6.518388821488843 19.128306192803944 0 1 0
374 1 8.526424271331425 8.299490070010615 17.65684857021739 0 1 0
412 1 12.025276462169574 11.124689014456012 16.681406059330307 1 0 0
389 1 15.873381754526305 11.763748382725522 18.57919950510858 0 0 0
329 1 15.305606025912684 9.220587592386694 17.723922424817378 0 0 0
3632 1 17.672861113588272 8.182821653556438 16.78647410043776 0 1 0
305 1 19.855418769243034 9.566841685551308 16.06634387006137 0 0 0
3576 1 21.33881703576693 6.908953241335486 16.00301317343847 0 0 0
3222 1 12.730300621102462 1.1250518673276872 1.3549279335156204 0 0 1
237 1 2.206920691218962 10.994296656522804 16.46583026790272 1 0 0
350 1 6.0621073649139 12.01594429371222 18.523273574951833 0 0 0
294 1 8.537455987093788 10.894454965701112 18.621632354504644 1 0 0
26 1 9.964879784499105 13.168084940109113 17.36619493840126 0 0 0
422 1 14.276196616874858 12.566499931557994 16.652884834955895 0 0 0
229 1 18.27248308903231 15.41908117980132 16.953495747304572 0 0 0
370 1 18.466671765160527 12.74847992647251 18.19355943065248 0 0 0
475 1 21.2021296651487 11.399704546872341 17.824976479590994 0 0 0
267 1 1.8049653571949604 5.440900428422867 18.717577072457967 0 0 0
1449 1 0.9722417744952072 11.74901528297617 8.586861970646877 0 0 0
342 1 6.987065128018305 14.425820158169522 18.81467354656172 1 1 0
336 1 13.766729130237263 15.250825481570518 17.432298554184545 0 0 0
246 1 16.498107703931137 17.57245216806233 18.18590850172261 0 0 0
274 1 15.32832029779918 16.563652708868247 15.71959354242534 0 0 0
239 1 22.346171181966724 17.622991665156047 18.844945343110716 0 0 0
1612 1 2.085946662418333 13.121697942942536 4.09998978743688 0 0 0
1815 1 9.50006248008423 21.510083109147946 19.180397035793774 1 0 0
297 1 12.459853156114255 24.037046389271666 12.737136361419127 0 0 0
5191 1 3.1827010381723118 17.24413037545861 18.309757558378028 0 0 0
2045 1 6.521866498668451 20.86934082061851 17.50763282559766 1 0 0
3374 1 3.7439233120348976 20.72315060174447 17.328205785150526 1 0 0
379 1 10.684829110387222 19.550636036900443 17.606677427239216 0 0 0
1613 1 7.938430301319995 19.41261728983316 1.395717987149794 0 0 0
3578 1 21.05198361007492 1.7049270073001515 5.784022867992621 0 0 0
3395 1 0.23727627245374916 12.285057924426226 5.739012440549251 1 1 0
500 1 0.1713314722755292 9.499293242760425 5.428190347585126 0 0 0
575 1 1.8825929675534754 19.237609342444188 19.89049849567442 1 0 0
426 1 4.085744416774071 10.67931534808081 19.98612378907465 1 0 0
2014 1 13.239096672358432 2.4273397113843402 20.062397769830568 0 1 0
394 1 5.020040168650715 15.935484479824785 20.011634451265163 0 0 0
3608 1 23.699563739793096 2.1077633003014657 20.037920385964494 0 0 0
3078 1 15.188335790795763 2.1808932182908256 0.2964160584898252 0 1 0
425 1 0.5434142549055799 17.26268519562966 39.28137871118409 0 0 0
3810 1 2.8205656897306604 1.9607231681574968 20.50641096155201 0 1 0
1283 1 15.77018454572054 17.536426256882212 39.48286940956669 0 0 0
463 1 15.14879482526852 10.995038248765464 21.42065804456734 0 1 0
1872 1 5.690112918767013 1.954510364265949 22.28296647002679 1 1 0
409 1 7.2463914295951835 4.068044029397618 23.546359273343995 0 0 0
321 1 10.420198948049553 2.439445651659837 21.235572013617208 0 0 0
3606 1 0.9113987750760557 10.037584824841025 21.346038932807534 1 0 0
35 1 14.518830874108382 2.121109393731177 23.831342199468605 0 0 0
400 1 12.37795190830986 4.041223669408957 24.178728040576612 1 0 0
3164 1 6.394470082893403 0.014583163546121568 37.11371129145089 0 0 -1
337 1 17.067570294863707 2.6231309805252163 22.22122642685828 0 0 0
3709 1 24.120230554633746 4.571994471614522 21.310116298823843 0 1 0
2946 1 9.176342651893009 2.8792077879988467 39.31346983296425 0 0 0
3600 1 3.934714351337758 7.303698458848664 22.536510811289695 1 0 0
388 1 4.667828106388627 5.127693107626912 24.25170521280203 0 1 0
351 1 10.755974506144712 6.312405278020337 23.302302180993912 1 0 0
3295 1 7.870564694734836 7.271539844504796 23.195666213403477 1 1 0
279 1 12.629295320917358 8.461170060237386 21.055035904648566 1 0 0
278 1 13.004282281362228 8.115722676699859 23.94292587677042 0 0 0
396 1 16.99921557787483 6.165019371812122 23.962621176700495 0 0 0
557 1 23.568730009542513 18.162060414112062 36.2935187380922 0 0 0
2079 1 19.593626271242794 5.138083465017029 23.715002096423078 0 1 0
3609 1 21.70210426747826 6.468732155312736 22.54633676595452 0 0 0
360 1 6.64218077570095 21.556692960920575 20.306043850181307 0 0 0
390 1 23.66570859611288 8.57721467878199 23.537140360906683 0 1 0
380 1 3.211772208371944 9.762389558666472 23.01480760801097 0 0 0
333 1 6.0344629324061225 8.382814878661776 21.35599591957095 1 0 0
2140 1 14.521750139379337 0.2584300129686926 20.903144993836086 1 1 0
341 1 15.14033906051095 10.172900883679391 23.99244608467854 1 0 0
464 1 17.60375999209772 8.874586163650868 24.20828900807093 1 0 0
1261 1 22.57885798365174 13.439567243875983 39.70823386767931 0 1 0
439 1 18.018364139459024 10.092666644227585 21.688199989103325 0 0 0
510 1 16.293760000532746 12.362454545582786 39.27249929480932 0 1 0
3299 1 22.63399402789337 10.679163685871892 21.986084263354677 0 0 0
5281 1 2.092843761137514 13.058194002364788 23.654912607125556 0 0 0
5289 1 0.9123958075685346 15.095463209542732 20.85583114610277 1 0 0
456 1 9.810442588806495 9.359595161949864 24.081218322633728 0 1 0
2060 1 9.203503692411196 11.628433866028983 21.171114740395407 0 0 0
1968 1 3.384168206299439 21.56440952233951 20.694638225835142 0 0 0
335 1 11.559607206763335 11.036158698555449 22.597573897465857 0 0 0
3685 1 3.144879486730593 15.605588755345373 22.369580970729274 1 0 0
309 1 2.180656627089707 17.71642880436641 24.00301473206317 1 0 1
2860 1 16.861400779102265 23.098710329678354 36.34310227731906 0 0 0
2930 1 14.348291119175935 23.23250826507658 39.00052142361346 0 0 0
311 1 10.177364070474756 17.623994495431592 21.470330035313424 0 0 0
382 1 8.683440994135465 13.048905259198666 39.19506614135247 0 0 0
3701 1 23.118972586903098 17.78807640920097 38.94698609330867 0 0 0
486 1 4.13825076264173 19.71546236050652 24.117156685999966 0 0 0
2110 1 6.851308606873621 19.693845208947717 22.595235594890827 0 0 0
404 1 8.858951451108648 20.824069937012602 24.167517038812566 0 0 0
2029 1 10.94343777635672 19.01089929260039 23.908453601752985 0 0 0
1412 1 23.810627617501254 10.946785168241712 39.018778702535975 0 0 0
147 1 0.8924152254386352 3.8997785775627576 22.711876501926387 0 1 0
326 1 16.24166658422568 21.468942971132805 21.7758825669663 0 0 0
437 1 15.168254056531875 19.10246011000726 22.146253841540464 0 0 0
2012 1 20.56771987498373 9.838187771409467 20.39693514043675 0 1 0
2086 1 11.268478938732954 5.89829825479216 20.433803020444945 0 0 0
1777 1 2.9958943437304533 22.322697595327863 23.49795684748773 1 0 0
3740 1 19.510933076120573 21.720384403698894 36.33076927627243 0 0 0
4699 1 21.119392608461602 8.940405403057108 39.53595655802578 0 0 0
4610 1 3.9572582901776094 6.854851691480112 36.42691652943039 1 0 -1
1270 1 15.198044604235289 0.2682502494206389 39.25876679221953 0 1 0
2039 1 9.351707728666971 23.248913363308194 24.071773554754575 0 0 0
420 1 0.19811416805423407 22.605933851419266 23.587468067376705 1 0 0
4806 1 1.2241909344364625 0.24128096483289307 38.56835972113076 1 0 0
2200 1 13.252003293825059 23.264807208747857 20.915619250637622 0 0 0
427 1 13.697299046977507 22.702420749698305 23.6118424304762 1 0 0
2195 1 16.45755865098681 23.56122877910392 23.925776021071975 0 0 0
344 1 19.231796621766648 22.60359766037615 21.357186486522373 0 0 1
563 1 19.309150435243374 4.115879392652091 39.19003818109074 0 0 0
1979 1 4.524088885565231 24.412898929517056 24.135788028409742 0 0 0
2915 1 10.790761128000698 17.327682356073815 39.43742172705801 0 0 0
581 2 0.0 2.8417180249513345 26.677 0 0 0
583 2 0.0 0.0 26.677 0 0 0
585 2 1.2305 0.7104295062378347 26.677 0 0 0
592 2 1.2305 2.1312885187135 26.677 0 0 0