LAMMPS data file via write_data, version 16 Mar 2018, timestep = 6000000

5021 atoms
2 atom types

0.0000000000000000e+00 4.9219999999999999e+01 xlo xhi
0.0000000000000000e+00 4.9019635930410494e+01 ylo yhi
5.9394397925111875e-01 3.9406056020753589e+01 zlo zhi

Masses

1 18.015
2 12.01

Atoms # atomic

201 2 0.0000000000000000e+00 2.8417180249513345e+00 2.3574509732493825e+00 0 0 0
203 2 0.0000000000000000e+00 0.0000000000000000e+00 2.3574509732493825e+00 0 0 0
205 2 1.2305000000000001e+00 7.1042950623783474e-01 2.3574509732493825e+00 0 0 0
212 2 1.2305000000000001e+00 2.1312885187134998e+00 2.3574509732493825e+00 0 0 0
214 2 2.4610000000000003e+00 2.8417180249513345e+00 2.3574509732493825e+00 0 0 0
216 2 2.4610000000000003e+00 0.0000000000000000e+00 2.3574509732493825e+00 0 0 0
218 2 3.6915000000000004e+00 7.1042950623783474e-01 2.3574509732493825e+00 0 0 0
233 2 3.6914999999999996e+00 2.1312885187134998e+00 2.3574509732493825e+00 0 0 0
235 2 4.9220000000000006e+00 2.8417180249513332e+00 2.3574509732493825e+00 0 0 0
237 2 4.9220000000000006e+00 0.0000000000000000e+00 2.3574509732493825e+00 0 0 0
239 2 6.1524999999999999e+00 7.1042950623783407e-01 2.3574509732493825e+00 0 0 0
262 2 6.1524999999999999e+00 2.1312885187134989e+00 2.3574509732493825e+00 0 0 0
264 2 7.3829999999999991e+00 2.8417180249513345e+00 2.3574509732493825e+00 0 0 0
266 2 7.3829999999999991e+00 0.0000000000000000e+00 2.3574509732493825e+00 0 0 0
268 2 8.6134999999999984e+00 7.1042950623783407e-01 2.3574509732493825e+00 0 0 0
299 2 8.6134999999999984e+00 2.1312885187135002e+00 2.3574509732493825e+00 0 0 0
208 2 0.0000000000000000e+00 4.2625770374269996e+00 2.3574509732493825e+00 0 0 0
210 2 1.2305000000000001e+00 4.9730065436648339e+00 2.3574509732493825e+00 0 0 0
225 2 1.2305000000000001e+00 6.3938655561404980e+00 2.3574509732493825e+00 0 0 0
229 2 2.4610000000000003e+00 4.2625770374269996e+00 2.3574509732493825e+00 0 0 0
231 2 3.6914999999999996e+00 4.9730065436648339e+00 2.3574509732493825e+00 0 0 0
254 2 3.6914999999999996e+00 6.3938655561404980e+00 2.3574509732493825e+00 0 0 0
206 2 0.0000000000000000e+00 7.1042950623783341e+00 2.3574509732493825e+00 0 0 0
227 2 2.4610000000000003e+00 7.1042950623783341e+00 2.3574509732493825e+00 0 0 0
258 2 4.9220000000000006e+00 4.2625770374269978e+00 2.3574509732493825e+00 0 0 0
260 2 6.1524999999999999e+00 4.9730065436648339e+00 2.3574509732493825e+00 0 0 0
291 2 6.1524999999999999e+00 6.3938655561404980e+00 2.3574509732493825e+00 0 0 0
295 2 7.3829999999999991e+00 4.2625770374269996e+00 2.3574509732493825e+00 0 0 0
297 2 8.6135000000000002e+00 4.9730065436648339e+00 2.3574509732493825e+00 0 0 0
336 2 8.6135000000000002e+00 6.3938655561404980e+00 2.3574509732493825e+00 0 0 0
256 2 4.9220000000000006e+00 7.1042950623783341e+00 2.3574509732493825e+00 0 0 0
293 2 7.3830000000000009e+00 7.1042950623783341e+00 2.3574509732493825e+00 0 0 0
221 2 0.0000000000000000e+00 8.5251540748539991e+00 2.3574509732493825e+00 0 0 0
223 2 1.2305000000000001e+00 9.2355835810918343e+00 2.3574509732493825e+00 0 0 0
250 2 2.4610000000000003e+00 8.5251540748539991e+00 2.3574509732493825e+00 0 0 0
252 2 3.6915000000000004e+00 9.2355835810918343e+00 2.3574509732493825e+00 0 0 0
219 2 0.0000000000000000e+00 1.1366872099805333e+01 2.3574509732493825e+00 0 0 0
246 2 1.2305000000000001e+00 1.0656442593567498e+01 2.3574509732493825e+00 0 0 0
248 2 2.4610000000000003e+00 1.1366872099805333e+01 2.3574509732493825e+00 0 0 0
283 2 3.6914999999999996e+00 1.0656442593567499e+01 2.3574509732493825e+00 0 0 0
287 2 4.9220000000000006e+00 8.5251540748539991e+00 2.3574509732493825e+00 0 0 0
289 2 6.1524999999999999e+00 9.2355835810918343e+00 2.3574509732493825e+00 0 0 0
332 2 7.3830000000000009e+00 8.5251540748539991e+00 2.3574509732493825e+00 0 0 0
334 2 8.6134999999999984e+00 9.2355835810918343e+00 2.3574509732493825e+00 0 0 0
285 2 4.9220000000000006e+00 1.1366872099805333e+01 2.3574509732493825e+00 0 0 0
328 2 6.1524999999999999e+00 1.0656442593567499e+01 2.3574509732493825e+00 0 0 0
330 2 7.3829999999999991e+00 1.1366872099805333e+01 2.3574509732493825e+00 0 0 0
375 2 8.6134999999999984e+00 1.0656442593567498e+01 2.3574509732493825e+00 0 0 0
202 2 0.0000000000000000e+00 1.4208590124756650e+00 5.5868953565765604e+00 0 0 0
204 2 0.0000000000000000e+00 0.0000000000000000e+00 5.5868953565765604e+00 0 0 0
213 2 1.2305000000000001e+00 2.1312885187134998e+00 5.5868953565765604e+00 0 0 0
215 2 2.4610000000000003e+00 1.4208590124756650e+00 5.5868953565765604e+00 0 0 0
217 2 2.4610000000000003e+00 0.0000000000000000e+00 5.5868953565765604e+00 0 0 0
234 2 3.6914999999999996e+00 2.1312885187134998e+00 5.5868953565765604e+00 0 0 0
211 2 1.2305000000000001e+00 3.5521475311891644e+00 5.5868953565765604e+00 0 0 0
232 2 3.6914999999999996e+00 3.5521475311891644e+00 5.5868953565765604e+00 0 0 0
530 2 0.0000000000000000e+00 2.8417180249513345e+00 8.8163397399042633e+00 0 0 0
531 2 0.0000000000000000e+00 0.0000000000000000e+00 8.8163397399042633e+00 0 0 0
532 2 1.2305000000000001e+00 7.1042950623783474e-01 8.8163397399042633e+00 0 0 0
536 2 1.2305000000000001e+00 2.1312885187134998e+00 8.8163397399042633e+00 0 0 0
537 2 2.4610000000000003e+00 2.8417180249513345e+00 8.8163397399042633e+00 0 0 0
538 2 2.4610000000000003e+00 0.0000000000000000e+00 8.8163397399042633e+00 0 0 0
539 2 3.6915000000000004e+00 7.1042950623783474e-01 8.8163397399042633e+00 0 0 0
547 2 3.6914999999999996e+00 2.1312885187134998e+00 8.8163397399042633e+00 0 0 0
236 2 4.9220000000000006e+00 1.4208590124756650e+00 5.5868953565765604e+00 0 0 0
238 2 4.9220000000000006e+00 0.0000000000000000e+00 5.5868953565765604e+00 0 0 0
263 2 6.1524999999999999e+00 2.1312885187134989e+00 5.5868953565765604e+00 0 0 0
265 2 7.3829999999999991e+00 1.4208590124756659e+00 5.5868953565765604e+00 0 0 0
267 2 7.3829999999999991e+00 0.0000000000000000e+00 5.5868953565765604e+00 0 0 0
300 2 8.6134999999999984e+00 2.1312885187135002e+00 5.5868953565765604e+00 0 0 0
261 2 6.1524999999999999e+00 3.5521475311891644e+00 5.5868953565765604e+00 0 0 0
298 2 8.6134999999999984e+00 3.5521475311891657e+00 5.5868953565765604e+00 0 0 0
548 2 4.9220000000000006e+00 2.8417180249513332e+00 8.8163397399042633e+00 0 0 0
549 2 4.9220000000000006e+00 0.0000000000000000e+00 8.8163397399042633e+00 0 0 0
550 2 6.1524999999999999e+00 7.1042950623783407e-01 8.8163397399042633e+00 0 0 0
562 2 6.1524999999999999e+00 2.1312885187134989e+00 8.8163397399042633e+00 0 0 0
563 2 7.3829999999999991e+00 2.8417180249513345e+00 8.8163397399042633e+00 0 0 0
564 2 7.3829999999999991e+00 0.0000000000000000e+00 8.8163397399042633e+00 0 0 0
565 2 8.6134999999999984e+00 7.1042950623783407e-01 8.8163397399042633e+00 0 0 0
581 2 8.6134999999999984e+00 2.1312885187135002e+00 8.8163397399042633e+00 0 0 0
207 2 0.0000000000000000e+00 5.6834360499026637e+00 5.5868953565765604e+00 0 0 0
209 2 0.0000000000000000e+00 4.2625770374269996e+00 5.5868953565765604e+00 0 0 0
226 2 1.2305000000000001e+00 6.3938655561404980e+00 5.5868953565765604e+00 0 0 0
228 2 2.4610000000000003e+00 5.6834360499026637e+00 5.5868953565765604e+00 0 0 0
230 2 2.4610000000000003e+00 4.2625770374269996e+00 5.5868953565765604e+00 0 0 0
255 2 3.6914999999999996e+00 6.3938655561404980e+00 5.5868953565765604e+00 0 0 0
224 2 1.2305000000000001e+00 7.8147245686161639e+00 5.5868953565765604e+00 0 0 0
253 2 3.6914999999999996e+00 7.8147245686161639e+00 5.5868953565765604e+00 0 0 0
534 2 0.0000000000000000e+00 4.2625770374269996e+00 8.8163397399042633e+00 0 0 0
535 2 1.2305000000000001e+00 4.9730065436648339e+00 8.8163397399042633e+00 0 0 0
543 2 1.2305000000000001e+00 6.3938655561404980e+00 8.8163397399042633e+00 0 0 0
545 2 2.4610000000000003e+00 4.2625770374269996e+00 8.8163397399042633e+00 0 0 0
546 2 3.6914999999999996e+00 4.9730065436648339e+00 8.8163397399042633e+00 0 0 0
558 2 3.6914999999999996e+00 6.3938655561404980e+00 8.8163397399042633e+00 0 0 0
533 2 0.0000000000000000e+00 7.1042950623783341e+00 8.8163397399042633e+00 0 0 0
544 2 2.4610000000000003e+00 7.1042950623783341e+00 8.8163397399042633e+00 0 0 0
257 2 4.9220000000000006e+00 5.6834360499026637e+00 5.5868953565765604e+00 0 0 0
259 2 4.9220000000000006e+00 4.2625770374269978e+00 5.5868953565765604e+00 0 0 0
292 2 6.1524999999999999e+00 6.3938655561404980e+00 5.5868953565765604e+00 0 0 0
294 2 7.3829999999999991e+00 5.6834360499026637e+00 5.5868953565765604e+00 0 0 0
296 2 7.3829999999999991e+00 4.2625770374269996e+00 5.5868953565765604e+00 0 0 0
337 2 8.6135000000000002e+00 6.3938655561404980e+00 5.5868953565765604e+00 0 0 0
290 2 6.1524999999999999e+00 7.8147245686161639e+00 5.5868953565765604e+00 0 0 0
335 2 8.6135000000000002e+00 7.8147245686161639e+00 5.5868953565765604e+00 0 0 0
560 2 4.9220000000000006e+00 4.2625770374269978e+00 8.8163397399042633e+00 0 0 0
561 2 6.1524999999999999e+00 4.9730065436648339e+00 8.8163397399042633e+00 0 0 0
577 2 6.1524999999999999e+00 6.3938655561404980e+00 8.8163397399042633e+00 0 0 0
579 2 7.3829999999999991e+00 4.2625770374269996e+00 8.8163397399042633e+00 0 0 0
580 2 8.6135000000000002e+00 4.9730065436648339e+00 8.8163397399042633e+00 0 0 0
600 2 8.6135000000000002e+00 6.3938655561404980e+00 8.8163397399042633e+00 0 0 0
559 2 4.9220000000000006e+00 7.1042950623783341e+00 8.8163397399042633e+00 0 0 0
578 2 7.3830000000000009e+00 7.1042950623783341e+00 8.8163397399042633e+00 0 0 0
220 2 0.0000000000000000e+00 9.9460130873296642e+00 5.5868953565765604e+00 0 0 0
222 2 0.0000000000000000e+00 8.5251540748539991e+00 5.5868953565765604e+00 0 0 0
249 2 2.4610000000000003e+00 9.9460130873296642e+00 5.5868953565765604e+00 0 0 0
251 2 2.4610000000000003e+00 8.5251540748539991e+00 5.5868953565765604e+00 0 0 0
245 2 1.2305000000000001e+00 1.2077301606043163e+01 5.5868953565765604e+00 0 0 0
247 2 1.2305000000000001e+00 1.0656442593567498e+01 5.5868953565765604e+00 0 0 0
282 2 3.6914999999999996e+00 1.2077301606043163e+01 5.5868953565765604e+00 0 0 0
284 2 3.6914999999999996e+00 1.0656442593567499e+01 5.5868953565765604e+00 0 0 0
541 2 0.0000000000000000e+00 8.5251540748539991e+00 8.8163397399042633e+00 0 0 0
542 2 1.2305000000000001e+00 9.2355835810918343e+00 8.8163397399042633e+00 0 0 0
556 2 2.4610000000000003e+00 8.5251540748539991e+00 8.8163397399042633e+00 0 0 0
557 2 3.6915000000000004e+00 9.2355835810918343e+00 8.8163397399042633e+00 0 0 0
540 2 0.0000000000000000e+00 1.1366872099805333e+01 8.8163397399042633e+00 0 0 0
554 2 1.2305000000000001e+00 1.0656442593567498e+01 8.8163397399042633e+00 0 0 0
555 2 2.4610000000000003e+00 1.1366872099805333e+01 8.8163397399042633e+00 0 0 0
573 2 3.6914999999999996e+00 1.0656442593567499e+01 8.8163397399042633e+00 0 0 0
286 2 4.9220000000000006e+00 9.9460130873296642e+00 5.5868953565765604e+00 0 0 0
288 2 4.9220000000000006e+00 8.5251540748539991e+00 5.5868953565765604e+00 0 0 0
331 2 7.3830000000000009e+00 9.9460130873296642e+00 5.5868953565765604e+00 0 0 0
333 2 7.3830000000000009e+00 8.5251540748539991e+00 5.5868953565765604e+00 0 0 0
327 2 6.1524999999999999e+00 1.2077301606043163e+01 5.5868953565765604e+00 0 0 0
329 2 6.1524999999999999e+00 1.0656442593567499e+01 5.5868953565765604e+00 0 0 0
374 2 8.6135000000000002e+00 1.2077301606043163e+01 5.5868953565765604e+00 0 0 0
376 2 8.6134999999999984e+00 1.0656442593567498e+01 5.5868953565765604e+00 0 0 0
575 2 4.9220000000000006e+00 8.5251540748539991e+00 8.8163397399042633e+00 0 0 0
576 2 6.1524999999999999e+00 9.2355835810918343e+00 8.8163397399042633e+00 0 0 0
598 2 7.3830000000000009e+00 8.5251540748539991e+00 8.8163397399042633e+00 0 0 0
599 2 8.6134999999999984e+00 9.2355835810918343e+00 8.8163397399042633e+00 0 0 0
574 2 4.9220000000000006e+00 1.1366872099805333e+01 8.8163397399042633e+00 0 0 0
596 2 6.1524999999999999e+00 1.0656442593567499e+01 8.8163397399042633e+00 0 0 0
597 2 7.3829999999999991e+00 1.1366872099805333e+01 8.8163397399042633e+00 0 0 0
620 2 8.6134999999999984e+00 1.0656442593567498e+01 8.8163397399042633e+00 0 0 0
2144 1 2.3994956184458212e+00 3.1422265992081071e+00 1.1384318857166081e+01 -1 2 0
3953 1 2.3580885651268417e+00 3.4045353876790889e+00 1.4311914777406542e+01 1 1 0
3596 1 1.9635734680663433e+00 2.2127450736596571e-01 1.1477660428775165e+01 1 -1 0
104 1 9.4269056555913853e+00 5.0999205898510214e+00 1.4141090544729657e+01 1 -1 0
4830 1 7.0336130178755827e+00 5.7316430997699330e-01 1.4622207389567423e+01 1 1 -1
3567 1 7.2634974380024904e+00 3.1617000960465980e+00 1.1440568586365746e+01 0 3 1
2225 1 7.1493956568544155e+00 3.3168964124748883e+00 1.4410384307758259e+01 3 2 0
3875 1 2.5122235741477703e+00 5.4879376405136149e-01 1.4663356699167560e+01 2 0 0
3408 1 4.9109842276158613e+00 4.8333901364639384e+00 1.4288879771166327e+01 2 -1 0
953 1 4.5760330309690955e+00 7.5539751455970885e+00 1.3851170931170129e+01 0 1 0
3637 1 4.7134185403387212e+00 7.2525729934143692e+00 1.1117285654838474e+01 -2 -1 0
1308 1 5.1458940255534076e+00 4.4850056571782835e+00 1.1507469284369449e+01 1 2 -1
2671 1 4.3337590918210962e+00 1.0262634893441820e+01 1.8274016787817871e+01 2 3 0
3702 1 8.7453835380177232e+00 1.0138002821056828e+01 1.8225860010016262e+01 2 -1 0
1186 1 6.4926404518806686e+00 8.6414679632752751e+00 1.7354202009812415e+01 0 0 0
3789 1 2.1456286348050222e+00 1.1274486174548139e+01 1.1377163123660916e+01 0 1 1
1211 1 2.4115345155927743e+00 8.6251033925742515e+00 1.1359959872198973e+01 -1 1 0
2407 1 2.1456287598921975e+00 9.0265871462981853e+00 1.4754975084903375e+01 1 3 -1
2244 1 2.3273662709812628e+00 1.1726263747228042e+01 1.4235370816173663e+01 0 0 -1
1317 1 7.0611844911302875e+00 1.1425702073458440e+01 1.1420916454339613e+01 0 1 0
3842 1 7.0499912689088493e+00 8.9159363323705225e+00 1.4552019870686697e+01 -1 1 0
119 1 6.9839124410254145e+00 8.7973303831744118e+00 1.1522126980879960e+01 -1 0 0
2512 1 7.2578493913794215e+00 1.1871716735053946e+01 1.4163313934021122e+01 2 2 -1
107 1 2.2108462229324002e+00 6.7497087564017122e-01 1.7298429542201561e+01 -2 3 0
11 1 4.4629716615718200e+00 1.7990769321690676e+00 1.8278219139729273e+01 -2 0 1
5019 1 7.0045828725753880e+00 4.8590716800300965e-01 1.1473903977915764e+01 2 1 0
116 1 9.1135829634541814e+00 1.6112762891163346e+00 1.8273378364753221e+01 1 1 0
1052 1 4.0508530429876579e+00 4.4950636540798046e+00 1.7185945592757047e+01 -1 1 -1
911 1 1.8429896242115451e+00 6.1869220510632941e+00 1.8471234182473829e+01 1 2 0
2422 1 8.6644396413330220e+00 3.9773130154419096e+00 1.6988811606188662e+01 -1 3 0
1265 1 6.4883847395662393e+00 5.6851434687301170e+00 1.8003654724967660e+01 1 0 0
60 1 2.0686258370515294e+00 8.7344279060059122e+00 1.7694564338866364e+01 0 0 0
3945 1 6.8327551959134354e+00 4.3114153160483237e-01 1.7420633785462922e+01 0 2 0
194 1 9.4914943103647715e+00 4.6738228735182741e+00 1.1374647262470425e+01 -1 2 0
3751 1 9.3391103312385759e+00 7.6545334761139570e+00 1.4827282408552048e+01 -3 0 0
2357 1 9.3353352170926964e+00 7.4770614384512415e+00 1.1583789725859708e+01 -2 2 0
1023 1 4.3977890364067171e+00 2.0174053226002959e+00 2.1207803718086581e+01 -1 1 0
3442 1 2.3245794778417199e+00 4.0720194972102819e-01 2.4616696143563217e+01 -1 1 0
4817 1 8.8083713002016832e+00 1.0157067139147703e+01 2.5315597050827687e+01 -1 0 0
1233 1 8.7125225196526248e+00 1.5835447321809399e+00 2.1084455427727669e+01 0 2 -1
1393 1 8.6269048451578012e+00 4.2087089234223782e+00 2.4472131508532051e+01 0 1 0
4771 1 8.2692496663574442e+00 9.8772977271793660e+00 2.8049324764968336e+01 1 0 0
3506 1 4.4031948589235483e+00 4.6045663625096660e+00 2.1842582010430050e+01 2 2 -1
3693 1 1.8534709721207214e+00 6.2183503040331960e+00 2.1068370131218181e+01 -4 -3 0
3795 1 4.3960368157842913e+00 4.4661634863924418e+00 2.4384372412029915e+01 0 -1 0
3597 1 8.8452872250727701e+00 4.2385794010073115e+00 2.1753375821812501e+01 2 -2 0
4857 1 6.6219576415977466e+00 5.7490535824062725e+00 2.0623785683645711e+01 0 -1 0
4746 1 1.9381516129029275e+00 8.7144638765042401e+00 2.1439211920221158e+01 0 0 0
182 1 4.4008525583016000e+00 9.7717939775463911e+00 2.1109375052416866e+01 1 0 0
1053 1 1.9720652011084192e+00 8.3119874256358859e+00 2.4339347646274852e+01 1 0 0
3473 1 6.6958342941173763e+00 8.3869008743686742e+00 2.1581231028438715e+01 0 0 0
161 1 8.9262506026128019e+00 9.9643950923597426e+00 2.0955755793823730e+01 4 1 0
957 1 6.6222106637660412e+00 8.6956367648207635e+00 2.4338040244676712e+01 1 2 0
4671 1 1.8897716310058121e+00 4.5461948704226196e-01 2.1892535350141504e+01 2 -1 0
902 1 1.9923084257108363e+00 3.4307681046559235e+00 2.8934247390015567e+01 1 0 -1
3965 1 4.6963850581135489e+00 1.9708360860959648e+00 2.5523632713828597e+01 -1 -1 0
2301 1 4.0174448492112544e+00 1.9532701040938079e+00 2.8056391330554803e+01 -1 -1 0
3452 1 6.2076760794897865e+00 3.1814881119690308e+00 2.9104656762105360e+01 0 0 0
2399 1 8.9602125371523567e+00 1.4715820910216577e+00 2.5709849306636190e+01 -2 0 0
88 1 8.6202254165872159e+00 1.6242562532680096e+00 2.8495148826452663e+01 0 2 0
2218 1 4.0983680100832558e+00 7.3541234771284527e+00 2.8936788373276077e+01 1 -1 -1
4638 1 1.9500186828978461e+00 5.5867893701591163e+00 2.5192581339519172e+01 2 1 0
3668 1 2.0606733771029284e+00 5.9529400463104052e+00 2.7900374835151549e+01 -1 -3 0
1173 1 6.2157575582872049e+00 5.6812007681138343e+00 2.8079160750139820e+01 -1 1 -1
3436 1 6.3762612940710186e+00 5.9502420127485678e+00 2.5243005977363691e+01 -1 0 0
3642 1 8.6645292099077995e+00 7.1485627549933906e+00 2.8665671859638902e+01 -1 0 -1
1165 1 4.1012376358132734e+00 1.0071317744329715e+01 2.8125767212424808e+01 0 2 0
3522 1 4.2617478296080273e+00 9.9164885342167448e+00 2.5388669326261098e+01 1 1 0
3758 1 1.9432320476847462e+00 1.1596265848589242e+01 2.8806231682724626e+01 1 -2 0
1483 1 6.3563807622322734e+00 1.1523712280274136e+01 2.8732656810984249e+01 -1 -2 0
3610 1 6.7262008606580599e+00 3.6684443990175342e-01 2.4501734576609810e+01 1 0 -1
3532 1 6.4795180130368175e+00 2.7730287466003223e-01 2.1887448527742510e+01 -1 -2 0
2675 1 8.8053714028710317e-02 2.0838529968054074e+00 2.5073750529390640e+01 1 1 0
3654 1 2.0163769206461484e+00 3.3018821310507036e+00 3.1592601679922801e+01 2 0 0
2672 1 2.4373388254665400e+00 6.5073510849799032e-01 3.2569204522600295e+01 -1 -1 0
2480 1 6.7097351297631063e+00 2.9474050226961719e+00 3.1653531393710974e+01 2 -1 0
2311 1 6.8859227943975316e+00 1.1619206697570624e+01 3.5979599575322794e+01 1 0 0
947 1 4.3390276597807684e+00 4.6757968446758493e+00 3.2326601278781517e+01 -4 2 0
965 1 4.2311503257407947e+00 7.1444521205941403e+00 3.1581847587867983e+01 0 -1 0
973 1 8.9349139019699706e+00 4.6593646530752846e+00 3.2345571281447356e+01 -1 4 0
4711 1 8.6913656523956249e+00 7.1693283653869893e+00 3.1223925900067066e+01 0 0 0
4812 1 1.9091465315823211e+00 8.7932767206684161e+00 3.2778967836239715e+01 1 0 0
3846 1 1.8676495409121698e+00 1.1640790952308915e+01 3.1581687802731068e+01 -1 0 -1
2402 1 6.5938112412461232e+00 8.7179895869520472e+00 3.2085841355971908e+01 -1 1 0
1164 1 6.8564258253698371e+00 1.1452686724098276e+01 3.1254628131556515e+01 0 -5 0
1158 1 2.1468027603602073e+00 6.9930221969452711e-01 3.5524686106398278e+01 0 1 -1
4983 1 2.4959928728928595e+00 3.4097698882571406e+00 3.6235644112869053e+01 1 0 0
4720 1 2.3038305892010218e+00 2.7982398510116337e+00 3.8716656201484597e+01 3 -1 -1
4798 1 8.5932502952189141e-02 4.7395820158188897e+00 3.5223376963330708e+01 1 1 0
4775 1 7.2324085200925650e+00 5.3787705697857924e-01 3.5283302973631407e+01 0 1 0
4822 1 7.4382960709131893e+00 6.5054668731836496e-01 3.8455298681618771e+01 0 0 0
3919 1 6.9504470650596710e+00 3.3211632469406758e+00 3.8459214924433454e+01 0 -3 0
3557 1 7.3111690222365073e+00 3.4516058648807380e+00 3.5811812662951596e+01 -1 1 -1
2149 1 4.4325308279737552e+00 4.5734514924006850e+00 3.8857000112457897e+01 -1 0 -1
2211 1 9.4526900949121391e+00 4.7266711615296630e+00 3.8790545469887519e+01 1 1 0
4806 1 6.5472378737750958e+00 8.9296489214338006e+00 3.4911290011695485e+01 0 2 0
4998 1 4.7265853518438066e+00 4.4913640221383169e+00 3.5120045715017554e+01 0 1 0
4741 1 4.4750787778482986e+00 7.3547265276845479e+00 3.5837125098715759e+01 1 1 0
4659 1 4.4257309776115576e+00 7.2580097312179470e+00 3.8597649457938360e+01 4 -1 0
3598 1 6.8693352894348694e+00 8.8929628039647710e+00 3.8744232023039800e+01 1 -1 -1
2356 1 7.1405603650200069e+00 1.1698234498339296e+01 3.8628747326972487e+01 0 -1 -1
4856 1 2.2273233179023655e+00 1.1505821660019361e+01 3.8581600260952683e+01 0 2 0
4827 1 2.0907816583084120e+00 8.5737093760595258e+00 3.5594401498725290e+01 2 -2 -1
5020 1 2.1262369412147324e+00 8.3910679339442336e+00 3.8552452822745394e+01 -1 1 0
2154 1 2.2899419676454253e+00 1.1549591272684923e+01 3.5746386006072527e+01 -2 1 0
2507 1 6.6850116629680603e+00 5.2389968600703540e-01 3.2671270595815102e+01 -1 -2 0
2492 1 9.3603945466764031e+00 5.1378063108117358e+00 3.4936030251107454e+01 1 0 0
4935 1 9.0343813787231166e+00 7.4180442461807363e+00 3.8187519405369059e+01 -4 2 0
4797 1 9.0338681951720119e+00 7.9545998906655502e+00 3.5266052800355197e+01 0 0 -1
2235 1 2.3278341557312432e+00 2.0476703675676333e-02 3.8422592890821676e+01 4 2 0
242 2 0.0000000000000000e+00 1.2787731112280996e+01 2.3574509732493825e+00 0 0 0
244 2 1.2305000000000001e+00 1.3498160618518829e+01 2.3574509732493825e+00 0 0 0
279 2 2.4610000000000003e+00 1.2787731112280996e+01 2.3574509732493825e+00 0 0 0
281 2 3.6915000000000004e+00 1.3498160618518829e+01 2.3574509732493825e+00 0 0 0
240 2 0.0000000000000000e+00 1.5629449137232333e+01 2.3574509732493825e+00 0 0 0
275 2 1.2305000000000001e+00 1.4919019630994494e+01 2.3574509732493825e+00 0 0 0
277 2 2.4610000000000003e+00 1.5629449137232328e+01 2.3574509732493825e+00 0 0 0
320 2 3.6915000000000004e+00 1.4919019630994494e+01 2.3574509732493825e+00 0 0 0
324 2 4.9220000000000006e+00 1.2787731112280996e+01 2.3574509732493825e+00 0 0 0
326 2 6.1524999999999990e+00 1.3498160618518829e+01 2.3574509732493825e+00 0 0 0
371 2 7.3829999999999991e+00 1.2787731112280996e+01 2.3574509732493825e+00 0 0 0
373 2 8.6135000000000002e+00 1.3498160618518835e+01 2.3574509732493825e+00 0 0 0
322 2 4.9220000000000006e+00 1.5629449137232333e+01 2.3574509732493825e+00 0 0 0
367 2 6.1524999999999990e+00 1.4919019630994494e+01 2.3574509732493825e+00 0 0 0
369 2 7.3829999999999991e+00 1.5629449137232333e+01 2.3574509732493825e+00 0 0 0
414 2 8.6135000000000002e+00 1.4919019630994494e+01 2.3574509732493825e+00 0 0 0
271 2 0.0000000000000000e+00 1.7050308149707998e+01 2.3574509732493825e+00 0 0 0
316 2 2.4610000000000003e+00 1.7050308149707998e+01 2.3574509732493825e+00 0 0 0
269 2 0.0000000000000000e+00 1.9892026174659328e+01 2.3574509732493825e+00 0 0 0
273 2 1.2305000000000001e+00 1.7760737655945832e+01 2.3574509732493825e+00 0 0 0
312 2 1.2305000000000001e+00 1.9181596668421495e+01 2.3574509732493825e+00 0 0 0
314 2 2.4610000000000003e+00 1.9892026174659328e+01 2.3574509732493825e+00 0 0 0
318 2 3.6914999999999996e+00 1.7760737655945832e+01 2.3574509732493825e+00 0 0 0
359 2 3.6914999999999996e+00 1.9181596668421495e+01 2.3574509732493825e+00 0 0 0
363 2 4.9220000000000006e+00 1.7050308149707998e+01 2.3574509732493825e+00 0 0 0
410 2 7.3830000000000009e+00 1.7050308149707998e+01 2.3574509732493825e+00 0 0 0
361 2 4.9220000000000006e+00 1.9892026174659328e+01 2.3574509732493825e+00 0 0 0
365 2 6.1524999999999999e+00 1.7760737655945832e+01 2.3574509732493825e+00 0 0 0
406 2 6.1524999999999999e+00 1.9181596668421495e+01 2.3574509732493825e+00 0 0 0
408 2 7.3829999999999991e+00 1.9892026174659328e+01 2.3574509732493825e+00 0 0 0
412 2 8.6134999999999984e+00 1.7760737655945832e+01 2.3574509732493825e+00 0 0 0
448 2 8.6135000000000002e+00 1.9181596668421495e+01 2.3574509732493825e+00 0 0 0
306 2 0.0000000000000000e+00 2.4154603212086325e+01 2.3574509732493825e+00 0 0 0
308 2 0.0000000000000000e+00 2.1312885187134999e+01 2.3574509732493825e+00 0 0 0
310 2 1.2304999999999993e+00 2.2023314693372832e+01 2.3574509732493825e+00 0 0 0
351 2 1.2304999999999993e+00 2.3444173705848499e+01 2.3574509732493825e+00 0 0 0
353 2 2.4610000000000003e+00 2.4154603212086325e+01 2.3574509732493825e+00 0 0 0
355 2 2.4610000000000003e+00 2.1312885187134995e+01 2.3574509732493825e+00 0 0 0
357 2 3.6914999999999996e+00 2.2023314693372832e+01 2.3574509732493825e+00 0 0 0
398 2 3.6915000000000004e+00 2.3444173705848499e+01 2.3574509732493825e+00 0 0 0
400 2 4.9220000000000006e+00 2.4154603212086325e+01 2.3574509732493825e+00 0 0 0
402 2 4.9220000000000006e+00 2.1312885187134995e+01 2.3574509732493825e+00 0 0 0
404 2 6.1524999999999990e+00 2.2023314693372832e+01 2.3574509732493825e+00 0 0 0
440 2 6.1524999999999999e+00 2.3444173705848499e+01 2.3574509732493825e+00 0 0 0
442 2 7.3830000000000009e+00 2.4154603212086336e+01 2.3574509732493825e+00 0 0 0
444 2 7.3829999999999991e+00 2.1312885187134999e+01 2.3574509732493825e+00 0 0 0
446 2 8.6135000000000002e+00 2.2023314693372832e+01 2.3574509732493825e+00 0 0 0
474 2 8.6134999999999984e+00 2.3444173705848499e+01 2.3574509732493825e+00 0 0 0
243 2 0.0000000000000000e+00 1.2787731112280996e+01 5.5868953565765604e+00 0 0 0
280 2 2.4610000000000003e+00 1.2787731112280996e+01 5.5868953565765604e+00 0 0 0
241 2 0.0000000000000000e+00 1.4208590124756663e+01 5.5868953565765604e+00 0 0 0
276 2 1.2305000000000001e+00 1.4919019630994494e+01 5.5868953565765604e+00 0 0 0
278 2 2.4610000000000003e+00 1.4208590124756663e+01 5.5868953565765604e+00 0 0 0
321 2 3.6915000000000004e+00 1.4919019630994494e+01 5.5868953565765604e+00 0 0 0
552 2 0.0000000000000000e+00 1.2787731112280996e+01 8.8163397399042633e+00 0 0 0
553 2 1.2305000000000001e+00 1.3498160618518829e+01 8.8163397399042633e+00 0 0 0
571 2 2.4610000000000003e+00 1.2787731112280996e+01 8.8163397399042633e+00 0 0 0
572 2 3.6915000000000004e+00 1.3498160618518829e+01 8.8163397399042633e+00 0 0 0
551 2 0.0000000000000000e+00 1.5629449137232333e+01 8.8163397399042633e+00 0 0 0
569 2 1.2305000000000001e+00 1.4919019630994494e+01 8.8163397399042633e+00 0 0 0
570 2 2.4610000000000003e+00 1.5629449137232328e+01 8.8163397399042633e+00 0 0 0
592 2 3.6915000000000004e+00 1.4919019630994494e+01 8.8163397399042633e+00 0 0 0
325 2 4.9220000000000006e+00 1.2787731112280996e+01 5.5868953565765604e+00 0 0 0
372 2 7.3829999999999991e+00 1.2787731112280996e+01 5.5868953565765604e+00 0 0 0
323 2 4.9220000000000006e+00 1.4208590124756663e+01 5.5868953565765604e+00 0 0 0
368 2 6.1524999999999990e+00 1.4919019630994494e+01 5.5868953565765604e+00 0 0 0
370 2 7.3830000000000009e+00 1.4208590124756663e+01 5.5868953565765604e+00 0 0 0
415 2 8.6135000000000002e+00 1.4919019630994494e+01 5.5868953565765604e+00 0 0 0
594 2 4.9220000000000006e+00 1.2787731112280996e+01 8.8163397399042633e+00 0 0 0
595 2 6.1524999999999990e+00 1.3498160618518829e+01 8.8163397399042633e+00 0 0 0
618 2 7.3829999999999991e+00 1.2787731112280996e+01 8.8163397399042633e+00 0 0 0
619 2 8.6135000000000002e+00 1.3498160618518835e+01 8.8163397399042633e+00 0 0 0
593 2 4.9220000000000006e+00 1.5629449137232333e+01 8.8163397399042633e+00 0 0 0
616 2 6.1524999999999990e+00 1.4919019630994494e+01 8.8163397399042633e+00 0 0 0
617 2 7.3829999999999991e+00 1.5629449137232333e+01 8.8163397399042633e+00 0 0 0
640 2 8.6135000000000002e+00 1.4919019630994494e+01 8.8163397399042633e+00 0 0 0
272 2 0.0000000000000000e+00 1.7050308149707998e+01 5.5868953565765604e+00 0 0 0
274 2 1.2305000000000001e+00 1.6339878643470165e+01 5.5868953565765604e+00 0 0 0
317 2 2.4610000000000003e+00 1.7050308149707998e+01 5.5868953565765604e+00 0 0 0
319 2 3.6915000000000004e+00 1.6339878643470165e+01 5.5868953565765604e+00 0 0 0
270 2 0.0000000000000000e+00 1.8471167162183658e+01 5.5868953565765604e+00 0 0 0
313 2 1.2305000000000001e+00 1.9181596668421495e+01 5.5868953565765604e+00 0 0 0
315 2 2.4610000000000003e+00 1.8471167162183658e+01 5.5868953565765604e+00 0 0 0
360 2 3.6914999999999996e+00 1.9181596668421495e+01 5.5868953565765604e+00 0 0 0
567 2 0.0000000000000000e+00 1.7050308149707998e+01 8.8163397399042633e+00 0 0 0
590 2 2.4610000000000003e+00 1.7050308149707998e+01 8.8163397399042633e+00 0 0 0
566 2 0.0000000000000000e+00 1.9892026174659328e+01 8.8163397399042633e+00 0 0 0
568 2 1.2305000000000001e+00 1.7760737655945832e+01 8.8163397399042633e+00 0 0 0
588 2 1.2305000000000001e+00 1.9181596668421495e+01 8.8163397399042633e+00 0 0 0
589 2 2.4610000000000003e+00 1.9892026174659328e+01 8.8163397399042633e+00 0 0 0
591 2 3.6914999999999996e+00 1.7760737655945832e+01 8.8163397399042633e+00 0 0 0
612 2 3.6914999999999996e+00 1.9181596668421495e+01 8.8163397399042633e+00 0 0 0
364 2 4.9220000000000006e+00 1.7050308149707998e+01 5.5868953565765604e+00 0 0 0
366 2 6.1524999999999999e+00 1.6339878643470165e+01 5.5868953565765604e+00 0 0 0
411 2 7.3830000000000009e+00 1.7050308149707998e+01 5.5868953565765604e+00 0 0 0
413 2 8.6134999999999984e+00 1.6339878643470165e+01 5.5868953565765604e+00 0 0 0
362 2 4.9220000000000006e+00 1.8471167162183658e+01 5.5868953565765604e+00 0 0 0
407 2 6.1524999999999999e+00 1.9181596668421495e+01 5.5868953565765604e+00 0 0 0
409 2 7.3829999999999991e+00 1.8471167162183658e+01 5.5868953565765604e+00 0 0 0
449 2 8.6135000000000002e+00 1.9181596668421495e+01 5.5868953565765604e+00 0 0 0
614 2 4.9220000000000006e+00 1.7050308149707998e+01 8.8163397399042633e+00 0 0 0
638 2 7.3830000000000009e+00 1.7050308149707998e+01 8.8163397399042633e+00 0 0 0
613 2 4.9220000000000006e+00 1.9892026174659328e+01 8.8163397399042633e+00 0 0 0
615 2 6.1524999999999999e+00 1.7760737655945832e+01 8.8163397399042633e+00 0 0 0
636 2 6.1524999999999999e+00 1.9181596668421495e+01 8.8163397399042633e+00 0 0 0
637 2 7.3829999999999991e+00 1.9892026174659328e+01 8.8163397399042633e+00 0 0 0
639 2 8.6134999999999984e+00 1.7760737655945832e+01 8.8163397399042633e+00 0 0 0
657 2 8.6135000000000002e+00 1.9181596668421495e+01 8.8163397399042633e+00 0 0 0
311 2 1.2305000000000001e+00 2.0602455680897162e+01 5.5868953565765604e+00 0 0 0
358 2 3.6915000000000004e+00 2.0602455680897162e+01 5.5868953565765604e+00 0 0 0