LAMMPS data file via write_data, version 16 Mar 2018, timestep = 100000

6768 atoms
2 atom types

2.7829076967516286e-01 4.8941709230325110e+01 xlo xhi
2.7715790760413483e-01 4.8742478022806615e+01 ylo yhi
-6.8725187415878608e-01 6.0749251874157693e+01 zlo zhi

Masses

1 18.015
2 12.01

Atoms # atomic

1643 1 1.7900531149743617e+00 2.3206935315927012e+01 7.7899621581365501e+00 1 0 1
1838 1 5.9039966550068579e+00 4.4903079475481178e+00 2.9159266680349067e+00 1 0 0
5522 1 7.6506934569436948e+00 3.2852808117316217e+00 -1.3194479207771392e-02 1 0 0
1615 1 1.2331579084126327e+01 2.3583960796200415e+01 9.2025270818138907e+00 0 0 1
6705 1 1.1321997134552825e+01 3.5918807981051759e+00 7.6659613872432253e-01 0 0 1
5166 1 2.9357197075421992e+00 4.9773386678583247e+00 2.1659133494378624e+00 1 1 0
5290 1 2.9318531068291764e+00 1.0369697800583378e+01 3.2631891565647519e+00 1 0 0
1587 1 4.0148074297504053e+00 8.1368949929477470e+00 2.7462277169645488e+00 0 0 1
1621 1 1.2156346722542249e+01 8.3156159781041623e+00 2.4312948061649560e+00 -1 1 1
6606 1 1.5565633974382669e+00 8.5903187748017018e-01 3.4817234090005424e+00 -1 1 1
1535 1 9.0514290003428606e+00 4.5880289585281604e+00 2.3059875951198854e+00 2 -1 1
3167 1 9.6114017248838088e+00 7.2047524202673099e+00 2.5306661376087525e+00 -1 1 1
87 1 1.1976168070068516e+01 1.2517318881018939e+01 1.6613288313437931e+00 1 0 0
2128 1 8.4886857686461603e-01 1.1123805337958519e+01 1.5442522046614013e+00 1 0 0
377 1 5.2315533455890737e+00 2.3297012175715306e+01 9.3879671201772368e+00 0 0 0
1613 1 8.3976451933564427e+00 9.1824735419948100e-01 1.8876263074824928e+00 0 0 1
6607 1 7.4668979275454754e+00 1.1208792929327373e+01 1.6289945789167213e+00 2 0 1
2061 1 1.1308548010295791e+01 1.4054754316485127e+01 5.5180388661093982e+00 1 -1 0
5118 1 1.4337469491417705e+00 1.8639760733118646e+01 9.4962197675085509e+00 -1 0 0
3619 1 1.2055488812004713e+01 2.2952473576650185e+01 -5.5984193467678312e-01 0 2 0
2219 1 2.5380238233126811e+00 1.5007608975125965e+01 1.1719635075459236e+00 0 0 0
3673 1 1.0636289075185406e+01 1.7785207614259491e+01 7.7557889305392447e+00 0 -1 0
5331 1 5.2106864111732989e+00 1.2588298592417843e+01 1.7314033444326080e+00 0 0 0
6539 1 9.9420577168730393e+00 1.4073690389194798e+01 7.6652926295915069e-01 0 1 1
525 1 5.2568281225622178e+00 1.5928595663131022e+01 1.6233600438051150e+00 1 0 0
103 1 6.1363549788534604e+00 1.2504493789830344e+00 3.6733304410928307e+00 1 -1 0
3084 1 1.9776368539426492e+00 1.7361865487790439e+01 5.0191767742322724e-01 1 1 1
3556 1 4.6212194435118814e+00 1.8175103627043885e+01 3.2032357220434164e+00 1 -2 0
6531 1 2.1330564077289296e+00 1.9250718717051718e+01 2.9397631257827181e+00 3 0 1
1606 1 5.8227675299822641e+00 2.0783406253012597e+01 2.9316683315500502e+00 2 1 0
5409 1 9.8859814115484106e+00 1.8599729262720253e+01 3.8218595224537943e-01 3 -2 0
2339 1 1.2390344519542431e+01 1.7884418766360056e+01 2.6355108733372745e+00 -1 0 1
3877 1 9.4469213165246781e+00 1.7369176696805340e+01 3.3046209944957989e+00 2 1 0
2217 1 5.1470395426317905e-01 2.3607649298103230e+01 5.0880603567121909e+00 1 0 0
1770 1 4.5048093326684606e+00 2.0658359550049546e+01 5.5645001747336309e-01 0 0 1
3843 1 1.2011584916423587e+01 9.2664700882145734e+00 9.8057002943953080e+00 2 1 0
63 1 8.4415316018111657e+00 2.1161378534939942e+01 1.9303841045857353e+00 0 0 1
5318 1 1.0098336872694688e+01 2.1641012420691695e+01 3.8161433404442571e+00 2 0 0
3410 1 2.2643114202388750e+00 2.1740967970670697e+00 5.9482460163132869e+00 0 0 0
1899 1 3.1184693472139684e+00 6.6850228930831879e+00 -1.9074014245854143e-01 0 1 0
2315 1 1.1234329130370423e+01 2.2275035005619319e+01 1.1367052789229430e+01 1 1 1
2140 1 4.7529992302319384e+00 3.1658203849613331e+00 5.9047249866908116e+00 0 0 1
5156 1 5.1649946770801769e+00 5.8155439548466017e+00 6.9146015762039807e+00 1 1 0
3776 1 6.7173959427162906e+00 1.9977856407846735e+00 7.7936478141747543e+00 1 1 0
2046 1 1.1209315169810912e+01 2.4262369847151643e+01 3.7362935526137058e+00 1 1 0
3807 1 9.5280358490810571e+00 1.3535386221063128e+00 7.3313588701879375e+00 1 -2 0
223 1 1.0943205920545566e+01 1.0760197262496880e+00 4.7872112564110854e+00 1 1 0
3053 1 8.9426238885404086e+00 3.0991418622457712e+00 4.5550729960476186e+00 0 2 1
3369 1 1.7761540606054058e+00 6.8073043552506887e+00 4.2212105683814718e+00 0 1 0
1768 1 2.7385211315936897e+00 7.2690462625910861e+00 7.0380387235251360e+00 1 0 0
6577 1 5.9727514353847155e+00 6.8464582762870725e+00 4.1824371447821136e+00 0 1 1
3707 1 8.1263431694301573e+00 8.3343567315646556e+00 4.5298414351972314e+00 0 -1 0
5230 1 2.2354372914774121e+00 2.1309639643726236e+01 1.2911006602740029e+00 1 0 0
4779 1 9.8192700577065857e+00 7.6333507039251867e+00 6.2897278718777629e+00 0 1 1
2147 1 4.4247453978639850e+00 1.2465799367911604e+01 4.6040379939183147e+00 -1 1 0
4903 1 1.5684449408551029e+00 9.8043078529699184e+00 5.6904594621277722e+00 1 -1 1
6570 1 5.9205149902047713e+00 1.0033239534874381e+01 5.8562579622616635e+00 1 0 1
5059 1 7.1213160476188690e+00 1.3438619080572082e+01 4.3640108765238548e+00 0 -1 1
4706 1 1.8353469153531881e+00 8.8485860234613944e-01 9.8477569238342095e+00 0 0 1
1592 1 8.6856708942415182e+00 1.1111816524315437e+01 4.1478252264188988e+00 0 1 1
4945 1 1.1391114176155945e+01 1.1863353947180681e+01 4.1698032623303476e+00 1 2 1
2036 1 2.7801571979791655e+00 1.4431555138022453e+01 6.0428968064675592e+00 -1 -1 0
3823 1 3.6107102798880666e+00 1.7127909940933524e+01 5.4253095167409047e+00 1 1 0
3159 1 6.1571895910005461e+00 1.7266289224237294e+01 6.6067631136366423e+00 -1 0 1
3908 1 7.8728929844353432e+00 1.5275079253859561e+01 2.4951115362876140e+00 1 0 0
5188 1 7.5614799022122039e+00 1.4828936662713721e+01 6.4818404715764508e+00 0 1 0
2034 1 5.8669635116991170e+00 5.9186850020347892e+00 -5.5264129477448631e-02 1 0 0
3804 1 7.4501804649358956e+00 2.1263928043249365e+01 8.8813063518459661e+00 1 1 0
1315 1 1.1659896018461534e+01 1.2804764130962387e+00 2.2113246859482727e+00 1 2 1
375 1 1.9627132394119569e+00 1.8983144100510309e+01 6.8720102144989372e+00 0 0 0
1474 1 3.6753468047582332e+00 2.0925886731917846e+01 7.4210912408591660e+00 0 0 1
1653 1 7.3474261465131248e+00 1.8766799757231205e+01 4.6650521001275935e+00 1 0 1
3484 1 1.0604718795099963e+01 2.1393355126037267e+01 7.8998037949887490e+00 -1 1 0
6432 1 2.2774429540043188e+00 2.3234264621783844e+01 3.3723432073979325e+00 1 0 1
6563 1 7.5022980838887658e+00 2.4329937104139901e+01 1.0967198143803621e+01 1 1 0
4721 1 4.4649493930324073e+00 2.2039584847525795e+01 4.7942981345706768e+00 1 0 1
2099 1 6.1873029464340112e-01 3.0567404270885690e+00 1.9911929116441511e+00 0 0 0
6715 1 8.3114658163532198e+00 2.1402519529374025e+01 6.0351718824852609e+00 0 0 1
4796 1 7.6525880562101873e+00 2.4028548659372163e+01 4.8485891524666558e+00 1 0 1
6741 1 6.1007487631839243e+00 5.3402094245242537e+00 9.5849630183846966e+00 2 1 1
3853 1 3.2763937977025539e+00 3.1901699669608985e+00 1.0817254869054718e+01 1 1 0
5612 1 6.3361965744413107e+00 2.4372379810904330e+00 1.0644543034270765e+01 0 1 0
4818 1 8.7444029061178097e-01 2.1068615649455214e+01 1.0554062776279501e+01 1 -1 1
3336 1 1.0703641919406735e+01 3.1988321056730800e+00 8.7249590570475082e+00 0 2 0
3176 1 9.7086203890980158e+00 1.6364716914777649e+01 5.6302434900134202e+00 0 -1 1
5345 1 1.0020255937812990e+00 5.6808360144208958e+00 8.3129144250645979e+00 1 1 0
6562 1 1.8328137486199525e+00 5.5226221185585134e+00 1.0854558515696674e+01 1 2 1
5690 1 4.0489627736947398e+00 7.3082430222978640e+00 1.0829298489563961e+01 0 0 1
5608 1 9.6995466403337005e+00 4.9252082886243764e+00 6.7199653539111077e+00 2 1 0
5014 1 8.0673242249220074e+00 7.4729023116132813e+00 1.0497910777340200e+01 2 0 1
5451 1 1.7944442455155989e+00 9.6848023395312843e+00 1.0612496353410050e+01 1 1 0
6439 1 3.6651584391910887e+00 9.2840454941079322e+00 8.5987033128174435e+00 1 0 1
1800 1 2.1636635416059518e+00 1.1728083013592391e+01 7.6802647276218075e+00 1 1 0
4983 1 6.0910858615806056e+00 8.9676087201684052e+00 1.1494914131310940e+01 0 0 1
2184 1 6.4070024326644921e+00 1.0352091084565036e+01 9.1241722132793903e+00 0 0 1
5498 1 9.2751624288527648e+00 9.0208240424543913e+00 8.4694554058546867e+00 3 0 0
5015 1 8.5018330287166588e+00 1.1609249388738565e+01 7.0350680345100542e+00 1 0 0
1456 1 5.4112412180895504e+00 1.5337419681215048e+00 2.2208766017955694e-01 1 1 1
6560 1 3.5001688989369928e+00 1.4028028002870228e+01 8.6130357858067725e+00 1 1 1
1731 1 8.4090288541536573e-01 4.9301339933536763e+00 -6.1995608887278686e-01 1 0 1
440 1 7.8653969252791800e+00 1.4558160033839137e+01 9.4949812558175708e+00 0 0 0
2114 1 5.8663380790027828e+00 1.2834925914339104e+01 9.4880378553646771e+00 1 0 1
1969 1 5.2865996781511342e+00 1.8176005291198422e+01 1.0830221105889585e+01 -1 -1 0
2251 1 1.0723454822231400e+01 1.3237129988663810e+01 7.8365455113620968e+00 0 0 0
4918 1 8.6390524978170031e+00 1.1922883188142082e+01 -5.8886591153416035e-01 2 1 1
3468 1 3.1440755200418167e+00 1.6402995461919303e+01 1.0718581685171921e+01 2 -1 0
2123 1 5.5746144178214667e+00 1.9491185218374699e+01 8.6101793466196561e+00 0 1 0
2213 1 3.3038888699826297e+00 2.2511967801444989e+01 1.1255012404122693e+01 1 0 1
3634 1 1.0579630802038402e+01 1.4688667922692387e+01 1.0364793463996307e+01 0 1 0
4727 1 5.7824913650726151e+00 9.0350026503039302e+00 6.1676124894556716e-01 1 0 1
3280 1 1.2213845874682875e+01 1.6818110309155539e+01 9.9474466255068528e+00 0 0 1
5095 1 1.6565093909320399e+00 1.3150689302137780e+01 1.0871721934787901e+01 1 -1 1
6743 1 2.2982032828915173e+00 9.5693729813290709e+00 -4.7103948438394233e-01 0 1 0
5312 1 8.5189524935591763e+00 8.0622277319727402e+00 4.4567117858652594e-01 0 0 0
578 1 9.2676301538990984e+00 3.0242274093301136e+00 1.1026539535592665e+01 0 -1 1
1337 1 9.0337990690775580e+00 2.0715305928777727e+01 1.1151253120592399e+01 -1 1 1
2327 1 1.2158079196062456e+01 4.8472883017797548e+00 1.1190719155167450e+01 0 -1 1
2195 1 7.5933567345130104e+00 1.6921204904557097e+01 1.1134386372752987e+01 0 -1 0
5419 1 8.2744773480747202e+00 2.4450454680349054e+01 2.1860302858277154e+00 1 -1 0
3648 1 2.0135183804962304e+00 5.1909243678506707e+00 1.7386072108284253e+01 2 0 0
1330 1 4.0736598607308228e+00 2.8924548578379907e+00 1.3657906499551977e+01 0 1 1
3058 1 9.1681937981404293e-01 2.2172771255636480e+01 1.9553134577812958e+01 0 0 1
1721 1 9.9763138632758022e+00 3.1970677913236473e-01 1.2293756089922649e+01 1 -1 0
2124 1 1.1549227386982285e+01 1.3793642529452637e+00 1.4939485322146497e+01 1 2 0
1366 1 1.2560577452258199e+00 5.3774433425803627e+00 1.3590945838429455e+01 -1 0 1
6610 1 5.5985581698102118e+00 4.8471272072699234e+00 1.3015295500747710e+01 0 0 1
5631 1 8.3900252261453740e+00 4.2737507210285663e+00 1.3246317172761033e+01 0 1 0
1332 1 5.2488184913198808e+00 7.0308105078976899e+00 1.4134046755566404e+01 1 0 0
5426 1 6.5619374040003517e+00 6.6883039577582153e+00 1.6522809819319807e+01 1 0 0
3719 1 6.7896871365948623e+00 9.6634720147066933e+00 1.4248687261795155e+01 1 -1 0
1968 1 1.1719836759878028e+01 2.4358730517510178e+01 1.2807090279123827e+01 0 0 0
6600 1 5.4565040288025077e+00 3.9513223176093715e+00 1.7225134074800096e+01 1 0 1
3914 1 8.8193544254210394e+00 1.8596489549214532e+01 2.0959869729235564e+01 1 -1 1
5526 1 4.4911960199040735e+00 1.1337496550981932e+01 1.3847831213857445e+01 0 1 0
5207 1 1.0175915656899116e+01 1.0599816007765805e+01 1.4767923546247326e+01 1 0 0
5195 1 8.5948128597888598e+00 1.8631114480924509e+01 1.2861562295638805e+01 0 1 0
5023 1 2.2455889596736096e+00 5.6304081603472831e+00 2.1529808764243693e+01 -1 1 0
2142 1 1.0888585698274989e+01 1.2712483237611513e+01 2.3495409979806364e+01 0 1 0
1982 1 1.5044059750467422e+00 1.3722102993262078e+01 1.4786018480095322e+01 0 2 1
3074 1 5.0070796622690104e+00 3.3461553419424095e-01 1.5679362813584252e+01 0 1 1
1814 1 3.5573489854792735e+00 1.4906249572713447e+01 1.2895646834944500e+01 1 2 0
5534 1 6.4069587655462295e+00 1.5108395879390605e+01 1.5564196353634937e+01 1 1 0
1757 1 8.0894626344603182e+00 1.4524866863709830e+01 1.3375365168715289e+01 0 0 0
71 1 7.4325591533407698e-01 1.1390225450928806e+01 2.0752724991790963e+01 0 1 0
6624 1 1.0584844611571139e+01 1.3845268468755771e+01 1.4064456761748870e+01 1 0 0
3120 1 4.7440734781242311e+00 2.0206934309093942e+01 1.4686038676670846e+01 1 0 1
4968 1 4.4116436211843464e+00 1.7234586761788211e+01 1.5042768741844489e+01 -1 1 0
1945 1 1.1798349940809992e+01 1.7667520834824803e+01 1.2409095673264339e+01 1 1 0
3932 1 5.4778808518332562e+00 1.3257043986981735e+01 1.2123256266203127e+01 1 0 0
6622 1 1.0913487174283645e+01 3.0383112129050298e+00 2.0153347136500791e+01 -1 2 1
168 1 9.6482057797571716e+00 1.7464398419526287e+01 1.5464125972945723e+01 0 -1 0
3313 1 4.0759765649947113e+00 7.7216066101102925e+00 2.3763570013463436e+01 1 0 1
5391 1 2.1852087431302860e+00 2.1434803690654540e+01 1.4241941587962341e+01 0 0 0
1440 1 6.2581375639356329e-01 2.0168892929015847e+01 1.6279513611563470e+01 1 0 1
3639 1 9.5964959192029848e+00 6.6923656540822458e+00 1.2505700929717820e+01 0 1 0
2103 1 7.7569183450263317e+00 2.2268665324734918e+01 1.3261891893663925e+01 1 2 0
419 1 5.4178636892693337e+00 2.0726055625785992e+01 1.2077430516012805e+01 0 0 1
1708 1 1.9770711748499907e+00 3.0693576874580462e+00 1.5191325449780269e+01 1 0 1
4795 1 1.0050848742833468e+01 1.9900637547281544e+01 1.6827381708304038e+01 1 1 1
1839 1 1.0558643546077933e+01 2.1977019695001211e+01 1.5167628119509880e+01 -1 0 0
2268 1 1.1403441728272430e+00 1.4714281022284677e+01 2.3113130493641506e+01 1 1 0
1856 1 6.9247825765140387e+00 6.8640536238261687e+00 2.3137411554415369e+01 2 1 1
3798 1 3.2641207839484268e+00 1.8509944887988139e+00 1.7609168006594068e+01 0 1 1
3444 1 9.4578859763503011e+00 3.3379201605246256e+00 1.5331788136659565e+01 0 1 0
3879 1 4.2423464457641629e+00 2.8846838222770379e+00 2.1025376189774025e+01 1 1 1
6638 1 7.4680038691200137e+00 1.6395996400153701e+00 1.6767070271287082e+01 0 1 1
2027 1 1.0433105138220608e+01 7.2150807325973332e-01 1.9096846442937149e+01 0 0 0
3605 1 2.4941628792895725e+00 7.9322046844765337e+00 1.7128739519812250e+01 1 1 0
3220 1 5.2792515102406092e+00 8.9822654478122175e+00 1.7556692875869601e+01 1 -1 0
6 1 1.0060466918043007e+01 3.1304244351425496e+00 2.2724576018367799e+01 0 0 0
5141 1 9.0517695660089075e+00 8.3607061916886618e+00 1.5924502570778692e+01 0 0 0
5606 1 4.1620201506093588e+00 5.1554281039790641e+00 1.9247871457619524e+01 1 0 1
339 1 1.1646117203645087e+01 5.2228312568480204e+00 2.3628001540798028e+01 0 0 0
3845 1 2.5307246379521469e+00 1.8479183352881311e+01 2.1258858589158208e+01 1 -1 1
4853 1 1.0231943964117049e+01 5.8691761966195806e+00 1.6470752844385711e+01 0 0 1
6534 1 2.0182408839675041e+00 1.0671931993444584e+01 1.8004161505622836e+01 0 1 1
5508 1 2.7740267309423534e+00 1.3187411375114925e+01 1.6996759575167552e+01 0 0 0
3047 1 5.2482205457123996e+00 1.2551815715355193e+01 1.6285457003451253e+01 0 0 1
2199 1 6.8951019900421739e+00 1.1473682565096119e+01 1.8076462043725506e+01 0 1 0
5607 1 8.6904675631935220e+00 9.3122951124346116e+00 1.8420563035766527e+01 2 0 1
325 1 1.1378236972859948e+01 1.1876537391549032e+01 1.6541229594926044e+01 1 0 0
5349 1 3.7543347590014200e+00 1.0631428687623460e+01 2.1251101620867523e+01 1 0 0
1908 1 9.8233418935536712e+00 7.8873443316451510e+00 2.3057871580470636e+01 0 0 0
356 1 3.6384372689740951e+00 1.4612423311082637e+01 1.9591946363460178e+01 -1 1 0
1941 1 1.0787712998414140e+01 1.4677140916113917e+01 1.9010464252838641e+01 1 0 0
3043 1 8.6814315778187279e+00 1.3349171936484957e+01 1.7011197030276652e+01 0 1 1
105 1 1.0813731647916574e+01 2.4368779188154072e+01 1.6423806279926858e+01 1 0 1
3764 1 1.9391426040578850e+00 1.8044394054782479e+01 1.6309919855275574e+01 1 0 0
4724 1 3.8380977400184131e+00 1.7408500982466908e+01 1.8769968875024439e+01 1 0 1
279 1 7.6996603948825690e+00 1.6833532507931057e+01 1.7206905071095267e+01 0 -1 0
6744 1 6.0879254968685395e+00 1.9083375089245877e+01 1.7724408728795954e+01 1 0 1
1687 1 7.2422054381701901e+00 2.1385064022687509e+01 1.5847357560786836e+01 0 1 1
2163 1 5.5035367899346781e+00 1.7126544409093842e+01 2.1090119463540518e+01 1 0 0
4973 1 1.0901496897179875e+01 1.9361735349204356e+01 1.9118080316208264e+01 0 0 1
2998 1 1.1686312448324198e+01 1.5760079424031590e+01 1.5841128786373471e+01 -1 0 1
3546 1 3.6576532133473560e+00 2.3143461783817870e+01 1.9312465044791892e+01 0 -1 1
5316 1 3.9291876449152450e+00 2.1152107995356559e+01 2.3682473955568348e+01 1 0 0
5363 1 6.2894515970465230e+00 2.2771957047725707e+01 1.8182382459102438e+01 0 0 0
3949 1 8.2299319175643948e+00 2.2259497763777098e+01 2.0440977170484242e+01 0 0 1
3485 1 1.1372327098260097e+01 2.1841464510476015e+01 2.0542617155530515e+01 0 0 0
1656 1 4.6656159370490280e-01 2.9946837318714583e+00 1.8588639131104177e+01 0 0 1
3137 1 1.1595350888117316e+01 1.7084689703294067e+01 2.3098110923200284e+01 1 0 1
4806 1 2.6257836133235068e+00 7.3775132879618672e+00 1.4594184462332771e+01 0 0 1
139 1 7.6675297073658957e+00 2.0380176417464684e+00 1.9664950006384966e+01 1 0 1
1478 1 1.1163002744140096e+01 1.2096831301584519e+01 1.1766320462854567e+01 1 1 1
1766 1 1.1328358905018840e+01 2.1220312982092643e+01 2.3197792926617069e+01 0 0 1
6657 1 6.4844512831521275e+00 2.0043605827423026e+01 2.0276743786051732e+01 1 0 1
3076 1 5.1124963861491439e+00 1.6467770827629057e+01 2.3642274634823384e+01 2 1 1
4826 1 1.3973379381162265e+00 8.6022219022585293e+00 2.2164882814058490e+01 1 -1 1
4921 1 8.6803046359606473e+00 1.6246872419196777e+01 1.9643755793291000e+01 -1 0 1
451 1 1.4345738940007575e+00 2.5878030374656267e+00 2.1692467306150728e+01 1 0 0
2105 1 2.5656987923985310e+00 1.6897599546487228e+01 2.3492078269710170e+01 2 0 0
3805 1 3.9959442985171623e+00 2.0748929813445923e+01 2.1098876299151705e+01 1 -1 0
5155 1 1.0567302085745990e+01 5.3997825002077526e-01 2.3478900647623536e+01 0 1 0
1384 1 9.6702518163556146e+00 5.1361026075908285e+00 1.9010017649318797e+01 0 0 1
5408 1 7.1524993632722600e+00 4.5381486607843353e+00 1.9573711216771340e+01 2 1 0
470 1 4.6557591798644253e+00 8.0741003486947243e+00 2.0171695799552811e+01 0 -1 0
3489 1 1.0807992907401312e+01 7.5545328928275532e+00 2.0270033344420860e+01 0 0 0
2024 1 2.1331959046457269e+00 9.9422510586928947e+00 1.3483016508045564e+01 1 0 0
5481 1 7.5737292526045756e+00 4.2340152663582149e+00 2.2566947720658618e+01 0 -1 0
6430 1 5.3381389735386557e+00 1.2577472501112203e+01 2.0164573897682857e+01 0 1 1
3325 1 7.1891649112919742e+00 7.5389352309359534e+00 2.0395226732185520e+01 0 1 1
3386 1 8.6893506975046879e+00 2.1061733790592573e+01 2.3365102764870940e+01 0 0 1
5347 1 1.2948314447554554e+00 1.4133297377963869e+01 2.0631051959567507e+01 2 0 0
2161 1 1.1163369956320564e+01 1.0182875199913493e+01 1.9258257328864982e+01 1 1 0
3251 1 7.0873703425954258e+00 1.4543751759255400e+01 2.1476273163136376e+01 0 -1 0
5313 1 1.1495462226603115e+01 9.2376800189761550e+00 1.2888349521742978e+01 1 0 0
4901 1 1.1578044287714656e+01 1.2592869934924362e+01 2.0749148857671887e+01 1 0 0
1331 1 5.2554800140876212e+00 3.3697182616135608e+00 2.3846715891026410e+01 0 1 1
5226 1 8.4660106910301121e+00 1.4421016164566865e+01 2.3627820941715196e+01 2 1 1
3266 1 8.0873328484664544e+00 2.3746008195196740e+01 2.3251720514668570e+01 1 0 1
5238 1 2.7094275792520386e+00 2.3709600246350586e+01 2.3725640518574647e+01 1 -1 0
1727 1 2.8978943055677481e-01 1.9700778291210142e+01 2.0470460483898528e+01 0 0 0
6550 1 1.1919499585238915e+01 1.6714773776322676e+01 2.0454878785106889e+01 0 -1 1
1373 1 6.1426866623983467e-01 2.3884200351376158e+01 1.5061081759340613e+01 0 1 1
5473 1 8.7952691488922863e+00 1.7201454143831178e+01 2.3410211348231474e+01 0 1 0
623 2 2.7829076967516286e-01 3.0867416823985732e+00 2.6749421422083348e+01 0 0 0
625 2 2.7829076967516286e-01 2.7715790760413483e-01 2.6749421422083348e+01 0 0 0
627 2 1.4948762311914499e+00 9.7955385130274442e-01 2.6749421422083348e+01 0 0 0
634 2 1.4948762311914499e+00 2.3843457386999809e+00 2.6749421422083348e+01 0 0 0
636 2 2.7114616927077368e+00 3.0867416823985732e+00 2.6749421422083348e+01 0 0 0
638 2 2.7114616927077368e+00 2.7715790760413483e-01 2.6749421422083348e+01 0 0 0
640 2 3.9280471542238855e+00 9.7955385130274442e-01 2.6749421422083348e+01 0 0 0
655 2 3.9280471542238855e+00 2.3843457386999809e+00 2.6749421422083348e+01 0 0 0
1092 2 8.7943890002887475e+00 2.3456224049657997e+01 3.3312578577916668e+01 0 0 0
1382 1 5.5974123872876014e+00 5.7455122558460903e-01 2.3979492984414534e+01 1 -1 1
657 2 5.1446326157403108e+00 3.0867416823985732e+00 2.6749421422083348e+01 0 0 0
659 2 5.1446326157403108e+00 2.7715790760413483e-01 2.6749421422083348e+01 0 0 0
661 2 6.3612180772564049e+00 9.7955385130274442e-01 2.6749421422083348e+01 0 0 0
684 2 6.3612180772564049e+00 2.3843457386999809e+00 2.6749421422083348e+01 0 0 0
686 2 7.5778035387726081e+00 3.0867416823985732e+00 2.6749421422083348e+01 0 0 0
688 2 7.5778035387726081e+00 2.7715790760413483e-01 2.6749421422083348e+01 0 0 0
690 2 8.7943890002887475e+00 9.7955385130274442e-01 2.6749421422083348e+01 0 0 0
721 2 8.7943890002887475e+00 2.3843457386999809e+00 2.6749421422083348e+01 0 0 0
723 2 1.0010974461805459e+01 3.0867416823985732e+00 2.6749421422083348e+01 0 0 0
725 2 1.0010974461805459e+01 2.7715790760413483e-01 2.6749421422083348e+01 0 0 0
727 2 1.1227559923320928e+01 9.7955385130274442e-01 2.6749421422083348e+01 0 0 0
766 2 1.1227559923320928e+01 2.3843457386999809e+00 2.6749421422083348e+01 0 0 0
768 2 1.2444145384837647e+01 3.0867416823985732e+00 2.6749421422083348e+01 0 0 0
770 2 1.2444145384837647e+01 2.7715790760413483e-01 2.6749421422083348e+01 0 0 0
628 2 2.7829076967516286e-01 7.3011173445898105e+00 2.6749421422083348e+01 0 0 0
630 2 2.7829076967516286e-01 4.4915335697958270e+00 2.6749421422083348e+01 0 0 0
632 2 1.4948762311914499e+00 5.1939295134943597e+00 2.6749421422083348e+01 0 0 0
647 2 1.4948762311914499e+00 6.5987214008914856e+00 2.6749421422083348e+01 0 0 0
649 2 2.7114616927077368e+00 7.3011173445898105e+00 2.6749421422083348e+01 0 0 0
651 2 2.7114616927077368e+00 4.4915335697958270e+00 2.6749421422083348e+01 0 0 0
653 2 3.9280471542238855e+00 5.1939295134943597e+00 2.6749421422083348e+01 0 0 0
676 2 3.9280471542238855e+00 6.5987214008914856e+00 2.6749421422083348e+01 0 0 0
678 2 5.1446326157403108e+00 7.3011173445898105e+00 2.6749421422083348e+01 0 0 0
680 2 5.1446326157403108e+00 4.4915335697958270e+00 2.6749421422083348e+01 0 0 0
682 2 6.3612180772564049e+00 5.1939295134943597e+00 2.6749421422083348e+01 0 0 0
713 2 6.3612180772564049e+00 6.5987214008914856e+00 2.6749421422083348e+01 0 0 0
715 2 7.5778035387726081e+00 7.3011173445898105e+00 2.6749421422083348e+01 0 0 0
717 2 7.5778035387726081e+00 4.4915335697958270e+00 2.6749421422083348e+01 0 0 0
1106 2 1.2444145384837647e+01 2.4158619993356751e+01 3.3312578577916668e+01 0 0 0
719 2 8.7943890002887475e+00 5.1939295134943597e+00 2.6749421422083348e+01 0 0 0
758 2 8.7943890002887475e+00 6.5987214008914856e+00 2.6749421422083348e+01 0 0 0
760 2 1.0010974461805459e+01 7.3011173445898105e+00 2.6749421422083348e+01 0 0 0
762 2 1.0010974461805459e+01 4.4915335697958270e+00 2.6749421422083348e+01 0 0 0
764 2 1.1227559923320928e+01 5.1939295134943597e+00 2.6749421422083348e+01 0 0 0
805 2 1.1227559923320928e+01 6.5987214008914856e+00 2.6749421422083348e+01 0 0 0
807 2 1.2444145384837647e+01 7.3011173445898105e+00 2.6749421422083348e+01 0 0 0
809 2 1.2444145384837647e+01 4.4915335697958270e+00 2.6749421422083348e+01 0 0 0
641 2 2.7829076967516286e-01 1.1515493006781888e+01 2.6749421422083348e+01 0 0 0
643 2 2.7829076967516286e-01 8.7059092319875191e+00 2.6749421422083348e+01 0 0 0
645 2 1.4948762311914499e+00 9.4083051756861433e+00 2.6749421422083348e+01 0 0 0
668 2 1.4948762311914499e+00 1.0813097063083102e+01 2.6749421422083348e+01 0 0 0
670 2 2.7114616927077368e+00 1.1515493006781888e+01 2.6749421422083348e+01 0 0 0
672 2 2.7114616927077368e+00 8.7059092319875191e+00 2.6749421422083348e+01 0 0 0
674 2 3.9280471542238855e+00 9.4083051756861433e+00 2.6749421422083348e+01 0 0 0
705 2 3.9280471542238855e+00 1.0813097063083102e+01 2.6749421422083348e+01 0 0 0
1095 2 1.1227559923320928e+01 2.2051432162260848e+01 3.3312578577916668e+01 0 0 0
707 2 5.1446326157403108e+00 1.1515493006781888e+01 2.6749421422083348e+01 0 0 0
709 2 5.1446326157403108e+00 8.7059092319875191e+00 2.6749421422083348e+01 0 0 0
711 2 6.3612180772564049e+00 9.4083051756861433e+00 2.6749421422083348e+01 0 0 0
750 2 6.3612180772564049e+00 1.0813097063083102e+01 2.6749421422083348e+01 0 0 0
752 2 7.5778035387726081e+00 1.1515493006781888e+01 2.6749421422083348e+01 0 0 0
754 2 7.5778035387726081e+00 8.7059092319875191e+00 2.6749421422083348e+01 0 0 0
756 2 8.7943890002887475e+00 9.4083051756861433e+00 2.6749421422083348e+01 0 0 0
797 2 8.7943890002887475e+00 1.0813097063083102e+01 2.6749421422083348e+01 0 0 0
799 2 1.0010974461805459e+01 1.1515493006781888e+01 2.6749421422083348e+01 0 0 0
801 2 1.0010974461805459e+01 8.7059092319875191e+00 2.6749421422083348e+01 0 0 0
803 2 1.1227559923320928e+01 9.4083051756861433e+00 2.6749421422083348e+01 0 0 0
844 2 1.1227559923320928e+01 1.0813097063083102e+01 2.6749421422083348e+01 0 0 0
846 2 1.2444145384837647e+01 1.1515493006781888e+01 2.6749421422083348e+01 0 0 0
848 2 1.2444145384837647e+01 8.7059092319875191e+00 2.6749421422083348e+01 0 0 0
2222 1 3.1935331481282963e+00 1.0883963395744537e+01 2.3986129487773120e+01 1 1 0
662 2 2.7829076967516286e-01 1.5729868668973019e+01 2.6749421422083348e+01 0 0 0
664 2 2.7829076967516286e-01 1.2920284894178836e+01 2.6749421422083348e+01 0 0 0
666 2 1.4948762311914499e+00 1.3622680837877130e+01 2.6749421422083348e+01 0 0 0
697 2 1.4948762311914499e+00 1.5027472725274368e+01 2.6749421422083348e+01 0 0 0
699 2 2.7114616927077368e+00 1.5729868668973019e+01 2.6749421422083348e+01 0 0 0
701 2 2.7114616927077368e+00 1.2920284894178836e+01 2.6749421422083348e+01 0 0 0
703 2 3.9280471542238855e+00 1.3622680837877130e+01 2.6749421422083348e+01 0 0 0
742 2 3.9280471542238855e+00 1.5027472725274368e+01 2.6749421422083348e+01 0 0 0
3565 1 9.9417795054479852e-01 1.2498336928766626e+01 2.4392800440070310e+01 0 1 0
744 2 5.1446326157403108e+00 1.5729868668973019e+01 2.6749421422083348e+01 0 0 0
746 2 5.1446326157403108e+00 1.2920284894178836e+01 2.6749421422083348e+01 0 0 0
748 2 6.3612180772564049e+00 1.3622680837877130e+01 2.6749421422083348e+01 0 0 0
789 2 6.3612180772564049e+00 1.5027472725274368e+01 2.6749421422083348e+01 0 0 0
791 2 7.5778035387726081e+00 1.5729868668973019e+01 2.6749421422083348e+01 0 0 0
793 2 7.5778035387726081e+00 1.2920284894178836e+01 2.6749421422083348e+01 0 0 0
795 2 8.7943890002887475e+00 1.3622680837877130e+01 2.6749421422083348e+01 0 0 0
836 2 8.7943890002887475e+00 1.5027472725274368e+01 2.6749421422083348e+01 0 0 0
838 2 1.0010974461805459e+01 1.5729868668973019e+01 2.6749421422083348e+01 0 0 0
840 2 1.0010974461805459e+01 1.2920284894178836e+01 2.6749421422083348e+01 0 0 0
842 2 1.1227559923320928e+01 1.3622680837877130e+01 2.6749421422083348e+01 0 0 0
878 2 1.1227559923320928e+01 1.5027472725274368e+01 2.6749421422083348e+01 0 0 0
880 2 1.2444145384837647e+01 1.5729868668973019e+01 2.6749421422083348e+01 0 0 0
882 2 1.2444145384837647e+01 1.2920284894178836e+01 2.6749421422083348e+01 0 0 0
691 2 2.7829076967516286e-01 1.9944244331165034e+01 2.6749421422083348e+01 0 0 0
693 2 2.7829076967516286e-01 1.7134660556370903e+01 2.6749421422083348e+01 0 0 0
695 2 1.4948762311914499e+00 1.7837056500069195e+01 2.6749421422083348e+01 0 0 0
734 2 1.4948762311914499e+00 1.9241848387466607e+01 2.6749421422083348e+01 0 0 0
736 2 2.7114616927077368e+00 1.9944244331165034e+01 2.6749421422083348e+01 0 0 0
738 2 2.7114616927077368e+00 1.7134660556370903e+01 2.6749421422083348e+01 0 0 0
740 2 3.9280471542238855e+00 1.7837056500069195e+01 2.6749421422083348e+01 0 0 0
781 2 3.9280471542238855e+00 1.9241848387466607e+01 2.6749421422083348e+01 0 0 0
783 2 5.1446326157403108e+00 1.9944244331165034e+01 2.6749421422083348e+01 0 0 0
785 2 5.1446326157403108e+00 1.7134660556370903e+01 2.6749421422083348e+01 0 0 0
787 2 6.3612180772564049e+00 1.7837056500069195e+01 2.6749421422083348e+01 0 0 0
828 2 6.3612180772564049e+00 1.9241848387466607e+01 2.6749421422083348e+01 0 0 0
830 2 7.5778035387726081e+00 1.9944244331165034e+01 2.6749421422083348e+01 0 0 0
832 2 7.5778035387726081e+00 1.7134660556370903e+01 2.6749421422083348e+01 0 0 0
834 2 8.7943890002887475e+00 1.7837056500069195e+01 2.6749421422083348e+01 0 0 0
870 2 8.7943890002887475e+00 1.9241848387466607e+01 2.6749421422083348e+01 0 0 0
872 2 1.0010974461805459e+01 1.9944244331165034e+01 2.6749421422083348e+01 0 0 0
874 2 1.0010974461805459e+01 1.7134660556370903e+01 2.6749421422083348e+01 0 0 0
876 2 1.1227559923320928e+01 1.7837056500069195e+01 2.6749421422083348e+01 0 0 0
904 2 1.1227559923320928e+01 1.9241848387466607e+01 2.6749421422083348e+01 0 0 0
908 2 1.2444145384837647e+01 1.7134660556370903e+01 2.6749421422083348e+01 0 0 0
5168 1 1.0055633049625555e+01 1.0491953547215912e+01 3.5828586233978342e+01 0 0 -1
728 2 2.7829076967516286e-01 2.4158619993356751e+01 2.6749421422083348e+01 0 0 0
730 2 2.7829076967516286e-01 2.1349036218562070e+01 2.6749421422083348e+01 0 0 0
732 2 1.4948762311914499e+00 2.2051432162260848e+01 2.6749421422083348e+01 0 0 0
773 2 1.4948762311914499e+00 2.3456224049657997e+01 2.6749421422083348e+01 0 0 0
775 2 2.7114616927077368e+00 2.4158619993356751e+01 2.6749421422083348e+01 0 0 0
777 2 2.7114616927077368e+00 2.1349036218562070e+01 2.6749421422083348e+01 0 0 0
779 2 3.9280471542238855e+00 2.2051432162260848e+01 2.6749421422083348e+01 0 0 0
820 2 3.9280471542238855e+00 2.3456224049657997e+01 2.6749421422083348e+01 0 0 0
822 2 5.1446326157403108e+00 2.4158619993356751e+01 2.6749421422083348e+01 0 0 0
824 2 5.1446326157403108e+00 2.1349036218562070e+01 2.6749421422083348e+01 0 0 0
826 2 6.3612180772564049e+00 2.2051432162260848e+01 2.6749421422083348e+01 0 0 0