LAMMPS data file via write_data, version 16 Mar 2018, timestep = 6000000

6768 atoms
2 atom types

2.6186794720667805e-01 4.8958132052782972e+01 xlo xhi
2.6080193892292769e-01 4.8758833991487819e+01 ylo yhi
-7.0798532911179635e-01 6.0769985329090908e+01 zlo zhi

Masses

1 18.015
2 12.01

Atoms # atomic

3233 1 3.0419575468675117e+00 3.8974602639315150e+00 2.4613416247578881e+00 3 1 1
2226 1 1.4333946392498680e+00 2.3796419217578581e+01 -1.5948575296814005e-01 -2 1 1
5510 1 3.6091579557308817e+00 1.3177000925283380e+00 3.3033092354053251e+00 -1 0 1
1419 1 7.1185021267189148e+00 4.4726393694578821e+00 -2.7722031183436391e-01 0 2 1
5046 1 2.8044385167084753e+00 1.5794348857548474e+01 -4.0086191906170093e-01 -2 1 0
5007 1 3.8109354980237229e+00 2.2789743696568504e+01 9.3194795409100504e+00 -1 0 1
1635 1 1.0211872760252353e+01 8.7027332163226789e-01 2.3342908215225915e+00 1 -4 0
1321 1 9.9397442848768716e+00 8.8053442971727180e-01 -3.0482643362062600e-01 2 -2 1
2059 1 1.1594697568160239e+01 2.6951766897487039e+00 3.5971987955013427e+00 -2 1 0
3198 1 4.1366007078453801e+00 8.1925686937949926e+00 2.6567361115143751e+00 0 -1 1
5145 1 7.2244695457371790e+00 4.4281399374040982e+00 2.5242029896458051e+00 0 -1 0
3416 1 3.8523169266051505e+00 8.2051118230148177e+00 4.4104780170351354e-02 -1 0 0
4819 1 1.1360485564295065e+01 4.9726570328353077e+00 -1.3725815743717440e-01 -3 1 1
564 1 1.1634390811523714e+01 5.0621160570835464e+00 2.6030663235772802e+00 0 -2 1
2072 1 9.3373975288428657e+00 6.2336236566624637e+00 3.6510759102186618e+00 2 2 0
1936 1 1.3882740750967024e+00 1.1835977892267344e+01 2.1436706698404198e+00 2 2 0
1908 1 6.0806129685975643e+00 3.9720181027541257e-01 2.7445598460326659e+00 -1 1 0
5104 1 3.0881931542554013e+00 3.9831886846273270e+00 -2.4041602536180678e-01 3 1 0
3193 1 6.3602059859746918e+00 9.6773086405606925e+00 3.3426407264462519e+00 3 -2 1
4963 1 5.8192728299420802e+00 1.2143106079724474e+01 2.3508743837944075e+00 -1 1 1
3138 1 8.9032618179775813e+00 8.5928869321687475e+00 2.7331419346449746e+00 1 -2 1
4767 1 1.0536486959295436e+01 1.0699330782389280e+01 3.2841500080772126e+00 0 -1 1
6507 1 7.0395451191307510e+00 1.6633452818907799e+01 -1.7739035873605413e-01 4 1 1
192 1 3.1099792467841203e+00 1.5843028664602896e+01 2.2436078567031230e+00 0 1 0
1414 1 7.7856217667347316e+00 1.3596091714286818e+01 3.3827769321147771e+00 -1 2 1
4848 1 1.0011975499714421e+01 1.3090802306498567e+01 2.2664886270980706e+00 2 0 1
3393 1 3.1467990136929164e-01 1.6883419697245852e+01 1.0597915973921030e+01 0 1 1
4977 1 1.2033393376683893e+01 1.4798704805301700e+01 3.1258226671453326e+00 2 1 0
5395 1 4.0648766577125057e+00 2.0128642874112415e+01 2.2292816644633073e+00 1 -1 0
2001 1 1.2333935636266400e+01 1.2379903017117130e+01 9.4819746143179433e+00 1 0 0
5597 1 7.2891549585959137e+00 1.6508432086641356e+01 2.5299851953665313e+00 -2 -3 1
5112 1 4.8913924957599209e+00 1.7348294219307533e+01 2.8282796608476355e+00 1 -1 0
88 1 6.5716772476376617e-01 1.7165948911719191e+01 3.4832029383417824e+00 0 -4 1
6631 1 1.1492958937769140e+01 1.7347200064421131e+01 2.3210047536778307e+00 4 1 1
6498 1 9.1315469292818339e+00 1.8486146873683865e+01 3.4589946585951044e+00 0 3 1
1910 1 8.6698043233428717e+00 8.5796807411845109e+00 1.5063376770763870e-01 2 1 0
2275 1 5.9819815529182989e+00 1.2359049814612446e+01 -1.9701436254304772e-01 3 -1 0
6594 1 1.1071980113648088e+00 2.3800124714763307e+01 2.5262703914880391e+00 1 -1 1
3805 1 1.7689949196541495e+00 2.1203592799045190e+01 3.4229364609818580e+00 -1 -2 0
3372 1 5.9907154523767723e+00 2.2103106733616894e+01 3.3119551322281202e+00 0 -1 1
3501 1 4.2009716045380507e+00 2.0217534617955049e+01 -3.9159193784087887e-01 1 3 0
5491 1 8.3935092599403500e+00 2.1071394648227773e+01 2.5967228581806832e+00 0 3 0
5692 1 1.0603386994060166e+01 2.2758028092367645e+01 3.5194555445319784e+00 -1 0 1
6501 1 3.5663599455615813e+00 1.1985009552777910e+00 6.0278623852982873e+00 -1 -1 1
2085 1 1.3418655121643985e+00 2.1408914189976351e+00 7.0765100154785889e+00 1 0 0
1816 1 7.7815440019596389e+00 2.0092777735604490e+00 3.5568749025074160e+00 1 -1 0
3228 1 7.6203098272530534e+00 2.0484453788571040e+00 6.3064502252523464e+00 2 -3 0
3755 1 5.5006320387019567e+00 3.0497708726355368e+00 7.1062508787537215e+00 0 0 0
6551 1 2.1398157610348170e+00 2.1029539473984947e+01 1.0630172769114020e+01 0 -1 1
5351 1 9.6960414957608059e+00 3.4338609976381549e+00 7.3770318976598421e+00 0 1 0
245 1 1.1938901967554530e+01 2.8831915778430344e+00 6.3482757667310787e+00 -1 -1 0
1435 1 1.2599041609643271e+00 1.1926440685472292e+01 -5.9602920168356754e-01 1 2 1
4862 1 7.0615791336333533e-01 4.8872450292978904e+00 1.0539633777417178e+01 2 1 0
308 1 2.5447235518808911e+00 6.4706696597527804e+00 6.9003986292688015e+00 0 2 0
2151 1 4.8273685239276771e+00 5.5446359829495737e+00 3.2196659938939600e+00 0 0 1
5568 1 4.9140250678151540e+00 5.6198022573211244e+00 5.8833052688326113e+00 -1 -1 0
6653 1 6.7462028400324190e+00 7.0779119347111470e+00 7.1099525605922889e+00 0 3 0
535 1 9.0415759662878283e+00 5.8228020089543184e+00 6.4952617211664547e+00 1 -1 1
3121 1 1.1016376793434116e+01 7.6618882717043926e+00 6.6345028667686083e+00 0 2 1
4880 1 1.8374605899989485e+00 9.0926010535725279e+00 3.5177610414157749e+00 -1 0 0
3916 1 2.0864938477145918e+00 8.8283175074522706e+00 6.4357908200117588e+00 3 4 0
3135 1 4.0119548321847578e+00 1.0633923295199510e+01 6.8315008394835921e+00 0 0 1
2129 1 6.2835850139621892e+00 9.8806222100126835e+00 6.0938196682079422e+00 1 0 1
1382 1 8.0237064274190644e+00 1.1353526117466876e+01 7.0220257188944597e+00 -3 -1 1
2224 1 1.0705793722487329e+01 1.0290484719745232e+01 6.0530674982769526e+00 1 2 0
3226 1 1.1532971269777327e+01 1.7230545352436888e+01 -3.9746283778267477e-01 0 1 0
2077 1 3.4507359011917420e+00 1.3008192195404805e+01 3.0646529544816561e+00 -2 -3 0
3791 1 1.2287670975967862e+00 1.4519769089525223e+01 6.9080974297754905e+00 3 -1 0
1918 1 3.3916776207380468e+00 1.3218668257792773e+01 5.8053681437931299e+00 3 2 0
351 1 5.4514783620449752e+00 1.4950172989952637e+01 6.6290607290145092e+00 -1 0 0
4837 1 7.9065479597787478e+00 1.3801980319698972e+01 6.2644278058874088e+00 3 0 1
5017 1 9.3894317389998321e+00 1.5662325827552102e+01 6.7765300875823575e+00 0 3 1
1932 1 1.1651824146697306e+01 1.4778052423145740e+01 5.6890961766686781e+00 2 2 0
3878 1 1.0539491288894196e+01 2.2601120242959031e+01 1.0031543655899942e+01 0 -2 1
139 1 2.3980725043602358e+00 1.8801799776975042e+01 6.8484796059558111e+00 3 -3 1
5401 1 4.6999888265202046e+00 1.7462423861435877e+01 5.8272664616539966e+00 -1 1 0
5579 1 6.5582939472338486e+00 1.9207961819314395e+01 6.6095582534609063e+00 2 5 0
6403 1 9.0108881945753811e+00 1.8122697211383311e+01 5.9358720349085807e+00 0 -1 1
422 1 1.0980054621521695e+01 1.9521804185489444e+01 6.8611893471636085e+00 0 -1 0
6362 1 1.7275673639098903e+00 2.1137724174576391e+01 6.2245757524620045e+00 -1 -2 1
5214 1 3.5693209871241671e+00 2.2870445937943025e+01 6.6461280434093268e+00 2 -1 1
554 1 6.0571211923919357e+00 2.1809646358780082e+01 5.7636691165621317e+00 0 -2 1
5651 1 8.1287624039208595e+00 2.3676806202058344e+01 6.4813467472326982e+00 0 2 0
1667 1 1.0663307196210051e+01 2.2388761962081574e+01 5.9313638230092662e+00 -2 0 1
2034 1 1.1671155415658805e+00 2.1694469304927342e+00 9.7632070110142291e+00 2 2 0
1487 1 3.2390118801856276e+00 1.0294492507263067e+00 1.0547617911177626e+01 0 -1 1
2234 1 5.3062636865474611e+00 2.8126137459258946e+00 9.9232835282887706e+00 0 0 1
105 1 7.8534641451447165e+00 1.9482133263032295e+00 1.0747339794966583e+01 1 1 1
5123 1 6.4178565438595632e+00 2.2186193993607336e+01 1.0408351311290337e+01 2 0 1
6564 1 1.2372653102965035e+01 2.2996263144607014e+00 1.0603276941595425e+01 0 -1 1
3802 1 1.0000895002189955e+01 3.4423929957239472e+00 9.8945234247985105e+00 2 1 0
1466 1 1.0057878380350406e+01 1.3164394368024801e+01 -5.9193787059049874e-01 2 -2 1
4014 1 2.8400592784701995e+00 6.4742128193220960e+00 9.7048219731970864e+00 1 -1 1
1870 1 4.9288303976241563e+00 5.2257123156802496e+00 1.0470258241655380e+01 1 1 0
5570 1 6.9361691219416288e+00 6.7987791604376548e+00 9.7781461481078544e+00 1 -2 1
5189 1 9.4738988159008031e+00 5.9780468712729338e+00 1.0258000410219401e+01 1 0 1
1645 1 1.1164741436377884e+01 7.4694043806268082e+00 9.6603957436836847e+00 0 5 0
1395 1 2.2232403009804806e+00 8.9449948608729759e+00 1.0399150721798254e+01 3 -2 1
4809 1 4.2619376516869769e+00 1.0748743641566724e+01 9.4974330726079952e+00 -3 -2 1
1682 1 6.3460470308010288e+00 9.3222246135193227e+00 1.0602393423101045e+01 2 1 1
5267 1 8.1177111316421389e+00 1.1114860402047627e+01 9.7944381982472013e+00 2 -1 0
3401 1 1.0592751127249969e+01 1.0020905922950647e+01 1.0244891987511734e+01 5 1 1
2090 1 5.9549969185818408e-01 4.8529346045010282e+00 3.3539821934312251e+00 0 0 1
2166 1 1.1684903199544243e+00 1.4414283668108309e+01 9.8365085463467885e+00 1 -1 0
2258 1 3.5234750486806039e+00 1.2932968277747362e+01 1.0602462238575297e+01 2 -2 0
5457 1 5.5901383227396249e+00 1.4602626570663753e+01 9.3666240465182913e+00 -1 1 0
3294 1 7.7797774308605101e+00 1.3839813445571282e+01 1.0267555893380159e+01 1 2 1
3576 1 1.1492841367259850e+01 1.4938582511824432e+01 1.0559650406951544e+01 1 -2 0
1559 1 9.3040572541258548e+00 1.6477791342796845e+01 9.4329946577290844e+00 -3 -2 1
3537 1 2.4981352710769489e+00 1.8484007205660340e+01 9.5364729241461959e+00 0 -1 1
3470 1 8.4842194280287444e+00 2.3669715501552059e+01 9.4182095348446779e+00 2 -1 0
1 1 6.6059992640981466e+00 1.9585514849807893e+01 9.2079058534975662e+00 -3 1 0
1436 1 4.9064001995509390e+00 1.7215159455617556e+01 1.0368621328831637e+01 0 0 1
3667 1 8.8095179068711715e+00 1.8742748565413638e+01 1.0474859259271243e+01 -2 -2 0
1779 1 1.1065151298916563e+01 2.0106593722739401e+01 9.5149837624135589e+00 0 0 0
5390 1 6.1124107059917376e-01 4.7190381676642721e+00 6.0059625178089089e+00 1 -1 0
3615 1 8.3831702687654275e+00 2.0953541420006118e+01 -2.9373848329434388e-01 2 -1 0
41 1 1.2163975198073823e+01 2.4203139622416437e+01 6.7338497964421791e+00 2 -1 0
2345 1 5.0462378557516274e-01 1.7229212156537884e+01 6.1348185870940179e+00 1 0 0
5105 1 1.2296356827108863e+01 2.4323402398887474e+01 9.2769367658241411e+00 2 -2 0
3935 1 3.4873568216757027e+00 1.0698451365452097e+00 1.3222826935293192e+01 1 -1 1
3611 1 3.0185971892307197e+00 3.7645911542624528e+00 1.4139391117059871e+01 2 -2 0
1637 1 7.6854317343850429e+00 1.7259702007722137e+00 1.3485593188645826e+01 0 0 1
1776 1 6.3761647934796395e-01 4.7652244379777997e+00 1.7607153033933244e+01 0 0 0
6366 1 1.0145546762010525e+01 6.2321641716218634e-01 1.4013374741579387e+01 -1 0 1
104 1 1.1829318707545912e+01 2.5514203741810952e+00 1.2936206938208128e+01 -2 0 0
4703 1 4.4111804545204762e+00 8.2015640655334057e+00 1.4309993500038821e+01 0 3 1
4783 1 6.0032538799083635e-01 1.6809779675291487e+01 2.0118414784240962e+01 5 -1 1
93 1 7.5011606880391906e+00 4.4341376421815228e+00 1.4066479915520404e+01 -2 1 0
310 1 4.9159145082266393e+00 5.3853688303123253e+00 1.3280328538361161e+01 -1 0 0
5135 1 9.4880982106245710e+00 6.3367879943869871e+00 1.2935768842742689e+01 2 -1 0
3429 1 1.1587873554863805e+01 5.0815418415432214e+00 1.4045349174385906e+01 1 1 0
2178 1 2.0337990320084209e+00 9.1939547999398119e+00 1.3062106818221038e+01 -1 -1 0
5195 1 1.3555246555046359e+00 1.1555078101008926e+01 1.4015181944183672e+01 -1 1 0
6758 1 6.5546406374283626e+00 9.5711392253569034e+00 1.3226836753690334e+01 1 -1 1
3673 1 8.9230193424663877e+00 8.5326542031532657e+00 1.4256235965700290e+01 -2 -3 0
1705 1 1.0671722840966865e+01 1.0370029575216934e+01 1.2923829497230475e+01 -1 -1 1
3353 1 3.3627166131223887e+00 1.3507801782953782e+01 1.3175835897295105e+01 2 1 1
5100 1 2.9937114697780283e+00 1.6184229144920884e+01 1.3728255031860083e+01 3 0 1
6473 1 5.7836222434401305e+00 1.2079922823783264e+01 1.4077572817957625e+01 2 -1 1
4930 1 7.5355588306851899e+00 1.3876997068642439e+01 1.3031845400095959e+01 1 2 1
39 1 1.0119622142619363e+01 1.2912808858036087e+01 1.3759025214992565e+01 -1 -1 1
1963 1 1.1891614424118737e+01 1.4625741791488334e+01 1.3015850699834537e+01 1 -1 0
265 1 4.1211748926367537e+00 2.0211259750263025e+01 1.3840533165487763e+01 2 0 0
355 1 7.2369269564379453e+00 1.6518055395933448e+01 1.3934434487799576e+01 0 3 0
5016 1 5.1297230486281817e+00 1.7759253647618859e+01 1.2937725287130746e+01 1 1 1
5163 1 9.1876720756464927e+00 1.7955017234875459e+01 1.3187008598055382e+01 -2 -1 1
5432 1 1.1433662965108518e+01 1.6864336564707500e+01 1.3967208568298849e+01 3 1 1
2068 1 1.5479050872480491e+00 2.1387586753527703e+01 1.3115066273580611e+01 1 -1 0
3059 1 1.2231000482724177e+00 2.3879484521242293e+01 1.3964270053882601e+01 -1 0 1
3010 1 6.1815262469641663e+00 2.2128297561882484e+01 1.3096880611678840e+01 -1 3 1
1930 1 8.5585749835462970e+00 2.0820559672281750e+01 1.3959017414458312e+01 -1 -1 1
5638 1 7.1969508451306674e-01 4.3593681572798868e+00 1.3259073833859491e+01 0 1 1
3464 1 1.0728734829569140e+01 2.2274297520461360e+01 1.2846138174976719e+01 2 1 0
1744 1 3.2294229194217650e+00 1.2951880419420856e+00 1.7976609977164173e+01 1 0 1
3013 1 2.9328021397124666e+00 3.6935407980956763e+00 1.6608941166496699e+01 1 0 1
3977 1 8.0593024831278726e+00 2.0001925606724589e+00 1.6922581641539402e+01 1 1 1
1847 1 9.0095971011026972e+00 2.4117125640452326e+01 2.3771001884130122e+01 -1 0 1
5535 1 5.8336094504652358e-01 1.6794548680878453e+01 1.3067219939825065e+01 1 3 0
5043 1 1.0327657378380527e+01 7.7891381753969557e-01 1.6654529701387048e+01 0 2 1
2020 1 7.1955713902531091e+00 1.9917342992671177e+01 2.3295693979033437e+01 0 0 0
577 1 7.4920429093215093e+00 4.6374169594425787e+00 1.6625687168121139e+01 -1 -1 1
3175 1 5.0240736360895317e+00 5.0521714770026787e+00 1.7580988741904690e+01 0 0 0
2148 1 4.4949902542166340e+00 7.9797975852634222e+00 1.7114717351037420e+01 0 5 0
2082 1 9.0969585810294955e+00 6.5217238140174949e+00 1.8070735643608881e+01 -1 3 0
1527 1 1.1462621754214357e+01 5.3084979196537638e+00 1.7011491009424624e+01 1 1 1
3303 1 2.2606904411186450e+00 8.9299585062215563e+00 1.7492360056082152e+01 3 0 0
3189 1 1.8580519210342974e+00 1.1540223529993169e+01 1.6843043207279926e+01 0 2 1
165 1 6.2991039373799058e+00 9.6812531565713247e+00 1.7849690867505036e+01 3 2 0
3214 1 8.4496089202168569e+00 8.8776177232299105e+00 1.6889851352672135e+01 3 0 1
480 1 1.0625646063822993e+01 1.0508364661427148e+01 1.7428163720812321e+01 -5 2 1
1508 1 3.7121357657223326e+00 1.3493564822800181e+01 1.7601469022146265e+01 -2 1 1
479 1 3.0943441604232644e+00 1.5829965915030272e+01 1.6765538961193609e+01 1 2 0
1403 1 5.7728079989755372e+00 1.2101678974309689e+01 1.6687624120584253e+01 0 -3 1
6392 1 7.6456998662956472e+00 1.3898557095573221e+01 1.7392025079550375e+01 2 -1 1
3427 1 1.0063970426490933e+01 1.2838498988776323e+01 1.6454842235873201e+01 1 -2 1
4898 1 1.1778829782665765e+01 1.4398208808396605e+01 1.7560061226425585e+01 0 -1 1
6704 1 4.0588304209632504e+00 1.9941666889414964e+01 1.6377701658953711e+01 2 1 1
3694 1 7.2093053837273464e+00 1.6096852495719610e+01 1.6525753373113471e+01 2 -2 0
3067 1 5.2361399060050537e+00 1.7695325621047175e+01 1.7394744822956696e+01 4 2 1
1580 1 9.1246885735400181e+00 1.8016174723286817e+01 1.7654348611184041e+01 2 -2 1
6605 1 1.1244141753443511e+01 1.6910140443631647e+01 1.6779706745997299e+01 1 -4 1
5205 1 1.7308953309766368e+00 2.0835465587039135e+01 1.7430350512408925e+01 1 1 0
1716 1 1.1783166891246064e+00 2.3600519294844307e+01 1.6778229672655378e+01 -1 -1 1
70 1 6.2075250259809778e+00 2.1712243848587040e+01 1.6829601728855671e+01 -2 1 0
3777 1 8.6458691848514597e+00 2.0542228506144852e+01 1.6594941936246745e+01 2 -2 0
3832 1 6.4680558238823265e+00 2.2016009147311550e+01 1.9690297526641036e+01 1 1 0
462 1 1.0689543681617819e+01 2.2241800603555895e+01 1.6995172102681277e+01 0 0 0
3191 1 1.0793695377485168e+01 2.2823970158738220e+01 1.9532507674499652e+01 -1 2 1
1370 1 1.3829874491166494e+00 2.1690799158665337e+00 2.0131212220590822e+01 -2 2 1
478 1 4.1619127006177195e+00 2.3161683718811851e+01 2.0608107246854985e+01 2 0 1
5310 1 2.5452338677225681e+00 6.8917727188420965e+00 2.1016641298331383e+01 1 -1 0
1578 1 4.8585352536414899e+00 5.9409077516266802e+00 2.0155909789784864e+01 -2 2 1
1729 1 7.1187605748951217e+00 7.1983211708574899e+00 2.0614608529192562e+01 -1 0 0
2343 1 5.7623921249022629e+00 3.1806295959565628e-01 1.6527961273234464e+01 -3 -1 1
5092 1 1.0774118110197067e+01 7.7071523347487858e+00 2.0438320803045794e+01 2 0 0
5334 1 4.7895719367750045e-01 1.6791818146294435e+01 1.7372865467856588e+01 0 -1 0
5169 1 2.1624703253361242e+00 9.2223861916104362e+00 2.0121488177835175e+01 0 3 0
566 1 3.8980661172566791e+00 1.1049059535741048e+01 2.0957024025052835e+01 1 -1 1
1958 1 1.0683908955768617e+01 7.7671862860548462e+00 2.3138613339333169e+01 1 2 0
6472 1 6.4934540965455021e+00 9.8003922077786019e+00 2.0784389023659113e+01 1 -3 1
2179 1 8.4508375038744816e+00 1.1735221351892919e+01 2.1059401605845554e+01 2 1 0
1837 1 1.0807629243689778e+01 1.0576508420992903e+01 2.0159571916428714e+01 -2 0 1
5212 1 1.2214255517241693e+01 2.4747798651425832e+00 1.7503398779013789e+01 0 1 0
3918 1 5.7925945211845180e+00 1.5451664553399974e+01 2.3742678483531318e+01 2 1 1
5176 1 3.9700777356226955e+00 1.3751827522167821e+01 2.0270891833211355e+01 0 1 1
5328 1 1.1899794309243479e+00 1.4385709082551816e+01 2.1147513123831715e+01 -1 0 1
152 1 8.4180549951063153e+00 2.3641024333742912e+01 2.0597125400383607e+01 2 0 0
3449 1 7.9329247307264170e+00 1.4217889659488691e+01 2.0206500498977981e+01 -3 -1 0
370 1 5.7676690384357556e+00 1.5485817517850849e+01 2.1208924759905166e+01 -2 -1 0
7 1 1.1820317252596491e+01 1.4138312275250758e+01 2.0111112863849218e+01 -2 1 1
3451 1 2.0577953083103786e+00 2.1473932943020802e+01 2.0038001898770936e+01 0 0 0
4822 1 9.8743428613466975e+00 1.5931611608831119e+01 2.1002831617942753e+01 0 3 1
2154 1 1.2382824258192395e+01 2.4457927065485713e+01 2.1209075352273285e+01 -2 2 0
2011 1 2.3645396310149063e+00 1.8727893624138645e+01 2.0867535263909879e+01 1 1 0
2026 1 1.0210921304195960e+01 1.6612473518587873e+01 2.3639040453245634e+01 2 -1 0
4718 1 4.7906773717440005e+00 1.7700333679183920e+01 1.9972045038818838e+01 4 1 1
4712 1 6.5673010660395716e+00 1.9518407523426188e+01 2.0748165305702933e+01 1 -2 1
6562 1 8.3192180466015508e-01 5.0328560659299795e+00 2.0276655104311796e+01 3 2 1
3130 1 7.8517523533192586e+00 7.4272246336205132e+00 2.3363803064233782e+01 -4 1 1
6634 1 9.1779081302437913e+00 1.8400215861533589e+01 2.0251209064166627e+01 2 2 1
4843 1 1.1105360288038909e+01 2.0343502458268762e+01 2.0722535257403742e+01 2 -2 1
2015 1 2.9425563986953245e+00 1.8811457283921808e+01 2.3549968173586301e+01 1 3 0
1759 1 3.1503870227378172e-01 7.3014135171268473e+00 1.3871919303469014e+01 2 -1 0
3150 1 2.2439501862418880e+00 8.5687664527368206e+00 2.3846887341378434e+01 2 -1 1
6438 1 6.7577636154365965e+00 9.8924138842895104e+00 2.3872252038039523e+01 0 -1 1
1626 1 4.4371481122290009e+00 2.3143124711962351e+01 2.3421913601394461e+01 2 1 1
1425 1 1.1438516689635382e+01 2.1076383653417309e+01 2.3226889085090708e+01 0 2 1
3404 1 3.7765594341587865e+00 1.3274613379666111e+01 2.3404724521881153e+01 0 -2 1
5353 1 1.2975815749795929e+00 1.4166292838388626e+01 2.3734863292300989e+01 1 -1 1
106 1 8.2959139903747392e+00 1.4620630827510643e+01 2.3830982998850448e+01 -1 1 0
108 1 1.1103580769306220e+01 1.0347434238924768e+01 2.3766751578120907e+01 0 3 0
1649 1 1.1788179215773839e+01 2.3602164217843740e+01 2.3865532706610939e+01 3 0 1
623 2 2.6186794720667805e-01 3.0722820579120604e+00 2.6747206502364811e+01 0 0 0
625 2 2.6186794720667805e-01 2.6080193892292769e-01 2.6747206502364811e+01 0 0 0
627 2 1.4792745498464215e+00 9.6367196867021088e-01 2.6747206502364811e+01 0 0 0
634 2 1.4792745498464215e+00 2.3694120281651969e+00 2.6747206502364811e+01 0 0 0
636 2 2.6966811524861649e+00 3.0722820579120604e+00 2.6747206502364811e+01 0 0 0
638 2 2.6966811524861649e+00 2.6080193892292769e-01 2.6747206502364811e+01 0 0 0
640 2 3.9140877551246840e+00 9.6367196867021088e-01 2.6747206502364811e+01 0 0 0
655 2 3.9140877551246840e+00 2.3694120281651969e+00 2.6747206502364811e+01 0 0 0
657 2 5.1314943577656518e+00 3.0722820579120604e+00 2.6747206502364811e+01 0 0 0
659 2 5.1314943577656518e+00 2.6080193892292769e-01 2.6747206502364811e+01 0 0 0
661 2 6.3489009604037125e+00 9.6367196867021088e-01 2.6747206502364811e+01 0 0 0
684 2 6.3489009604037125e+00 2.3694120281651969e+00 2.6747206502364811e+01 0 0 0
686 2 7.5663075630426899e+00 3.0722820579120604e+00 2.6747206502364811e+01 0 0 0
688 2 7.5663075630426899e+00 2.6080193892292769e-01 2.6747206502364811e+01 0 0 0
690 2 8.7837141656802569e+00 9.6367196867021088e-01 2.6747206502364811e+01 0 0 0
721 2 8.7837141656802569e+00 2.3694120281651969e+00 2.6747206502364811e+01 0 0 0
723 2 1.0001120768324625e+01 3.0722820579120604e+00 2.6747206502364811e+01 0 0 0
725 2 1.0001120768324625e+01 2.6080193892292769e-01 2.6747206502364811e+01 0 0 0
727 2 1.1218527370959412e+01 9.6367196867021088e-01 2.6747206502364811e+01 0 0 0
766 2 1.1218527370959412e+01 2.3694120281651969e+00 2.6747206502364811e+01 0 0 0
768 2 1.2435933973600747e+01 3.0722820579120604e+00 2.6747206502364811e+01 0 0 0
770 2 1.2435933973600747e+01 2.6080193892292769e-01 2.6747206502364811e+01 0 0 0
628 2 2.6186794720667805e-01 7.2895022363996977e+00 2.6747206502364811e+01 0 0 0
630 2 2.6186794720667805e-01 4.4780221174074661e+00 2.6747206502364811e+01 0 0 0
632 2 1.4792745498464215e+00 5.1808921471548013e+00 2.6747206502364811e+01 0 0 0
647 2 1.4792745498464215e+00 6.5866322066509735e+00 2.6747206502364811e+01 0 0 0
649 2 2.6966811524861649e+00 7.2895022363996977e+00 2.6747206502364811e+01 0 0 0
651 2 2.6966811524861649e+00 4.4780221174074661e+00 2.6747206502364811e+01 0 0 0
653 2 3.9140877551246840e+00 5.1808921471548013e+00 2.6747206502364811e+01 0 0 0
676 2 3.9140877551246840e+00 6.5866322066509735e+00 2.6747206502364811e+01 0 0 0
678 2 5.1314943577656518e+00 7.2895022363996977e+00 2.6747206502364811e+01 0 0 0
680 2 5.1314943577656518e+00 4.4780221174074661e+00 2.6747206502364811e+01 0 0 0
682 2 6.3489009604037125e+00 5.1808921471548013e+00 2.6747206502364811e+01 0 0 0
713 2 6.3489009604037125e+00 6.5866322066509735e+00 2.6747206502364811e+01 0 0 0
715 2 7.5663075630426899e+00 7.2895022363996977e+00 2.6747206502364811e+01 0 0 0
717 2 7.5663075630426899e+00 4.4780221174074661e+00 2.6747206502364811e+01 0 0 0
719 2 8.7837141656802569e+00 5.1808921471548013e+00 2.6747206502364811e+01 0 0 0
758 2 8.7837141656802569e+00 6.5866322066509735e+00 2.6747206502364811e+01 0 0 0
760 2 1.0001120768324625e+01 7.2895022363996977e+00 2.6747206502364811e+01 0 0 0
762 2 1.0001120768324625e+01 4.4780221174074661e+00 2.6747206502364811e+01 0 0 0
764 2 1.1218527370959412e+01 5.1808921471548013e+00 2.6747206502364811e+01 0 0 0
805 2 1.1218527370959412e+01 6.5866322066509735e+00 2.6747206502364811e+01 0 0 0
807 2 1.2435933973600747e+01 7.2895022363996977e+00 2.6747206502364811e+01 0 0 0
809 2 1.2435933973600747e+01 4.4780221174074661e+00 2.6747206502364811e+01 0 0 0
641 2 2.6186794720667805e-01 1.1506722414879459e+01 2.6747206502364811e+01 0 0 0
643 2 2.6186794720667805e-01 8.6952422958920046e+00 2.6747206502364811e+01 0 0 0
645 2 1.4792745498464215e+00 9.3981123256371681e+00 2.6747206502364811e+01 0 0 0
668 2 1.4792745498464215e+00 1.0803852385131055e+01 2.6747206502364811e+01 0 0 0
670 2 2.6966811524861649e+00 1.1506722414879459e+01 2.6747206502364811e+01 0 0 0
672 2 2.6966811524861649e+00 8.6952422958920046e+00 2.6747206502364811e+01 0 0 0
674 2 3.9140877551246840e+00 9.3981123256371681e+00 2.6747206502364811e+01 0 0 0
705 2 3.9140877551246840e+00 1.0803852385131055e+01 2.6747206502364811e+01 0 0 0
5295 1 1.2049556259139512e+01 2.1378220992348677e+01 3.5708462717306702e+01 2 1 -1
707 2 5.1314943577656518e+00 1.1506722414879459e+01 2.6747206502364811e+01 0 0 0
709 2 5.1314943577656518e+00 8.6952422958920046e+00 2.6747206502364811e+01 0 0 0
711 2 6.3489009604037125e+00 9.3981123256371681e+00 2.6747206502364811e+01 0 0 0
750 2 6.3489009604037125e+00 1.0803852385131055e+01 2.6747206502364811e+01 0 0 0
752 2 7.5663075630426899e+00 1.1506722414879459e+01 2.6747206502364811e+01 0 0 0
754 2 7.5663075630426899e+00 8.6952422958920046e+00 2.6747206502364811e+01 0 0 0
5498 1 8.1849275331652727e-01 1.6711672169697525e+01 2.4355606380755660e+01 2 0 0
756 2 8.7837141656802569e+00 9.3981123256371681e+00 2.6747206502364811e+01 0 0 0
797 2 8.7837141656802569e+00 1.0803852385131055e+01 2.6747206502364811e+01 0 0 0
799 2 1.0001120768324625e+01 1.1506722414879459e+01 2.6747206502364811e+01 0 0 0
801 2 1.0001120768324625e+01 8.6952422958920046e+00 2.6747206502364811e+01 0 0 0
803 2 1.1218527370959412e+01 9.3981123256371681e+00 2.6747206502364811e+01 0 0 0
844 2 1.1218527370959412e+01 1.0803852385131055e+01 2.6747206502364811e+01 0 0 0
846 2 1.2435933973600747e+01 1.1506722414879459e+01 2.6747206502364811e+01 0 0 0
848 2 1.2435933973600747e+01 8.6952422958920046e+00 2.6747206502364811e+01 0 0 0
662 2 2.6186794720667805e-01 1.5723942593357643e+01 2.6747206502364811e+01 0 0 0
664 2 2.6186794720667805e-01 1.2912462474379019e+01 2.6747206502364811e+01 0 0 0
666 2 1.4792745498464215e+00 1.3615332504122897e+01 2.6747206502364811e+01 0 0 0
697 2 1.4792745498464215e+00 1.5021072563617018e+01 2.6747206502364811e+01 0 0 0
699 2 2.6966811524861649e+00 1.5723942593357643e+01 2.6747206502364811e+01 0 0 0
701 2 2.6966811524861649e+00 1.2912462474379019e+01 2.6747206502364811e+01 0 0 0
703 2 3.9140877551246840e+00 1.3615332504122897e+01 2.6747206502364811e+01 0 0 0
742 2 3.9140877551246840e+00 1.5021072563617018e+01 2.6747206502364811e+01 0 0 0
618 1 4.0751141444752186e+00 1.0569838961002356e+01 2.4238323244618723e+01 1 -3 1
5404 1 1.1187201014532501e+01 1.6407576639982349e+01 3.5649944898004236e+01 2 1 -1
744 2 5.1314943577656518e+00 1.5723942593357643e+01 2.6747206502364811e+01 0 0 0
746 2 5.1314943577656518e+00 1.2912462474379019e+01 2.6747206502364811e+01 0 0 0
748 2 6.3489009604037125e+00 1.3615332504122897e+01 2.6747206502364811e+01 0 0 0
789 2 6.3489009604037125e+00 1.5021072563617018e+01 2.6747206502364811e+01 0 0 0
791 2 7.5663075630426899e+00 1.5723942593357643e+01 2.6747206502364811e+01 0 0 0
793 2 7.5663075630426899e+00 1.2912462474379019e+01 2.6747206502364811e+01 0 0 0
795 2 8.7837141656802569e+00 1.3615332504122897e+01 2.6747206502364811e+01 0 0 0
836 2 8.7837141656802569e+00 1.5021072563617018e+01 2.6747206502364811e+01 0 0 0
838 2 1.0001120768324625e+01 1.5723942593357643e+01 2.6747206502364811e+01 0 0 0
840 2 1.0001120768324625e+01 1.2912462474379019e+01 2.6747206502364811e+01 0 0 0
842 2 1.1218527370959412e+01 1.3615332504122897e+01 2.6747206502364811e+01 0 0 0
878 2 1.1218527370959412e+01 1.5021072563617018e+01 2.6747206502364811e+01 0 0 0
880 2 1.2435933973600747e+01 1.5723942593357643e+01 2.6747206502364811e+01 0 0 0
882 2 1.2435933973600747e+01 1.2912462474379019e+01 2.6747206502364811e+01 0 0 0
691 2 2.6186794720667805e-01 1.9941162771850422e+01 2.6747206502364811e+01 0 0 0
693 2 2.6186794720667805e-01 1.7129682652861081e+01 2.6747206502364811e+01 0 0 0
695 2 1.4792745498464215e+00 1.7832552682604273e+01 2.6747206502364811e+01 0 0 0
734 2 1.4792745498464215e+00 1.9238292742086454e+01 2.6747206502364811e+01 0 0 0
736 2 2.6966811524861649e+00 1.9941162771850422e+01 2.6747206502364811e+01 0 0 0
738 2 2.6966811524861649e+00 1.7129682652861081e+01 2.6747206502364811e+01 0 0 0
740 2 3.9140877551246840e+00 1.7832552682604273e+01 2.6747206502364811e+01 0 0 0
781 2 3.9140877551246840e+00 1.9238292742086454e+01 2.6747206502364811e+01 0 0 0
1094 2 1.0001120768324625e+01 2.1346902831339182e+01 3.3314793497625800e+01 0 0 0
783 2 5.1314943577656518e+00 1.9941162771850422e+01 2.6747206502364811e+01 0 0 0
785 2 5.1314943577656518e+00 1.7129682652861081e+01 2.6747206502364811e+01 0 0 0
787 2 6.3489009604037125e+00 1.7832552682604273e+01 2.6747206502364811e+01 0 0 0
828 2 6.3489009604037125e+00 1.9238292742086454e+01 2.6747206502364811e+01 0 0 0
830 2 7.5663075630426899e+00 1.9941162771850422e+01 2.6747206502364811e+01 0 0 0
832 2 7.5663075630426899e+00 1.7129682652861081e+01 2.6747206502364811e+01 0 0 0
834 2 8.7837141656802569e+00 1.7832552682604273e+01 2.6747206502364811e+01 0 0 0
870 2 8.7837141656802569e+00 1.9238292742086454e+01 2.6747206502364811e+01 0 0 0
872 2 1.0001120768324625e+01 1.9941162771850422e+01 2.6747206502364811e+01 0 0 0
874 2 1.0001120768324625e+01 1.7129682652861081e+01 2.6747206502364811e+01 0 0 0
876 2 1.1218527370959412e+01 1.7832552682604273e+01 2.6747206502364811e+01 0 0 0
904 2 1.1218527370959412e+01 1.9238292742086454e+01 2.6747206502364811e+01 0 0 0
908 2 1.2435933973600747e+01 1.7129682652861081e+01 2.6747206502364811e+01 0 0 0
1092 2 8.7837141656802569e+00 2.3455512920583892e+01 3.3314793497625800e+01 0 0 0
3785 1 5.8318934039706534e+00 1.2208312853025642e+01 3.5528079906511820e+01 3 2 -1
728 2 2.6186794720667805e-01 2.4158382950332719e+01 2.6747206502364811e+01 0 0 0
730 2 2.6186794720667805e-01 2.1346902831339182e+01 2.6747206502364811e+01 0 0 0
732 2 1.4792745498464215e+00 2.2049772861084502e+01 2.6747206502364811e+01 0 0 0
773 2 1.4792745498464215e+00 2.3455512920583892e+01 2.6747206502364811e+01 0 0 0
775 2 2.6966811524861649e+00 2.4158382950332719e+01 2.6747206502364811e+01 0 0 0
777 2 2.6966811524861649e+00 2.1346902831339182e+01 2.6747206502364811e+01 0 0 0
779 2 3.9140877551246840e+00 2.2049772861084502e+01 2.6747206502364811e+01 0 0 0
820 2 3.9140877551246840e+00 2.3455512920583892e+01 2.6747206502364811e+01 0 0 0
822 2 5.1314943577656518e+00 2.4158382950332719e+01 2.6747206502364811e+01 0 0 0
824 2 5.1314943577656518e+00 2.1346902831339182e+01 2.6747206502364811e+01 0 0 0
826 2 6.3489009604037125e+00 2.2049772861084502e+01 2.6747206502364811e+01 0 0 0
862 2 6.3489009604037125e+00 2.3455512920583892e+01 2.6747206502364811e+01 0 0 0
864 2 7.5663075630426899e+00 2.4158382950332719e+01 2.6747206502364811e+01 0 0 0