
# Create simulation box and atoms

read_data data.graphite_substrate_1000
  orthogonal box = (0 0 -1.03859) to (49.22 49.0196 61.1006)
  4 by 2 by 5 MPI processor grid
  reading atoms ...
  6768 atoms
  reading velocities ...
  6768 velocities
group water type 1
4008 atoms in group water
group graphite type 2
2760 atoms in group graphite

# Define potential

pair_style sw
pair_coeff * * mWC.sw mW C
Reading potential file mWC.sw with DATE: 2019-02-27


# Fix graphite atoms in place

fix 5 graphite setforce 0.0 0.0 0.0
velocity graphite set 0.0 0.0 0.0


# Equilibration of molecular water

# Add velocity/set timestep

velocity	    water create ${TEMP} ${SEED} rot yes dist gaussian
velocity	    water create 225 ${SEED} rot yes dist gaussian
velocity	    water create 225 23353 rot yes dist gaussian
timestep	    5.0

# Define output

compute			1 water msd
compute			3 water temp
thermo	    	50
thermo_style	custom step temp press vol etotal ke pe c_1[4] c_3

# Neighbor lists

neigh_modify    delay 0 every 1 check yes

# Set fixes

fix             1 water momentum 10 linear 1 1 1 rescale
fix             2 water nve
fix             3 water temp/csvr ${TEMP} ${TEMP} 500.0 ${SEED}
fix             3 water temp/csvr 225 ${TEMP} 500.0 ${SEED}
fix             3 water temp/csvr 225 225 500.0 ${SEED}
fix             3 water temp/csvr 225 225 500.0 23353
fix             4 water press/berendsen iso ${PRES} ${PRES} 1000.0 modulus 20000
fix             4 water press/berendsen iso -1000 ${PRES} 1000.0 modulus 20000
fix             4 water press/berendsen iso -1000 -1000 1000.0 modulus 20000

# Run 0.5 ns equilibration

dump		    1 all atom 2000 ${DIR}/eq.${NAME}-${TEMP}.dump
dump		    1 all atom 2000 run_3/eq.${NAME}-${TEMP}.dump
dump		    1 all atom 2000 run_3/eq.het_freeze_3-${TEMP}.dump
dump		    1 all atom 2000 run_3/eq.het_freeze_3-225.dump

reset_timestep  0

run	            100000
Neighbor list info ...
  update every 1 steps, delay 0 steps, check yes
  max neighbors/atom: 2000, page size: 100000
  master list distance cutoff = 7.76
  ghost atom cutoff = 7.76
  binsize = 3.88, bins = 13 13 17
  1 neighbor lists, perpetual/occasional/extra = 1 0 0
  (1) pair sw, perpetual
      attributes: full, newton on
      pair build: full/bin/atomonly
      stencil: full/bin/3d
      bin: standard
Per MPI rank memory allocation (min/avg/max) = 4.107 | 4.219 | 4.543 Mbytes
Step Temp Press Volume TotEng KinEng PotEng c_1[4] c_3 
       0    133.23112   -1309.3276    149926.08   -35971.017    2687.4238   -38658.441            0          225 
      50     172.2692   -1457.0269     148676.6    -36407.72    3474.8665   -39882.586   0.86726398     290.9273 
     100     170.1892   -1633.3011    147933.49   -36849.545    3432.9105   -40282.455    1.8889274    287.41461 
     150    164.73949      -1558.4    147033.29   -37161.502    3322.9836   -40484.486    2.7628382    278.21117 
     200    158.09641   -1474.8557    146193.13   -37406.768     3188.985   -40595.753     3.567903    266.99236 
     250    155.02637   -1205.2214    145676.08    -37702.87    3127.0589   -40829.929    4.3311667     261.8077 
     300     153.3438   -1394.6252    145091.68   -37953.979    3093.1196   -41047.099    5.0287486    258.96619 
     350     149.0501   -1117.4737    144812.08   -38193.372    3006.5108   -41199.883    5.6238048    251.71501 
     400    149.73755   -1036.6254    144592.88   -38349.134    3020.3772   -41369.511    6.1679728    252.87596 
     450    144.46342   -1131.8176    144460.67   -38494.471    2913.9921   -41408.463    6.6181941    243.96905 
     500     141.2444     -878.098       144196   -38609.646    2849.0607   -41458.707    7.1193862    238.53278 
     550    140.52408    -907.5328    144162.78   -38710.242    2834.5311   -41544.773    7.5286862    237.31631 
     600    140.78088   -1004.7307    144063.94   -38807.481    2839.7112   -41647.193    7.9473406       237.75 
     650    138.47875   -1033.4119    144023.19   -38898.539    2793.2744   -41691.814    8.3257362    233.86216 
     700    137.95668   -909.65498    144098.15   -38960.491    2782.7437   -41743.234    8.6053864    232.98049 
     750    137.33967   -1346.7863    143830.43   -39035.577     2770.298   -41805.875    9.0305261     231.9385 
     800     137.8326   -1182.7733    143583.52   -39071.762    2780.2408   -41852.003    9.3667749    232.77095 
     850    134.86089   -910.88296    143328.82   -39147.684     2720.298   -41867.982    9.8224602    227.75234 
     900    134.72316   -1068.6423    143320.35   -39198.989    2717.5199   -41916.509    10.219336    227.51975 
     950     133.5521    -968.8155    143289.49   -39235.036    2693.8983   -41928.934    10.602878    225.54207 
    1000    137.65583   -1068.1812    143303.81   -39218.064    2776.6753   -41994.739    10.853275    232.47243 
    1050    135.55689   -1073.3251    143361.19   -39241.173    2734.3373    -41975.51    11.150739    228.92775 
    1100     133.0944   -1085.2736    143421.93   -39337.861     2684.666   -42022.527    11.474735    224.76911 
    1150    133.82792   -899.39432     143391.9   -39358.044    2699.4619   -42057.506    11.760969    226.00787 
    1200    133.58228   -978.43226    143431.32   -39321.906     2694.507   -42016.413    12.145641    225.59303 
    1250    135.71654   -1059.4926    143475.96   -39321.984    2737.5576   -42059.542    12.478035    229.19737 
    1300    135.35898   -1203.4062    143346.32   -39381.427    2730.3452   -42111.772    12.904299    228.59352 
    1350     134.4137   -923.76224    143169.04   -39434.754    2711.2777   -42146.031    13.201922    226.99713 
    1400    133.49924   -1122.4716    143237.65   -39469.533     2692.832   -42162.365    13.532321    225.45279 
    1450    134.68551   -961.82111    143155.49   -39449.544    2716.7604   -42166.304    13.816822    227.45616 
    1500    138.43373   -867.71949    143380.53   -39410.609    2792.3663   -42202.976     14.03212    233.78613 
    1550    134.78413    -947.1549    143478.49   -39491.033    2718.7499   -42209.783    14.259888    227.62272 
    1600     132.9046   -971.07886    143502.35   -39545.798    2680.8374   -42226.636    14.454133    224.44856 
    1650    133.12271   -1012.3988    143530.76   -39581.246    2685.2371   -42266.483    14.641266    224.81692 
    1700    134.07155   -1047.8321    143588.41   -39577.858    2704.3762   -42282.234     14.77499    226.41931 
    1750    137.33558   -984.23488    143699.21   -39511.557    2770.2154   -42281.773    15.079982    231.93159 
    1800     132.5463   -1075.3685    143507.78   -39576.545    2673.6103   -42250.155    15.375756    223.84348 
    1850    132.48263   -949.44118     143361.1    -39601.59     2672.326   -42273.916    15.662965    223.73596 
    1900    135.08011   -925.52298    143413.72   -39585.758      2724.72   -42310.478    15.963735    228.12256 
    1950    133.30453    -1121.823     143469.1   -39631.848    2688.9046   -42320.753    16.199076    225.12397 
    2000    131.15929   -1097.7799    143296.48   -39615.987    2645.6326   -42261.619    16.515165     221.5011 
    2050    134.76436   -968.26679    143380.32   -39589.871     2718.351   -42308.222    16.669885    227.58932 
    2100    132.90497     -896.468    143453.58   -39576.651    2680.8449   -42257.496    16.939876    224.44919 
    2150    135.27053   -963.31369    143501.41   -39623.256    2728.5611   -42351.817    17.193615    228.44415 
    2200    133.22447   -1024.3335    143597.08   -39624.117    2687.2896   -42311.407     17.38355    224.98877 
    2250    137.05661   -1037.6611    143679.53   -39608.874    2764.5883   -42373.463    17.684052    231.46046 
    2300     134.1865   -798.77081    143836.24   -39578.393    2706.6949   -42285.088    17.952313    226.61344 
    2350    133.85481   -847.88377     143974.7   -39545.047    2700.0043   -42245.051    18.205596    226.05328 
    2400    135.00083   -1048.2351    144051.38   -39556.312    2723.1209   -42279.433    18.448757    227.98868 
    2450    138.62559   -978.99491    144107.35     -39591.2    2796.2365   -42387.436    18.505085    234.11016 
    2500    133.65013   -1129.3436    144206.23   -39586.322    2695.8758   -42282.197    18.688627    225.70763 
    2550    135.09612   -862.13904    144132.23   -39633.644     2725.043   -42358.687    18.908152     228.1496 
    2600    137.68495   -787.72702    144253.75   -39595.391    2777.2627   -42372.653    19.162842     232.5216 
    2650    136.93977   -808.23062    144404.03   -39614.655    2762.2314   -42376.886    19.400987    231.26314 
    2700    135.05881   -938.55496    144631.12   -39611.268    2724.2904   -42335.558     19.62566    228.08659 
    2750    136.38576   -1059.8135    144608.54   -39622.129    2751.0565   -42373.185    19.874189    230.32754 
    2800    134.98369   -894.21937    144548.88    -39649.07    2722.7752   -42371.845    20.183547    227.95974 
    2850     134.8679   -990.84924    144700.63   -39687.457    2720.4395   -42407.896    20.530821    227.76418 
    2900    134.30798   -1045.1641    144714.35   -39720.692    2709.1453   -42429.837    20.901494    226.81859 
    2950    134.28256   -1088.4758    144561.21   -39719.847    2708.6325    -42428.48    21.199249    226.77566 
    3000    133.06272   -1072.0907    144543.15   -39710.162     2684.027   -42394.189    21.570604    224.71561 
    3050    134.64458   -904.97588    144481.43   -39702.721    2715.9349   -42418.656    21.816118    227.38705 
    3100    135.38248   -1125.6866    144423.32   -39710.836    2730.8192   -42441.655    22.172635     228.6332 
    3150    134.60629    -1002.521     144312.4   -39750.197    2715.1625    -42465.36    22.357556    227.32238 
    3200    131.23917    -1116.717    144336.52   -39763.109    2647.2438   -42410.353     22.55877    221.63599 
    3250    132.01782   -918.33161    144495.69   -39767.444    2662.9502   -42430.395    22.710949    222.95099 
    3300    133.19677   -999.02443    144539.95   -39790.046     2686.731   -42476.777    22.935912    224.94199 
    3350    134.78313   -1137.3876       144503   -39761.767    2718.7296   -42480.496    23.154786    227.62102 
    3400    135.39667   -1045.9009    144469.07   -39760.796    2731.1055   -42491.902    23.309388    228.65717 
    3450    132.40301   -970.48022    144584.47   -39768.422    2670.7198   -42439.142    23.464692    223.60149 
    3500    130.74351    -996.5081    144636.75   -39767.146    2637.2459   -42404.392    23.575087    220.79894 
    3550    132.17829   -934.98977    144547.25   -39770.593     2666.187   -42436.779    23.727913    223.22198 
    3600     134.6258   -991.19126    144604.82   -39758.407    2715.5561   -42473.964    23.812921    227.35533 
    3650    133.80792   -936.68122     144710.6   -39766.125    2699.0586   -42465.183    23.942923     225.9741 
    3700     133.6734   -1025.7227    144663.01   -39761.405     2696.345    -42457.75    24.065084    225.74691 
    3750    131.37659   -1017.0747    144644.59    -39762.95    2650.0157   -42412.966    24.152791    221.86807 
    3800    132.88994   -1141.9895     144531.2   -39768.051    2680.5418   -42448.593    24.305486    224.42382 
    3850     131.5631   -975.65676    144401.81   -39782.635     2653.778   -42436.413    24.579653    222.18306 
    3900    131.02144   -1110.6039    144354.13    -39820.95     2642.852   -42463.802    24.889476     221.2683 
    3950    129.91757    -1061.657     144276.6   -39814.397    2620.5858   -42434.983    25.106957     219.4041 
    4000    133.07975   -983.87782    144296.22   -39800.437    2684.3705   -42484.807    25.178275    224.74437 
    4050    134.29252   -1077.8166    144303.99   -39785.143    2708.8334   -42493.976    25.332653    226.79248 
    4100      131.759   -960.65689     144466.5   -39778.281    2657.7295   -42436.011     25.37762     222.5139 
    4150    136.04588   -946.46875    144458.67   -39751.931    2744.2007   -42496.132    25.554643    229.75355 
    4200    132.62926   -917.63496    144557.92   -39730.084    2675.2836   -42405.368    25.651881    223.98358 
    4250    133.07752   -886.67929    144608.53    -39726.94    2684.3255   -42411.265    25.853833     224.7406 
    4300    131.86033   -1192.3258    144545.88   -39792.676    2659.7734    -42452.45      25.9492    222.68502 
    4350     133.5194   -898.80365    144491.58   -39791.484    2693.2387   -42484.722    26.162796    225.48684 
    4400    133.11495   -1011.9256     144593.2   -39733.331    2685.0805   -42418.411    26.338731    224.80381 
    4450    131.13713   -966.37361    144566.63   -39778.653    2645.1857   -42423.839    26.561295    221.46368 
    4500    133.43301    -1002.134    144447.06   -39756.547    2691.4961   -42448.043    26.724452    225.34095 
    4550    134.15966   -868.25226     144625.8   -39783.454    2706.1536   -42489.608    26.896157    226.56811 
    4600    133.89353   -1067.0349    144658.79   -39796.547    2700.7854   -42497.332    27.130483    226.11867 
    4650    133.92312   -1004.8153    144787.23   -39826.167    2701.3822   -42527.549    27.165705    226.16864 
    4700    131.92082   -1235.4717    144704.43   -39849.371    2660.9936   -42510.365    27.349716    222.78718 
    4750    133.77184   -921.63659    144706.36   -39824.381    2698.3307   -42522.712    27.433382    225.91316 
    4800    133.05874   -999.11072    144769.82   -39820.478    2683.9467   -42504.425    27.677052    224.70888 
    4850    134.65056   -923.26571    144798.66   -39844.731    2716.0555   -42560.786    27.801956    227.39713 
    4900    132.16272   -1037.1377    144836.65   -39896.078    2665.8729   -42561.951    27.841617    223.19569 
    4950    132.87819   -1052.6504    144805.56   -39891.004    2680.3049   -42571.309      27.9553    224.40398 
    5000    133.69743   -951.46403    144936.35   -39831.737    2696.8298   -42528.566    28.169377     225.7875 
    5050    134.03255   -1028.2631    144924.03   -39878.209    2703.5894   -42581.798    28.330777    226.35344 
    5100    134.94941   -1004.2716    144906.83   -39866.714    2722.0836   -42588.798    28.353016    227.90184 
    5150    132.85842   -1086.8142    144776.55   -39940.935     2679.906   -42620.841    28.580068    224.37058 
    5200    130.86795   -1018.3268    144773.42    -39929.57    2639.7559   -42569.326    28.699243    221.00909 
    5250    130.47701   -1107.0741    144707.38   -39883.991    2631.8703   -42515.861    29.061861    220.34888 
    5300    134.31154   -917.99026    144742.59   -39834.862    2709.2172   -42544.079    29.273205    226.82461 
    5350    134.10879   -1030.1114    144726.12   -39891.299    2705.1274   -42596.427    29.434975    226.48221 
    5400    134.81955   -1117.4767    144755.39   -39884.457    2719.4643   -42603.921    29.570918    227.68253 
    5450    131.69676   -1102.8116    144535.14   -39863.126    2656.4741     -42519.6     29.71719    222.40879 
    5500    132.98676   -956.06894    144480.44   -39858.844    2682.4948   -42541.339    29.846174    224.58733 
    5550    132.56905   -908.59937    144506.38   -39886.742    2674.0692   -42560.811    29.977004    223.88191 
    5600    131.88156   -909.21977    144640.24    -39929.75    2660.2015   -42589.952    30.118559    222.72086 
    5650    133.96138   -891.81729    144782.96   -39925.063     2702.154   -42627.217    30.284118    226.23326 
    5700    131.20279   -996.47733    144826.48   -39868.253      2646.51   -42514.763    30.456273    221.57456 
    5750    130.46786   -1047.1248    144884.14   -39916.583    2631.6856   -42548.269    30.502075    220.33341 
    5800    132.39773   -1105.8624     144891.4    -39880.79    2670.6134   -42551.404    30.656161    223.59258 
    5850    132.00176   -1080.3895    144814.34   -39901.622    2662.6263   -42564.248     30.81739    222.92387 
    5900    131.69705   -1022.9191    144618.63   -39865.978    2656.4799   -42522.458    30.792218    222.40927 
    5950    134.18785   -870.80443     144611.2   -39827.676    2706.7221   -42534.398    30.845605    226.61572 
    6000    134.76893   -1111.6651    144769.03    -39823.32    2718.4432   -42541.764    30.989043    227.59704 
    6050    129.93793   -1100.0085    144680.63   -39872.767    2620.9965   -42493.764    30.984949    219.43848 
    6100    134.14761   -1028.5754    144577.34   -39860.457    2705.9105   -42566.368    31.094759    226.54777 
    6150    134.34861   -1049.5907    144621.11   -39823.389    2709.9648   -42533.354    31.365585     226.8872 
    6200    134.31431   -1048.5943    144637.59    -39806.12    2709.2729   -42515.393    31.553626    226.82928 
    6250    133.54498   -1072.4876    144409.42   -39852.732    2693.7546   -42546.487    31.837263    225.53004 
    6300    131.71671   -986.27645    144524.46   -39846.703    2656.8764    -42503.58    32.051255    222.44247 
    6350    132.76096   -862.21087    144521.35   -39843.655    2677.9402   -42521.595    32.145887      224.206 
    6400    133.17136   -956.51098    144569.16   -39862.507    2686.2184   -42548.726    32.364744    224.89908 
    6450    132.75085   -957.70653    144629.74   -39842.916    2677.7362   -42520.652    32.596203    224.18892 
    6500    130.56284   -977.57524     144686.4    -39872.07    2633.6016   -42505.672     32.75088    220.49382 
    6550    133.39121   -876.11776    144707.42   -39812.589     2690.653   -42503.242    32.946686    225.27036 
    6600    133.45976   -1123.4244     144752.5   -39819.255    2692.0356    -42511.29    33.144428    225.38612 
    6650    133.78949   -901.67489    144602.45   -39831.364    2698.6867    -42530.05    33.405929    225.94296 
    6700    134.64042   -955.16759    144606.81   -39867.298     2715.851   -42583.149    33.621081    227.38002 
    6750    132.30841   -996.36788    144700.22   -39887.029    2668.8117   -42555.841    33.850396    223.44174 
    6800    133.80504     -841.344    144832.61   -39850.505    2699.0004   -42549.506    33.977872    225.96923 
    6850     132.5692   -970.07096    144881.38   -39847.162     2674.072   -42521.234    34.135255    223.88214 
    6900    134.13696   -858.95151    145065.56   -39837.124    2705.6956    -42542.82    34.146048    226.52977 
    6950    137.12408   -1011.0141    145136.14   -39792.107    2765.9493   -42558.057    34.204157    231.57441 
    7000    133.82192   -1021.6049    144988.92   -39841.814    2699.3409   -42541.155    34.472146    225.99774 
    7050    133.70146   -920.39676    144994.15   -39866.418     2696.911   -42563.329    34.715281     225.7943 
    7100     132.3342   -995.46924    144965.66   -39874.021    2669.3318   -42543.352    34.902282    223.48528 
    7150    133.08736   -1055.6104     144965.7   -39844.752     2684.524   -42529.276    35.206222    224.75722 
    7200    134.08518   -956.67319    144988.05    -39834.67    2704.6511   -42539.321    35.564738    226.44232 
    7250    133.77978   -990.25741    145009.59   -39854.826    2698.4909   -42553.317    35.535859    225.92657 
    7300    132.89299   -1024.9109    145162.59     -39856.9    2680.6033   -42537.503    35.732456    224.42896 
    7350    134.00062   -1024.1874    145148.62   -39851.344    2702.9455   -42554.289    35.965305    226.29953 
    7400    135.14335   -967.62685    145116.09   -39863.597    2725.9957   -42589.593    36.098666    228.22937 
    7450    134.60144   -1087.3759    145158.86   -39819.534    2715.0647   -42534.598    36.360875    227.31418 
    7500    134.41354   -899.48768    145063.42   -39867.467    2711.2746   -42578.742      36.7158    226.99687 
    7550    130.24354   -937.72037    145264.43    -39939.16    2627.1609   -42566.321    36.989188    219.95459 
    7600    134.91704   -708.41403    145271.54   -39917.955    2721.4307   -42639.386    37.194627    227.84717 
    7650    133.04452   -1015.1977    145436.72   -39941.824    2683.6599   -42625.484    37.214123    224.68488 
    7700    133.65023   -984.73909    145320.71    -39955.17    2695.8778   -42651.048     37.44627     225.7078 
    7750    132.69209   -976.46268    145110.36   -39938.592     2676.551   -42615.143    37.576295    224.08969 
    7800    133.42475    -928.9415    145114.91   -39913.722    2691.3295   -42605.051    37.713009      225.327 
    7850     133.0458   -890.41741    145130.89   -39906.891    2683.6858   -42590.577     37.87229    224.68704 
    7900    134.92499   -1033.8227    145073.45   -39909.581    2721.5911   -42631.172    38.199024    227.86059 
    7950    134.38227   -1017.0981    145157.92    -39855.48    2710.6437   -42566.123    38.324666    226.94405 
    8000    133.40791   -876.25285    145265.23   -39852.529    2690.9899   -42543.519    38.548989    225.29856 
    8050     136.4159   -999.74169    145242.56   -39843.131    2751.6645   -42594.795    38.641159    230.37844 
    8100    132.04393   -1028.7394    145208.06    -39871.19    2663.4768   -42534.667    39.063345    222.99508 
    8150    135.17704   -964.98771     145187.3    -39844.83    2726.6753   -42571.505    39.235462    228.28626 
    8200    133.53413   -996.49873    145268.14   -39857.895    2693.5359   -42551.431    39.198478    225.51172 
    8250    133.33163   -1113.5121    145230.14   -39882.272    2689.4512   -42571.723    39.237174    225.16974 
    8300     132.8538   -904.52026    145413.81   -39878.436    2679.8127   -42558.249    39.378365    224.36277 
    8350    132.86485    -1004.189    145372.32   -39925.837    2680.0357   -42605.873    39.623687    224.38144 
    8400    132.05294   -978.06112    145401.85   -39915.326    2663.6587   -42578.984     39.90314     223.0103 
    8450    131.71334   -1120.5518    145471.05   -39907.168    2656.8085   -42563.976    40.354887    222.43678 
    8500     134.2832   -1124.7119    145379.51   -39926.428    2708.6454   -42635.074    40.448242    226.77674 
    8550    132.89014   -1085.7378     145233.3   -39979.829    2680.5459   -42660.375    40.550029    224.42415 
    8600    132.50921   -1043.6393    145001.24   -40011.597    2672.8621   -42684.459    40.727214    223.78085 
    8650    132.31858   -1112.5049    144976.04   -39957.297    2669.0168   -42626.314    40.878809     223.4589 
    8700    132.80694    -933.9985    144881.71   -39950.699    2678.8676   -42629.566     41.16763    224.28365 
    8750    131.80196   -1122.5064    144874.36   -39954.447    2658.5961   -42613.043    41.308841    222.58644 
    8800    134.25774   -1086.5345    145026.51   -39909.795     2708.132   -42617.927    41.453459    226.73376 
    8850    132.28314   -992.83278     144922.7    -39912.55    2668.3019   -42580.852    41.621111    223.39905 
    8900    130.69928   -1150.2412    144792.48   -39942.897    2636.3537   -42579.251    41.977071    220.72424 
    8950    132.68513   -914.49219    144736.96   -39976.602    2676.4106   -42653.013    42.069313    224.07794 
    9000    132.39397    -979.9941    144971.94   -39973.252    2670.5374   -42643.789    42.250777    223.58622 
    9050    133.05337    -1112.392    144814.98   -39947.252    2683.8383   -42631.091     42.71608    224.69981 
    9100     131.5374   -866.49402    144684.75   -39962.888    2653.2596   -42616.147    42.908861    222.13966 
    9150    135.38174   -1036.4994     144850.6   -39895.591    2730.8043   -42626.396    43.100697    228.63196 
    9200    133.21134   -959.66241    144889.57   -39881.548    2687.0249   -42568.573    43.440738     224.9666 
    9250    133.81968     -994.688    144953.89    -39895.76    2699.2957   -42595.056    43.784226    225.99395 
    9300    135.24129   -969.04162     144998.2   -39849.875    2727.9711   -42577.846    44.056069    228.39475 
    9350    136.44284   -882.63328    145118.09   -39833.342    2752.2079    -42585.55    44.020212    230.42393 
    9400    134.22416   -1049.2375    145089.41   -39845.438    2707.4545   -42552.892    44.096573    226.67704 
    9450    133.43655   -989.48136    144985.27   -39867.018    2691.5676   -42558.586    44.393139    225.34693 
    9500    132.61146   -1138.2874    145001.33   -39872.527    2674.9245   -42547.451     44.70215    223.95351 
    9550    130.99892   -1059.9208    145018.04   -39882.098    2642.3977   -42524.496    45.066032    221.23026 
    9600    132.08071   -983.47706    144916.42   -39859.522    2664.2188   -42523.741    45.413634     223.0572 
    9650    134.86658   -1081.8759    144915.01   -39834.222    2720.4129   -42554.635    45.690257    227.76195 
    9700    136.42967   -977.08955    144778.38   -39792.197    2751.9423    -42544.14    45.991926     230.4017 
    9750    133.86239   -1127.0851    144727.03   -39818.092    2700.1572   -42518.249      46.0621    226.06608 
    9800    133.68797   -834.82212    144586.18   -39850.235    2696.6389   -42546.874    46.308965    225.77152 
    9850    135.26503    -1143.981     144582.5   -39878.223      2728.45   -42606.673    46.380456    228.43485 
    9900    133.86148   -1085.4342    144382.18    -39905.46    2700.1388   -42605.599    46.546656    226.06454 
    9950    133.48455   -895.33293    144473.28   -39914.192    2692.5357   -42606.728    46.708014    225.42798 
   10000    134.44728   -1026.7648    144310.69   -39902.252    2711.9552   -42614.207    46.943986    227.05384 
   10050    132.01644   -943.57558    144345.42   -39917.896    2662.9222   -42580.819    47.105884    222.94865 
   10100     134.5221   -997.33279    144498.67   -39860.111    2713.4644   -42573.575    47.235566    227.18021 
   10150    138.56571   -1138.7474    144457.15   -39781.569    2795.0285   -42576.598    47.461974    234.00902 
   10200    136.87583   -1077.9042    144627.99    -39837.96    2760.9418   -42598.902    47.636223    231.15517 
   10250    137.53421   -995.10844    144570.97   -39871.609     2774.222   -42645.831    47.760611    232.26703 
   10300    133.22369   -886.97863    144653.28   -39861.761    2687.2738   -42549.035    47.840459    224.98744 
   10350    132.61864   -814.45493    144725.15   -39868.982    2675.0693   -42544.051    48.013228    223.96564 
   10400    134.15985   -972.64823    144813.39   -39869.941    2706.1574   -42576.098    48.220586    226.56844 
   10450    136.09225   -997.03762    144862.93   -39800.243     2745.136   -42545.379    48.392903    229.83185 
   10500    134.33695   -987.02862     144902.6   -39844.596    2709.7296   -42554.326    48.443183    226.86751 
   10550    132.43911   -1078.6414    144887.96   -39886.428     2671.448   -42557.876    48.639148    223.66246 
   10600    133.40702   -1133.0862    144839.38   -39920.142     2690.972   -42611.114    48.793669    225.29706 
   10650     129.4181   -1074.5432    144624.08   -39963.848    2610.5108   -42574.359    48.925348    218.56059 
   10700    132.24224   -1009.5887    144572.46   -39987.679     2667.477   -42655.156    49.191787    223.32998 
   10750     131.5442    -1055.778    144550.31   -39935.091    2653.3966   -42588.487     49.28712    222.15113 
   10800     132.9914   -1133.6146    144535.93   -39966.078    2682.5884   -42648.666    49.258872    224.59516 
   10850    130.65203   -967.13976    144600.76       -39926    2635.4005     -42561.4    49.329842    220.64444 
   10900    130.56684   -948.61243    144608.79   -39944.198    2633.6823    -42577.88    49.511253    220.50058 
   10950     132.1206   -1157.7333    144485.35   -39908.041    2665.0232   -42573.065    49.671581    223.12455 
   11000    132.74883   -958.28869    144549.74    -39933.94    2677.6954   -42611.636    49.778696     224.1855 
   11050    133.36061   -883.01333    144591.24   -39883.627    2690.0358   -42573.663    49.845565    225.21868 
   11100    130.29512   -988.47889    144712.04   -39895.237    2628.2012   -42523.438    49.900796    220.04169 
   11150    134.25473   -972.02683    144971.33   -39832.916    2708.0712   -42540.988    49.866416    226.72867 
   11200    134.68748   -952.88847    145041.36   -39820.292    2716.8001   -42537.092    50.128178    227.45948 
   11250      133.838   -1121.7711    145063.71   -39833.558    2699.6652   -42533.223    50.330398    226.02489 
   11300    131.08889   -1077.3407    145055.81   -39878.924    2644.2126   -42523.136    50.576449    221.38221 
   11350    133.10896   -940.79323    144979.53   -39913.632    2684.9596   -42598.592    50.445386    224.79369 
   11400    132.84501   -1053.4489    144816.87   -39856.807    2679.6355   -42536.443    50.435865    224.34794 
   11450    135.13148   -1034.1557    144901.33   -39874.883    2725.7562   -42600.639    50.448967    228.20931 
   11500    133.58931   -1030.1862    145030.64   -39882.256    2694.6489   -42576.905    50.853723    225.60491 
   11550    134.64436    -1003.733    145121.39   -39853.983    2715.9305   -42569.913    50.790242    227.38668 
   11600     133.8617   -1018.0416    144994.32    -39851.23    2700.1432   -42551.374    50.897144    226.06491 
   11650    131.98115   -919.76298    144976.48   -39852.589    2662.2104   -42514.799    50.926062    222.88905 
   11700    135.75048   -1101.0411    144962.56   -39835.561    2738.2421   -42573.803    50.973977    229.25467 
   11750    134.54692   -1047.1062    144947.01   -39882.794    2713.9649   -42596.759    51.037877    227.22211 
   11800    133.93104   -997.34338    145121.13   -39887.391    2701.5419   -42588.933    51.066063    226.18201 
   11850    135.36658   -1098.2751    145168.95   -39887.051    2730.4985    -42617.55    51.208459    228.60636 
   11900    131.92732   -999.59277    145156.76   -39853.856    2661.1246   -42514.981    51.228717    222.79814 
   11950      135.315   -920.17213    145244.33   -39919.924     2729.458   -42649.382    51.256222    228.51924 
   12000    135.08759   -1060.7502    145208.96   -39875.884    2724.8709   -42600.755     51.37959    228.13519 
   12050    131.85516   -1001.8807     145303.2   -39897.345    2659.6692   -42557.014    51.650827    222.67629 
   12100     132.6197   -899.30409    145401.76   -39924.632    2675.0908   -42599.723    51.724052    223.96744 
   12150     133.7324   -1086.5082    145497.43   -39971.229    2697.5352   -42668.764    51.919331    225.84656 
   12200    133.29307   -1003.3691    145476.66   -40018.356    2688.6734   -42707.029     51.94414    225.10461 
   12250    130.86543   -824.83091     145430.9   -39999.103    2639.7052   -42638.809    52.009773    221.00484 
   12300    133.74852   -1014.1917     145417.2   -39981.336    2697.8604   -42679.196    52.225029    225.87378 
   12350    132.69752    -1007.821    145375.74   -39973.246    2676.6605   -42649.907    52.381403    224.09886 
   12400    133.78025     -1038.33    145327.18   -39966.538    2698.5003   -42665.039    52.756454    225.92736 
   12450    134.77358   -932.19864    145320.53   -39948.369    2718.5369   -42666.906    52.953492    227.60489 
   12500    134.38653   -906.63935    145410.56   -39922.161    2710.7297   -42632.891    53.155959    226.95124 
   12550    132.82844   -995.46175    145488.25   -39916.735    2679.3012   -42596.036    53.205704    224.31995 
   12600    135.59689   -888.86553    145326.69   -39890.085    2735.1441   -42625.229    53.174286     228.9953 
   12650    134.84221   -1036.1346    145422.85   -39871.403    2719.9212   -42591.324    53.351789    227.72079 
   12700    132.13439   -1171.3829    145280.72   -39926.997    2665.3014   -42592.299    53.362395    223.14784 
   12750    134.68237   -915.65405     145214.4   -39961.938    2716.6971   -42678.635    53.453117    227.45085 
   12800     134.1202   -1116.7915    145341.69   -39933.937    2705.3575   -42639.294    53.659111    226.50146 
   12850     135.5934   -998.72818    145308.82    -39920.73    2735.0736   -42655.803    53.886964     228.9894 
   12900    135.39842   -1018.9116    145309.09   -39934.651    2731.1406   -42665.792    54.223244    228.66012 
   12950    133.39262   -1083.6635    145169.79   -39930.485    2690.6814   -42621.166     54.48981    225.27274 
   13000    134.26957   -1043.3105    145072.56   -39932.049    2708.3705   -42640.419    54.648111    226.75373 
   13050    132.53636   -985.18563     145093.5   -39966.861    2673.4096   -42640.271    54.924632    223.82668 
   13100    134.33461   -949.24776    144974.34   -39954.367    2709.6824   -42664.049    54.947865    226.86356 
   13150    131.26046   -1067.8702    145072.48   -39916.321    2647.6733   -42563.995    54.952515    221.67195 
   13200    135.01943   -1070.1009    144878.61   -39899.523    2723.4959   -42623.019    54.879633    228.02008 
   13250    132.95939   -878.92162    144992.58   -39885.728    2681.9427   -42567.671    54.936653    224.54111 
   13300     132.6041   -1193.2574     144970.5   -39934.875    2674.7761   -42609.651    55.198695    223.94109 
   13350    133.24058   -921.63258    144843.56   -39922.069    2687.6145   -42609.684    55.437785    225.01597 
   13400    134.55887   -884.15131    144891.28   -39903.735    2714.2061   -42617.941    55.398727     227.2423 
   13450    136.76235   -1016.2569    145064.95   -39951.348    2758.6527   -42710.001    55.549032    230.96352 
   13500    131.20225    -1065.028    144977.94   -39939.611    2646.4991    -42586.11    55.653214    221.57365 
   13550    135.14063   -914.63274     144985.6   -39865.681    2725.9407   -42591.622    55.945999    228.22476 
   13600    135.16709   -1133.2865    144975.87    -39901.78    2726.4744   -42628.254    56.156024    228.26944 
   13650    135.10188   -996.04474    144863.91    -39851.52    2725.1592   -42576.679    56.267116    228.15933 
   13700    135.25225   -1006.6719    144786.84    -39862.51    2728.1924   -42590.702    56.424824    228.41328 
   13750    131.94289   -958.17766    144722.49    -39897.08    2661.4388   -42558.519    56.430948    222.82445 
   13800    133.97995   -1048.3212    144814.08   -39864.184    2702.5285   -42566.712    56.404827    226.26462 
   13850    135.37952    -874.8407    144933.94    -39905.53    2730.7594    -42636.29    56.470272     228.6282 
   13900    131.52045   -868.06273    145090.01   -39879.954    2652.9176   -42532.871    56.722024    222.11102 
   13950    134.19908   -868.89293    145010.66   -39919.937    2706.9486   -42626.885    56.980192    226.63468 
   14000    131.43594   -1014.7361     145189.1   -39907.503     2651.213   -42558.716    56.919876    221.96831 
   14050    133.21361   -931.08638    145122.77   -39865.574    2687.0706   -42552.645    56.961937    224.97043 
   14100    131.43637   -954.45431    145134.21   -39909.803    2651.2216   -42561.025    57.180478    221.96903 
   14150     130.4646   -876.86029    145208.91   -39904.404      2631.62   -42536.024    57.365211    220.32792 
   14200    133.83066   -1057.9134    145190.45   -39931.038    2699.5171   -42630.555    57.564527    226.01249 
   14250    133.76344   -891.58911    145340.76   -39924.979    2698.1612    -42623.14    57.621957    225.89897 
   14300     132.3889   -1049.0928    145312.53   -39891.839    2670.4352   -42562.274    57.729751    223.57766 
   14350    133.48775   -983.48962    145124.53   -39844.834    2692.6004   -42537.435    57.805075     225.4334 
   14400    136.50692   -853.37555    145242.03   -39819.077    2753.5005   -42572.578    58.021801    230.53216 
   14450    133.70712   -1101.0688    145293.29   -39814.166    2697.0253   -42511.191    58.146156    225.80387 
   14500    133.64779   -1030.2155    145165.16   -39819.009    2695.8284   -42514.837    58.256532    225.70366 
   14550    137.70529    -899.9646    145071.46    -39794.81     2777.673   -42572.483    58.328516    232.55596 
   14600    133.83926    -1024.217    145163.32   -39753.484    2699.6906   -42453.174    58.424949    226.02702 
   14650     135.4252     -980.429    145273.56   -39751.013    2731.6809   -42482.694    58.508808    228.70535 
   14700    132.43984   -1140.6193     145116.8   -39759.031    2671.4627   -42430.493    58.402079    223.66368 
   14750    137.68676   -1174.1031    144963.27    -39822.47    2777.2991   -42599.769    58.506381    232.52466 
   14800    133.08736   -856.76113    144959.67   -39824.483    2684.5239   -42509.006    58.538711    224.75721 
   14850    133.31823   -945.78563    145076.15   -39842.538    2689.1808   -42531.719    58.796764     225.1471 
   14900    133.67375   -969.30733    145091.85   -39844.587    2696.3522   -42540.939    58.925857    225.74751 
   14950     134.6164   -938.61678     145265.4   -39849.489    2715.3664   -42564.855    59.149626    227.33945 
   15000    132.67476   -929.94087    145406.15   -39821.454    2676.2014   -42497.655    59.614739    224.06042 
   15050    132.64372   -1030.0847    145354.49   -39887.234    2675.5753   -42562.809    59.787088      224.008 
   15100    131.80379   -1030.9019    145163.36   -39888.306    2658.6329   -42546.939    60.049061    222.58953 
   15150    133.68958   -1114.0284    145113.24   -39898.428    2696.6715     -42595.1    60.312294    225.77425 
   15200    132.99207    -918.6575    145191.99   -39862.569    2682.6018   -42545.171    60.420318    224.59629 
   15250    135.33492   -1054.4957    145084.39   -39846.083    2729.8599   -42575.943    60.627652    228.55289 
   15300    136.33905   -1001.3873    145069.07   -39876.097    2750.1142   -42626.212    60.514957    230.24865 
   15350    132.02585   -896.61979    145206.37   -39844.646    2663.1121   -42507.758    60.391464    222.96454 
   15400    134.95155   -896.26213    145250.64   -39859.453    2722.1269    -42581.58    60.605653    227.90546 
   15450      132.611   -952.64932    145509.86   -39815.785    2674.9152     -42490.7    60.571225    223.95274 
   15500    133.36984   -1068.2036    145439.96   -39803.747    2690.2219   -42493.969    60.638206    225.23426 
   15550    131.82718   -931.02504    145406.86   -39760.936    2659.1047   -42420.041    60.910589    222.62903 
   15600    134.14453   -1052.1884    145201.14   -39792.385    2705.8482   -42498.233     61.21546    226.54255 
   15650    133.94209   -1171.1793    145066.72   -39820.143     2701.765   -42521.908    61.562628    226.20069 
   15700    134.20482   -945.92043     145143.6   -39885.816    2707.0645    -42592.88      61.7633    226.64438 
   15750    134.93084   -931.05572    145164.32   -39836.093    2721.7091   -42557.802    61.789502    227.87048 
   15800    135.67987   -928.38495    145194.13   -39843.163    2736.8179   -42579.981    62.041675    229.13544 
   15850    131.29022   -1045.9836    145193.75   -39908.789    2648.2737   -42557.063    62.204577    221.72222 
   15900    133.77896   -822.82668    145277.36   -39863.548    2698.4743   -42562.022    62.290946    225.92518 
   15950    136.11556   -1000.7133    145262.53   -39913.768    2745.6063   -42659.374    62.568225    229.87123 
   16000    133.06317   -1151.9009    145130.56   -39954.787    2684.0361   -42638.823    62.811233    224.71637 
   16050    133.41135   -836.85579    145351.34    -39898.68    2691.0593    -42589.74    62.917819    225.30437 
   16100    134.29762   -1075.5715    145420.08   -39897.869    2708.9364   -42606.806    63.103274     226.8011 
   16150    132.98435   -958.32715    145440.49    -39923.71    2682.4461   -42606.156    63.347673    224.58325 
   16200    129.54777   -854.31503    145403.35   -39898.641    2613.1264   -42511.768    63.368674    218.77957 
   16250    136.91102   -1048.9153    145361.75    -39798.04    2761.6515   -42559.692    63.780719    231.21458 
   16300    131.38509   -1043.5628    145362.68   -39850.845    2650.1872   -42501.033    64.010525    221.88243 
   16350    136.81719   -1027.3419    145354.88   -39830.637    2759.7589   -42590.396    64.110019    231.05613 
   16400    135.73358   -996.19288    145451.69   -39828.497    2737.9013   -42566.399     64.63294    229.22614 
   16450    135.36435   -950.86254    145420.72   -39865.449    2730.4535   -42595.903    64.845786    228.60259 
   16500    134.87258   -1049.4316    145455.37   -39849.329     2720.534   -42569.863     65.03898    227.77209 
   16550    134.26805   -972.77405    145411.61   -39808.764    2708.3399   -42517.104    65.358444    226.75116 
   16600    133.98042   -919.28868    145559.43   -39821.527    2702.5381   -42524.065    65.549297    226.26542 
   16650    136.76376   -957.20638    145567.41   -39879.454    2758.6811   -42638.135     65.81726     230.9659 
   16700    137.32935   -1044.1676    145544.66    -39834.23    2770.0897   -42604.319    65.933317    231.92106 
   16750    134.29392   -1001.5988    145373.15   -39844.391    2708.8617   -42553.253    66.446815    226.79485 
   16800    137.72239   -1014.4736    145459.74    -39852.53    2778.0179   -42630.548    66.663161    232.58483 
   16850    135.77354   -838.28453    145610.27    -39808.26    2738.7074   -42546.967    66.929719    229.29363 
   16900    133.18929   -975.31641    145656.77   -39853.408      2686.58   -42539.988    66.962253    224.92936 
   16950    134.11206   -1100.6702    145597.77   -39850.605    2705.1934   -42555.798    67.286064    226.48773 
   17000    134.31872   -1038.9752    145548.07   -39872.162    2709.3619   -42581.524    67.453127    226.83673 
   17050    133.03937    -1123.359    145392.83   -39864.822    2683.5559   -42548.378    67.555885    224.67616 
   17100    134.04945   -1046.3004    145281.71   -39867.052    2703.9305   -42570.982    67.689687    226.38199 
   17150    133.59423   -927.37599    145310.05   -39888.327    2694.7481   -42583.075    67.597204    225.61321 
   17200    133.07621   -1040.4636    145443.65   -39929.784    2684.2991   -42614.083    67.387272    224.73839 
   17250    130.87743   -897.94382    145352.86   -39932.688    2639.9473   -42572.636    67.504269    221.02511 
   17300    130.75193   -933.25853    145476.35   -39942.147    2637.4158   -42579.562    67.805574    220.81316 
   17350    131.30004   -890.01072    145560.93   -39901.274    2648.4716   -42549.745    67.915491     221.7388 
   17400    132.11464   -1182.4425    145402.05   -39935.593    2664.9032   -42600.496    68.265864     223.1145 
   17450    131.56889   -1128.5208    145270.99   -39975.366    2653.8947    -42629.26    68.407645    222.19283 
   17500    132.49628   -939.42595    145158.78   -40005.353    2672.6011   -42677.955    68.977607      223.759 
   17550    131.16533   -1056.6945    145184.51   -39963.238    2645.7544   -42608.992    69.145723     221.5113 
   17600    131.62755   -953.39143    145194.72   -39942.434    2655.0779   -42597.512     69.18824     222.2919 
   17650    130.73238    -1220.521    145054.38   -39903.177    2637.0213   -42540.199    69.342228    220.78013 
   17700    132.54798    -1040.336    144932.95   -39932.317    2673.6441   -42605.961    69.524386    223.84631 
   17750     133.7453   -1077.4153    144855.64   -39928.109    2697.7953   -42625.904    69.649372    225.86834 
   17800    131.86568    -1009.604    144750.18   -39928.877    2659.8813   -42588.758    69.807692    222.69405 
   17850    131.22604   -870.11029    144937.66    -39933.22    2646.9791   -42580.199    69.881109    221.61384 
   17900    132.58571   -973.62476    144954.87   -39909.967    2674.4051   -42584.372    70.059467    223.91003 
   17950    133.70425   -1010.3959    144858.52   -39877.934    2696.9673   -42574.902    70.412943    225.79901 
   18000    134.53751   -1027.6631    144846.01   -39884.415    2713.7751    -42598.19    70.681125    227.20622 
   18050    134.17813   -860.96583    144953.68   -39880.286    2706.5262   -42586.812    70.968806    226.59931 
   18100    134.20047   -1085.4789    145112.14   -39908.078    2706.9767   -42615.054    71.142473    226.63704 
   18150    133.63812   -1042.2996    145043.83   -39926.012    2695.6334   -42621.645    71.092743    225.68733 
   18200    134.57982   -1072.0441    144973.29   -39912.495    2714.6285   -42627.123    71.088231    227.27767 
   18250    134.68895   -1021.9638    145046.39   -39926.538    2716.8299   -42643.368    71.226355    227.46197 
   18300    133.74835   -1009.4614    145036.49   -39939.641     2697.857   -42637.498    71.265652     225.8735 
   18350    131.99525   -934.48771    145013.41   -39992.494     2662.495   -42654.989    71.496639    222.91287 
   18400    134.58986   -931.17757    145064.12   -39984.421    2714.8311   -42699.252    71.703776    227.29463 
   18450     132.9009   -991.15227    144944.73    -39940.02    2680.7628   -42620.783    71.589198    224.44232 
   18500    133.16726   -963.29337    144898.63   -39924.943    2686.1356   -42611.079    71.688706    224.89214 
   18550     133.5569   -1104.2823    144863.87   -39921.165    2693.9951    -42615.16    71.851671    225.55017 
   18600    136.67485   -848.66624    144906.59   -39905.694    2756.8878   -42662.581    71.913624    230.81575 
   18650    132.55053   -1036.1076    145002.32   -39968.163    2673.6954   -42641.859     72.09248    223.85061 
   18700    134.44658   -821.75616    144972.82   -39900.025     2711.941   -42611.966    72.205467    227.05266 
   18750    134.90421   -1083.0148    145094.54    -39859.13     2721.172   -42580.302    72.363037    227.82551 
   18800    133.90543   -1064.8125    145067.24   -39864.931    2701.0253   -42565.957    72.628065    226.13876 
   18850    133.81782   -1024.1311    144939.11   -39915.674    2699.2583   -42614.932    72.684939    225.99082 
   18900    133.34664   -852.29177     144975.7   -39860.198     2689.754   -42549.952    72.791896    225.19509 
   18950    134.30228   -1059.9297    145082.63   -39825.848    2709.0303   -42534.878    72.950727    226.80896 
   19000    133.53619   -987.71817    145090.45   -39848.245    2693.5774   -42541.823    72.963735    225.51519 
   19050    134.90448   -961.75648     144969.1   -39902.991    2721.1774   -42624.168    73.168507    227.82597 
   19100    135.66837   -834.84508    144990.83   -39878.415     2736.586   -42615.001    73.274837    229.11602 
   19150    133.45263   -991.12585    145056.36   -39837.692    2691.8919   -42529.584    73.381737    225.37408 
   19200     134.1053   -996.75847       144922   -39861.797     2705.057   -42566.854    73.488498    226.47631 
   19250    134.57897   -796.16161    145010.08   -39845.886    2714.6114   -42560.497    73.398447    227.27623 
   19300    134.19611   -963.10591    145086.48    -39882.09    2706.8888   -42588.979    73.532599    226.62967 
   19350    136.41566   -891.38304    145200.04   -39891.722    2751.6595   -42643.381    73.607416    230.37802 
   19400    132.07614   -1149.3892    145094.67   -39909.973    2664.1264     -42574.1    73.813588    223.04947 
   19450    130.91861   -1076.0681    144928.72   -39913.338    2640.7778   -42554.116    73.899675    221.09464 
   19500    128.84456   -924.88925    144971.16   -39961.317    2598.9419   -42560.259    74.012774      217.592 
   19550     130.8891   -946.26782    144979.83   -39955.923    2640.1825   -42596.106    74.083851     221.0448 
   19600    133.09447   -1080.5478    144954.24   -39924.938    2684.6673   -42609.606    74.276801    224.76922 
   19650    133.88671   -965.47789    144922.89   -39877.853    2700.6478     -42578.5    74.262131    226.10715 
   19700    133.82672   -942.67862    145056.52   -39840.111    2699.4378   -42539.549    74.364862    226.00585 
   19750    132.58338   -792.16746    145037.29   -39846.818    2674.3582   -42521.176     74.68023     223.9061 
   19800    136.86408   -952.00231    145136.62    -39828.75    2760.7046   -42589.454    74.829823    231.13531 
   19850    133.79599   -1025.6121    145158.27     -39891.4    2698.8179   -42590.218    75.074523    225.95395 
   19900    132.96458   -1069.3458    145025.07   -39880.786    2682.0474   -42562.834    75.210964    224.54987 
   19950    133.33092   -1132.6143    144918.01   -39869.656    2689.4368   -42559.093    75.430272    225.16853 
   20000    135.07399   -980.61373    144845.35   -39843.007    2724.5966   -42567.604    75.627542    228.11222 
   20050     133.1186   -1103.4701    144763.97   -39832.007    2685.1541   -42517.161    75.820028    224.80997 
   20100    133.43378   -999.42796    144751.93   -39831.148    2691.5116   -42522.659    76.154331    225.34225 
   20150    132.81588   -1060.0792    144803.63   -39858.735    2679.0478   -42537.783    76.292921    224.29874 
   20200    135.05058    -1002.965     144733.1   -39823.461    2724.1243   -42547.585    76.584663    228.07269 
   20250    134.35514   -1083.0336    144752.59    -39804.27    2710.0966   -42514.366    76.675502    226.89824 
   20300    132.06235   -969.52395    144646.83   -39799.661    2663.8483   -42463.509    76.884272    223.02618 
   20350    132.63324   -1101.0173    144593.05   -39791.042     2675.364   -42466.406    77.380824    223.99031 
   20400    131.17693   -1038.9307    144465.26   -39852.786    2645.9883   -42498.774    77.487418    221.53088 
   20450      135.069   -872.18136    144646.01   -39857.141     2724.496   -42581.637     77.89405    228.10381 
   20500    133.47363   -1127.6904    144624.36   -39899.583    2692.3154   -42591.898    78.270558    225.40954 
   20550     132.1813   -971.85714    144712.83   -39878.927    2666.2477   -42545.175    78.432856    223.22706 
   20600    131.65403   -1045.9955    144687.41   -39915.359    2655.6121   -42570.971    78.822477    222.33662 
   20650    131.84041   -1093.3449    144656.89   -39904.772    2659.3715   -42564.144    79.207425    222.65137 
   20700    133.67282   -1011.5164    144569.24   -39878.444    2696.3333   -42574.777    79.132467    225.74593 
   20750    130.93302   -1035.4269    144537.98   -39920.729    2641.0685   -42561.798    79.459834    221.11898 
   20800    132.94452   -876.36496    144685.28   -39935.642    2681.6427   -42617.285    79.759353    224.51599 
   20850    131.15205   -977.39248    144758.39   -39950.172    2645.4866   -42595.658    80.032366    221.48887 
   20900    132.65228   -1098.6187    144812.93   -39912.712    2675.7478    -42588.46    80.115749    224.02245 
   20950    132.50318   -927.79539     144760.2   -39958.524    2672.7405   -42631.264    80.137201    223.77066 
   21000    130.83679   -1331.6706    144723.84   -39975.824    2639.1274   -42614.952    80.509191    220.95646 
   21050    131.92704    -871.5125    144634.17   -39995.855     2661.119   -42656.974    80.631397    222.79767 
   21100    131.13187   -853.39701    144732.65   -40012.079    2645.0796   -42657.158    80.760477     221.4548 
   21150    131.36404   -905.83667    144770.18   -39983.401    2649.7627   -42633.163    80.864153    221.84689 
   21200     130.4853   -964.73818    144810.47   -40015.194    2632.0374   -42647.231    81.111446    220.36287 
   21250     130.2342   -966.18637    144821.59   -40014.227    2626.9725     -42641.2    81.389759    219.93882 
   21300    131.13682   -991.22682    144850.05    -39923.54    2645.1794    -42568.72    81.444515    221.46316 
   21350    132.54914   -1021.3552    144906.91   -39972.975    2673.6675   -42646.643    81.650184    223.84828 
   21400     132.4189    -1072.543    145020.42   -39927.583    2671.0404   -42598.623    81.846083    223.62833 
   21450    133.00786   -1041.2269    144934.31   -39918.024    2682.9204   -42600.944    82.084633    224.62296 
   21500     133.4823   -1060.3868    144926.04    -39959.48    2692.4904    -42651.97    82.234627    225.42419 
   21550    132.81918   -1074.7652    144884.04   -39908.363    2679.1145   -42587.477    82.317266    224.30431 
   21600     134.1103   -1047.6629     144854.6    -39879.16    2705.1579   -42584.318    82.640126    226.48475 
   21650    134.44021   -991.59619    144727.04   -39868.014    2711.8124   -42579.826    82.808299    227.04189 
   21700    132.79286   -952.99119    144706.52   -39899.838    2678.5836   -42578.422    82.794847    224.25987 
   21750    134.18358   -1022.1352    144813.51   -39845.773     2706.636   -42552.409    82.577185    226.60851 
   21800     131.2667   -917.12772    144825.96   -39889.745    2647.7992   -42537.545    82.806966     221.6825 
   21850    133.08275   -989.94777    144792.68   -39888.285    2684.4309   -42572.716    82.774318    224.74943 
   21900    132.30702   -863.28331    144901.73   -39832.427    2668.7836    -42501.21    82.879569    223.43938 
   21950    134.98761    -967.9828    144894.54   -39799.246    2722.8543   -42522.101    83.128618    227.96635 
   22000     134.0581   -853.20801     144937.6   -39810.329     2704.105   -42514.434    83.114905     226.3966 
   22050    131.25806   -886.87849    145017.49   -39861.496    2647.6249   -42509.121     83.22297     221.6679 
   22100    134.52153   -1020.4498    144932.58   -39845.842    2713.4528   -42559.295    83.561161    227.17923 
   22150    134.31625   -1114.6323    144946.03   -39878.113     2709.312   -42587.425    83.771227    226.83255 
   22200    135.31081   -986.70834    144782.14   -39929.764    2729.3735   -42659.138    83.981347    228.51217 
   22250    134.09854   -898.43269    144730.23   -39900.915    2704.9207   -42605.836    84.218372     226.4649 
   22300    132.22203   -986.49651    144817.77    -39980.71    2667.0692   -42647.779    84.191625    223.29585 
   22350    129.93351    -968.9543    144838.51   -40024.224    2620.9072   -42645.132    84.291872    219.43101 
   22400    131.23876   -1093.7293    144697.57   -39999.097    2647.2357   -42646.332     84.62045    221.63532 
   22450    133.09652   -1033.0535    144637.75   -39951.634    2684.7087   -42636.342    84.792313    224.77268 
   22500    132.06539   -1003.8226    144647.27   -39930.943    2663.9097   -42594.853    84.877288    223.03132 
   22550    134.19779     -964.504    144615.62   -39881.549    2706.9226   -42588.472    84.797499     226.6325 
   22600    136.05487   -906.06874    144698.41   -39877.675     2744.382   -42622.057    84.741743    229.76873 
   22650    134.44923   -891.38118     144926.4    -39862.95    2711.9945   -42574.944    84.953504    227.05714 
   22700    132.13849   -1009.8786     144919.7   -39937.054    2665.3843   -42602.439    84.947127    223.15478 
   22750    133.11563    -1124.227    144919.42   -39892.996    2685.0942   -42578.091    84.997425    224.80496 
   22800    131.80073   -865.93138    144900.88   -39875.521    2658.5712   -42534.092    85.311397    222.58437 
   22850    134.55787   -1022.2501    145076.29   -39876.832    2714.1858   -42591.018    85.314123     227.2406 
   22900    134.40175   -999.88969    145108.86   -39911.208    2711.0367   -42622.245    85.492234    226.97695 
   22950    133.28044   -947.46397    145119.84   -39895.555    2688.4186   -42583.974    85.580769    225.08329 
   23000    134.95973   -1080.9461    145177.14   -39884.935    2722.2918   -42607.227    85.649533    227.91926 
   23050    133.10175   -1071.2875    145094.82   -39872.882    2684.8143   -42557.696    85.757124    224.78153 
   23100    132.09668   -925.24046    145077.05   -39883.477    2664.5409   -42548.018    86.009521    223.08417 
   23150    132.47984   -1035.8827    144937.84    -39875.59    2672.2695   -42547.859    86.115425    223.73123 
   23200    131.15345   -996.65088    144914.27   -39885.623    2645.5147   -42531.138    86.456514    221.49123 
   23250    134.17882   -921.24084    144800.98   -39847.307    2706.5399   -42553.847    86.320495    226.60046 
   23300     133.1523   -1176.6235    144852.52   -39826.387    2685.8339   -42512.221    86.658507    224.86688 
   23350    135.28522   -1072.4007    144620.25   -39863.104    2728.8573   -42591.962    86.685214    228.46894 
   23400    132.91604   -984.54089    144682.99   -39880.896    2681.0682   -42561.965    86.879176    224.46789 
   23450    131.56166   -967.33323     144737.9   -39917.454    2653.7489   -42571.203    87.179163    222.18063 
   23500    135.52011   -1101.5006    144858.23    -39859.73    2733.5953   -42593.326    87.534832    228.86563 
   23550    134.03988   -1012.1032    144738.82   -39892.891    2703.7375   -42596.628    87.774004    226.36583 
   23600    131.34137   -874.98342    144880.95   -39946.052    2649.3055   -42595.358    87.885298     221.8086 
   23650    132.69343   -1026.0417    144872.87   -39905.872    2676.5779    -42582.45    87.878656    224.09194 
   23700    133.37334   -1078.7946    144910.79   -39894.726    2690.2926   -42585.019    88.114128    225.24018 
   23750    130.91147   -1029.6418    144846.01   -39925.757    2640.6337    -42566.39    88.261472    221.08258 
   23800    131.59481   -933.34047    144934.77   -39949.977    2654.4175   -42604.395    88.302295     222.2366 
   23850    132.19845   -1133.5761     144841.8   -39932.811    2666.5936   -42599.404    88.602336    223.25602 
   23900    133.91044   -1156.8868       144792   -39912.831    2701.1265   -42613.957    88.693439    226.14723 
   23950    133.59111   -1015.2799     144714.9   -39959.419    2694.6851   -42654.104    88.607337    225.60794 
   24000    129.35248   -906.21536    144743.32   -39965.887    2609.1873   -42575.075    88.859752    218.44978 
   24050    133.18639    -1098.691    144697.29   -39954.979    2686.5216     -42641.5    89.157709    224.92446 
   24100    134.88278   -1104.4678    144797.87   -39919.755    2720.7396   -42640.495    89.263204    227.78931 
   24150    138.10279   -956.67052    144861.59   -39912.102    2785.6909   -42697.793    89.337036    233.22724 
   24200    134.36721   -1064.8376    144920.96   -39903.137    2710.3401   -42613.477    89.417483    226.91862 
   24250    135.31947   -1151.3549    144820.51   -39910.852    2729.5482     -42640.4    89.584663    228.52679 
   24300    131.55515    -1049.999    144745.88   -39964.034    2653.6175   -42617.652    89.801453    222.16963 
   24350    132.62954   -872.84824    144739.14   -39956.739    2675.2892   -42632.028    89.852749    223.98405 
   24400    135.11012   -983.88001    144719.91   -39980.407    2725.3253   -42705.732    90.027898    228.17324 
   24450    133.44096   -993.28418    144720.47   -39941.859    2691.6564   -42633.516    90.196292    225.35437 
   24500    133.02393   -1023.6437    144739.05   -39924.048    2683.2446   -42607.292    90.394697     224.6501 
   24550    134.69645   -963.95723    144710.45   -39931.312    2716.9811   -42648.294    90.714483    227.47463 
   24600    132.64987   -864.85118    144757.15   -39968.622    2675.6993   -42644.321    91.027392    224.01838 
   24650    132.84872   -924.95517     144849.3   -39954.712    2679.7103   -42634.423    91.289605     224.3542 
   24700     133.7659   -1125.0927    144781.83   -39916.865    2698.2109   -42615.076    91.463713    225.90313 
   24750     133.4973   -1009.6285    144829.48   -39912.239    2692.7928   -42605.032    91.513885    225.44951 
   24800    134.41491   -947.87457    144774.69   -39948.096    2711.3022   -42659.398    91.681262    226.99918 
   24850    136.19755   -914.53104    144878.55   -39952.277      2747.26   -42699.537    91.866489    230.00968 
   24900    134.28143   -1092.1899    144859.92   -39917.911    2708.6098   -42626.521    92.199869    226.77376 
   24950    137.45635   -1013.1697    144876.36   -39857.721    2772.6516   -42630.373    92.521705    232.13555 
   25000    132.82164   -1264.1814    144665.23   -39912.005    2679.1641   -42591.169    92.518162    224.30847 
   25050    135.32092   -890.48963    144730.79   -39893.952    2729.5775    -42623.53    92.559236    228.52924 
   25100    131.20659   -1037.7838    144836.05   -39961.724    2646.5868    -42608.31    92.850415    221.58099 
   25150    131.47705   -989.12746    144899.28   -39938.477    2652.0423   -42590.519    93.024793    222.03774 
   25200    132.27401   -1106.3986    144921.85   -39983.312    2668.1178    -42651.43    93.014788    223.38364 
   25250     131.8245   -912.32602    144901.83   -40011.667    2659.0506   -42670.718    93.308424     222.6245 
   25300    130.85795   -919.69619    144872.52    -39993.03    2639.5542   -42632.585    93.847371     220.9922 
   25350    132.95899   -932.06346    144912.23   -39948.078    2681.9346   -42630.012    93.740936    224.54043 
   25400    132.27816   -901.00538    144975.22   -39963.549    2668.2014    -42631.75    94.107111    223.39064 
   25450    134.57181   -1167.4537    145028.63    -39984.63     2714.467   -42699.097    94.454677    227.26415 
   25500    134.70983   -874.11864    144866.73   -39998.798    2717.2511   -42716.049    94.773115    227.49723 
   25550    132.28947   -1032.8152    144845.94   -39959.842    2668.4297   -42628.272    95.014175    223.40975 
   25600    133.76143    -1003.409     144787.5    -39893.07    2698.1208   -42591.191    95.163945    225.89559 
   25650    135.45231    -1065.498    144902.77    -39876.19    2732.2278   -42608.418    95.284781    228.75114 
   25700    134.82194   -1085.9231    144704.88   -39837.777    2719.5124   -42557.289    95.582382    227.68657 
   25750    134.17234   -1058.7576    144625.27   -39859.217    2706.4092   -42565.626    95.956756    226.58952 
   25800    135.92158   -1066.0097    144503.57   -39865.213    2741.6935   -42606.906     96.17138    229.54364 
   25850    134.02859   -1020.2527    144481.73   -39863.408    2703.5096   -42566.918    96.610595    226.34675 
   25900    133.24457   -1106.7059    144512.27   -39848.696    2687.6952   -42536.391    96.826667    225.02272 
   25950    135.44719    -1137.434    144286.59   -39858.056    2732.1244    -42590.18    96.969951    228.74248 
   26000    133.19013   -848.21565    144399.81   -39843.156    2686.5969   -42529.753      97.1161    224.93077 
   26050    132.73985   -1176.7889    144439.24   -39881.483    2677.5142   -42558.998    97.358606    224.17034 
   26100    134.54421   -1121.0254    144330.79   -39838.421    2713.9104   -42552.331    97.546902    227.21754 
   26150    132.55241   -1037.1234    144236.43    -39857.69    2673.7334   -42531.423    97.564473    223.85379 
   26200    135.40399   -983.58323    144401.62   -39864.377     2731.253    -42595.63    97.655244    228.66953 
   26250    133.55923   -1062.9598    144407.53   -39924.927    2694.0421   -42618.969    97.797589     225.5541 
   26300    132.80772   -1079.9226    144205.65    -39935.72    2678.8833   -42614.604    97.749117    224.28496 
   26350    133.35196   -879.36906    144294.31   -39913.178    2689.8613   -42603.039    97.617141    225.20408 
   26400    133.29344   -902.46707       144458   -39905.875    2688.6809   -42594.556    97.900042    225.10525 
   26450    133.66949   -877.18649    144466.91   -39907.153    2696.2663   -42603.419     97.90544    225.74032 
   26500    135.50739   -1047.3061    144438.85   -39810.451    2733.3387    -42543.79    98.164618    228.84414 
   26550    134.27939   -925.72904    144478.42   -39844.346    2708.5686   -42552.915    98.405352    226.77031 
   26600    136.30398   -966.94376    144482.54   -39833.056     2749.407   -42582.463    98.591013    230.18943 
   26650    132.25191   -1020.2583    144540.34   -39839.778     2667.672    -42507.45    98.820292    223.34631 
   26700    134.94037   -936.01499    144538.49    -39792.97    2721.9014   -42514.871    99.044533    227.88657 
   26750    133.30608   -997.37111    144551.19   -39806.704    2688.9359    -42495.64    99.163023    225.12659 
   26800    132.38209   -919.22558    144416.78   -39769.322     2670.298    -42439.62    99.032541    223.56617 
   26850    132.79024   -981.13535    144471.26   -39783.657    2678.5308   -42462.188      99.2329    224.25545 
   26900    134.60379   -1043.5415    144403.69   -39801.925    2715.1121   -42517.037    99.089627    227.31815 
   26950     132.3018   -1070.8308    144368.83    -39818.82    2668.6784   -42487.499    98.990484    223.43057 
   27000    134.52544   -971.45743     144405.7   -39852.585    2713.5318   -42566.117     98.98059    227.18584 
   27050    133.10354     -943.596     144364.2    -39859.25    2684.8504     -42544.1    99.271915    224.78454 
   27100    134.71211   -938.77851    144355.81    -39871.76    2717.2971   -42589.057    99.416811    227.50109 
   27150    133.16963   -1155.4134    144239.54   -39868.914    2686.1835   -42555.098    99.580933    224.89615 
   27200     131.1477   -891.15918     144145.5    -39871.63    2645.3988   -42517.029    99.845756    221.48152 
   27250    132.92498    -1055.136    144287.13   -39838.277    2681.2486   -42519.525    100.30556    224.48299 
   27300    134.53075   -954.35556    144286.43   -39818.501    2713.6389    -42532.14    100.57142    227.19481 
   27350    135.46179   -1018.5174       144232   -39795.262     2732.419   -42527.681    100.50366    228.76714 
   27400    135.02807    -957.6773    144170.37   -39834.468    2723.6703   -42558.138    100.56507    228.03467 
   27450    132.22961   -1095.7741    144105.53   -39909.405    2667.2221   -42576.627    100.85668    223.30865 
   27500    134.17113   -1092.6629    144009.01   -39891.822    2706.3848   -42598.206    101.12984    226.58748 
   27550    136.52789   -1044.8708    144153.05   -39830.968    2753.9234   -42584.892    101.29779    230.56756 
   27600    134.82727   -821.53928    144264.24   -39859.685      2719.62   -42579.305    101.28092    227.69557 
   27650    132.25234   -940.41034    144334.24   -39835.138    2667.6808   -42502.819    101.29446    223.34705 
   27700      134.634   -1077.8791    144396.95   -39815.264    2715.7215   -42530.986    101.73099    227.36918 
   27750    132.22727    -963.7807    144309.68   -39885.802    2667.1749   -42552.977    102.02501    223.30469 
   27800    133.65028   -961.65333    144227.32   -39824.286    2695.8788   -42520.164    102.29203    225.70787 
   27850    135.08745   -999.93305    144179.79   -39857.044    2724.8681   -42581.912    102.45729    228.13496 
   27900    134.48238   -907.08254    144129.98   -39849.689    2712.6631   -42562.352    102.81963    227.11311 
   27950    134.46431   -963.98211     144141.7   -39832.063    2712.2987   -42544.362    103.23546    227.08261 
   28000    133.67088   -813.99284    144408.13   -39911.243    2696.2943   -42607.537    103.85973    225.74266 
   28050     131.2591   -999.88336    144563.89   -39945.505    2647.6459   -42593.151    104.29492    221.66966 
   28100    132.32861    -1122.904    144603.61   -39969.561    2669.2191    -42638.78    104.38338    223.47584 
   28150    135.66135   -1028.0299    144454.53   -39924.387    2736.4444   -42660.831    104.58105    229.10416 
   28200    132.66177   -1003.4703    144588.71   -39857.633    2675.9394   -42533.573    104.94942    224.03849 
   28250     135.4078   -1104.5361    144452.14   -39811.195      2731.33   -42542.525    105.36988    228.67597 
   28300    135.08292   -1104.9566    144262.87   -39813.387    2724.7766   -42538.163    105.40533     228.1273 
   28350     133.6465   -902.57118    144311.47   -39847.684    2695.8024   -42543.486    105.81237    225.70149 
   28400    135.71415   -953.31117    144459.08   -39865.778    2737.5094   -42603.287    106.15758    229.19333 
   28450    135.58138   -964.46132    144494.99   -39860.659    2734.8312   -42595.491    106.70423    228.96911 
   28500    134.74272   -1038.3075    144662.96   -39927.961    2717.9144   -42645.875    106.73845    227.55277 
   28550    133.03899   -1005.2925    144548.77   -39967.685    2683.5482   -42651.233    106.81081    224.67552 
   28600    134.72113   -1080.4706     144511.4   -39942.121     2717.479     -42659.6    107.01592    227.51632 
   28650    133.12476   -873.76868    144556.53    -39951.16    2685.2785   -42636.438    107.29353    224.82038 
   28700    133.10055   -1123.2892     144687.2   -39983.009      2684.79   -42667.799    107.42446    224.77949 
   28750     133.3467   -1093.0421    144632.65   -39936.547    2689.7552   -42626.302    107.58166    225.19519 
   28800    134.75636   -913.10898    144621.88   -39894.247    2718.1897   -42612.437    107.92206    227.57582 
   28850    133.49208   -1186.0912    144450.61   -39902.801    2692.6876   -42595.488    108.19943     225.4407 
   28900    135.34845   -1002.6703    144422.78   -39857.371    2730.1327   -42587.503    108.34491    228.57573 
   28950    134.57194   -897.37543    144644.21   -39864.153    2714.4697   -42578.623     108.5755    227.26437 
   29000    132.25305   -982.84765    144729.07   -39878.131     2667.695   -42545.826    108.76183    223.34824 
   29050    133.74533   -974.89579    144835.75   -39890.648     2697.796   -42588.444    108.81046    225.86839 
   29100     134.6661   -951.14945    144746.05   -39908.352     2716.369   -42624.721    109.11107    227.42338 
   29150    135.28816   -993.02233     144878.7   -39934.844    2728.9166    -42663.76    109.13548    228.47391 
   29200    131.18938   -1018.9467    144988.56   -39988.165    2646.2396   -42634.405    109.07366    221.55192 
   29250    132.70087   -943.89393    145018.03    -39964.29     2676.728   -42641.018     108.9248    224.10451 
   29300    132.05229   -855.50013    145141.63   -39950.579    2663.6454   -42614.225     108.9116    223.00919 
   29350     132.2991    -929.7875    145283.48   -39902.575    2668.6238   -42571.199    109.04074      223.426 
   29400     137.8956   -1116.0545    145199.29   -39900.635    2781.5117   -42682.146    109.14477    232.87735 
   29450    133.96393   -919.84097    145206.38     -39893.7    2702.2054   -42595.905    109.42587    226.23756 
   29500    133.70025   -884.30677    145286.78   -39879.501    2696.8866   -42576.388    109.47586    225.79226 
   29550    134.08541   -1173.1828    145419.65   -39930.287    2704.6559   -42634.943    109.41565    226.44273 
   29600    134.40306   -1023.3083       145381    -39925.08    2711.0631   -42636.144    109.38419    226.97916 
   29650    135.06978   -1005.3179    145378.48   -39900.233    2724.5116   -42624.744    109.35061    228.10511 
   29700    134.46365   -970.34985    145361.67   -39897.803    2712.2853   -42610.088    109.52421    227.08148 
   29750    136.59751   -1024.7804    145383.52   -39896.888    2755.3276   -42652.215    109.45949    230.68513 
   29800    135.56181   -974.69527    145521.19    -39900.38    2734.4364   -42634.816    109.59206    228.93605 
   29850    132.13863   -1010.2272    145521.17   -39924.408     2665.387   -42589.795    109.79197    223.15501 
   29900    133.21603    -1059.484    145574.93   -39952.075    2687.1195   -42639.194    109.97873    224.97452 
   29950    134.05115   -987.74299    145417.68   -39973.128    2703.9647   -42677.093    109.83705    226.38485 
   30000    133.72722   -1010.2554    145339.84   -39987.613    2697.4307   -42685.043    110.08403    225.83781 
   30050    136.55496   -1113.0485       145185   -39944.294    2754.4695   -42698.764    110.21016    230.61328 
   30100    135.19683    -1018.072    145187.14   -39908.162    2727.0743   -42635.236    110.45874    228.31967 
   30150     134.8012   -969.91992    145086.41   -39885.222    2719.0942   -42604.316     110.5176    227.65155 
   30200    133.10759   -980.17957    145030.83     -39908.5     2684.932   -42593.432    110.43089    224.79138 
   30250    133.23453   -994.30205    145072.91    -39964.71    2687.4926   -42652.203    110.71154    225.00576 
   30300    131.19192   -1016.6066    145095.23   -39964.576    2646.2907   -42610.867    110.79986     221.5562 
   30350    133.42207   -905.64458    145114.05   -39934.981    2691.2755   -42626.257    111.03883    225.32247 
   30400    129.10324   -1125.8414    145071.93   -39919.755    2604.1597   -42523.915    111.49248    218.02886 
   30450    134.53369   -1003.4188    145117.86   -39910.117     2713.698   -42623.815     111.5672    227.19976 
   30500    132.90572   -948.30487    145051.07   -39921.229    2680.8601   -42602.089    111.70717    224.45046 
   30550    132.50337   -883.20786    145268.85   -39883.268    2672.7442   -42556.013    111.79083    223.77097 
   30600    133.48854   -959.01263     145398.9   -39856.023    2692.6163   -42548.639     112.0752    225.43474 
   30650    133.75752   -1085.9305    145298.38   -39895.596    2698.0418   -42593.637    112.44876    225.88897 
   30700    133.61639   -997.57902    145379.29    -39897.51    2695.1951   -42592.705    112.60917    225.65063 
   30750    133.77427   -850.11789    145465.27   -39889.639    2698.3797   -42588.018    112.94502    225.91726 
   30800    132.63655   -993.77183    145476.04    -39924.81    2675.4306   -42600.241    113.16683    223.99589 
   30850    134.37139   -1022.3658    145366.83   -39896.409    2710.4243   -42606.834    113.37311    226.92568 
   30900    133.01258   -973.57563    145238.82   -39930.199    2683.0156   -42613.214    113.59545    224.63093 
   30950    134.62117   -888.85053    145263.47   -39946.071    2715.4627   -42661.533    113.75245    227.34751 
   31000    133.01386   -908.51384     145409.2   -39990.639    2683.0415   -42673.681    113.93207     224.6331 
   31050    134.91195   -786.73409    145424.68   -39989.044    2721.3281   -42710.372    114.45617    227.83857 
   31100     130.9398   -1017.6781    145581.14   -39989.135    2641.2052    -42630.34    114.63367    221.13042 
   31150    135.14413   -1125.0364    145531.21   -40005.687    2726.0113   -42731.699    114.81932    228.23067 
   31200    134.63876   -939.89525    145568.42    -39993.53    2715.8175   -42709.348    114.81137    227.37721 
   31250    133.04836   -1004.1938    145514.89   -40012.765    2683.7373   -42696.503    114.70611    224.69135 
   31300    131.74295   -1022.7031    145470.23   -40043.821    2657.4057   -42701.227    114.88409    222.48679 
   31350    132.63062   -982.59748    145364.09   -39998.195     2675.311   -42673.506    114.69241    223.98587 
   31400    133.65368   -1038.0536    145328.24   -39981.446    2695.9474   -42677.394    115.04395    225.71362 
   31450    133.36151   -1072.1396     145195.3   -40021.056    2690.0539    -42711.11    115.19803     225.2202 
   31500    132.46347   -977.35209    145124.39   -40016.497    2671.9395   -42688.437    115.46153     223.7036 
   31550    134.02333   -1012.6381    145289.91   -40013.431    2703.4036   -42716.834    116.02238    226.33788 
   31600    129.74829   -1045.9022    145232.05   -40035.383    2617.1711   -42652.554     116.4065    219.11821 
   31650    133.96729   -1121.9296     145000.6    -40001.94    2702.2731   -42704.213    116.70535    226.24323 
   31700    132.81634   -1020.9287    144936.74   -39999.471    2679.0571   -42678.529     116.8196    224.29951 
   31750    132.66775   -1033.2457    144734.57   -40022.691      2676.06   -42698.751    117.04059    224.04859 
   31800    132.58258   -810.35044    144778.14   -39945.697     2674.342   -42620.039    117.32833    223.90474 
   31850    131.71002   -1087.3217    144807.71   -39969.636    2656.7414   -42626.377    117.97957    222.43117 
   31900    132.72745   -922.00454     144861.8   -40000.703    2677.2641   -42677.967    118.30258     224.1494 
   31950    134.22046   -1071.7342    144957.13    -39974.79    2707.3798    -42682.17    118.39945    226.67078 
   32000    131.77495   -1126.4211    144901.86   -39941.915    2658.0511   -42599.966    118.59349    222.54082 
   32050    133.06601   -997.92618    144906.17   -39960.712    2684.0933   -42644.805    118.94012    224.72116 
   32100    132.23898   -1022.6987    144966.86   -39977.948    2667.4112   -42645.359    119.08825    223.32448 
   32150    132.88452   -829.59257    145075.19   -39969.273    2680.4324   -42649.705     119.3562    224.41465 
   32200    135.31349   -1060.2888    145080.96   -39950.937    2729.4277   -42680.364    119.72929     228.5167 
   32250    134.12613   -962.92099    145062.96    -39945.93    2705.4771   -42651.407    119.88718    226.51148 
   32300    134.92193   -975.42828    145057.52   -39924.761    2721.5294    -42646.29    119.87867    227.85543 
   32350    133.65767   -1084.8514    144930.78   -39950.558    2696.0277   -42646.586    120.23523    225.72035 
   32400    134.53171   -924.45877       144948   -39968.994    2713.6581   -42682.652    120.46413    227.19642 
   32450    131.96148   -939.99674    144964.98   -39999.309    2661.8136   -42661.122     120.6517    222.85583 
   32500    134.69794   -976.89581    145003.11   -39963.448    2717.0113    -42680.46    120.61663    227.47716 
   32550    134.54781   -1020.2634    144905.13   -39962.246     2713.983   -42676.229    120.61677    227.22362 
   32600    135.05597   -1008.4945    144972.55   -39953.217     2724.233    -42677.45    120.65595    228.08179 
   32650    134.59052   -1018.1657    145007.17   -39943.734    2714.8444   -42658.579    120.94112    227.29574 
   32700    133.45107   -1134.4303    144956.41   -39989.597    2691.8604   -42681.458    121.15193    225.37145 
   32750    137.94781   -1065.3981     144903.2   -39923.228    2782.5648   -42705.793    121.48936    232.96552 
   32800    135.69643    -1079.949    144886.86   -39923.846    2737.1519   -42660.998     121.8414     229.1634 
   32850    133.90394   -870.69701    144983.47   -39906.419    2700.9954   -42607.415    121.75024    226.13626 
   32900    134.80861   -1079.7972    145006.61   -39911.978    2719.2436   -42631.222    122.04253    227.66405 
   32950    133.72905   -1115.3675    144985.15    -39937.62    2697.4676   -42635.087    122.48451     225.8409 
   33000    133.88432   -1043.0481    144857.83   -39912.687    2700.5995   -42613.287    123.08067    226.10311 
   33050    134.29367    -973.1241    144878.57    -39902.33    2708.8566   -42611.186    123.41098    226.79442 
   33100     134.1868    -877.7977    145000.82   -39937.478     2706.701   -42644.179    123.43113    226.61395 
   33150    135.01889   -1162.3176    145027.68   -39953.279    2723.4851   -42676.764    123.83338    228.01917 
   33200    132.02719   -1085.0413    144901.47   -39993.234    2663.1391   -42656.373    124.00685     222.9668 
   33250    134.61878   -849.04411    144930.27   -39975.492    2715.4144   -42690.907    124.29483    227.34346 
   33300    134.52919   -985.84503    145018.31   -40021.606    2713.6074   -42735.213    124.77145    227.19217 
   33350    134.84026   -1021.3702    145019.81   -39991.355     2719.882   -42711.237    124.79645    227.71751 
   33400    135.56205   -1026.8308    145002.24   -39961.745    2734.4413   -42696.186    124.97547    228.93646 
   33450    137.17039   -960.38433    145170.42   -39948.701    2766.8833   -42715.585    125.12701    231.65261 
   33500    135.67709   -1012.8777    145022.91   -39964.373    2736.7619   -42701.135    125.25082    229.13074 
   33550    133.98465   -1087.7629    144923.64   -39925.921    2702.6233   -42628.544    125.38941    226.27255 
   33600    134.55907   -1164.5246    144841.24   -39941.271    2714.2101   -42655.481     125.6224    227.24264 
   33650    134.07401   -1081.2047     144777.7   -39948.473    2704.4258   -42652.898    125.91578    226.42347 
   33700    133.07177    -1012.922    144740.33   -39972.215    2684.2096   -42656.424    126.11176     224.7309 
   33750    136.71545   -883.33159    144855.06   -39970.697    2757.7067   -42728.404    126.30267    230.88431 
   33800    134.50911   -940.07848    144961.59   -40026.356    2713.2022   -42739.558    126.35643    227.15825 
   33850     135.9459   -823.49627    145111.41   -40008.851    2742.1841   -42751.035    126.48366    229.58471 
   33900    134.07669   -894.91159    145113.06   -40022.316    2704.4798   -42726.796    126.49951    226.42799 
   33950    133.05382   -970.22935    145221.99   -40013.737    2683.8475   -42697.585    126.65722    224.70058 
[...]
   92000     130.4332    -920.5878    144872.43     -39930.4    2630.9866   -42561.387    311.53791    220.27489 
   92050     133.3611    -1033.733    144955.87   -39885.986    2690.0456   -42576.031      312.305     225.2195 
   92100    133.24928   -1014.9491    144827.02   -39884.593      2687.79   -42572.383    312.35613    225.03066 
   92150    134.43713   -921.91367    144853.99   -39828.034    2711.7503   -42539.784    312.81546     227.0367 
   92200    136.32083   -988.30209    144864.53   -39827.512    2749.7468   -42577.258    312.91848    230.21788 
   92250    132.64695   -1092.0868    144973.76   -39852.769    2675.6405   -42528.409    313.20706    224.01346 
   92300    131.86703   -1022.4984    144747.04    -39900.68    2659.9084   -42560.588    313.69026    222.69632 
   92350    134.72194   -978.61537    144690.65   -39933.495    2717.4953    -42650.99    313.97276    227.51768 
   92400    131.39668   -1073.8222    144699.77   -39925.917    2650.4209   -42576.338     314.2964      221.902 
   92450    129.27897   -1082.7006    144608.07    -39878.26    2607.7045   -42485.964    314.15909    218.32563 
   92500    133.49343   -1026.0325    144467.55   -39856.015    2692.7149    -42548.73    314.16292    225.44299 
   92550    131.94953   -1034.3758    144394.63   -39878.112    2661.5726   -42539.684    314.43175    222.83565 
   92600    133.00159   -998.08255    144351.65   -39839.539    2682.7938   -42522.333    313.92105    224.61236 
   92650    134.39747   -988.60899    144402.78   -39814.308    2710.9505   -42525.258    314.02521    226.96973 
   92700    133.87184   -1045.2741    144406.36   -39811.034    2700.3479   -42511.382    314.06974    226.08204 
   92750    134.91054   -1042.2939    144349.26     -39775.6    2721.2996   -42496.899    314.25613    227.83619 
   92800    135.64158   -953.22954    144381.54   -39784.472    2736.0455   -42520.518    314.55963    229.07077 
   92850      132.313   -886.90615    144604.08   -39819.367    2668.9043   -42488.271    314.10036    223.44948 
   92900    129.97397   -1088.6605    144526.07   -39835.164    2621.7234   -42456.888    314.37679    219.49934 
   92950    131.33837    -1045.614    144387.51   -39869.026    2649.2449   -42518.271    314.19874    221.80353 
   93000    130.50884   -915.82301    144502.79    -39897.54    2632.5123   -42530.052    314.36966    220.40263 
   93050    130.96328   -1058.6377    144408.91   -39933.899    2641.6788   -42575.577    314.57947    221.17007 
   93100    131.01275   -916.06415    144454.33   -39896.195    2642.6768   -42538.872    315.30848    221.25363 
   93150    130.71836   -1025.5727    144553.47   -39888.675    2636.7386   -42525.414    315.45528    220.75647 
   93200    132.71471   -855.99096    144531.67   -39925.693    2677.0072     -42602.7    315.67338    224.12789 
   93250    134.93272   -1039.3213    144673.21   -39883.315     2721.747   -42605.062    315.38809    227.87365 
   93300    133.77476   -1084.5211    144518.78   -39916.685    2698.3897   -42615.075    315.28512     225.9181 
   93350    132.33449   -1119.0985    144601.83   -39886.327    2669.3378   -42555.665    315.76623    223.48578 
   93400    135.23004   -967.39519    144580.05   -39887.663    2727.7443   -42615.408    315.94607    228.37577 
   93450    133.39899   -1018.7943    144644.69   -39876.231    2690.8099   -42567.041    316.50888    225.28349 
   93500    132.68109   -841.05254    144604.39    -39913.74    2676.3291   -42590.069    316.56909    224.07112 
   93550    135.41491   -1029.3206    144675.42   -39954.892    2731.4733   -42686.365     316.9528    228.68796 
   93600    133.54328   -1027.1706    144576.03   -39961.366    2693.7203   -42655.086    316.86884    225.52716 
   93650    131.52743   -1119.8188    144614.15   -39976.615    2653.0584   -42629.674    317.57515    222.12281 
   93700    130.47861   -846.24564    144620.57   -39954.521    2631.9026   -42586.423    318.08733    220.35158 
   93750    131.55596   -897.05767     144789.2    -39940.91    2653.6338   -42594.544    318.55967    222.17099 
   93800    130.24703   -866.52235    144848.54   -39967.394    2627.2313   -42594.625    318.82572    219.96049 
   93850    131.28918   -985.49289    144945.43   -39933.286    2648.2527   -42581.538    319.20599    221.72047 
   93900    134.29557   -993.94143     144977.7   -39922.512    2708.8949   -42631.407    319.68392    226.79763 
   93950    135.33319   -1061.3581    145051.95   -39877.708    2729.8249   -42607.533    319.88358    228.54996 
   94000    133.77885   -1007.0269    144911.29   -39839.642    2698.4721   -42538.114    319.47185      225.925 
   94050    135.39354   -988.14164    144929.81   -39879.213    2731.0423   -42610.255    319.81076    228.65188 
   94100    133.74245   -1009.5758       145020   -39864.985     2697.738   -42562.723    320.22501    225.86354 
   94150     134.3039   -923.73133    145140.06    -39880.68    2709.0631   -42589.743     320.5748    226.81171 
   94200     132.8398   -1111.3828    145174.85   -39871.616    2679.5303   -42551.147    321.04665    224.33913 
   94250    132.28509   -987.80596    145064.23   -39848.055    2668.3413   -42516.397    321.45687    223.40234 
   94300    133.00223   -909.74325    145043.58   -39762.407    2682.8068   -42445.214    321.46237    224.61345 
   94350      136.056   -1112.8474    145013.63   -39808.061    2744.4049   -42552.466    321.29893    229.77064 
   94400    133.70108    -947.8782    144881.77   -39821.545    2696.9034   -42518.448    321.23131    225.79366 
   94450    136.42773   -962.32434    145031.41   -39797.221     2751.903   -42549.124    321.75256    230.39841 
   94500    132.44351   -986.33148    144979.17   -39878.791    2671.5368   -42550.327    321.80181    223.66989 
   94550     136.0535    -1150.331    144969.96   -39895.908    2744.3544   -42640.262    321.73993    229.76641 
   94600    132.02519    -1112.262    144870.26    -39896.95    2663.0987   -42560.049    321.66549    222.96342 
   94650    134.36064   -1042.5229     144868.2   -39950.078    2710.2074   -42660.285    322.02526    226.90752 
   94700     128.5012   -1008.6279    144886.76   -39948.967    2592.0158   -42540.983    322.40495    217.01213 
   94750    134.30802   -953.20989     144911.5   -39958.306    2709.1461   -42667.452    322.58012    226.81866 
   94800    131.75827   -1072.0248    144846.78   -39903.221    2657.7147   -42560.936    322.69635    222.51266 
   94850    132.95972   -995.73093    144870.07    -39884.43    2681.9493    -42566.38    323.64687    224.54165 
   94900    132.90766   -1167.8434    144727.48   -39892.049    2680.8992   -42572.948    323.44228    224.45374 
   94950    129.90557      -932.64    144830.73   -39950.214    2620.3436   -42570.558    323.09561    219.38383 
   95000    132.18323   -947.17553    144853.18   -39931.669    2666.2867   -42597.956    322.56021    223.23033 
   95050    131.64534   -833.84904    145053.43   -39889.061    2655.4367   -42544.498    322.75149    222.32193 
   95100    133.61023   -1152.1229    144890.74     -39917.3    2695.0708   -42612.371    322.53393    225.64023 
   95150     134.7706    -860.7288    144901.04   -39878.603    2718.4769    -42597.08    321.73315    227.59987 
   95200    133.73237   -882.84842    144928.47   -39872.326    2697.5346    -42569.86    321.86896    225.84651 
   95250    132.77522   -948.10584    144932.16   -39881.363    2678.2279   -42559.591    321.74344    224.23008 
   95300    133.52925   -932.94105    145069.56   -39872.557    2693.4374   -42565.994    321.65382    225.50348 
   95350    134.34927   -1096.0815    145049.96    -39870.66    2709.9782   -42580.638    321.44671    226.88833 
   95400    133.40471   -968.96158    144947.09   -39936.405    2690.9252    -42627.33    322.24153    225.29315 
   95450    132.45164   -1128.8181    144855.64   -39896.403    2671.7008   -42568.104    322.20242    223.68362 
   95500    133.41282   -1189.2894    144783.34   -39913.757    2691.0889   -42604.846    322.44711    225.30686 
   95550    135.48426   -744.78689     144889.2   -39813.209    2732.8722   -42546.081    322.47765    228.80509 
   95600    137.01954   -919.35371    145063.76   -39809.318    2763.8406   -42573.159    323.03688    231.39786 
   95650    135.96183   -903.18258     145161.6   -39863.449    2742.5053   -42605.954    323.40239     229.6116 
   95700    136.64895   -1151.1699    145178.57   -39910.354    2756.3653   -42666.719    323.44966    230.77201 
   95750    133.16981   -1168.5054    145021.91   -39908.848    2686.1871   -42595.035    323.76768    224.89646 
   95800    134.75963   -1024.3792    144889.84   -39913.439    2718.2555   -42631.694    324.17933    227.58133 
   95850    136.80265   -1005.2112    144773.44   -39884.804    2759.4656    -42644.27    324.63969    231.03157 
   95900    133.39896   -1028.3855    144787.14   -39936.288    2690.8093   -42627.097    324.80533    225.28344 
   95950    136.35332   -1097.8041     144711.2    -39854.13    2750.4021   -42604.532    324.79729    230.27275 
   96000    136.34777   -912.33155     144696.5   -39833.475    2750.2902   -42583.765    324.94812    230.26338 
   96050    135.03385   -1055.0784    144762.18   -39813.481    2723.7869   -42537.267    325.39574    228.04444 
   96100    135.99548   -916.89398    144819.58    -39837.95    2743.1841   -42581.134    325.41428    229.66844 
   96150    133.25851   -1085.6197    144837.45   -39856.543    2687.9764   -42544.519    325.81377    225.04626 
   96200    134.09565   -1046.5779    144792.34   -39846.879    2704.8624   -42551.742    326.07812    226.46001 
   96250    132.08114   -948.42313    144775.67   -39924.522    2664.2273   -42588.749     326.6403    223.05791 
   96300    135.64846   -874.57062    144827.24   -39908.116    2736.1843     -42644.3    326.77303    229.08239 
   96350    131.67976   -1052.4295    144904.14   -39935.089     2656.131    -42591.22    326.92131    222.38006 
   96400    133.08428   -938.48159    144900.31   -39960.494    2684.4619   -42644.956    327.64792    224.75202 
   96450    132.69237   -1136.5888    144904.88   -39986.172    2676.5566   -42662.729    327.87424    224.09016 
   96500    133.54512   -1038.5588    144949.66   -39972.462    2693.7575   -42666.219    327.75114    225.53028 
   96550    132.77234   -1009.9164    144894.11   -39926.456    2678.1697   -42604.626    327.91935    224.22522 
   96600    131.43674   -918.96569    144875.89   -39954.473     2651.229   -42605.702    328.00033    221.96965 
   96650    132.52465   -1106.8019    144957.33   -39921.178    2673.1735   -42594.351    328.07638    223.80691 
   96700    133.92039    -950.6156    145026.08   -39859.566    2701.3271   -42560.893    328.56454    226.16403 
   96750    132.56982    -958.5094    145000.11   -39897.408    2674.0846   -42571.493    328.74602    223.88319 
   96800    134.31583   -1027.2233    145084.14   -39877.363    2709.3036   -42586.667     328.8857    226.83184 
   96850    134.21125   -826.39828    145121.52   -39908.641    2707.1942   -42615.835    328.68673    226.65524 
   96900    134.23044   -1004.9333    145371.59   -39897.074    2707.5812   -42604.656    329.35812    226.68764 
   96950    131.39969   -983.17162    145294.46   -39896.572    2650.4818   -42547.053    329.83679    221.90709 
   97000    132.29297   -932.96273    145198.18   -39942.687    2668.5001   -42611.187     329.8961    223.41565 
   97050    133.81328   -840.60897    145229.89   -39889.848    2699.1666   -42589.015    329.76168    225.98314 
   97100     131.3753   -1143.3424    145111.69   -39931.651    2649.9897    -42581.64    330.00693    221.86589 
   97150     128.3053   -1019.2875    145103.29   -39955.453    2588.0644   -42543.518    330.05625     216.6813 
   97200    132.58745   -1008.5749    145139.11   -39882.682    2674.4402   -42557.122    330.02947    223.91297 
   97250    133.86535   -934.56824     145270.4   -39835.302    2700.2168   -42535.519    330.15472    226.07107 
   97300    135.10403   -846.70246    145404.06   -39773.932    2725.2025   -42499.135    330.06414    228.16296 
   97350    136.57496     -833.458    145596.05   -39719.273    2754.8729   -42474.146    330.24232    230.64706 
   97400    135.24727   -1167.5585    145513.77   -39777.658    2728.0919    -42505.75    330.90493    228.40487 
   97450    131.65438   -1041.9986    145369.01   -39828.421    2655.6191    -42484.04    330.65665     222.3372 
   97500    133.81779   -1167.3799    145329.28   -39843.598    2699.2576   -42542.856    330.53329    225.99076 
   97550    134.19231   -924.81872    145241.99   -39871.895    2706.8121   -42578.707    330.33664    226.62325 
   97600     133.2361   -866.12601    145280.72   -39918.798    2687.5243   -42606.322     330.6849    225.00842 
   97650    129.22944   -1004.3143    145390.98   -39931.913    2606.7053   -42538.618    330.99183    218.24198 
   97700    130.43425   -1143.8602    145283.34   -39940.524    2631.0076   -42571.531     331.0707    220.27665 
   97750    131.35791    -1048.833    145180.64   -39972.053    2649.6391   -42621.692    330.96741    221.83654 
   97800    130.75711   -1192.2739     145155.9   -39969.385    2637.5202   -42606.905    330.88362     220.8219 
   97850    130.58887    -1071.813    144935.22   -39948.969    2634.1266   -42583.096    330.47581    220.53778 
   97900    132.25827   -762.35741    144980.49    -39950.12    2667.8002    -42617.92    330.38193    223.35705 
   97950     129.4796   -1012.4437    144980.33   -39962.167    2611.7513   -42573.918    330.59681    218.66445 
   98000     132.3656   -951.92865    144890.57   -39906.969    2669.9652   -42576.935    330.93844    223.53831 
   98050    132.46305   -1036.4082    144819.32   -39909.154     2671.931   -42581.085    331.14081    223.70289 
   98100    133.24943   -1042.9009    144777.68   -39900.194    2687.7931   -42587.987    331.40386    225.03092 
   98150    131.75253   -1145.8751    144938.83   -39911.703     2657.599   -42569.302    331.97321    222.50296 
   98200    132.56854   -1138.0517    144821.45   -39918.817    2674.0588   -42592.876    331.69401    223.88103 
   98250    130.03512   -1077.8344    144693.36   -39930.124    2622.9567   -42553.081    331.28062     219.6026 
   98300    132.83062   -934.83391    144666.23   -39929.965    2679.3452    -42609.31    330.92329    224.32363 
   98350     132.0492   -943.54963    144682.01    -39920.62    2663.5831   -42584.203    330.94956    223.00398 
   98400    131.80745   -1076.1529     144733.5   -39910.884    2658.7067    -42569.59    331.09864    222.59571 
   98450    133.85307    -1055.586    144645.57   -39888.075    2699.9692   -42588.044    331.45491    226.05034 
   98500    133.22448   -959.53711    144749.87   -39898.671    2687.2898   -42585.961    331.65015    224.98878 
   98550    132.86054   -988.32038    144912.72   -39950.975    2679.9488   -42630.924    332.05756    224.37416 
   98600    130.42042   -933.39748    144853.09   -39944.972    2630.7288   -42575.701    332.26604    220.25331 
   98650    132.41766   -1075.8257    144858.34   -39916.627    2671.0154   -42587.643    332.08235    223.62624 
   98700    133.18006   -995.31178    144934.95   -39887.859    2686.3938   -42574.253    332.44542    224.91376 
   98750     134.6105   -906.15156    145029.95   -39886.131    2715.2474   -42601.379    332.49301    227.32949 
   98800    132.16176   -1040.3288    144986.87   -39902.332    2665.8536   -42568.185    332.39645    223.19407 
   98850    131.74201   -1019.1787     144851.1   -39888.871    2657.3867   -42546.258    332.35442     222.4852 
   98900    133.59182   -1003.1206    144886.86   -39912.413    2694.6996   -42607.112    332.66738    225.60915 
   98950     133.4967   -1097.0635    144784.21   -39951.556    2692.7809   -42644.337     332.6816    225.44851 
   99000    130.06625   -1116.3892    144587.09    -40058.54    2623.5848   -42682.125     332.7881    219.65519 
   99050    131.74768   -943.14846       144602   -39995.543     2657.501   -42653.044    332.61319    222.49476 
   99100    133.36679    -828.3797    144715.58   -39969.807    2690.1604   -42659.968    332.68658    225.22912 
   99150    132.22721   -922.07295    144839.46   -39985.615    2667.1738   -42652.789     333.1684     223.3046 
   99200    134.08472   -933.98317    144998.77   -39944.264    2704.6419   -42648.906    333.73169    226.44156 
   99250    131.20316   -1081.1249     145016.5   -39962.449    2646.5175   -42608.967    333.78787    221.57519 
   99300    131.62231   -1015.1201    145010.37   -39954.546    2654.9722   -42609.519    333.81344    222.28305 
   99350    132.45464    -762.9309     145149.1   -39986.256    2671.7613   -42658.017    333.98919    223.68868 
   99400    133.22072   -1077.1619     145200.5   -39999.896     2687.214    -42687.11     334.1932    224.98243 
   99450    133.68931    -1009.046    145259.01   -39963.683     2696.666   -42660.349    334.13703    225.77378 
   99500    134.35747   -924.19368     145389.1   -39898.339    2710.1435   -42608.483    334.71259    226.90217 
   99550    134.35474   -1017.4557    145387.64   -39933.947    2710.0885   -42644.036    335.13832    226.89756 
   99600    134.26941   -910.99376    145379.58   -39925.248    2708.3672   -42633.615    335.02367    226.75345 
   99650    133.66443   -895.44198    145529.54   -39950.544    2696.1642   -42646.709     335.3268    225.73177 
   99700    133.15485   -1123.3293    145522.02   -39936.342    2685.8854   -42622.227    335.86857     224.8712 
   99750    133.55703    -1090.191    145381.32   -39914.476    2693.9978   -42608.474    335.76253     225.5504 
   99800    137.50173   -830.81525    145331.22   -39814.255    2773.5668   -42587.822    335.71273    232.21217 
   99850    136.53427   -1080.9295     145285.9   -39834.949    2754.0521   -42589.001    335.78137    230.57834 
   99900    137.33276   -1065.0213    145131.02   -39887.259    2770.1585   -42657.418    335.55655    231.92682 
   99950    131.79037   -1195.0779    144984.55   -39936.908    2658.3622   -42595.271    335.74579    222.56687 
  100000    132.97761     -1028.77    144897.27   -39915.678    2682.3101   -42597.988    335.78474    224.57186 
Loop time of 338.988 on 40 procs for 100000 steps with 6768 atoms

Performance: 127.438 ns/day, 0.188 hours/ns, 294.996 timesteps/s
99.0% CPU use with 40 MPI tasks x no OpenMP threads

MPI task timing breakdown:
Section |  min time  |  avg time  |  max time  |%varavg| %total
---------------------------------------------------------------
Pair    | 51.548     | 137.15     | 280.55     | 676.7 | 40.46
Neigh   | 1.9438     | 4.1166     | 12.336     | 170.8 |  1.21
Comm    | 32.885     | 128.78     | 175.25     | 383.4 | 37.99
Output  | 0.17662    | 0.18114    | 0.195      |   0.7 |  0.05
Modify  | 6.9025     | 67.376     | 152.53     | 830.6 | 19.88
Other   |            | 1.384      |            |       |  0.41

Nlocal:    169.2 ave 410 max 112 min
Histogram: 32 0 0 0 0 0 1 1 3 3
Nghost:    1285.22 ave 1663 max 855 min
Histogram: 16 0 0 0 0 0 0 0 17 7
Neighs:    0 ave 0 max 0 min
Histogram: 40 0 0 0 0 0 0 0 0 0
FullNghs:  20119.7 ave 74889 max 6894 min
Histogram: 32 0 0 0 0 0 0 1 3 4

Total # of neighbors = 804786
Ave neighs/atom = 118.91
Neighbor list builds = 6129
Dangerous builds = 0

write_data		${DIR}/data.eq-${NAME}-${TEMP}
write_data		run_3/data.eq-${NAME}-${TEMP}
write_data		run_3/data.eq-het_freeze_3-${TEMP}
write_data		run_3/data.eq-het_freeze_3-225
undump          1

reset_timestep  0

unfix           2
unfix           3
unfix           4


################################################
#######         Run Simulation         #########
################################################

log				${DIR}/log.run_${NAME}
log				run_3/log.run_${NAME}
log				run_3/log.run_het_freeze_3
