LAMMPS data file via write_data, version 29 Oct 2020, timestep = 100000

6472 atoms
2 atom types

0.0 49.22 xlo xhi
0.0 49.019635930410494 ylo yhi
1.3165347618776977 58.74546523812378 zlo zhi

Masses

1 18.015
2 12.01

Atoms # atomic

68 1 8.407078111607076 23.912343468134065 8.723608709898484 0 0 0
3174 1 21.381585328782766 6.292226295469873 7.06634062292275 0 1 0
1764 1 14.843008461116597 23.810986499815026 7.482539723636951 -1 0 0
5339 1 17.879520375088536 24.090849930913574 7.096520346021651 1 2 0
1950 1 8.720796488748546 6.107262140031994 13.771674089634939 1 3 1
3493 1 1.353235262083025 8.312626885903228 5.365707453970485 2 0 0
6267 1 21.527439672293603 0.7286305816156669 10.273261574906972 1 1 1
1849 1 12.537598267466675 3.8438788300048587 5.24666832487659 0 0 0
5183 1 20.21963018895166 11.01972965639691 7.963721798786348 2 -1 0
1537 1 3.2788507083737066 18.01540462718701 19.416592608568052 0 3 1
1656 1 18.44127205261838 15.426384139768237 6.593003730233148 -2 -2 0
1769 1 15.75264123336373 8.465145269044172 5.7116182470015895 -2 0 0
6232 1 0.02040274869430941 0.6602724043914636 12.683256505383193 2 -1 1
3143 1 19.75678110068356 22.418725347857702 10.219422982205893 -1 2 1
6290 1 10.465968409576396 1.6580699137654484 13.54975331178407 0 0 0
3193 1 12.943249327190534 10.725528865029533 2.4292203745977736 -1 0 1
3261 1 9.605620067156355 6.175876539555404 16.540845206700162 0 2 1
4735 1 20.178112212562933 3.026623738635374 2.7096887006786954 -2 0 1
2001 1 0.9558060864961588 16.684311859287465 2.9451241068999896 -1 1 0
1641 1 24.223703335170597 0.4171816862563406 17.144991096571225 0 3 0
273 1 13.232260488932043 8.76066803888962 4.274926677918749 -1 0 0
3268 1 8.297812086893728 21.472203905960175 3.2872244302081803 2 1 0
1625 1 14.415017005060639 0.6715083533366759 20.152527778891884 0 0 0
1739 1 2.723197563170249 13.056445513678911 12.646021878664026 1 0 1
22 1 0.058700557781430025 22.248333581729906 14.804147612245485 0 -1 0
1771 1 6.156459986430227 0.6472971753329327 3.8514709191248993 0 0 1
6130 1 23.80693129055716 23.45253483661305 20.239986859442023 -1 1 1
4689 1 7.092196122715775 4.440599867831083 11.320889922927842 1 0 1
5207 1 4.054836068246315 23.313708704549995 3.6918186671923254 1 0 0
429 1 6.647365550955259 5.8195624995927755 3.9345175218038664 -1 1 0
3750 1 2.467244525245479 24.050733585216086 11.544966519128726 0 0 0
4966 1 20.61165374261853 4.745090887600175 16.189854467795605 2 0 0
5106 1 5.264618665273328 18.158628179577324 2.231896855464612 1 -1 0
1488 1 6.237231712427795 2.984844551316883 2.3991905249033296 0 0 1
5455 1 0.6981054050380752 22.356624190788725 17.64466421128264 0 1 1
1831 1 5.379331142521101 2.8526414507693705 15.355171931486963 1 1 0
197 1 11.034067439897571 19.13471305169545 16.917261103539104 -1 -1 0
2112 1 21.60480131340424 10.064556131200616 3.236784239424124 1 0 1
3316 1 18.056490823906252 6.749767774804677 4.857381590247972 0 1 0
5091 1 22.0571623178309 0.8053997428212292 7.396490217961646 -1 0 1
73 1 15.502817741523215 23.961121631677862 20.25356821207106 -2 1 0
4856 1 10.354413191831924 1.26742411384341 7.68747494031522 1 1 1
2130 1 10.91864281738847 22.842581881433155 15.439157869722134 0 1 0
1414 1 24.5471563449476 3.937040463007907 18.37340016282025 0 1 1
557 1 7.249210727852609 19.48565402025457 8.6956082986427 1 0 1
1799 1 4.810441943551792 8.411576709996584 10.617653667497725 1 0 0
2922 1 16.808705352915535 24.212112280444302 9.930744570699478 -1 -1 1
5378 1 23.077364009940784 10.997672493403307 8.603789355775952 0 1 1
1546 1 16.135729422778354 17.817317833203447 7.139805797595151 -2 1 0
1698 1 12.687579200873824 18.156060218494467 7.050505257937426 1 2 0
2869 1 22.7199738023028 15.676847901072307 13.800154386155032 1 0 1
1564 1 22.37618982230679 4.781109598839788 2.7545089513926513 0 0 0
3091 1 12.916508500827666 18.30244236821589 4.347479727985078 1 1 1
6097 1 14.687002110378053 9.211921740228053 9.795006944085172 1 0 1
1605 1 14.370405665618424 2.294126217381256 9.457441697309248 -2 3 0
4941 1 11.188279601929361 16.328319556760466 20.37552838557729 1 1 1
6146 1 3.3811853096500366 0.7371906090943712 2.9297473152537643 0 0 1
4746 1 3.8158305663406384 4.024807366401803 4.218928392563609 1 0 1
477 1 11.752170291890558 5.715521160975848 13.360088005071693 1 1 0
1956 1 9.378035932274754 4.022946830831184 5.84099769747381 0 -1 0
5159 1 8.55497117834002 17.16333411057509 18.764883209556167 0 0 0
1262 1 6.710232521583419 7.926916261854194 14.271500928315035 0 -1 1
5265 1 2.029499730608882 2.70405680736611 11.551061140088036 0 1 0
1654 1 14.180500914864211 5.747590562283185 6.922113177299802 1 -2 0
1500 1 3.3673905448339765 21.992450099266254 9.64243500469723 0 -1 1
1750 1 10.801918994758953 20.295547070578507 3.889838068197877 -1 0 0
189 1 12.368393964670098 24.10828981401489 2.1816278358255943 0 0 0
1575 1 15.436231909984981 19.388163817320216 5.2004841312856644 -1 -1 0
253 1 7.93378639736609 13.653453626827512 16.08867166617869 0 1 0
1505 1 0.7033340571000096 11.050972825688378 4.392438150586593 0 -2 0
3358 1 4.2132019680953485 8.705960708005096 1.9227417081414546 1 1 0
3573 1 4.973512372861056 0.21137158162653175 6.492849036849009 -1 -1 0
1932 1 3.5833099528252643 12.285142224240817 5.007638741498113 0 1 1
2126 1 8.479278901905525 1.326602039957569 5.527696737876883 1 2 0
6334 1 13.111324100863527 15.682729534769877 3.559159903310429 0 -2 1
3733 1 21.877572935866837 24.40479302950759 12.449430119060413 1 -1 0
3578 1 22.56025420345373 7.314458384204932 19.20817660629233 0 0 0
1637 1 0.779170669182003 21.742707065225513 7.846772429570139 1 0 1
5397 1 19.165373870189633 12.978026322492877 4.651635521587856 -2 -1 1
1820 1 24.027954257718694 14.00557710929879 10.18766095741523 -1 0 0
4859 1 2.0936014911959964 19.229241177172693 13.877033092863476 0 0 0
3486 1 2.146554041839132 5.215611379988107 14.190515944786117 1 1 0
1260 1 24.07606503796079 17.07891932097395 15.856322710157343 1 0 1
1838 1 17.157997577692715 7.752881142428157 17.90746642577256 1 0 0
4969 1 17.16451144940193 0.13825744911847618 10.047646221634874 0 1 0
3300 1 1.0819878971151722 14.09069125209825 4.706116215086725 -1 2 1
2929 1 0.8667304040262918 13.586621129519525 15.099620820831252 1 2 1
3574 1 7.266984046064173 10.67799643753542 11.06974765455412 0 2 0
2961 1 5.197081284619318 24.033800920777807 8.851612677360453 0 0 1
418 1 21.804331930044214 12.654328597692063 6.130607418237105 0 2 0
5103 1 22.56104293733154 19.243717067019176 15.01667151874853 1 1 1
1273 1 18.8513595424251 2.5186946958404066 10.0386032305803 -1 -1 1
1770 1 5.454659924180188 13.80964781728256 12.88466660938873 1 0 0
1917 1 7.178619956320502 15.847814695881162 5.708411926345622 -2 1 0
4766 1 21.654945448656623 21.783718248616285 7.353343589182223 0 0 1
4635 1 6.181675792689505 6.925962130642464 1.488899632406762 -1 -1 1
4832 1 9.42775449521516 6.669792490990073 5.045900733285466 1 3 0
4948 1 23.417750347554875 7.844548977414734 8.066279062331198 1 2 0
4922 1 18.133756686335335 2.1581060379680084 19.209879336495696 0 3 1
6309 1 14.858426960535526 7.2405874448299645 11.978879470007735 -1 -1 1
2991 1 6.782170168770819 1.9207365159522476 7.919483315693221 2 0 1
3318 1 18.73517882789721 10.382188668908594 3.9898845562177514 1 -2 0
5037 1 2.251016188779057 21.67773986922353 12.940003471737931 1 0 0
4893 1 19.377363319186024 13.047431171237017 17.150932230190048 0 0 1
1579 1 21.113948346051092 9.320569589112672 10.005560206649589 0 1 0
1677 1 19.7085295998787 12.965590561292757 13.186329374595008 0 0 0
6287 1 3.250594966040181 8.70229769073127 8.152909375408655 0 -1 1
2156 1 9.573400924956353 10.500839850942583 9.043431400053109 0 0 1
1314 1 15.79537661057724 6.331542523815185 20.134137123212046 0 -1 1
6134 1 7.570535000321642 9.672282934672998 6.980743818165673 1 2 1
6430 1 23.207319727950964 21.943196052398598 15.809102055781988 3 0 1
5086 1 19.71758410957031 20.714954218615716 17.322373710142703 1 1 0
1767 1 11.010621821311426 13.155567325846668 10.747631022742711 -2 0 0
5209 1 15.4248092644854 7.822614110014193 15.00922796838945 0 1 0
3404 1 18.805938705862374 9.380089011794416 6.364542123578291 -1 0 0
3599 1 14.514781308265206 24.490179256472278 17.551096820670647 -1 -2 0
5211 1 0.20899838988331804 17.772710677813482 17.542121955242497 1 0 0
3700 1 19.06876684789612 7.359131153763762 8.332713090391934 -1 1 1
449 1 2.741186469433206 15.807784166962918 17.71461325801565 0 2 1
1908 1 5.513196773419482 10.059337306869088 3.7017244814723163 -1 0 0
3449 1 2.2810056230583737 14.688867633537892 10.416842393798897 0 1 0
3532 1 9.856159817719938 22.48862206032382 12.89758471014526 1 1 0
1371 1 20.4255991008485 5.221413614924712 13.23272448225673 0 0 1
5301 1 9.015223670944673 14.452857250255274 7.461305263481729 1 0 0
3210 1 2.92967024415402 6.665879774430017 3.530008733033883 -1 1 0
3233 1 21.256641823040976 14.04469942064707 3.19964995654618 -1 -1 1
470 1 21.145471065342747 15.580898437068777 10.78303914197894 0 0 0
4904 1 5.1698819660630635 12.322179503908961 9.432915322477353 2 1 0
5322 1 24.267785921836094 7.358542410335312 10.59726687535107 -2 2 0
5302 1 24.047809507764942 23.592709532342766 3.441647234281124 0 0 0
510 1 7.545862282419039 10.438812271372875 18.484897802796485 1 2 1
4756 1 17.52178536076399 7.742603260198353 10.616563300503651 0 1 1
3026 1 5.739295843694512 17.464965861496772 7.312823955178983 1 1 1
249 1 18.337803463918938 0.9261775316596572 1.457874112046828 -1 0 0
4524 1 11.495203950167038 19.675769826285055 9.026576611702648 0 1 0
3782 1 2.7019378696895076 3.5881170657388597 8.561096106375157 -1 0 1
5248 1 8.027301807412753 0.7531034919948046 14.104786174052661 1 1 0
3030 1 6.8520318003855225 7.240744312860787 17.13039197549625 0 -2 0
3760 1 9.31268957402947 16.765729312093242 10.18862132511334 0 2 1
5329 1 12.996279310598366 14.621901544340579 8.166283750884539 2 2 0
3604 1 16.8535362094276 18.39210596193993 16.751908102922336 0 0 0
2036 1 2.370213801542554 21.82716467460819 5.328479170039318 0 -1 0
4744 1 13.54806634272224 21.069600092764148 10.184960256761139 1 0 1
1584 1 16.538614259817862 21.264997641500155 16.72777476282682 2 0 0
5371 1 14.304100238154275 12.68837741301221 9.328543791305925 0 0 1
5027 1 19.617304385614187 3.938112121071845 5.351405107753195 -1 0 0
5170 1 22.34785527405885 18.24055111292418 12.303849290161212 0 1 0
5169 1 23.665912960769546 12.540584613539108 13.018196508963948 0 -1 0
4846 1 0.3025779656283663 7.975578047870208 17.476137490181596 0 1 1
5186 1 23.788519485148573 1.6916005387585324 4.5349739705702445 0 1 0
1862 1 15.256590218419648 14.967312149585588 6.523824820424986 -1 -1 0
182 1 19.29097833871379 1.286851206996101 16.645586835968793 -1 1 0
3222 1 4.297540756851859 3.934642960495017 12.862402312758169 2 -1 1
4815 1 5.550443239572064 21.773133442091137 7.063194365062922 2 -1 1
1981 1 9.850733558822508 3.5426205408272 11.57629148641764 2 1 0
301 1 14.66549539123396 10.700515434784892 15.818820593851546 1 1 0
1939 1 7.915795446169555 21.24338947024693 6.388399698961152 0 0 0
3546 1 9.340917086794802 19.499231922476294 11.163837766216709 0 -1 0
1996 1 20.505613239175638 20.682580543300986 2.9738256864295964 -1 -2 0
5054 1 5.250791885569196 19.70878404571423 10.7258658843057 2 2 0
4873 1 14.028259911835532 17.296601598605104 12.16596711958328 0 2 1
3549 1 9.195031279123647 12.594066197729633 18.52266615477616 1 0 1
3183 1 20.344939072520198 15.270564419611194 19.200092741637114 1 0 1
458 1 7.273383007087456 1.0727712647335563 16.616084914681625 0 1 0
138 1 10.003309885983022 1.2884239669831166 17.498605942176244 0 1 0
4831 1 5.364026185109091 16.821751067343172 11.416749018563866 1 0 1
3562 1 16.323951696037344 16.096018121932488 15.15236008548595 0 1 1
6224 1 13.509467468867909 1.2133019062892259 17.229043149806635 0 2 1
2172 1 3.8006431788074573 22.421865832020206 18.090359081323363 1 2 1
3731 1 16.2316635723863 20.617270915494316 19.5855171240044 0 -1 1
4808 1 1.0699356686026096 2.5762539262132047 4.014102671595936 -1 0 1
4614 1 8.12163166061787 9.101576821400432 3.7175346310525925 2 1 1
3585 1 12.627904408703658 7.885002642447558 8.417403166301176 1 2 0
5076 1 19.75886776969871 15.818751611269356 13.394545696675673 0 0 0
5440 1 17.340431576479 23.592691281013803 2.9050434448023053 0 0 0
1373 1 10.173956774779134 22.022996461233973 7.715342834981647 0 -1 0
1620 1 2.7046132273528216 13.977427984729667 1.557581705617693 1 0 1
21 1 12.607302699335156 16.313703308700305 17.97988634045405 0 2 0
4562 1 17.267861950081464 20.28507857462021 8.861112432105255 1 0 1
1889 1 12.507201250302021 10.669908905697259 14.093406192051448 2 2 0
2163 1 1.3017274103681862 1.895854476527559 17.90459924884903 0 0 1
6167 1 10.318235109958628 5.908299515301856 1.7822239399768027 -1 0 1
45 1 12.798100926014856 7.951526635858633 14.337227686260531 1 -1 0
2182 1 7.1923745382009905 21.385586487963423 14.536514788297756 1 0 1
5184 1 22.08185975799934 7.2346198395574035 4.151093052797965 -1 2 0
1633 1 4.323163076986359 5.797256458863902 8.265243208666513 0 1 1
6205 1 24.45651299983949 23.297567695699225 9.805042131829035 -2 0 1
4640 1 10.066283776721693 7.658154099726643 7.648338906475219 -2 -2 0
3777 1 6.8392377453564235 4.556923848477161 6.966756438338207 2 -3 1
1428 1 15.494745547963536 0.8038331228508045 5.7809737361840785 1 0 0
2955 1 15.55838362484472 11.632953964477887 12.751353114706353 0 0 0
1388 1 21.674397425421656 4.274815288453604 18.916998540496035 1 1 1
6257 1 9.145737252034666 3.4341016575966465 2.326660683809304 2 1 1
1754 1 19.782941665875807 20.15969229308374 12.364328153689323 0 0 1
3161 1 16.801462581297276 17.60726818112812 19.29626023262745 -1 0 1
398 1 14.733784279887956 6.2686015743931405 2.525246134275857 0 1 0
4526 1 4.857419693458645 15.26303089630551 9.145131367073322 -1 1 1
375 1 3.2377315921006637 7.497460335473049 14.292975866165039 0 0 0
3652 1 11.064350677543818 8.667525258311061 10.897145424671752 -1 0 0
4795 1 9.812970830227743 11.448315432898179 3.909915450506812 1 0 1
119 1 7.835751125373765 13.636672063636592 9.892123343101174 1 1 0
5197 1 4.243503343616873 10.166026496929994 12.957510759802034 1 1 0
3591 1 5.164525432744981 7.847149994730906 5.790239153188855 1 -1 0
1833 1 16.78303238051281 4.562584612291172 10.021575078707185 0 0 0
354 1 16.80147317573007 5.121330496366014 14.925495792996287 2 0 0
165 1 5.869451114520474 4.9093155948192395 17.43350555369718 0 1 0
4991 1 18.377732137870026 2.024986980560421 6.811734243323016 0 0 1
4696 1 23.628672213389567 2.656288071520377 10.611837004603315 1 0 1
526 1 16.26750220711588 0.7118503717062481 2.8875946114506297 1 2 1
2055 1 22.282523968559374 3.4812719681930386 5.862731553421845 -1 2 0
6116 1 10.191121744656213 2.6055297316109796 20.05369122019764 2 -1 1
2118 1 3.6297468909032453 15.932552035084393 3.2687002408874557 -2 0 1
4783 1 2.5827070554992675 10.421734247749646 10.896863226034855 1 -1 0
1644 1 2.056319175897355 19.269807669989987 8.955208482154617 0 2 0
3748 1 8.272771553017893 16.452292545761285 14.892761383840417 1 2 1
259 1 5.034417709070196 10.922513725334795 6.905565144492693 -1 3 1
3490 1 5.943431616305835 17.620073344398932 15.24394960185871 2 1 0
3142 1 6.484416723240516 11.275491225355758 14.359145276820934 0 1 1
1622 1 12.765345425093926 10.69440315455996 11.4521115853675 0 -2 1
1304 1 15.8438493124938 15.657239253678993 9.73826933633793 0 -1 1
1570 1 11.187421866511661 12.727457540091144 7.888477868674482 1 1 0
2108 1 19.67381220825912 8.547948126235323 16.60439908580767 1 0 1
5298 1 17.167207428049917 5.183149404565641 7.272830216302497 0 -1 0
2203 1 16.708469245451735 12.449347124385232 5.803216372758773 0 -1 1
227 1 21.462558030442853 16.550636794050686 6.4297409377888455 1 1 0
1955 1 18.75834130244997 2.488688847977681 12.71088159197109 0 2 0
6261 1 23.615016097312086 7.757357020463243 13.49188520719388 -2 1 1
5177 1 16.568376155373976 16.38722433592187 12.555662726559003 -1 1 0
105 1 13.908404357030097 20.10948807778075 17.515800926205337 1 0 0
6263 1 13.693156803418743 4.687549425109666 15.652123877945028 1 1 1
4698 1 12.611243415243491 23.87720401281215 8.977530697116602 0 1 1
2005 1 0.19504994362778758 4.411544868659466 10.365227921280614 -1 2 0
3012 1 23.572024991901053 12.14033193257582 3.1997770843198303 0 0 1
5399 1 14.250122105408359 21.283293343010502 6.8246434854123414 1 -1 1
5294 1 14.153758195943356 14.08426777444289 11.837663671166355 -1 1 0
1779 1 14.651446195454753 18.270611412423452 9.684582584288682 0 -1 0
251 1 13.984827810188783 13.458153146523141 14.911969912434438 -2 0 0
3790 1 9.691189362105822 17.27516602213831 7.190346664004587 2 0 0
2128 1 6.582793845197932 13.227374809735284 5.294216156820747 1 -1 1
1436 1 20.528543059535252 18.44003743049385 7.982385882655005 1 1 1
4797 1 18.584168416803134 18.337953242155482 10.444543239470717 0 0 1
3553 1 17.28352445887419 13.724263644123548 11.845723867452023 0 -1 0
6425 1 1.4430883320621757 20.406595984501593 19.531223297461562 -1 0 1
291 1 14.859771367826 0.9404725264390045 11.532849969793057 0 -2 0
1982 1 0.33405034786770094 15.899472349666985 8.145540455810224 1 -2 0
6110 1 22.47145341272652 21.720350937331915 4.911842701964712 0 1 1
6355 1 7.200202199210379 7.965950839369448 9.47390566069295 2 4 1
3412 1 24.097946340747075 15.448240884073599 3.806692960993006 0 0 1
4754 1 23.814331063735512 19.329705804351892 20.189249432850637 -1 0 1
4734 1 16.15964117174541 3.3188776137275253 12.75965831520978 0 1 1
6370 1 3.939596384803288 8.651887430311943 19.62727536335366 2 0 0
128 1 8.877307719168117 21.06053148237684 16.75960458889052 2 1 1
454 1 9.827976343980493 18.90052485988766 13.870163453954113 0 1 0
4663 1 16.693450668947612 21.815802272632897 11.068612518215321 -1 -1 1
5325 1 21.207730031808193 16.760014032617917 2.5361082435893545 0 3 0
1907 1 22.745535864414215 19.56372499436593 8.93921623226095 2 1 0
4979 1 5.986238884267029 23.920770196566814 14.695316411505711 1 0 1
3787 1 8.77048069854304 5.374399635249598 8.830486211804908 -1 2 1
2878 1 24.38425786022348 18.645585674994997 2.5641350635119116 0 0 1
6129 1 21.775207672128424 0.61818962607996 2.841786890286247 -2 0 1
3255 1 5.669183929596482 20.796046373170757 17.236911746884562 1 1 1
5297 1 11.345858162875226 10.222639651541208 5.847148065709534 1 -1 1
1404 1 20.206328780277275 23.215942483215155 1.7531166521528045 -3 0 1
427 1 10.82689093620624 3.4189000084289645 15.873679728580319 1 0 0
6105 1 13.744181755058094 4.736131635162353 11.673033795683066 0 3 1
1495 1 17.314942041421997 6.055499471996869 2.0583506269855283 0 2 0
6367 1 6.862239612637008 13.371568643571432 2.3200772471896185 0 -1 1
2063 1 6.298769806763466 4.480461620730216 20.383789169545462 -1 -1 0
3468 1 18.668364544960607 21.43152560260715 14.5502641670058 -3 1 0
4642 1 4.196893552843693 1.6312392461928473 10.223971484069455 1 1 1
4839 1 2.2733232021008196 17.61589745410723 6.350964340364338 1 1 1
1922 1 0.21320039657660153 13.34702714836788 1.90467280924367 1 -1 0
1374 1 22.42622917659811 4.9871161311361325 11.070072250889124 -1 -1 1
296 1 8.369779769904063 20.739675619374193 19.609607505333116 -1 0 0
3619 1 22.000671866446027 10.885772359502255 16.592821292775355 1 0 0
3557 1 18.608741097991903 21.691639579051845 4.593816517550607 -1 1 0
5019 1 3.804907679599055 17.024506036557717 13.907673148673654 -1 1 0
18 1 21.830695322802008 17.05114324211201 17.89298044230852 1 2 1
2137 1 2.3396300785164534 1.5524017126488685 6.549989264859997 1 1 0
3413 1 22.579594826455857 21.7245269164517 11.172864573559371 -1 0 0
5246 1 12.233203566321958 22.349979101528227 17.708100145868755 2 3 0
3348 1 11.714662471317146 5.303547058185672 9.76747810020812 -1 2 0
3188 1 18.29542148660619 5.194721962795218 17.00269150399093 0 1 1
1370 1 13.802504522675191 2.472629916537527 3.287314641678054 -1 0 0
2868 1 1.2776881308775367 10.846085856228203 14.054422484257241 1 1 1
6328 1 12.029297939759317 3.3442136435010976 7.940874271554969 2 -1 1
6234 1 8.940997833115082 1.134045033460844 9.88240362541827 -1 2 1
6233 1 17.068300061494863 15.644539496278032 3.4288278893973416 1 -1 0
5454 1 8.725816037512168 8.778134334865163 12.163126474167544 2 0 1
5236 1 7.974730271405582 15.03686236266171 12.299511905798195 0 1 1
3710 1 3.760142972625344 0.543266268637717 16.550943846128053 1 -1 1
1920 1 10.188829599922174 13.28806012617382 13.701323393798432 0 1 0
362 1 18.7700976471801 9.867233407574208 14.359666150696652 1 0 0
292 1 5.974615217705953 22.739394712019898 1.7296238442221077 2 0 0
2186 1 13.918245325355795 8.33546425848968 18.432423911880875 0 0 1
3429 1 22.689899216262745 18.8065895593289 4.8145997500029925 0 0 0
2876 1 17.90221080542981 12.697927077496342 9.222357535057505 0 -1 1
4608 1 16.515675849864113 20.294398522709145 2.8757018065420485 -1 0 1
2 1 18.149031467816656 7.292609278668261 13.31608863726163 -1 -1 1
4961 1 22.150927872361358 7.159623703266009 16.073796106377795 -1 1 0
3666 1 16.42491007667111 10.434063578692324 8.08306049476636 0 0 0
3571 1 14.067761173704293 18.001058097965235 15.82251346017404 3 2 0
5366 1 5.190555330434319 6.478282955880602 12.697319368655837 0 1 0
5185 1 5.643795098293544 12.142726892936016 17.532600471709063 0 1 0
3632 1 6.9216621905946605 19.022252023054175 4.314430431537348 1 0 0
1496 1 10.817861734219397 10.751375854989794 17.206400090080017 0 2 0
4801 1 13.514966668377443 1.8902686294948379 14.771258125459248 -1 0 0
3722 1 23.76680317293957 14.519487923730203 18.693350109680566 1 1 1
5266 1 18.989943953463158 21.742992023055937 7.4173383702642 -1 1 0
4545 1 9.17238157400595 11.085445748085135 14.136674032030864 3 0 0
3208 1 0.24828158093247713 8.93104220055176 9.100357339531712 1 0 1
6271 1 7.55819599007094 14.742497315990226 20.26343089188394 2 1 1
4889 1 12.219074576768095 15.959648786839825 10.390957081302904 -1 1 0
5036 1 18.79720493133785 15.347087105910896 9.26263198853842 1 3 1
1346 1 10.261742760736794 23.11962835474034 19.11621501469474 -2 1 1
6161 1 17.51356999472361 12.28716376300707 15.23327286203952 1 -1 1
1783 1 0.10392307399711717 10.178665279826937 18.997813027982783 1 -1 0
6279 1 15.820977291509662 10.951361911648055 3.536919887651163 0 3 0
1479 1 10.983849068917895 1.327117419008302 2.8185957399877566 0 0 1
1915 1 0.5501808050139314 20.419329684878015 3.8300552428658894 0 1 0
4983 1 8.16776346833026 7.699147996479626 19.701039269732473 1 0 0
3677 1 2.5659555184926885 19.389695787289593 16.654577432470703 2 0 0
3544 1 3.9881362455410017 14.804645692893626 6.165412643924247 2 1 0
4742 1 5.683895461988107 17.516078310772706 18.074734925988512 2 -1 1
1639 1 12.658171320828984 21.740736245407156 12.784245068850867 2 0 0
525 1 10.38700629526931 23.3360438501755 4.814864029876824 -1 1 1
200 1 19.976132630234982 24.020431774047623 17.296003806511877 1 3 0
4512 1 12.595359853615376 19.082948796721247 13.341601296659768 0 0 1
1777 1 2.2157634788009792 9.333632106611873 16.165338609000283 1 0 0
184 1 6.537509191408556 0.8939348407663529 11.881944295140856 1 -1 0
1442 1 24.360967466201178 9.567405702357426 15.58033660693401 1 1 1
3472 1 11.399817704390191 13.844022743906248 16.059495006814785 1 2 0
3708 1 18.736031078991218 10.4954669351369 11.404069186477587 1 0 0
6301 1 13.092048856407636 11.168842501923425 18.526277029640774 1 2 1
4803 1 3.583558897838532 24.448344790506617 15.830737922113771 1 -1 0
6360 1 19.870881704185553 18.419421209450203 15.465791657879155 0 0 1
2201 1 23.14591896757107 14.742476551470427 7.64948648526043 0 0 1
4905 1 4.922556840724824 14.335194521634456 19.339108072299407 2 0 0
168 1 3.4769987834384817 14.582788979920606 15.206947889199354 0 0 0
4515 1 21.95174887203552 13.595005585935144 16.058496484607083 1 2 1
1448 1 13.11864908589202 0.3013945364294191 6.956314096416969 1 2 0
4573 1 13.839444027953324 4.109036445973836 18.202173270273114 0 -1 1
6392 1 4.9392581994598626 9.402697111168568 16.550858730012408 -2 -1 1
397 1 24.202564055936676 3.429279230506497 7.810460198232536 -1 1 1
3461 1 20.700993612896344 19.091611447153074 19.493749603224124 -1 1 0
5112 1 19.626378811922525 10.476626251974025 18.759017832064973 -1 0 0
6206 1 11.954946345332115 6.20944308818093 3.824277452011132 -1 1 1
1523 1 4.2474790765520805 19.51665621730289 5.451767616631284 0 -3 1
141 1 1.9625150887515694 12.140957480874873 8.94215163700942 -1 2 0
117 1 21.933070518001035 1.6575583107969947 16.938737953104944 1 1 0
3181 1 11.514973115218249 7.968811356835711 16.542151210974016 0 0 1
4649 1 10.127538838033818 16.323564388954317 16.850645499934792 -1 -2 1
1614 1 1.193842938003151 5.271843847102668 18.671298389520715 1 0 0
5089 1 21.07814419197273 12.999304704228894 10.700297658635261 -1 0 0
4673 1 3.032307707784218 3.9021862680106736 16.629702072533586 -2 0 1
5040 1 17.673814550937166 23.098531344950466 19.10767751458182 2 1 0
426 1 5.307912569231872 20.057978713087884 20.420286146948108 0 0 0
3157 1 11.970468631149773 20.125166962370148 19.623546969709977 -2 1 1
1544 1 18.764259423157924 16.3455791223521 1.4954178053777816 0 2 0
1629 1 18.58302239616501 8.43536955392642 1.383987044576279 1 2 1
1798 1 0.1284583568718176 5.501191135640025 3.7664542954432156 1 0 0
1691 1 17.555891408600733 9.63152758303706 20.35706014321374 0 0 1
4869 1 18.311208316725725 4.890677278698573 20.418400913564266 -1 0 1
3506 1 7.649131967743581 4.149639261358109 23.169556621847814 0 0 0
2149 1 15.16692997652391 14.49639467479934 23.126555991010804 -1 2 1
135 1 12.835155428134668 3.484289792239033 24.141045930969394 2 2 0
5343 1 18.636711406733916 24.320354184629494 36.24850568576485 -1 0 0
480 1 21.387367187136057 17.198674364187887 24.127243457763644 1 -1 1
3373 1 15.772753640857346 14.924738478053111 38.11046818992637 0 0 -1
1422 1 14.811922546632108 7.637690417958416 22.6760571537298 0 -1 1
1825 1 23.417028720845398 20.98723584593719 24.110146682110216 0 1 0
6247 1 1.8295220330207085 21.879752810135848 23.30651379330411 1 -2 1
3251 1 8.61355594740213 15.19584049694265 35.567372575534165 -1 1 -1
6154 1 2.797969843096379 2.4286951640746643 35.682722177728195 0 1 -1
5165 1 3.4672531183974757 8.16707721559013 24.089455712682746 2 2 0
1472 1 9.796718586215666 14.51794221663276 24.31233294642827 0 1 1
3628 1 0.5048763512541771 15.791581645272402 35.713774701145034 1 0 -1
3510 1 15.508545295212231 23.05109015783082 39.15290514662839 -1 0 -1
2987 1 2.64343559171159 13.85169653502371 36.05061251114388 3 0 -1
4659 1 22.119596084556388 2.887977591345986 24.294619247707523 -1 0 1
4510 1 3.568900234466236 0.4218750334764405 37.9402714127215 2 2 0
1687 1 10.605382017738396 22.67629182138411 23.482418000656697 3 0 0
4824 1 11.983901980207666 24.333352093746097 36.516278821335895 -2 -1 0
3396 1 20.762551364301302 2.3602919699822262 20.79511289611108 1 0 0
192 1 23.25060878744978 5.940526749697366 35.81753115802899 0 1 -1
226 1 6.257578039540083 20.201436137698607 35.80857814162058 1 -1 -1
420 1 16.106235953051733 0.6790670623220405 35.891944824904186 0 0 -1
1393 1 23.752476283067043 1.717227438969884 22.109724720854004 0 2 1
3469 1 24.326627921591072 0.8856273077595017 39.34897156503638 1 1 -1
3256 1 22.484044201806768 0.3888852399210529 36.78715858041178 0 2 -1
6241 1 8.755420244635058 10.850494066461081 21.335196738150767 1 2 1
500 1 22.41550717086791 16.975535155195974 37.359255828581404 -2 0 -1
3735 1 2.2854588209186026 8.01204423433968 37.56808095392031 -1 0 0
4774 1 4.024947492057585 16.855541780305224 24.639370262624798 0 -1 1
6418 1 0.13463268310522067 18.7479522606089 39.08394276326596 0 0 0
5406 1 19.888374532098382 7.569876598354498 21.017767714025652 -1 1 1
4502 1 0.18626896192145453 12.72644163572995 22.72023588775761 2 0 1
155 1 12.25396771505624 18.227801153228334 24.12404629116865 0 1 1
3724 1 3.8551041970882163 3.894732245333348 23.963543125215214 2 -1 1
1562 1 0.42223953759117505 5.834820383652774 35.81982913248311 2 0 -1
2057 1 19.809584391085185 9.71578551451617 23.178086495063873 0 3 0
3023 1 0.27302917082369627 22.99468798671665 38.826323497923205 1 0 0
1310 1 2.2928932583320996 0.8939896929762794 23.69168266149293 0 1 1
5414 1 14.115059626249977 22.019530232985286 23.974844009632665 1 0 1
3586 1 11.905463597892151 11.087799713603943 20.99752402588487 0 1 0
1760 1 17.038972618407964 12.825638441949012 23.930313159226696 -1 -1 0
4619 1 16.4972540234051 10.061646097008078 23.191181738474885 -1 -1 1
6113 1 24.606017999107042 11.69831295674809 23.57899934587086 1 1 1
332 1 18.250895406354786 4.4991017904528325 23.5391406078741 3 -1 0
3786 1 12.734069917752153 3.4595448543983585 20.784173847790303 1 0 1
443 1 6.277931763388113 18.746305212003577 24.156637179302752 0 -1 1
3421 1 20.765070621977326 6.392797946975945 23.742580032156248 0 -1 0
5121 1 9.473817258219533 18.759721474997335 20.76735709445311 0 1 0
5021 1 15.433073485680236 7.287897311066726 38.12186420174722 -1 1 0
3400 1 21.093668286509487 24.308452344677242 38.185883517963894 1 0 -1
4678 1 13.31711565424152 10.677434386879863 23.346707660327798 1 2 1
3020 1 7.945892236604137 1.148318400481338 36.55333221853706 0 2 0
6194 1 19.375559014211863 2.1743564561627546 23.69852529458436 2 -2 1
3246 1 12.515958206469502 15.663825661154295 23.005527235369943 0 1 1
3131 1 7.941687874799009 4.398477011851568 38.82603335192542 -1 0 0
379 1 22.718524415833222 8.694729106323928 23.99571345451884 1 1 0
532 1 9.001848995363305 1.7509258756970179 38.99495607121655 0 0 -1
5045 1 12.352918765826354 7.373311766703768 36.456831226555906 -1 0 0
3050 1 11.198189577800287 18.806171100932 37.905856368173254 1 -2 0
64 1 3.500889295295623 4.117855859488342 21.119452142941224 1 2 0
4653 1 18.34203964055029 21.433472329596945 23.587972018915213 0 1 1
1416 1 0.5262411354072851 3.4620777927974116 37.06547599533901 2 -2 0
1655 1 5.623006356737735 10.676543768608642 21.236681746717238 -1 2 0
2904 1 7.714472933702777 12.445726971414688 36.46526896695173 0 1 0
3729 1 7.736279921824045 12.7926755037919 23.650450066156633 1 -1 1
3668 1 6.293896523490302 1.4600641245548454 24.04956461126526 1 0 0
2082 1 6.507261164464307 15.12474785570759 24.101181559470266 1 0 0