LAMMPS data file via write_data, version 16 Mar 2018, timestep = 6000000

6750 atoms
2 atom types

0.0000000000000000e+00 4.9219999999999999e+01 xlo xhi
0.0000000000000000e+00 4.9019635930410494e+01 ylo yhi
3.4233049661220605e-01 5.9719669503387138e+01 zlo zhi

Masses

1 18.015
2 12.01

Atoms # atomic

3387 1 3.5746125421963870e+00 2.9344211237925251e+00 1.9360296822172520e+00 -1 2 1
4826 1 1.0288250512304506e+01 2.0386633794816275e-01 9.9489509417947808e+00 -2 -4 1
6546 1 2.4287364108625900e+00 5.0551484201611152e-01 2.6949859034546622e+00 1 0 1
5458 1 6.3289565174688764e+00 2.8933956045022899e+00 2.8852332501340920e+00 2 0 0
115 1 6.5311197374287193e+00 2.5895845850569073e+00 5.6638029937304406e+00 1 1 0
5197 1 2.4157603457833634e+00 4.4894685205171631e-01 1.0195885158638756e+01 2 3 1
3418 1 1.1443234110762136e+01 2.6069831959464205e+00 1.9579817811417384e+00 -2 1 0
5596 1 1.5181189908258630e-01 8.2228962050791599e-01 2.0084024994556331e+00 1 -2 1
2276 1 2.3749968091291334e+00 5.1529995021285409e+00 3.0182988596112015e+00 -2 1 1
1834 1 3.7031424100302868e+00 7.2610001774735551e+00 2.0701590144026043e+00 -1 1 1
3714 1 7.6521172965486661e+00 5.1370562659366970e+00 2.0568071707623394e+00 0 -1 0
5577 1 6.2625744680619251e+00 7.1570924808250478e+00 2.8628055505854135e+00 -2 4 1
4948 1 9.9785419032541363e+00 4.7918076213024010e+00 3.0518662890541166e+00 3 4 1
6347 1 1.1100630536304617e+01 6.7922501144030463e+00 1.6818151072581444e+00 2 4 1
4766 1 2.6393257504365550e+00 9.7473795795198690e+00 2.9561816984996696e+00 -2 4 1
3081 1 3.7405385367699679e+00 1.1762096140360692e+01 1.9701531861934580e+00 0 -2 1
4699 1 1.1096151238350991e+01 1.9860353096355293e+01 1.3612056507416693e+01 -3 -2 1
3972 1 7.4336403143738039e+00 9.4221081892475258e+00 1.7970821878899750e+00 0 1 1
5669 1 6.2480859734251730e+00 1.1403632322492330e+01 3.0179748724192828e+00 -2 0 1
6402 1 9.7635905670288921e+00 9.0286784548334342e+00 2.6102987832934517e+00 1 2 1
143 1 1.1148633956968593e+01 1.1281383479211133e+01 1.4402954713327181e+00 1 1 0
1446 1 2.3545659781830182e+00 1.3863069769029446e+01 2.6436556954799690e+00 0 -3 1
315 1 3.5590348372931073e+00 1.6069224334921564e+01 1.9312728567431017e+00 1 1 0
65 1 7.3213238290615577e+00 1.3717545728040104e+01 1.7057519932860081e+00 -1 -3 1
1891 1 6.0467004159094930e+00 1.6021261290209189e+01 2.7304790594370472e+00 1 3 0
3068 1 9.7440758433130963e+00 1.3398469961535245e+01 2.6769144519391954e+00 -3 2 1
2054 1 1.0976089731250349e+01 1.5620963023091068e+01 1.8157393402773314e+00 1 -3 0
3478 1 2.1712474939253519e+00 1.8322305401481490e+01 2.9915989840465849e+00 -1 -3 0
2307 1 7.5030577412206867e+00 1.7926306597395964e+01 1.8903235658544368e+00 2 2 1
2246 1 6.2110086748417990e+00 2.0087642985978260e+01 2.7054763864571973e+00 0 -1 0
5039 1 9.9983253903985307e+00 1.7857479095303084e+01 2.7977267596591107e+00 -2 5 1
6627 1 1.1187450881070960e+01 2.0001013032490608e+01 1.7774758972490408e+00 3 2 0
6406 1 3.5103443566452990e+00 2.0355420736036354e+01 1.9807169324456262e+00 0 3 1
3240 1 2.2025579007469567e+00 2.2631489481779742e+01 3.0359662923715725e+00 -2 0 1
3634 1 7.1894252220493033e+00 2.2499715725549777e+01 1.8179418492173740e+00 -1 0 0
5414 1 9.7988047391450692e+00 2.1972865227984222e+01 2.6972325034219344e+00 -1 2 0
105 1 2.5305002403881196e+00 1.8303798564336693e-01 1.2719190880506115e+01 -2 0 1
572 1 1.3238942069047257e+00 2.9188687207041806e+00 6.3411503993806821e+00 2 -1 1
3940 1 1.0212274139733186e+00 2.4610776611885243e+00 8.9980983525548943e+00 3 1 1
5109 1 4.8519348851287916e+00 3.1999358924125837e-01 6.0718838297116822e+00 -1 2 0
1637 1 6.2951894813041003e+00 2.4583531148736975e+00 9.7822764914696911e+00 0 -3 0
3489 1 1.0435496200858044e+01 3.1069465648299172e-01 5.8303951440634130e+00 -2 -1 1
3961 1 1.6641648872520134e-01 5.0751226631452502e+00 1.3605408110565307e+01 1 -1 1
471 1 3.6380774361451369e+00 2.0301331869184786e+01 1.3633412380647366e+01 -1 0 0
1550 1 8.9320059882115999e+00 2.2458489357694642e+00 9.3417335227051854e+00 2 -2 1
3107 1 8.7555081449319854e+00 2.3245098650194618e+00 6.6078654097028533e+00 1 3 1
2242 1 9.7381011896825775e+00 1.7951966240367764e+01 1.2656840530452406e+01 -1 -2 1
6479 1 2.4168531180895974e+00 5.3639549371807753e+00 5.7430479363248796e+00 3 -3 1
3751 1 1.4859234043227720e+00 7.3832079313158196e+00 6.9436443564928005e+00 4 -1 0
6598 1 1.1367401970396798e+00 7.2226439453877509e+00 9.5106908014073319e+00 1 1 1
2012 1 2.1773676271164302e+00 4.5438772551227666e+00 9.8968188895558953e+00 -3 0 1
1388 1 6.2493916506763014e+00 6.9898252324036196e+00 5.5236099519146808e+00 4 0 1
5646 1 4.8895995017883767e+00 4.7848618415335169e+00 6.5484426532225104e+00 1 0 0
2156 1 4.8890726154465280e+00 4.6720348912699388e+00 9.3672406940892081e+00 0 -2 1
1655 1 6.2375646854771327e+00 6.7641917512646792e+00 9.8711763682937477e+00 -1 0 1
5094 1 1.0020251074230492e+01 4.6544661761129182e+00 5.5500270372929696e+00 0 0 0
167 1 8.7266900382513235e+00 6.9824977425628436e+00 6.2389792036659371e+00 1 2 0
3075 1 8.7721682840603314e+00 6.7459171260255966e+00 8.9497498889692935e+00 -1 0 1
3880 1 9.9891705532016637e+00 4.4078093997384560e+00 1.0313946227931607e+01 -3 2 0
5213 1 2.7135744628981588e+00 9.5018150112990849e+00 5.7755130856180434e+00 3 1 1
4770 1 1.3832823868706308e+00 1.1571517858937090e+01 9.3115172745578718e+00 -2 -1 1
1486 1 1.4927518805816031e+00 1.1516321631764708e+01 6.5079088012271686e+00 0 2 1
5624 1 2.4854140474954041e+00 9.2134664314532078e+00 1.0428582867364534e+01 1 -1 1
5467 1 6.4376890400593769e+00 1.1531508709924578e+01 5.6509083946691598e+00 -2 -3 0
6420 1 4.7901132523763410e+00 9.2386865168673200e+00 9.4261351549920533e+00 1 -3 1
3374 1 5.3509201817390251e+00 9.3528815241594820e+00 6.4595618981003318e+00 -2 -2 0
3679 1 6.4702514582751833e+00 1.1357649067333734e+01 1.0371317522169218e+01 -2 -2 0
3419 1 9.9882725826286354e+00 9.2304269956193039e+00 5.4309385140940076e+00 -1 1 0
3329 1 9.1073375590980579e+00 1.1344768062917337e+01 6.5971039228900956e+00 -4 -1 1
5391 1 8.8424783009631991e+00 1.1194795305707535e+01 9.2644238553949076e+00 3 3 0
6481 1 1.0046706502603731e+01 8.9606052944540000e+00 9.9066879095150018e+00 1 -1 0
449 1 2.6239719391574514e+00 1.3570532690834312e+01 5.6120988263521729e+00 -1 -2 0
6476 1 1.2978032281871752e+00 1.6038960629170877e+01 6.2986721768013609e+00 1 0 1
4879 1 1.1160970570160500e+00 1.6116511614691479e+01 8.9588312988633056e+00 2 -1 1
5127 1 6.3870657454461846e+00 1.6031592200241647e+01 5.6418311638708349e+00 2 -1 0
478 1 5.3314425838911665e+00 1.3709113727698709e+01 6.4590087727977510e+00 -2 1 0
5211 1 5.1302613778596946e+00 1.3351622846810947e+01 9.2127598567685869e+00 2 4 0
3015 1 9.9145627553430735e+00 1.3612284755825526e+01 5.3957558085778992e+00 -2 2 0
1407 1 8.7162992845093008e+00 1.5558718285383593e+01 9.2745038715093493e+00 2 -1 1
4792 1 8.8435784478658199e+00 1.5984842842558640e+01 6.6364267241050410e+00 2 0 1
3074 1 9.9827603495029464e+00 1.3617911788992279e+01 1.0211313474437070e+01 2 -2 1
4913 1 2.4788591363851356e+00 1.8336164507955090e+01 5.7473543278989361e+00 2 3 1
1820 1 2.2507719969687510e+00 1.8135991010226103e+01 1.0149698119442460e+01 -2 -1 0
4698 1 1.2280222623057502e+00 2.0578187414858473e+01 9.0860266275179065e+00 2 1 1
6361 1 4.9845330331170699e+00 1.8329190458022879e+01 6.3981951354185238e+00 -3 3 1
3213 1 4.9010212785048761e+00 1.7967162579195243e+01 9.1599784781997204e+00 3 -4 0
3958 1 6.0179406209136959e+00 2.0181739458731286e+01 1.0046006854353955e+01 1 2 1
1639 1 9.6995308390445842e+00 1.7980316462397642e+01 5.3567200024111052e+00 1 0 0
538 1 8.6692908661653139e+00 2.0239497287260143e+01 6.5514150569157046e+00 3 1 0
1503 1 8.5052975633281882e+00 2.0044312409560263e+01 9.4044740700346754e+00 1 -2 1
3750 1 9.9232464109387504e+00 1.7712703020481250e+01 1.0063427124099995e+01 2 0 0
5153 1 9.9454945435852533e+00 2.2280487618674826e+01 1.2564038583472843e+01 -1 -3 0
6425 1 1.2673877870970931e+00 2.0404079132677968e+01 6.4924551990826824e+00 0 -3 0
5601 1 2.3654133484115305e+00 2.2803958374125123e+01 5.8144421148960541e+00 0 -2 1
3685 1 2.4609001713781526e+00 2.2863499100508381e+01 1.0049996596149736e+01 -2 -3 0
3241 1 6.2155776887766345e+00 2.0678396984892153e+01 5.5961079473410180e+00 1 0 1
5430 1 4.7449591492315468e+00 2.2653666499547370e+01 6.6957110222543816e+00 0 1 0
3165 1 4.8950783103458591e+00 2.2366553627474026e+01 9.2199311931674366e+00 3 -2 1
3704 1 1.0269988535061955e+01 2.2258816341402959e+01 5.3349774803469883e+00 -3 1 1
5348 1 9.7858749099631144e+00 2.2367414028480781e+01 1.0013346190169706e+01 -2 0 0
2085 1 2.5180610099943150e+00 2.2583259820551248e+01 1.2598820175089601e+01 3 -1 0
2112 1 4.1297777971650724e+00 2.8135289224840170e+00 1.3497288962426889e+01 0 -1 0
1467 1 6.0107592645790042e+00 2.0222261676015343e+01 1.2865259958550764e+01 -1 -2 1
4801 1 2.3629277457021112e+00 4.2035904416343817e-01 5.2582437446155446e+00 4 0 1
3667 1 6.4544957332313420e+00 2.5900905218973200e+00 1.2397386702787665e+01 4 0 0
1895 1 2.2366588433077301e+00 1.8514690032700482e+01 1.2754625599424955e+01 0 -1 0
4706 1 1.1269287663369610e+01 2.2106696245901856e+00 1.3796659373586268e+01 -2 0 1
3668 1 2.4574803738679387e+00 4.9672644245013053e+00 1.2833757407985072e+01 -1 0 1
5663 1 3.9050468267107386e+00 7.0983455871603445e+00 1.3829267219694270e+01 1 4 1
4899 1 7.3068647358243446e+00 4.8307332006911823e+00 1.3436382089530483e+01 3 1 1
2033 1 6.1542479478202958e+00 7.0785847582843537e+00 1.2654688195802175e+01 -1 0 0
3390 1 1.0255049794837253e+01 4.5008260182765314e+00 1.3064439436154100e+01 2 -3 1
3863 1 1.1267899152611397e+01 6.7534584969943090e+00 1.3737255584617195e+01 2 0 0
200 1 2.2408094878747704e+00 9.1903898570715814e+00 1.3240251764174328e+01 4 -2 0
4728 1 3.6774299452320576e+00 1.1398744504808286e+01 1.3906242228251170e+01 3 -1 1
5566 1 6.0759989825009599e+00 1.1188318265406805e+01 1.2943587875810010e+01 2 2 1
5206 1 7.9480716239535285e+00 9.0055994874320451e+00 1.3827599208862305e+01 -3 -2 1
5046 1 1.0192166459412846e+01 8.9164181425639626e+00 1.2501434070138416e+01 1 2 0
1709 1 1.1245225816262678e+01 1.1408908729384679e+01 1.3510837457177418e+01 -2 2 1
3949 1 2.4052045929131740e+00 1.3703245460292734e+01 1.0175214261449270e+01 -2 4 1
1979 1 2.3673346740338874e+00 1.3678992922082346e+01 1.2883385938288788e+01 0 -1 0
1543 1 3.3441583184643173e+00 1.6142037517470367e+01 1.3661522107401954e+01 0 -3 0
5102 1 7.2358218995641810e+00 1.8094041189929470e+01 1.3728362546178735e+01 -1 -4 0
3494 1 6.2326931249777262e+00 1.5631509614579109e+01 1.0315746985288534e+01 4 0 0
2174 1 5.8820642939503633e+00 1.6143147483752717e+01 1.2878187822457463e+01 1 -2 0
3137 1 7.0750564341101407e+00 1.3675296236800765e+01 1.3984865143863727e+01 -1 -1 1
3930 1 1.1217645440751967e+01 1.5793354612973811e+01 1.3418813688720055e+01 1 3 1
2994 1 9.6146306518246121e+00 1.3591572001016916e+01 1.2763414133151082e+01 2 -1 0
6725 1 7.3237683121121258e+00 2.2643525951339605e+01 1.3518776127757041e+01 1 -1 1
2041 1 7.8007899537612255e+00 7.1059472565621695e-01 1.6857885573251024e+00 3 0 0
6586 1 4.7521903152933742e+00 6.0022936873362909e-01 8.8580915144242276e+00 -1 1 0
5 1 9.8796159579634253e+00 2.0561491188440237e-01 1.2511199459029632e+01 2 -1 0
1529 1 3.0837732228583548e-02 9.5170772484313098e+00 2.0926643782852850e+00 -2 3 1
3620 1 1.0981492174415209e+01 2.4335088359090332e+01 1.8711162215719701e+00 1 -3 0
6702 1 1.0158815229961862e+01 7.5419255544232866e-01 2.9882511962048808e+00 -2 0 1
1384 1 7.3047553848857643e+00 3.5607383933779602e-02 1.3219536579411438e+01 -1 4 1
4704 1 1.3067868271116787e+00 3.1244204534196163e+00 1.7273404338817656e+01 2 1 1
3056 1 1.3677897098447254e+00 3.1061442736270757e+00 1.9888285905002014e+01 2 -4 1
57 1 3.7797619078320692e+00 2.6910204956886776e+00 1.6164349934507516e+01 3 2 1
468 1 1.1796786596199793e-01 9.0499135065414138e-01 1.6470937257097372e+01 -1 0 1
3053 1 9.6244480148672036e+00 2.4154252107316772e+01 2.3337042729628635e+01 -1 1 1
3326 1 4.9963229979847279e+00 4.0518576673972478e-01 1.9853957106068535e+01 1 5 1
863 2 8.6135000000000002e+00 2.2023314693372832e+01 2.6802931235329346e+01 0 0 0
5443 1 8.8884835854886184e+00 2.1516320576463004e+00 1.7222774592307477e+01 2 2 0
4969 1 1.1407465409885292e+01 2.1327988103786950e+00 1.6554365705553664e+01 0 -2 1
2 1 9.0170292054674146e+00 2.1479200813326220e+00 2.0002287993490004e+01 -3 1 1
6680 1 1.4050077763901601e+00 7.8198182288792912e+00 1.7323523412959435e+01 0 -2 1
5250 1 4.0653669798425627e+00 7.3662871405484118e+00 1.6319681559464300e+01 1 -1 1
3071 1 1.4578573248273905e+00 7.5235347419684722e+00 1.9848687462861463e+01 0 0 1
326 1 5.2697937716469427e+00 4.7908558248329323e+00 1.7009686474792456e+01 -1 -1 0
5480 1 7.8903188680442016e+00 4.6960044474146931e+00 1.6140108296640626e+01 -3 -1 0
514 1 4.9353565222000038e+00 5.0246311559832044e+00 1.9527960477720420e+01 2 3 1
4938 1 8.6477051033007619e+00 6.8541117622090040e+00 1.7153360658795840e+01 3 2 1
3401 1 1.1385939351065439e+01 6.7636091836901366e+00 1.6308661920252725e+01 2 -3 0
3687 1 8.7005320734147809e+00 6.7552025710223846e+00 1.9884623802301668e+01 -1 -2 0
5451 1 1.2420230610935170e+00 1.2195279704004724e+01 1.7696557082948537e+01 -2 -2 0
3571 1 3.8486360533820685e+00 1.1559059339627103e+01 1.6489627629624945e+01 -3 -5 1
3228 1 1.5449518989450481e+00 1.2022636109254469e+01 2.0446692503174443e+01 -2 2 1
1679 1 5.0711673987787353e+00 9.4811050907262686e+00 1.7576116449766779e+01 -5 -1 1
2215 1 7.6496921278217034e+00 9.1022365550535138e+00 1.6685169141068123e+01 0 0 0
3669 1 5.0724186654104937e+00 9.5073611342250839e+00 2.0301176329248612e+01 2 0 1
2114 1 9.1583477629712817e+00 1.1322485356508786e+01 1.7258157799804465e+01 1 2 0
4912 1 1.1478655013909531e+01 1.1147752675803845e+01 1.6419325577477526e+01 0 1 0
4924 1 9.3049442125078237e+00 1.1795893536762646e+01 1.9942665733869585e+01 1 3 1
3542 1 1.0199173349946591e+00 1.6217204062692335e+01 2.0201934607968933e+01 0 3 0
4991 1 1.0034881627711536e+00 1.6282760316011601e+01 1.7468411613420244e+01 -2 -1 0
3858 1 3.4429206142411539e+00 1.5785963088199532e+01 1.6513406815144787e+01 0 2 1
2291 1 4.8519368093767721e+00 1.3612182719388748e+01 1.7574920957991953e+01 3 0 1
1718 1 7.3090516014530378e+00 1.3730638335043922e+01 1.6724331221016385e+01 -1 1 0
160 1 5.3739661252903366e+00 1.4104563243634063e+01 2.0505567731633430e+01 2 -4 0
6489 1 8.8275862097055366e+00 1.5778200219809147e+01 1.7197579535476848e+01 1 1 0
3503 1 1.1232412589376150e+01 1.5747259931374618e+01 1.6218815987321207e+01 1 -3 0
1654 1 4.7272470519365415e+00 1.8185475655898252e+01 1.6827103439756854e+01 2 1 1
3204 1 7.2549440077331440e+00 1.8207295519227209e+01 1.6423848220121567e+01 1 2 1
2138 1 1.1095276132757135e+01 2.0233509177113138e+01 1.6177052681468140e+01 1 2 0
3646 1 8.5498436135706068e+00 2.0593188812317006e+01 1.9963318623731372e+01 2 3 0
4998 1 8.5309072323735347e+00 2.0671188348749176e+01 1.7082840219545723e+01 -2 0 1
897 2 1.1074500000000002e+01 2.2023314693372832e+01 2.6802931235329346e+01 0 0 0
1506 1 3.5294529706106319e+00 2.0582817971395812e+01 1.6170014726912974e+01 2 0 1
2194 1 1.1389118400062246e+00 2.0982986629307923e+01 2.0018314080385267e+01 0 -2 0
3256 1 9.0488926176346207e-01 2.0833204470493964e+01 1.7226087057347719e+01 3 -2 1
385 1 4.8228337224059903e+00 2.2755435002816892e+01 1.7082192682086408e+01 0 -1 0
273 1 7.3170497317134018e+00 2.2739456469238078e+01 1.6244804409222958e+01 2 -2 0
3396 1 4.6954665554702419e+00 2.2864920474532507e+01 1.9773783140592982e+01 1 -1 0
5349 1 1.8659655806800917e+00 9.3813467014565000e-01 2.3482677878747861e+01 2 1 0
1905 1 2.4389777903358070e+00 8.0603607290686052e-01 2.0767698543190605e+01 1 -1 0
3853 1 1.8538783812715498e+00 4.4392891759042969e+00 2.3821045805201297e+01 2 -1 0
5429 1 4.7818973817349777e+00 6.2404869288962861e-01 2.4209464499743486e+01 2 -2 0
78 1 6.1233572963784830e+00 2.6277719284894383e+00 2.0453850612688388e+01 -1 3 0
520 1 8.6321445443847526e+00 2.6435350332559375e+00 2.4568407554584365e+01 2 3 0
4682 1 1.0817398143012353e+01 1.8278369816802265e+01 2.3022841876700152e+01 1 -3 1
1616 1 6.7453300396593914e+00 2.3831333846857696e+01 2.3554092031513825e+01 -1 -4 0
893 2 9.8440000000000012e+00 2.4154603212086336e+01 2.6802931235329346e+01 0 0 0
3934 1 2.5394290397726382e+00 5.2251512871726353e+00 2.0995894840401252e+01 5 -3 0
3904 1 4.6716271612394369e+00 5.0800001536982986e+00 2.4122750621176596e+01 1 2 1
1380 1 1.1384154326303160e+00 7.0155387929807382e+00 2.3896216613714262e+01 -1 0 1
1700 1 6.2503468214751701e+00 6.9991859207236402e+00 2.0474392276320113e+01 -1 -4 1
130 1 6.0903733272406768e+00 3.1302073471774468e+00 2.3586977189287836e+01 0 2 1
6698 1 6.3371989150919266e+00 7.4496229953612545e+00 2.3408625133789887e+01 2 6 1
1774 1 9.9987528566439021e+00 4.6948942736219710e+00 2.3640782577691567e+01 1 1 0
337 1 9.9212988498648560e+00 4.6664410045032030e+00 2.1132920181340431e+01 1 2 0
2229 1 8.9493563826292775e+00 7.0608712202973676e+00 2.4173395587227844e+01 -4 1 0
3417 1 2.6358613006614982e+00 9.4975601000344430e+00 2.0969476698328027e+01 0 0 0
3201 1 2.5438020767815219e+00 9.3827775477787903e+00 2.3568037546632802e+01 1 1 1
3394 1 1.4779929688394819e+00 1.1717114345515853e+01 2.4256898989601680e+01 2 -1 0
1449 1 6.6523690365935710e+00 1.1642836035539810e+01 2.0905574552047213e+01 0 -1 1
5217 1 4.9972106685928868e+00 9.6889422922442616e+00 2.4227975634992411e+01 -3 3 1
1330 1 6.6919829964552200e+00 1.1802393859666665e+01 2.3528239960953837e+01 -1 0 1
1799 1 1.0262397093875393e+01 9.3188514110741671e+00 2.3130912532949701e+01 3 3 1
1696 1 9.5587265795322409e+00 1.2009773191163415e+01 2.3488778591552268e+01 0 1 0
3456 1 1.0171378063567785e+01 8.9885635311000662e+00 2.0373140140437094e+01 -3 -1 0
6331 1 2.8942131905736725e+00 1.4366579032227389e+01 2.3949787155066037e+01 5 1 1
291 1 2.6725616502429204e+00 1.4219262222547929e+01 2.1263812149228130e+01 -1 -3 0
5042 1 1.4853285634241489e+00 1.6511421832177660e+01 2.3996473338158772e+01 1 -1 0
3963 1 6.3051277122382201e+00 1.6441802055764256e+01 2.0901535391426059e+01 0 4 1
6442 1 5.4732234845864660e+00 1.3916041115261152e+01 2.4241977477683037e+01 2 2 1
1890 1 6.7906633504273204e+00 1.6221028567490510e+01 2.3463131596157737e+01 0 0 0
3523 1 8.6849240833593662e+00 1.6183518466530728e+01 1.9758787444921843e+01 0 -1 1
6536 1 1.0027021761484528e+01 1.4003203051219231e+01 2.1086168923888575e+01 0 -2 1
917 2 1.1074500000000002e+01 2.3444173705848499e+01 2.6802931235329346e+01 0 0 0
4891 1 2.3185846011742668e+00 1.8693001892728596e+01 2.0896365836976873e+01 4 2 1
4705 1 2.6459337568791890e+00 1.8905131208782002e+01 2.3474301638434444e+01 4 0 1
1817 1 5.0488376057440663e+00 1.8563381661566403e+01 1.9414076662529780e+01 -5 -3 0
1768 1 5.2420942826400587e+00 1.8450889143958520e+01 2.4089815990370177e+01 -3 1 1
5448 1 5.7895525098156435e+00 2.0533735136159375e+01 2.0977972872640589e+01 -1 1 0
6578 1 9.4980195690027642e+00 1.5810055790307919e+01 2.3238862712802497e+01 2 -2 1
3459 1 1.0055280481405498e+01 1.8223581150237958e+01 2.0388600147546345e+01 0 2 0
821 2 6.1524999999999990e+00 2.2023314693372832e+01 2.6802931235329346e+01 0 0 0
5035 1 1.7884278523102550e+00 2.1665980896195506e+01 2.3729151044852355e+01 1 1 0
1670 1 2.0694796871603272e+00 2.3085110941567859e+01 2.1156403275434162e+01 2 -1 1
6340 1 6.6604165767523646e+00 2.0729662071329020e+01 2.3517819891313184e+01 -1 -2 1
895 2 9.8440000000000012e+00 2.1312885187134999e+01 2.6802931235329346e+01 0 0 0
891 2 8.6134999999999984e+00 2.3444173705848499e+01 2.6802931235329346e+01 0 0 0
5154 1 9.5042564529437374e+00 2.0530221242768622e+01 2.3350174184402253e+01 1 -3 0
6344 1 9.8350079004206563e+00 2.2612179518465254e+01 2.0938562146041946e+01 2 0 1
3813 1 5.0346250491828037e+00 4.2386495887923659e-01 1.7178398087046766e+01 0 4 0
618 2 0.0000000000000000e+00 2.8417180249513345e+00 2.6802931235329346e+01 0 0 0
620 2 0.0000000000000000e+00 0.0000000000000000e+00 2.6802931235329346e+01 0 0 0
622 2 1.2305000000000001e+00 7.1042950623783474e-01 2.6802931235329346e+01 0 0 0
629 2 1.2305000000000001e+00 2.1312885187134998e+00 2.6802931235329346e+01 0 0 0
631 2 2.4610000000000003e+00 2.8417180249513345e+00 2.6802931235329346e+01 0 0 0
633 2 2.4610000000000003e+00 0.0000000000000000e+00 2.6802931235329346e+01 0 0 0
635 2 3.6915000000000004e+00 7.1042950623783474e-01 2.6802931235329346e+01 0 0 0
650 2 3.6914999999999996e+00 2.1312885187134998e+00 2.6802931235329346e+01 0 0 0
652 2 4.9220000000000006e+00 2.8417180249513332e+00 2.6802931235329346e+01 0 0 0
654 2 4.9220000000000006e+00 0.0000000000000000e+00 2.6802931235329346e+01 0 0 0
656 2 6.1524999999999999e+00 7.1042950623783407e-01 2.6802931235329346e+01 0 0 0
679 2 6.1524999999999999e+00 2.1312885187134989e+00 2.6802931235329346e+01 0 0 0
681 2 7.3829999999999991e+00 2.8417180249513345e+00 2.6802931235329346e+01 0 0 0
683 2 7.3829999999999991e+00 0.0000000000000000e+00 2.6802931235329346e+01 0 0 0
685 2 8.6134999999999984e+00 7.1042950623783407e-01 2.6802931235329346e+01 0 0 0
716 2 8.6134999999999984e+00 2.1312885187135002e+00 2.6802931235329346e+01 0 0 0
718 2 9.8440000000000012e+00 2.8417180249513332e+00 2.6802931235329346e+01 0 0 0
720 2 9.8440000000000012e+00 0.0000000000000000e+00 2.6802931235329346e+01 0 0 0
722 2 1.1074500000000002e+01 7.1042950623783330e-01 2.6802931235329346e+01 0 0 0
761 2 1.1074500000000002e+01 2.1312885187135002e+00 2.6802931235329346e+01 0 0 0
623 2 0.0000000000000000e+00 7.1042950623783341e+00 2.6802931235329346e+01 0 0 0
625 2 0.0000000000000000e+00 4.2625770374269996e+00 2.6802931235329346e+01 0 0 0
627 2 1.2305000000000001e+00 4.9730065436648339e+00 2.6802931235329346e+01 0 0 0
642 2 1.2305000000000001e+00 6.3938655561404980e+00 2.6802931235329346e+01 0 0 0
644 2 2.4610000000000003e+00 7.1042950623783341e+00 2.6802931235329346e+01 0 0 0
646 2 2.4610000000000003e+00 4.2625770374269996e+00 2.6802931235329346e+01 0 0 0
648 2 3.6914999999999996e+00 4.9730065436648339e+00 2.6802931235329346e+01 0 0 0
671 2 3.6914999999999996e+00 6.3938655561404980e+00 2.6802931235329346e+01 0 0 0
673 2 4.9220000000000006e+00 7.1042950623783341e+00 2.6802931235329346e+01 0 0 0
675 2 4.9220000000000006e+00 4.2625770374269978e+00 2.6802931235329346e+01 0 0 0
677 2 6.1524999999999999e+00 4.9730065436648339e+00 2.6802931235329346e+01 0 0 0
708 2 6.1524999999999999e+00 6.3938655561404980e+00 2.6802931235329346e+01 0 0 0
710 2 7.3830000000000009e+00 7.1042950623783341e+00 2.6802931235329346e+01 0 0 0
712 2 7.3829999999999991e+00 4.2625770374269996e+00 2.6802931235329346e+01 0 0 0
714 2 8.6135000000000002e+00 4.9730065436648339e+00 2.6802931235329346e+01 0 0 0
753 2 8.6135000000000002e+00 6.3938655561404980e+00 2.6802931235329346e+01 0 0 0
755 2 9.8440000000000012e+00 7.1042950623783341e+00 2.6802931235329346e+01 0 0 0
757 2 9.8440000000000012e+00 4.2625770374270004e+00 2.6802931235329346e+01 0 0 0
759 2 1.1074500000000002e+01 4.9730065436648339e+00 2.6802931235329346e+01 0 0 0
800 2 1.1074500000000002e+01 6.3938655561404980e+00 2.6802931235329346e+01 0 0 0
636 2 0.0000000000000000e+00 1.1366872099805333e+01 2.6802931235329346e+01 0 0 0
638 2 0.0000000000000000e+00 8.5251540748539991e+00 2.6802931235329346e+01 0 0 0
640 2 1.2305000000000001e+00 9.2355835810918343e+00 2.6802931235329346e+01 0 0 0
663 2 1.2305000000000001e+00 1.0656442593567498e+01 2.6802931235329346e+01 0 0 0
665 2 2.4610000000000003e+00 1.1366872099805333e+01 2.6802931235329346e+01 0 0 0
667 2 2.4610000000000003e+00 8.5251540748539991e+00 2.6802931235329346e+01 0 0 0
669 2 3.6915000000000004e+00 9.2355835810918343e+00 2.6802931235329346e+01 0 0 0
700 2 3.6914999999999996e+00 1.0656442593567499e+01 2.6802931235329346e+01 0 0 0
702 2 4.9220000000000006e+00 1.1366872099805333e+01 2.6802931235329346e+01 0 0 0
704 2 4.9220000000000006e+00 8.5251540748539991e+00 2.6802931235329346e+01 0 0 0
706 2 6.1524999999999999e+00 9.2355835810918343e+00 2.6802931235329346e+01 0 0 0
745 2 6.1524999999999999e+00 1.0656442593567499e+01 2.6802931235329346e+01 0 0 0
747 2 7.3829999999999991e+00 1.1366872099805333e+01 2.6802931235329346e+01 0 0 0
749 2 7.3830000000000009e+00 8.5251540748539991e+00 2.6802931235329346e+01 0 0 0
751 2 8.6134999999999984e+00 9.2355835810918343e+00 2.6802931235329346e+01 0 0 0
792 2 8.6134999999999984e+00 1.0656442593567498e+01 2.6802931235329346e+01 0 0 0
794 2 9.8440000000000012e+00 1.1366872099805333e+01 2.6802931235329346e+01 0 0 0
796 2 9.8440000000000012e+00 8.5251540748539956e+00 2.6802931235329346e+01 0 0 0
798 2 1.1074500000000002e+01 9.2355835810918343e+00 2.6802931235329346e+01 0 0 0
839 2 1.1074500000000002e+01 1.0656442593567498e+01 2.6802931235329346e+01 0 0 0
841 2 1.2304999999999998e+01 1.1366872099805333e+01 2.6802931235329346e+01 0 0 0
657 2 0.0000000000000000e+00 1.5629449137232333e+01 2.6802931235329346e+01 0 0 0
659 2 0.0000000000000000e+00 1.2787731112280996e+01 2.6802931235329346e+01 0 0 0
661 2 1.2305000000000001e+00 1.3498160618518829e+01 2.6802931235329346e+01 0 0 0
692 2 1.2305000000000001e+00 1.4919019630994494e+01 2.6802931235329346e+01 0 0 0
694 2 2.4610000000000003e+00 1.5629449137232328e+01 2.6802931235329346e+01 0 0 0
696 2 2.4610000000000003e+00 1.2787731112280996e+01 2.6802931235329346e+01 0 0 0
698 2 3.6915000000000004e+00 1.3498160618518829e+01 2.6802931235329346e+01 0 0 0
737 2 3.6915000000000004e+00 1.4919019630994494e+01 2.6802931235329346e+01 0 0 0
739 2 4.9220000000000006e+00 1.5629449137232333e+01 2.6802931235329346e+01 0 0 0
741 2 4.9220000000000006e+00 1.2787731112280996e+01 2.6802931235329346e+01 0 0 0
743 2 6.1524999999999990e+00 1.3498160618518829e+01 2.6802931235329346e+01 0 0 0
784 2 6.1524999999999990e+00 1.4919019630994494e+01 2.6802931235329346e+01 0 0 0
786 2 7.3829999999999991e+00 1.5629449137232333e+01 2.6802931235329346e+01 0 0 0
788 2 7.3829999999999991e+00 1.2787731112280996e+01 2.6802931235329346e+01 0 0 0
790 2 8.6135000000000002e+00 1.3498160618518835e+01 2.6802931235329346e+01 0 0 0
831 2 8.6135000000000002e+00 1.4919019630994494e+01 2.6802931235329346e+01 0 0 0
833 2 9.8440000000000012e+00 1.5629449137232328e+01 2.6802931235329346e+01 0 0 0
835 2 9.8440000000000012e+00 1.2787731112280996e+01 2.6802931235329346e+01 0 0 0
837 2 1.1074500000000002e+01 1.3498160618518829e+01 2.6802931235329346e+01 0 0 0
873 2 1.1074500000000002e+01 1.4919019630994494e+01 2.6802931235329346e+01 0 0 0
686 2 0.0000000000000000e+00 1.9892026174659328e+01 2.6802931235329346e+01 0 0 0
688 2 0.0000000000000000e+00 1.7050308149707998e+01 2.6802931235329346e+01 0 0 0
690 2 1.2305000000000001e+00 1.7760737655945832e+01 2.6802931235329346e+01 0 0 0
729 2 1.2305000000000001e+00 1.9181596668421495e+01 2.6802931235329346e+01 0 0 0
731 2 2.4610000000000003e+00 1.9892026174659328e+01 2.6802931235329346e+01 0 0 0
733 2 2.4610000000000003e+00 1.7050308149707998e+01 2.6802931235329346e+01 0 0 0
735 2 3.6914999999999996e+00 1.7760737655945832e+01 2.6802931235329346e+01 0 0 0
776 2 3.6914999999999996e+00 1.9181596668421495e+01 2.6802931235329346e+01 0 0 0
778 2 4.9220000000000006e+00 1.9892026174659328e+01 2.6802931235329346e+01 0 0 0
780 2 4.9220000000000006e+00 1.7050308149707998e+01 2.6802931235329346e+01 0 0 0
782 2 6.1524999999999999e+00 1.7760737655945832e+01 2.6802931235329346e+01 0 0 0
823 2 6.1524999999999999e+00 1.9181596668421495e+01 2.6802931235329346e+01 0 0 0
825 2 7.3829999999999991e+00 1.9892026174659328e+01 2.6802931235329346e+01 0 0 0
827 2 7.3830000000000009e+00 1.7050308149707998e+01 2.6802931235329346e+01 0 0 0
869 2 9.8440000000000012e+00 1.7050308149707998e+01 2.6802931235329346e+01 0 0 0
871 2 1.1074500000000002e+01 1.7760737655945835e+01 2.6802931235329346e+01 0 0 0
899 2 1.1074500000000002e+01 1.9181596668421495e+01 2.6802931235329346e+01 0 0 0
903 2 1.2304999999999998e+01 1.7050308149707998e+01 2.6802931235329346e+01 0 0 0
829 2 8.6134999999999984e+00 1.7760737655945832e+01 2.6802931235329346e+01 0 0 0
865 2 8.6135000000000002e+00 1.9181596668421495e+01 2.6802931235329346e+01 0 0 0
867 2 9.8440000000000012e+00 1.9892026174659335e+01 2.6802931235329346e+01 0 0 0
770 2 2.4610000000000003e+00 2.4154603212086325e+01 2.6802931235329346e+01 0 0 0
723 2 0.0000000000000000e+00 2.4154603212086325e+01 2.6802931235329346e+01 0 0 0
768 2 1.2304999999999993e+00 2.3444173705848499e+01 2.6802931235329346e+01 0 0 0
815 2 3.6915000000000004e+00 2.3444173705848499e+01 2.6802931235329346e+01 0 0 0
774 2 3.6914999999999996e+00 2.2023314693372832e+01 2.6802931235329346e+01 0 0 0
772 2 2.4610000000000003e+00 2.1312885187134995e+01 2.6802931235329346e+01 0 0 0
727 2 1.2304999999999993e+00 2.2023314693372832e+01 2.6802931235329346e+01 0 0 0
725 2 0.0000000000000000e+00 2.1312885187134999e+01 2.6802931235329346e+01 0 0 0
859 2 7.3830000000000009e+00 2.4154603212086336e+01 2.6802931235329346e+01 0 0 0
819 2 4.9220000000000006e+00 2.1312885187134995e+01 2.6802931235329346e+01 0 0 0
817 2 4.9220000000000006e+00 2.4154603212086325e+01 2.6802931235329346e+01 0 0 0
861 2 7.3829999999999991e+00 2.1312885187134999e+01 2.6802931235329346e+01 0 0 0
857 2 6.1524999999999999e+00 2.3444173705848499e+01 2.6802931235329346e+01 0 0 0
4928 1 9.9310717792952072e+00 6.5790441438439684e-01 2.3573164697470027e+01 0 1 1
4749 1 1.9043512590129838e-01 5.4070810868486348e+00 1.6315598495974093e+01 1 -3 1
3007 1 7.4544836156909557e+00 1.0853070042730861e-01 1.6088208710789889e+01 2 1 1
3109 1 1.2121147121181389e+01 2.2406736409846371e+01 2.3991712403482147e+01 -3 -3 1
1775 1 1.1934630220335972e+01 1.3726607004698076e+01 2.4334193243050517e+01 -3 2 1
6332 1 1.0170195954531621e+01 6.2706467589361922e-02 2.0759282691578846e+01 3 0 1
3101 1 1.2252225946394747e+01 2.2351686307366904e+01 1.9818345279221415e+01 0 1 1
1791 1 1.2245805614020126e+01 1.7725723938024512e+01 1.9488838571966284e+01 1 3 1
619 2 0.0000000000000000e+00 1.4208590124756650e+00 3.0030999999999789e+01 0 0 0
621 2 0.0000000000000000e+00 0.0000000000000000e+00 3.0030999999999789e+01 0 0 0