LAMMPS data file via write_data, version 16 Mar 2018, timestep = 100000

6750 atoms
2 atom types

0.0000000000000000e+00 4.9219999999999999e+01 xlo xhi
0.0000000000000000e+00 4.9019635930410494e+01 ylo yhi
4.0627109070526757e-01 5.9655728909294311e+01 zlo zhi

Masses

1 18.015
2 12.01

Atoms # atomic

102 1 2.0941014467644354e+00 1.7538624524451463e+00 8.2354370126553600e-01 0 0 0
5626 1 4.2625331187674851e+00 3.9919363640447112e+00 4.1142905053785412e+00 1 2 1
5565 1 8.5374024226367506e+00 4.9129891070870961e+00 5.2585733566345416e+00 0 1 1
5160 1 1.2111784393434430e+01 2.2558097908017665e+01 7.3601373932757475e-01 2 -1 1
5484 1 3.3149776378387963e+00 1.7860230447252765e-01 8.2444114652797715e+00 1 -1 0
5161 1 1.3394873049694134e-01 1.6698344925890773e+01 1.2070615013012862e+01 0 0 0
1556 1 7.6152758052560356e+00 3.6830128298965708e+00 1.0513563145540976e+00 0 0 1
1464 1 1.0739698492232145e+01 1.2235794978287726e+00 3.0930901722527513e+00 0 0 0
5152 1 1.8821193348647967e+00 3.7579405230159031e+00 2.4037398045258973e+00 -1 0 0
5492 1 2.5586144016797947e+00 7.6500521871878870e+00 4.0508105046114551e+00 2 1 0
6463 1 5.8070782111043382e+00 6.3574054855539797e-01 7.1307431290861780e+00 1 1 0
5322 1 5.5235540050611878e+00 8.3058791429776679e+00 4.5071729422424589e+00 1 -1 0
172 1 6.2896842493317271e+00 5.5713966566074360e+00 3.3281349226948880e+00 0 0 0
6675 1 7.3611858679854192e-01 2.3517136029468442e+00 1.2041667270608288e+01 1 1 0
1730 1 1.1318820813709690e+01 5.6283337396144875e+00 4.9030474222146294e+00 0 0 0
3590 1 3.0140489379288118e+00 6.4791469737804537e+00 1.5196279090925588e+00 1 -1 1
2146 1 2.9450968585176760e+00 1.1241262095398501e+01 1.3861166143156614e+00 1 1 1
1946 1 1.9997047952085449e+00 1.0405682881626797e+01 5.5216438259611573e+00 0 1 0
3825 1 8.8388691485636950e-01 9.1382326375515071e+00 2.4269831684094161e+00 0 2 0
6652 1 5.2257867966362381e+00 1.1760261060828958e+01 2.6716004508909870e+00 0 1 1
6651 1 7.5832379924542916e+00 9.5368698049706406e+00 2.5215029192675158e+00 1 -1 1
2231 1 9.7034609920504131e+00 8.0791626422509939e+00 3.7971232104984103e+00 0 1 0
2322 1 1.1919612905569267e+01 9.9074266173504828e+00 4.0198923576680894e+00 -1 0 1
3079 1 9.3242738230273243e+00 1.1533690961892784e+01 1.9005126095500413e+00 0 1 1
6539 1 5.9183940805774293e-01 1.1068174151920278e+01 1.4239257769073268e+01 1 1 1
2120 1 7.8380189198029271e-01 1.4755609891116567e+01 5.3536479995006188e+00 0 0 0
575 1 3.2813482945053152e+00 1.4957598422415817e+01 3.9793945996174842e+00 1 -1 1
3175 1 1.6828112592183937e+00 1.3515107169847072e+01 2.0140872074296445e+00 -1 0 1
4681 1 7.4813852810773600e+00 1.3875894890313127e+01 9.8906816021200183e-01 0 -1 1
3643 1 4.7394119200686609e+00 1.3572608142203867e+01 5.7732207583960484e+00 0 0 1
5481 1 7.2287883182585091e+00 1.3760390558317811e+01 3.7944374842261794e+00 0 0 0
3945 1 1.1227890434152528e+01 1.2381132128783266e+01 3.6312948873262774e+00 0 0 1
1982 1 1.1676967389092042e+01 4.6758512142582189e+00 9.9703401385227437e+00 2 1 0
3974 1 5.5761209149730284e+00 1.6281541141872931e+00 4.4601059656645470e+00 0 0 1
3905 1 9.7488208256435023e+00 2.3341123730538140e+01 1.4312751928158381e+01 0 1 0
6591 1 3.3829141487910044e+00 1.9008299220231532e+01 4.0316264051993196e+00 0 0 1
2324 1 1.0448399968102480e+01 3.5290017676731844e-01 1.4531923967125053e+01 -1 0 1
2189 1 6.5879166052331080e+00 1.7848318522905529e+01 1.1663943461587531e+00 2 2 0
3557 1 7.7264406275793629e+00 1.6229398191898554e+01 2.7270329999307381e+00 0 -1 0
1872 1 3.4952931511488448e+00 1.7221551648102313e+01 1.7198762118895887e+00 1 1 1
2221 1 1.0551968067578878e+01 1.7165851825427495e+01 3.7488594520266592e+00 1 0 0
3129 1 9.6348373111205543e+00 2.1287185960513092e+01 5.9253023922454373e+00 1 0 1
6597 1 6.7980554418898755e+00 2.4100419759594072e+01 4.3567567776896476e+00 0 1 1
2256 1 1.4781204980699776e+00 1.5777801104019034e+01 1.4317734291918724e+01 0 1 1
4978 1 1.1993591128793696e+01 1.0939006500278612e+01 1.4060966756654901e+01 0 1 0
3434 1 4.0470023942804811e+00 2.1039414550202348e+01 2.4112354516542767e+00 1 -1 0
6544 1 6.5763985301415113e+00 2.0172008047929626e+01 2.3664854161324049e+00 0 0 1
3586 1 8.4758293505061211e+00 2.1798914063094976e+01 8.8129631303133826e-01 1 -1 0
3153 1 1.5183354191498546e+00 2.3956003499304746e+01 1.1786326354240495e+00 1 0 1
3603 1 1.0439000855738692e+01 1.9627997445309838e+01 3.9835634308507237e+00 0 -1 1
3398 1 1.0541128768176197e+01 2.0156755192703123e+01 1.2357029419457219e+00 0 -1 0
459 1 4.2515419833086900e+00 4.2231549242188695e+00 7.0859551995909928e+00 0 0 0
3515 1 2.3046261647160509e+00 2.5387182939121029e+00 8.5322099327712877e+00 0 0 1
2065 1 8.3442188808663431e+00 2.6562299181173676e+00 3.5534339260051597e+00 0 2 0
3017 1 4.2614271436183335e+00 2.3317796251516622e+01 1.1367535227916454e+01 0 1 1
442 1 3.9485988479593537e-01 9.4125288566240748e+00 7.9098151554237868e+00 2 0 0
6600 1 9.9513340217867228e+00 1.0343998558108545e+00 9.0781525112516910e+00 0 0 0
1626 1 1.7215172368291702e+00 5.8725144277517369e+00 6.2414278793003408e+00 -1 0 1
3701 1 8.6401580397501014e+00 2.4229476985515554e+01 2.0355651417079073e+00 0 -1 0
2035 1 1.1509977766533330e+00 6.9716477423004930e+00 8.6376392994514735e+00 2 -1 0
5159 1 3.6786162223436789e+00 7.1934543807814739e+00 9.5515707018462983e+00 1 1 0
3963 1 7.2139714735227640e+00 3.0195109611708717e+00 7.3107667140251520e+00 1 1 1
597 1 1.0052042052766989e+01 3.3140822216756347e+00 7.5362368293914335e+00 1 -1 1
121 1 5.2527282339801378e+00 6.8959547718942416e+00 7.2193277508773015e+00 1 1 1
3168 1 7.8879250029210040e+00 7.7000228988412305e+00 6.6444612718743059e+00 0 0 0
1755 1 8.9853112578613246e+00 5.6054066512458522e+00 9.9205262504932392e+00 0 0 0
5283 1 6.6605607683769508e+00 4.0191551686156641e+00 1.0013967409210972e+01 1 0 0
5593 1 9.5978616808670054e+00 8.1495795003053768e+00 8.7380191512672294e+00 1 0 1
5654 1 1.8314229645928837e+00 1.3230747530871366e+01 1.5069520446317503e+01 1 1 1
1989 1 4.8050652189180552e+00 1.0914038618061277e+01 5.7663106700399256e+00 0 1 0
3004 1 8.3967191162109311e-01 1.1070202510149207e+01 9.9039143827418119e+00 -1 1 1
1699 1 7.2905394894579834e+00 1.0656528408015330e+01 7.3574484155889062e+00 1 1 1
1566 1 5.0147646641335379e+00 9.7715956552328915e+00 9.2505601009141643e+00 1 1 1
1709 1 9.0553767954406776e+00 1.2783538264980052e+01 5.7835519256885872e+00 0 0 1
1448 1 1.0594643484352401e+01 1.0927302311813781e+01 8.3965252947123208e+00 0 0 1
1833 1 4.0847340368397278e+00 1.4740431204555318e+01 8.6532135020741148e+00 0 1 0
5495 1 1.4197396728729608e+00 1.5161509577740695e+01 8.0441520812939817e+00 0 0 1
5587 1 5.9190488277157192e+00 1.7333922351915895e+01 4.8796580185106118e+00 0 0 0
5364 1 9.3061058402144887e+00 1.4769223470945750e+01 7.8260351049524122e+00 1 -1 0
5267 1 9.9647115697978581e+00 1.5185772311799614e+01 1.0620611745952372e+01 2 0 0
6352 1 1.0647598511895714e+01 6.8373672136475347e+00 1.7819936506245844e+00 1 0 1
4691 1 9.0810187940775791e+00 1.7064971315970414e+01 6.2733189968786309e+00 2 0 1
3726 1 1.1980469920254775e+01 1.2910112697526976e+00 1.0696390506244143e+01 1 0 0
1734 1 1.0170114368476934e+01 6.5781250030383083e+00 1.4862319957429817e+01 0 0 0
6625 1 3.7143789275466093e+00 1.7528644554944531e+01 1.0317441736139140e+01 -1 1 1
3247 1 1.0812512690805109e+01 2.2395046941891437e+01 1.1485760470891663e+01 0 0 1
3553 1 7.5892224491736506e+00 1.8732404437356120e+01 9.3341279535228612e+00 0 -1 0
4811 1 5.2660989361089481e+00 1.8411338164152756e+01 8.3171369555763235e+00 0 1 1
2305 1 5.0566675158616219e+00 2.0624996183979551e+01 6.5003853527501310e+00 0 1 1
314 1 1.0048393356664165e+00 1.9519882444905907e+01 5.6214992909791164e+00 0 0 0
5042 1 1.0038760118891204e+01 1.9104277869430128e+01 7.6182724720635582e+00 0 0 0
5315 1 2.0849570324767335e+00 2.1721216285660063e+01 1.0033803725828175e+01 1 1 0
3258 1 4.2583049223966487e+00 2.2883562312599409e+01 8.0588157972997507e+00 1 1 0
3084 1 6.9237614718466194e+00 2.1365804392816976e+01 4.6801818613960355e+00 0 0 1
5120 1 1.1019593278532481e+01 1.3623642394080408e+01 1.4336239962182548e+01 1 -1 0
3085 1 1.1941052235065067e+01 1.6726711972730687e+01 1.6830893923960357e+00 1 1 1
1998 1 8.1545115530968371e+00 2.1183491232232722e+01 1.0444434628592306e+01 0 0 0
124 1 3.3346812316678740e+00 2.7253873941066127e+00 1.1512583135044116e+01 0 0 0
3633 1 4.3524334852712467e+00 4.3918554614912980e-01 1.2814993481872859e+01 1 -1 0
1731 1 1.6424770831879176e+00 8.7368551266786163e+00 1.5129672477858689e+01 1 1 0
6605 1 6.5399035860491423e+00 1.8533607177093128e+00 1.1569734589901120e+01 0 1 0
4808 1 1.3683424365292385e+00 2.2685939853008975e+01 6.3081155838888847e+00 0 -1 0
1787 1 8.3689012739849797e+00 2.3732120015479516e+00 1.3693378160678080e+01 1 1 0
3339 1 1.0624073244982471e+01 2.0361120895775073e+01 1.4264619376836997e+01 1 -1 1
2081 1 9.0189663443867332e+00 4.8696139507448599e+00 1.2733679512004402e+01 0 0 0
255 1 9.3335365129705927e+00 2.3037741320676673e+01 8.0623366345741623e+00 0 0 0
2998 1 1.1868719801595596e+01 6.6065458849392655e+00 7.7367381593343962e+00 1 0 0
262 1 2.2851252074991080e+00 4.5260073380054546e+00 1.4130872956999221e+01 0 1 1
2207 1 2.0875349422548699e+00 6.8802464999620430e+00 1.3050923081139947e+01 0 0 0
424 1 6.6174390900204587e+00 6.8069733985873357e+00 1.2405172606404181e+01 1 1 0
5632 1 4.3458796749054249e+00 5.3194183399123203e+00 1.1384725705642653e+01 1 0 0
6486 1 1.1471921365862320e+01 3.3175469444907741e+00 1.2493764584916992e+01 2 0 1
1695 1 1.0298527470141432e+01 3.3551636043874340e+00 5.2919849799663943e-01 0 0 1
1564 1 1.1010273508583612e+00 1.9652301190253194e+01 8.5061916176163184e+00 1 0 0
5668 1 1.1856760809512024e+00 2.0648197934535773e+01 1.3407479279658066e+01 1 0 1
3200 1 3.5130970735000244e+00 1.9593463305274252e+01 1.2077215060858997e+01 0 2 1
3142 1 3.5587396242815736e+00 1.2225646258091171e+01 9.7453723167625199e+00 1 0 1
3697 1 6.1057798686999440e+00 9.9701182346080710e+00 1.1723407240996947e+01 0 -1 0
4878 1 4.4673720663524135e+00 9.1834007290272286e+00 1.3779873665518187e+01 1 0 1
611 1 1.0821309510869549e+01 8.3584795609632252e+00 1.3034950200561262e+01 1 0 1
5224 1 8.7040606859290808e+00 8.9405802409936488e+00 1.1255538786632471e+01 -1 1 0
3141 1 6.8829343230299376e+00 2.3418834840831003e+01 1.0687783469961410e+01 0 0 1
5478 1 3.6306308710556463e+00 1.5646961631536691e+01 1.2358094006784544e+01 1 1 0
1561 1 4.0014479629869379e+00 1.2912642374927843e+01 1.2200522923448617e+01 0 1 1
6713 1 3.8910543745751003e+00 2.3311970594288812e+01 1.4133101928402047e+01 0 0 1
5432 1 9.5760828177280004e+00 1.3348203832186071e+01 1.2358427152666556e+01 1 1 0
3277 1 6.3984429067202040e+00 1.5987089028641362e+01 7.3826138564558663e+00 -1 1 1
1370 1 6.8000652753557302e+00 1.2672070702961367e+01 1.3141134307067711e+01 0 1 1
2008 1 1.0389547752392666e+01 1.1303364955254501e+01 1.0958558703309764e+01 -1 0 0
286 1 1.0523773394058495e+00 1.7256319932875904e+01 9.5211606264938080e+00 1 -2 0
6674 1 2.7062733777623711e+00 2.3365028737851713e+01 3.6927031558324290e+00 1 0 1
79 1 8.0253104728898741e+00 1.7388164182228969e+01 1.1589173948495246e+01 1 0 0
6434 1 6.0410678307247938e+00 1.6593434248656372e+01 1.3284745134331565e+01 1 1 1
1702 1 5.2401877817142530e+00 1.8954842601382239e+01 1.4235364717096804e+01 0 0 1
3441 1 1.0439447111541886e+01 1.7467861566341377e+01 1.3437321308895187e+01 1 -1 1
5515 1 8.0300158495810727e+00 1.9903635688786384e+01 1.3183406155649246e+01 0 0 0
1880 1 1.2209200132593399e+01 1.3484239931543511e+01 6.7089002237734903e+00 0 0 0
3841 1 1.2200181408504028e+01 2.2431437675536262e+01 5.1772176512073038e+00 0 -1 0
6653 1 3.7873544580754981e-02 1.1686036318675022e+01 4.4504504485030383e+00 1 1 1
2034 1 4.2333236252481496e+00 2.9538345979227554e+00 1.9955273389362741e+01 1 1 0
3941 1 1.0745682472826640e+01 4.7755300084284737e+00 2.2930992712057094e+01 0 0 1
895 2 9.8440000000000012e+00 2.1312885187134999e+01 2.6809883538616344e+01 0 0 0
3850 1 8.5591957051818710e+00 2.8601456147097273e+00 1.7901863514814497e+01 0 0 0
3940 1 1.1477837244779247e+01 4.7278961066802259e+00 1.9798391660362164e+01 1 1 1
821 2 6.1524999999999990e+00 2.2023314693372832e+01 2.6809883538616344e+01 0 0 0
581 1 1.4531450308244021e+00 2.3999023709366011e+01 1.7401251530384229e+01 -1 -1 1
6688 1 2.9694841948071127e+00 8.2849940215737394e+00 1.7240764620210054e+01 0 0 0
146 1 9.2318986068998732e-01 1.7797543075013259e+01 1.7469416310134243e+01 2 0 0
2263 1 9.5629775951816154e-01 8.2460576492406368e+00 1.9345994793063380e+01 0 1 1
1507 1 4.1074649155741323e+00 5.2124496295297513e+00 1.8229394311679449e+01 1 1 1
259 1 6.1275843891414654e+00 7.1196568946773642e+00 1.9095896547805108e+01 0 0 0
3162 1 1.0296667028484435e+01 7.2667046487787257e+00 1.9366505295339447e+01 0 1 1
29 1 9.8294967479651287e+00 8.2022886841568230e+00 1.6960884038083503e+01 0 0 1
358 1 4.5028276279794932e+00 1.0288854506828372e+01 1.7813899972339673e+01 0 0 0
21 1 2.5721533514836818e+00 1.2884599127384245e+01 1.8263035208677039e+01 1 0 0
859 2 7.3830000000000009e+00 2.4154603212086336e+01 2.6809883538616344e+01 0 0 0
6484 1 8.2984266253486521e+00 1.1575499250463551e+01 1.7122639682255841e+01 1 0 1
6465 1 7.2854491823288576e+00 8.9129540396196454e+00 1.7383746877541924e+01 1 -1 1
4995 1 1.1131193543237686e+01 2.2013994408628665e+01 1.9963202870827494e+01 1 0 0
249 1 8.7769290431796740e+00 1.2910652229727191e+01 1.9837227914434632e+01 0 0 0
3602 1 1.0932996612896300e+01 1.0549975808035922e+01 1.6608666526546763e+01 0 1 1
897 2 1.1074500000000002e+01 2.2023314693372832e+01 2.6809883538616344e+01 0 0 0
4898 1 5.3928263702819335e+00 4.9070618201576921e-01 1.8744983195571780e+01 1 0 1
3856 1 3.5690852916990337e+00 1.5274235540389476e+01 1.9058717440986751e+01 1 1 0
3585 1 1.7887639335877339e+00 2.0301549785269515e+00 1.8272282101818536e+01 0 1 0
3827 1 1.6527639138127719e+00 1.6855804902947696e+01 1.9801834372767082e+01 1 1 1
4944 1 2.1087182522658470e+00 2.2510570971193552e+01 2.3886462705835342e+01 0 0 1
383 1 6.9323933305152341e+00 1.7766307054388125e+01 2.0566077005385093e+01 1 0 0
5490 1 4.7945762960065039e+00 4.8743677291253524e+00 1.5518390896299728e+01 1 0 0
5526 1 1.2098789281335831e+01 1.6701469231039486e+01 1.7949779747726691e+01 0 1 0
5085 1 1.1988915953896534e+01 1.6315657915687527e+01 2.0456087458930234e+01 1 0 1
893 2 9.8440000000000012e+00 2.4154603212086336e+01 2.6809883538616344e+01 0 0 0
3365 1 1.1907610650977277e+01 9.0790476188103497e+00 2.1089465073177934e+01 0 0 1
5092 1 4.9460832255555296e+00 1.8741553308746958e+01 1.9109443055348297e+01 0 1 0
3839 1 2.3240454920417863e+00 2.1332149692421570e+01 1.5698998247441086e+01 1 0 0
3015 1 3.2718291716682701e-01 4.1548547066667041e+00 1.8131453865047686e+01 0 0 0
817 2 4.9220000000000006e+00 2.4154603212086325e+01 2.6809883538616344e+01 0 0 0
267 1 6.5871064639234040e+00 2.1248812569950619e+01 2.0919979497540115e+01 0 0 0
3042 1 9.2191110523501969e+00 1.6279515407753987e+01 1.6061778106606241e+01 0 0 0
399 1 9.1361367815802605e+00 1.8066047696132244e+01 1.8180460309617295e+01 1 -2 0
2063 1 1.0433045412729127e+01 2.0301596042088832e+01 1.6920078599565262e+01 1 -1 0
891 2 8.6134999999999984e+00 2.3444173705848499e+01 2.6809883538616344e+01 0 0 0
1394 1 9.9603790583514726e+00 6.8338410835629242e+00 2.4183598590855329e+01 1 2 1
1705 1 6.7356025432950384e+00 1.5523188190701905e+01 1.5748718958812965e+01 1 -1 1
2076 1 6.5960003697645018e+00 6.6344011638514416e-02 2.2235766169340739e+01 1 0 0
3284 1 7.6096774068879967e+00 2.1077459744209481e+01 1.7723073429140552e+01 1 1 0
2252 1 1.1974479801077448e+01 2.2752920320669929e+01 1.7182527931671487e+01 -2 1 1
3 1 1.0408076289501034e+01 1.4078358114229571e+01 1.7196878846937032e+01 1 2 1
819 2 4.9220000000000006e+00 2.1312885187134995e+01 2.6809883538616344e+01 0 0 0
5530 1 1.7744141451065241e+00 2.7835423077569659e+00 2.4247701680572682e+01 1 1 0
2166 1 2.9937001636909217e+00 1.8033670140449534e+01 1.5314163182333225e+01 0 0 0
228 1 1.9007830389576423e+00 5.7026686349407925e+00 2.2468684811657905e+01 0 0 1
857 2 6.1524999999999999e+00 2.3444173705848499e+01 2.6809883538616344e+01 0 0 0
4827 1 3.7865066833687973e+00 4.7972116449545430e+00 2.4386055095246455e+01 0 1 1
1532 1 6.4112000225582211e+00 4.1521644250215379e+00 2.3878283530130382e+01 0 0 1
477 1 8.2653072817324400e+00 3.3132744761830684e+00 2.0469638140215377e+01 0 1 0
4889 1 8.7920137578061084e+00 6.1734502538790481e-01 2.3777083552262010e+01 0 1 1
4727 1 9.2206638911821948e+00 3.1825094030344272e+00 2.4523858629762202e+01 0 1 1
6534 1 1.0905469226596589e+01 1.9584617932604285e+00 2.1613413070593570e+01 0 0 1
3234 1 1.8948243131949529e+00 5.6871535900817340e+00 1.9685907174248875e+01 0 -1 1
3702 1 1.1375330387941457e+01 3.3265492885530232e+00 1.7596335492134287e+01 2 0 1
1580 1 1.3379748168115413e+00 8.8725575600275484e+00 2.4002477477742076e+01 0 0 0
3650 1 6.1042464017378739e+00 8.8280978964794699e+00 2.3468397457693658e+01 0 0 0
5320 1 3.7335591371662971e+00 7.6425677665373017e+00 2.4350885511274388e+01 0 -1 0
4683 1 8.2665080077016402e+00 6.1166880669833832e+00 2.0523503885665452e+01 1 1 1
3676 1 1.1612273903609733e+01 8.7622825928025918e+00 2.3955817701559280e+01 1 0 0
42 1 7.5282170532691755e+00 6.6111952757979395e+00 2.3317164455450254e+01 0 1 1
2045 1 4.6672278330965007e+00 1.6775787915107731e+01 1.7043304116465784e+01 1 -1 1
5479 1 5.8067027734912879e-01 1.1616251416282404e+01 2.4322127302374952e+01 2 2 0
3725 1 2.4443957264969276e+00 9.4514502638374509e+00 2.1487766839837896e+01 1 -1 0
1978 1 1.9276829065231849e+00 1.2261571613706739e+01 2.1034509301838000e+01 0 0 0
142 1 5.7455675986621326e+00 1.5170458704357550e+01 2.0899504951406989e+01 -1 0 0
196 1 5.2804568339842257e+00 9.3658533363514653e+00 2.1241842822264072e+01 0 -1 0
123 1 7.5386209813530130e+00 1.1376364087834457e+01 2.3753269185807991e+01 1 0 1
2148 1 6.4995768874507274e+00 1.2041371760607122e+01 2.1157355308824521e+01 1 0 0
3703 1 1.0136637360602608e+01 1.1044318468300519e+01 2.3481032889033074e+01 1 1 0
3491 1 1.1103956106741537e+01 1.3629422291539559e+01 2.4347585090171986e+01 1 0 0
285 1 1.1019809291005783e+01 1.1668352239458470e+01 2.0778030371151065e+01 0 0 0
3055 1 2.4502831186470670e+00 1.3775202433666747e+01 2.3323617246453356e+01 0 0 1
917 2 1.1074500000000002e+01 2.3444173705848499e+01 2.6809883538616344e+01 0 0 0
2084 1 4.8964146570069955e+00 1.5038188831172313e+01 2.3436743071796393e+01 1 1 0
4790 1 4.9812870281927033e+00 8.3178851672210952e-01 1.5849358374164639e+01 3 1 1
1915 1 6.8043696697808151e+00 1.3886029214893355e+01 2.4449367832683880e+01 0 2 1
330 1 3.9962050341714552e+00 1.7955332785707689e+01 2.3489962622438075e+01 0 1 0
2157 1 9.0905904917380962e+00 1.5007664230604416e+01 2.1381642283707755e+01 0 1 1
5063 1 9.1273427726685732e+00 1.5245465300357811e+01 2.3795469993269108e+01 0 1 1
4803 1 9.0497667439178286e+00 1.8061702118809592e+01 2.4152042057001267e+01 1 0 1
3187 1 1.0450237080014089e+00 1.8057608045399121e+01 2.4085081617004974e+01 1 0 1
1741 1 3.0700272949591825e+00 1.8927416345865318e+01 2.1189778263835123e+01 -1 1 1
5301 1 5.2510410947252240e+00 2.0395309771928105e+01 1.6797316745938751e+01 2 0 0
422 1 6.0474352813537573e+00 2.6697931305345306e+00 2.1923265206355381e+01 3 1 0
6355 1 6.7693301971290589e+00 1.8920277030101143e+01 2.3171004240825958e+01 2 0 1
1500 1 7.0238971944462225e+00 2.1558401475985765e+01 2.3933093264658687e+01 1 0 1
3288 1 9.8598871980444027e+00 1.7955545291875080e+01 2.1311543486775978e+01 0 1 1
3430 1 1.0995347423144011e+01 1.9870077429443793e+01 2.4083076348340551e+01 1 -1 0
3977 1 9.6680290157907542e+00 2.2187679208496263e+01 2.3512626758478213e+01 0 0 1
1809 1 1.3043360867469065e+00 2.0955190910225038e+01 2.0858355852309046e+01 2 1 0
6404 1 1.9582245035942150e+00 2.3741479376748831e+01 2.0367360850528765e+01 0 0 0
347 1 6.7109035267776367e+00 2.9678684233937780e+00 1.5618888091151435e+01 1 0 0
861 2 7.3829999999999991e+00 2.1312885187134999e+01 2.6809883538616344e+01 0 0 0
3155 1 6.5318368100546323e-02 1.5575978674557319e+01 2.3334941472378986e+01 1 -1 1
4970 1 1.7329682145204452e+00 1.8333726546187152e+00 2.1643384414990102e+01 1 2 1
4813 1 4.5494958413035302e+00 2.3202171413998723e+01 2.1178978683379917e+01 1 1 1
4870 1 4.7921321345528973e+00 2.3726577355571820e+01 2.3800309071688023e+01 1 -1 1
863 2 8.6135000000000002e+00 2.2023314693372832e+01 2.6809883538616344e+01 0 0 0
5059 1 8.6019785602434968e+00 2.2714193221678013e+01 2.0628711691320724e+01 1 1 1
2153 1 3.9879961250771325e+00 1.1512617192802363e+01 1.5329853279981828e+01 1 1 0
725 2 0.0000000000000000e+00 2.1312885187134999e+01 2.6809883538616344e+01 0 0 0
618 2 0.0000000000000000e+00 2.8417180249513345e+00 2.6809883538616344e+01 0 0 0
620 2 0.0000000000000000e+00 0.0000000000000000e+00 2.6809883538616344e+01 0 0 0
622 2 1.2305000000000001e+00 7.1042950623783474e-01 2.6809883538616344e+01 0 0 0
629 2 1.2305000000000001e+00 2.1312885187134998e+00 2.6809883538616344e+01 0 0 0
631 2 2.4610000000000003e+00 2.8417180249513345e+00 2.6809883538616344e+01 0 0 0
633 2 2.4610000000000003e+00 0.0000000000000000e+00 2.6809883538616344e+01 0 0 0
635 2 3.6915000000000004e+00 7.1042950623783474e-01 2.6809883538616344e+01 0 0 0
650 2 3.6914999999999996e+00 2.1312885187134998e+00 2.6809883538616344e+01 0 0 0
652 2 4.9220000000000006e+00 2.8417180249513332e+00 2.6809883538616344e+01 0 0 0
654 2 4.9220000000000006e+00 0.0000000000000000e+00 2.6809883538616344e+01 0 0 0
656 2 6.1524999999999999e+00 7.1042950623783407e-01 2.6809883538616344e+01 0 0 0
679 2 6.1524999999999999e+00 2.1312885187134989e+00 2.6809883538616344e+01 0 0 0
681 2 7.3829999999999991e+00 2.8417180249513345e+00 2.6809883538616344e+01 0 0 0
683 2 7.3829999999999991e+00 0.0000000000000000e+00 2.6809883538616344e+01 0 0 0
685 2 8.6134999999999984e+00 7.1042950623783407e-01 2.6809883538616344e+01 0 0 0
716 2 8.6134999999999984e+00 2.1312885187135002e+00 2.6809883538616344e+01 0 0 0
718 2 9.8440000000000012e+00 2.8417180249513332e+00 2.6809883538616344e+01 0 0 0
720 2 9.8440000000000012e+00 0.0000000000000000e+00 2.6809883538616344e+01 0 0 0
722 2 1.1074500000000002e+01 7.1042950623783330e-01 2.6809883538616344e+01 0 0 0
761 2 1.1074500000000002e+01 2.1312885187135002e+00 2.6809883538616344e+01 0 0 0
623 2 0.0000000000000000e+00 7.1042950623783341e+00 2.6809883538616344e+01 0 0 0
625 2 0.0000000000000000e+00 4.2625770374269996e+00 2.6809883538616344e+01 0 0 0
627 2 1.2305000000000001e+00 4.9730065436648339e+00 2.6809883538616344e+01 0 0 0
642 2 1.2305000000000001e+00 6.3938655561404980e+00 2.6809883538616344e+01 0 0 0
644 2 2.4610000000000003e+00 7.1042950623783341e+00 2.6809883538616344e+01 0 0 0
646 2 2.4610000000000003e+00 4.2625770374269996e+00 2.6809883538616344e+01 0 0 0
648 2 3.6914999999999996e+00 4.9730065436648339e+00 2.6809883538616344e+01 0 0 0
671 2 3.6914999999999996e+00 6.3938655561404980e+00 2.6809883538616344e+01 0 0 0
673 2 4.9220000000000006e+00 7.1042950623783341e+00 2.6809883538616344e+01 0 0 0
675 2 4.9220000000000006e+00 4.2625770374269978e+00 2.6809883538616344e+01 0 0 0
677 2 6.1524999999999999e+00 4.9730065436648339e+00 2.6809883538616344e+01 0 0 0
708 2 6.1524999999999999e+00 6.3938655561404980e+00 2.6809883538616344e+01 0 0 0
710 2 7.3830000000000009e+00 7.1042950623783341e+00 2.6809883538616344e+01 0 0 0
712 2 7.3829999999999991e+00 4.2625770374269996e+00 2.6809883538616344e+01 0 0 0
714 2 8.6135000000000002e+00 4.9730065436648339e+00 2.6809883538616344e+01 0 0 0
753 2 8.6135000000000002e+00 6.3938655561404980e+00 2.6809883538616344e+01 0 0 0
755 2 9.8440000000000012e+00 7.1042950623783341e+00 2.6809883538616344e+01 0 0 0
757 2 9.8440000000000012e+00 4.2625770374270004e+00 2.6809883538616344e+01 0 0 0
759 2 1.1074500000000002e+01 4.9730065436648339e+00 2.6809883538616344e+01 0 0 0
800 2 1.1074500000000002e+01 6.3938655561404980e+00 2.6809883538616344e+01 0 0 0
636 2 0.0000000000000000e+00 1.1366872099805333e+01 2.6809883538616344e+01 0 0 0
638 2 0.0000000000000000e+00 8.5251540748539991e+00 2.6809883538616344e+01 0 0 0
640 2 1.2305000000000001e+00 9.2355835810918343e+00 2.6809883538616344e+01 0 0 0
663 2 1.2305000000000001e+00 1.0656442593567498e+01 2.6809883538616344e+01 0 0 0
665 2 2.4610000000000003e+00 1.1366872099805333e+01 2.6809883538616344e+01 0 0 0
667 2 2.4610000000000003e+00 8.5251540748539991e+00 2.6809883538616344e+01 0 0 0
669 2 3.6915000000000004e+00 9.2355835810918343e+00 2.6809883538616344e+01 0 0 0
700 2 3.6914999999999996e+00 1.0656442593567499e+01 2.6809883538616344e+01 0 0 0
702 2 4.9220000000000006e+00 1.1366872099805333e+01 2.6809883538616344e+01 0 0 0
704 2 4.9220000000000006e+00 8.5251540748539991e+00 2.6809883538616344e+01 0 0 0
706 2 6.1524999999999999e+00 9.2355835810918343e+00 2.6809883538616344e+01 0 0 0
745 2 6.1524999999999999e+00 1.0656442593567499e+01 2.6809883538616344e+01 0 0 0
747 2 7.3829999999999991e+00 1.1366872099805333e+01 2.6809883538616344e+01 0 0 0
749 2 7.3830000000000009e+00 8.5251540748539991e+00 2.6809883538616344e+01 0 0 0
751 2 8.6134999999999984e+00 9.2355835810918343e+00 2.6809883538616344e+01 0 0 0
792 2 8.6134999999999984e+00 1.0656442593567498e+01 2.6809883538616344e+01 0 0 0
794 2 9.8440000000000012e+00 1.1366872099805333e+01 2.6809883538616344e+01 0 0 0
796 2 9.8440000000000012e+00 8.5251540748539956e+00 2.6809883538616344e+01 0 0 0
798 2 1.1074500000000002e+01 9.2355835810918343e+00 2.6809883538616344e+01 0 0 0
839 2 1.1074500000000002e+01 1.0656442593567498e+01 2.6809883538616344e+01 0 0 0
841 2 1.2304999999999998e+01 1.1366872099805333e+01 2.6809883538616344e+01 0 0 0
657 2 0.0000000000000000e+00 1.5629449137232333e+01 2.6809883538616344e+01 0 0 0
659 2 0.0000000000000000e+00 1.2787731112280996e+01 2.6809883538616344e+01 0 0 0
661 2 1.2305000000000001e+00 1.3498160618518829e+01 2.6809883538616344e+01 0 0 0
692 2 1.2305000000000001e+00 1.4919019630994494e+01 2.6809883538616344e+01 0 0 0
694 2 2.4610000000000003e+00 1.5629449137232328e+01 2.6809883538616344e+01 0 0 0
696 2 2.4610000000000003e+00 1.2787731112280996e+01 2.6809883538616344e+01 0 0 0
698 2 3.6915000000000004e+00 1.3498160618518829e+01 2.6809883538616344e+01 0 0 0
737 2 3.6915000000000004e+00 1.4919019630994494e+01 2.6809883538616344e+01 0 0 0
739 2 4.9220000000000006e+00 1.5629449137232333e+01 2.6809883538616344e+01 0 0 0
741 2 4.9220000000000006e+00 1.2787731112280996e+01 2.6809883538616344e+01 0 0 0
743 2 6.1524999999999990e+00 1.3498160618518829e+01 2.6809883538616344e+01 0 0 0
784 2 6.1524999999999990e+00 1.4919019630994494e+01 2.6809883538616344e+01 0 0 0
786 2 7.3829999999999991e+00 1.5629449137232333e+01 2.6809883538616344e+01 0 0 0
788 2 7.3829999999999991e+00 1.2787731112280996e+01 2.6809883538616344e+01 0 0 0
790 2 8.6135000000000002e+00 1.3498160618518835e+01 2.6809883538616344e+01 0 0 0
831 2 8.6135000000000002e+00 1.4919019630994494e+01 2.6809883538616344e+01 0 0 0
833 2 9.8440000000000012e+00 1.5629449137232328e+01 2.6809883538616344e+01 0 0 0
835 2 9.8440000000000012e+00 1.2787731112280996e+01 2.6809883538616344e+01 0 0 0
837 2 1.1074500000000002e+01 1.3498160618518829e+01 2.6809883538616344e+01 0 0 0
873 2 1.1074500000000002e+01 1.4919019630994494e+01 2.6809883538616344e+01 0 0 0
686 2 0.0000000000000000e+00 1.9892026174659328e+01 2.6809883538616344e+01 0 0 0
688 2 0.0000000000000000e+00 1.7050308149707998e+01 2.6809883538616344e+01 0 0 0
690 2 1.2305000000000001e+00 1.7760737655945832e+01 2.6809883538616344e+01 0 0 0
729 2 1.2305000000000001e+00 1.9181596668421495e+01 2.6809883538616344e+01 0 0 0
731 2 2.4610000000000003e+00 1.9892026174659328e+01 2.6809883538616344e+01 0 0 0
733 2 2.4610000000000003e+00 1.7050308149707998e+01 2.6809883538616344e+01 0 0 0
735 2 3.6914999999999996e+00 1.7760737655945832e+01 2.6809883538616344e+01 0 0 0
776 2 3.6914999999999996e+00 1.9181596668421495e+01 2.6809883538616344e+01 0 0 0
778 2 4.9220000000000006e+00 1.9892026174659328e+01 2.6809883538616344e+01 0 0 0
780 2 4.9220000000000006e+00 1.7050308149707998e+01 2.6809883538616344e+01 0 0 0
782 2 6.1524999999999999e+00 1.7760737655945832e+01 2.6809883538616344e+01 0 0 0
823 2 6.1524999999999999e+00 1.9181596668421495e+01 2.6809883538616344e+01 0 0 0
825 2 7.3829999999999991e+00 1.9892026174659328e+01 2.6809883538616344e+01 0 0 0
827 2 7.3830000000000009e+00 1.7050308149707998e+01 2.6809883538616344e+01 0 0 0
829 2 8.6134999999999984e+00 1.7760737655945832e+01 2.6809883538616344e+01 0 0 0
865 2 8.6135000000000002e+00 1.9181596668421495e+01 2.6809883538616344e+01 0 0 0
867 2 9.8440000000000012e+00 1.9892026174659335e+01 2.6809883538616344e+01 0 0 0
869 2 9.8440000000000012e+00 1.7050308149707998e+01 2.6809883538616344e+01 0 0 0
871 2 1.1074500000000002e+01 1.7760737655945835e+01 2.6809883538616344e+01 0 0 0
899 2 1.1074500000000002e+01 1.9181596668421495e+01 2.6809883538616344e+01 0 0 0
903 2 1.2304999999999998e+01 1.7050308149707998e+01 2.6809883538616344e+01 0 0 0
768 2 1.2304999999999993e+00 2.3444173705848499e+01 2.6809883538616344e+01 0 0 0
727 2 1.2304999999999993e+00 2.2023314693372832e+01 2.6809883538616344e+01 0 0 0
772 2 2.4610000000000003e+00 2.1312885187134995e+01 2.6809883538616344e+01 0 0 0
770 2 2.4610000000000003e+00 2.4154603212086325e+01 2.6809883538616344e+01 0 0 0
723 2 0.0000000000000000e+00 2.4154603212086325e+01 2.6809883538616344e+01 0 0 0
774 2 3.6914999999999996e+00 2.2023314693372832e+01 2.6809883538616344e+01 0 0 0
815 2 3.6915000000000004e+00 2.3444173705848499e+01 2.6809883538616344e+01 0 0 0
3577 1 8.0028270390387792e+00 2.3474254229173688e+01 1.6434435951519617e+01 0 0 0
321 1 1.2269416286189744e+01 5.2688655357822425e+00 1.5968785346195711e+01 1 1 0
3739 1 8.3390641241589858e+00 5.0816599863253209e-02 1.8252014842715866e+01 0 1 0
5208 1 6.3214149018740402e+00 1.2676779797793534e+01 1.5614859871555320e+01 0 0 0
3931 1 2.2678136398509583e+00 1.8106634374181141e+00 1.5382312373922838e+01 1 0 1
6351 1 2.9061133802489758e+00 2.8763956258016365e-01 2.4697805602048739e+01 1 1 1