LAMMPS data file via write_data, version 16 Mar 2018, timestep = 100000

4078 atoms
2 atom types

0.0000000000000000e+00 4.9219999999999999e+01 xlo xhi
0.0000000000000000e+00 4.9019635930410494e+01 ylo yhi
1.3803644382952047e+00 2.6559635561705356e+01 zlo zhi

Masses

1 18.015
2 12.01

Atoms # atomic

52 2 0.0000000000000000e+00 2.8417180249513345e+00 3.1258044998850383e+00 0 0 0
54 2 0.0000000000000000e+00 0.0000000000000000e+00 3.1258044998850383e+00 0 0 0
56 2 1.2305000000000001e+00 7.1042950623783474e-01 3.1258044998850383e+00 0 0 0
63 2 1.2305000000000001e+00 2.1312885187134998e+00 3.1258044998850383e+00 0 0 0
65 2 2.4610000000000003e+00 2.8417180249513345e+00 3.1258044998850383e+00 0 0 0
67 2 2.4610000000000003e+00 0.0000000000000000e+00 3.1258044998850383e+00 0 0 0
69 2 3.6915000000000004e+00 7.1042950623783474e-01 3.1258044998850383e+00 0 0 0
84 2 3.6914999999999996e+00 2.1312885187134998e+00 3.1258044998850383e+00 0 0 0
86 2 4.9220000000000006e+00 2.8417180249513332e+00 3.1258044998850383e+00 0 0 0
88 2 4.9220000000000006e+00 0.0000000000000000e+00 3.1258044998850383e+00 0 0 0
90 2 6.1524999999999999e+00 7.1042950623783407e-01 3.1258044998850383e+00 0 0 0
113 2 6.1524999999999999e+00 2.1312885187134989e+00 3.1258044998850383e+00 0 0 0
115 2 7.3829999999999991e+00 2.8417180249513345e+00 3.1258044998850383e+00 0 0 0
117 2 7.3829999999999991e+00 0.0000000000000000e+00 3.1258044998850383e+00 0 0 0
119 2 8.6134999999999984e+00 7.1042950623783407e-01 3.1258044998850383e+00 0 0 0
150 2 8.6134999999999984e+00 2.1312885187135002e+00 3.1258044998850383e+00 0 0 0
152 2 9.8440000000000012e+00 2.8417180249513332e+00 3.1258044998850383e+00 0 0 0
154 2 9.8440000000000012e+00 0.0000000000000000e+00 3.1258044998850383e+00 0 0 0
156 2 1.1074500000000002e+01 7.1042950623783330e-01 3.1258044998850383e+00 0 0 0
195 2 1.1074500000000002e+01 2.1312885187135002e+00 3.1258044998850383e+00 0 0 0
59 2 0.0000000000000000e+00 4.2625770374269996e+00 3.1258044998850383e+00 0 0 0
61 2 1.2305000000000001e+00 4.9730065436648339e+00 3.1258044998850383e+00 0 0 0
76 2 1.2305000000000001e+00 6.3938655561404980e+00 3.1258044998850383e+00 0 0 0
80 2 2.4610000000000003e+00 4.2625770374269996e+00 3.1258044998850383e+00 0 0 0
82 2 3.6914999999999996e+00 4.9730065436648339e+00 3.1258044998850383e+00 0 0 0
105 2 3.6914999999999996e+00 6.3938655561404980e+00 3.1258044998850383e+00 0 0 0
57 2 0.0000000000000000e+00 7.1042950623783341e+00 3.1258044998850383e+00 0 0 0
78 2 2.4610000000000003e+00 7.1042950623783341e+00 3.1258044998850383e+00 0 0 0
109 2 4.9220000000000006e+00 4.2625770374269978e+00 3.1258044998850383e+00 0 0 0
111 2 6.1524999999999999e+00 4.9730065436648339e+00 3.1258044998850383e+00 0 0 0
142 2 6.1524999999999999e+00 6.3938655561404980e+00 3.1258044998850383e+00 0 0 0
146 2 7.3829999999999991e+00 4.2625770374269996e+00 3.1258044998850383e+00 0 0 0
107 2 4.9220000000000006e+00 7.1042950623783341e+00 3.1258044998850383e+00 0 0 0
144 2 7.3830000000000009e+00 7.1042950623783341e+00 3.1258044998850383e+00 0 0 0
148 2 8.6135000000000002e+00 4.9730065436648339e+00 3.1258044998850383e+00 0 0 0
187 2 8.6135000000000002e+00 6.3938655561404980e+00 3.1258044998850383e+00 0 0 0
191 2 9.8440000000000012e+00 4.2625770374270004e+00 3.1258044998850383e+00 0 0 0
193 2 1.1074500000000002e+01 4.9730065436648339e+00 3.1258044998850383e+00 0 0 0
234 2 1.1074500000000002e+01 6.3938655561404980e+00 3.1258044998850383e+00 0 0 0
189 2 9.8440000000000012e+00 7.1042950623783341e+00 3.1258044998850383e+00 0 0 0
72 2 0.0000000000000000e+00 8.5251540748539991e+00 3.1258044998850383e+00 0 0 0
74 2 1.2305000000000001e+00 9.2355835810918343e+00 3.1258044998850383e+00 0 0 0
101 2 2.4610000000000003e+00 8.5251540748539991e+00 3.1258044998850383e+00 0 0 0
103 2 3.6915000000000004e+00 9.2355835810918343e+00 3.1258044998850383e+00 0 0 0
70 2 0.0000000000000000e+00 1.1366872099805333e+01 3.1258044998850383e+00 0 0 0
97 2 1.2305000000000001e+00 1.0656442593567498e+01 3.1258044998850383e+00 0 0 0
99 2 2.4610000000000003e+00 1.1366872099805333e+01 3.1258044998850383e+00 0 0 0
134 2 3.6914999999999996e+00 1.0656442593567499e+01 3.1258044998850383e+00 0 0 0
138 2 4.9220000000000006e+00 8.5251540748539991e+00 3.1258044998850383e+00 0 0 0
140 2 6.1524999999999999e+00 9.2355835810918343e+00 3.1258044998850383e+00 0 0 0
183 2 7.3830000000000009e+00 8.5251540748539991e+00 3.1258044998850383e+00 0 0 0
136 2 4.9220000000000006e+00 1.1366872099805333e+01 3.1258044998850383e+00 0 0 0
179 2 6.1524999999999999e+00 1.0656442593567499e+01 3.1258044998850383e+00 0 0 0
181 2 7.3829999999999991e+00 1.1366872099805333e+01 3.1258044998850383e+00 0 0 0
185 2 8.6134999999999984e+00 9.2355835810918343e+00 3.1258044998850383e+00 0 0 0
230 2 9.8440000000000012e+00 8.5251540748539956e+00 3.1258044998850383e+00 0 0 0
232 2 1.1074500000000002e+01 9.2355835810918343e+00 3.1258044998850383e+00 0 0 0
226 2 8.6134999999999984e+00 1.0656442593567498e+01 3.1258044998850383e+00 0 0 0
228 2 9.8440000000000012e+00 1.1366872099805333e+01 3.1258044998850383e+00 0 0 0
273 2 1.1074500000000002e+01 1.0656442593567498e+01 3.1258044998850383e+00 0 0 0
275 2 1.2304999999999998e+01 1.1366872099805333e+01 3.1258044998850383e+00 0 0 0
53 2 0.0000000000000000e+00 1.4208590124756650e+00 6.0845152871128469e+00 0 0 0
55 2 0.0000000000000000e+00 0.0000000000000000e+00 6.0845152871128469e+00 0 0 0
64 2 1.2305000000000001e+00 2.1312885187134998e+00 6.0845152871128469e+00 0 0 0
66 2 2.4610000000000003e+00 1.4208590124756650e+00 6.0845152871128469e+00 0 0 0
68 2 2.4610000000000003e+00 0.0000000000000000e+00 6.0845152871128469e+00 0 0 0
85 2 3.6914999999999996e+00 2.1312885187134998e+00 6.0845152871128469e+00 0 0 0
381 2 0.0000000000000000e+00 2.8417180249513345e+00 9.0432260743406943e+00 0 0 0
382 2 0.0000000000000000e+00 0.0000000000000000e+00 9.0432260743406943e+00 0 0 0
383 2 1.2305000000000001e+00 7.1042950623783474e-01 9.0432260743406943e+00 0 0 0
387 2 1.2305000000000001e+00 2.1312885187134998e+00 9.0432260743406943e+00 0 0 0
388 2 2.4610000000000003e+00 2.8417180249513345e+00 9.0432260743406943e+00 0 0 0
389 2 2.4610000000000003e+00 0.0000000000000000e+00 9.0432260743406943e+00 0 0 0
390 2 3.6915000000000004e+00 7.1042950623783474e-01 9.0432260743406943e+00 0 0 0
398 2 3.6914999999999996e+00 2.1312885187134998e+00 9.0432260743406943e+00 0 0 0
62 2 1.2305000000000001e+00 3.5521475311891644e+00 6.0845152871128469e+00 0 0 0
83 2 3.6914999999999996e+00 3.5521475311891644e+00 6.0845152871128469e+00 0 0 0
87 2 4.9220000000000006e+00 1.4208590124756650e+00 6.0845152871128469e+00 0 0 0
89 2 4.9220000000000006e+00 0.0000000000000000e+00 6.0845152871128469e+00 0 0 0
114 2 6.1524999999999999e+00 2.1312885187134989e+00 6.0845152871128469e+00 0 0 0
116 2 7.3829999999999991e+00 1.4208590124756659e+00 6.0845152871128469e+00 0 0 0
118 2 7.3829999999999991e+00 0.0000000000000000e+00 6.0845152871128469e+00 0 0 0
399 2 4.9220000000000006e+00 2.8417180249513332e+00 9.0432260743406943e+00 0 0 0
400 2 4.9220000000000006e+00 0.0000000000000000e+00 9.0432260743406943e+00 0 0 0
401 2 6.1524999999999999e+00 7.1042950623783407e-01 9.0432260743406943e+00 0 0 0
413 2 6.1524999999999999e+00 2.1312885187134989e+00 9.0432260743406943e+00 0 0 0
414 2 7.3829999999999991e+00 2.8417180249513345e+00 9.0432260743406943e+00 0 0 0
415 2 7.3829999999999991e+00 0.0000000000000000e+00 9.0432260743406943e+00 0 0 0
112 2 6.1524999999999999e+00 3.5521475311891644e+00 6.0845152871128469e+00 0 0 0
151 2 8.6134999999999984e+00 2.1312885187135002e+00 6.0845152871128469e+00 0 0 0
153 2 9.8440000000000012e+00 1.4208590124756659e+00 6.0845152871128469e+00 0 0 0
155 2 9.8440000000000012e+00 0.0000000000000000e+00 6.0845152871128469e+00 0 0 0
196 2 1.1074500000000002e+01 2.1312885187135002e+00 6.0845152871128469e+00 0 0 0
416 2 8.6134999999999984e+00 7.1042950623783407e-01 9.0432260743406943e+00 0 0 0
432 2 8.6134999999999984e+00 2.1312885187135002e+00 9.0432260743406943e+00 0 0 0
433 2 9.8440000000000012e+00 2.8417180249513332e+00 9.0432260743406943e+00 0 0 0
434 2 9.8440000000000012e+00 0.0000000000000000e+00 9.0432260743406943e+00 0 0 0
435 2 1.1074500000000002e+01 7.1042950623783330e-01 9.0432260743406943e+00 0 0 0
455 2 1.1074500000000002e+01 2.1312885187135002e+00 9.0432260743406943e+00 0 0 0
149 2 8.6134999999999984e+00 3.5521475311891657e+00 6.0845152871128469e+00 0 0 0
194 2 1.1074500000000002e+01 3.5521475311891644e+00 6.0845152871128469e+00 0 0 0
58 2 0.0000000000000000e+00 5.6834360499026637e+00 6.0845152871128469e+00 0 0 0
60 2 0.0000000000000000e+00 4.2625770374269996e+00 6.0845152871128469e+00 0 0 0
77 2 1.2305000000000001e+00 6.3938655561404980e+00 6.0845152871128469e+00 0 0 0
79 2 2.4610000000000003e+00 5.6834360499026637e+00 6.0845152871128469e+00 0 0 0
81 2 2.4610000000000003e+00 4.2625770374269996e+00 6.0845152871128469e+00 0 0 0
106 2 3.6914999999999996e+00 6.3938655561404980e+00 6.0845152871128469e+00 0 0 0
385 2 0.0000000000000000e+00 4.2625770374269996e+00 9.0432260743406943e+00 0 0 0
386 2 1.2305000000000001e+00 4.9730065436648339e+00 9.0432260743406943e+00 0 0 0
394 2 1.2305000000000001e+00 6.3938655561404980e+00 9.0432260743406943e+00 0 0 0
396 2 2.4610000000000003e+00 4.2625770374269996e+00 9.0432260743406943e+00 0 0 0
397 2 3.6914999999999996e+00 4.9730065436648339e+00 9.0432260743406943e+00 0 0 0
409 2 3.6914999999999996e+00 6.3938655561404980e+00 9.0432260743406943e+00 0 0 0
75 2 1.2305000000000001e+00 7.8147245686161639e+00 6.0845152871128469e+00 0 0 0
104 2 3.6914999999999996e+00 7.8147245686161639e+00 6.0845152871128469e+00 0 0 0
384 2 0.0000000000000000e+00 7.1042950623783341e+00 9.0432260743406943e+00 0 0 0
395 2 2.4610000000000003e+00 7.1042950623783341e+00 9.0432260743406943e+00 0 0 0
108 2 4.9220000000000006e+00 5.6834360499026637e+00 6.0845152871128469e+00 0 0 0
110 2 4.9220000000000006e+00 4.2625770374269978e+00 6.0845152871128469e+00 0 0 0
143 2 6.1524999999999999e+00 6.3938655561404980e+00 6.0845152871128469e+00 0 0 0
145 2 7.3829999999999991e+00 5.6834360499026637e+00 6.0845152871128469e+00 0 0 0
147 2 7.3829999999999991e+00 4.2625770374269996e+00 6.0845152871128469e+00 0 0 0
411 2 4.9220000000000006e+00 4.2625770374269978e+00 9.0432260743406943e+00 0 0 0
412 2 6.1524999999999999e+00 4.9730065436648339e+00 9.0432260743406943e+00 0 0 0
428 2 6.1524999999999999e+00 6.3938655561404980e+00 9.0432260743406943e+00 0 0 0
430 2 7.3829999999999991e+00 4.2625770374269996e+00 9.0432260743406943e+00 0 0 0
141 2 6.1524999999999999e+00 7.8147245686161639e+00 6.0845152871128469e+00 0 0 0
410 2 4.9220000000000006e+00 7.1042950623783341e+00 9.0432260743406943e+00 0 0 0
429 2 7.3830000000000009e+00 7.1042950623783341e+00 9.0432260743406943e+00 0 0 0
188 2 8.6135000000000002e+00 6.3938655561404980e+00 6.0845152871128469e+00 0 0 0
190 2 9.8440000000000012e+00 5.6834360499026637e+00 6.0845152871128469e+00 0 0 0
192 2 9.8440000000000012e+00 4.2625770374270004e+00 6.0845152871128469e+00 0 0 0
235 2 1.1074500000000002e+01 6.3938655561404980e+00 6.0845152871128469e+00 0 0 0
431 2 8.6135000000000002e+00 4.9730065436648339e+00 9.0432260743406943e+00 0 0 0
451 2 8.6135000000000002e+00 6.3938655561404980e+00 9.0432260743406943e+00 0 0 0
453 2 9.8440000000000012e+00 4.2625770374270004e+00 9.0432260743406943e+00 0 0 0
454 2 1.1074500000000002e+01 4.9730065436648339e+00 9.0432260743406943e+00 0 0 0
475 2 1.1074500000000002e+01 6.3938655561404980e+00 9.0432260743406943e+00 0 0 0
186 2 8.6135000000000002e+00 7.8147245686161639e+00 6.0845152871128469e+00 0 0 0
233 2 1.1074500000000002e+01 7.8147245686161639e+00 6.0845152871128469e+00 0 0 0
452 2 9.8440000000000012e+00 7.1042950623783341e+00 9.0432260743406943e+00 0 0 0
71 2 0.0000000000000000e+00 9.9460130873296642e+00 6.0845152871128469e+00 0 0 0
73 2 0.0000000000000000e+00 8.5251540748539991e+00 6.0845152871128469e+00 0 0 0
100 2 2.4610000000000003e+00 9.9460130873296642e+00 6.0845152871128469e+00 0 0 0
102 2 2.4610000000000003e+00 8.5251540748539991e+00 6.0845152871128469e+00 0 0 0
392 2 0.0000000000000000e+00 8.5251540748539991e+00 9.0432260743406943e+00 0 0 0
393 2 1.2305000000000001e+00 9.2355835810918343e+00 9.0432260743406943e+00 0 0 0
407 2 2.4610000000000003e+00 8.5251540748539991e+00 9.0432260743406943e+00 0 0 0
408 2 3.6915000000000004e+00 9.2355835810918343e+00 9.0432260743406943e+00 0 0 0
96 2 1.2305000000000001e+00 1.2077301606043163e+01 6.0845152871128469e+00 0 0 0
98 2 1.2305000000000001e+00 1.0656442593567498e+01 6.0845152871128469e+00 0 0 0
133 2 3.6914999999999996e+00 1.2077301606043163e+01 6.0845152871128469e+00 0 0 0
135 2 3.6914999999999996e+00 1.0656442593567499e+01 6.0845152871128469e+00 0 0 0
391 2 0.0000000000000000e+00 1.1366872099805333e+01 9.0432260743406943e+00 0 0 0
405 2 1.2305000000000001e+00 1.0656442593567498e+01 9.0432260743406943e+00 0 0 0
406 2 2.4610000000000003e+00 1.1366872099805333e+01 9.0432260743406943e+00 0 0 0
424 2 3.6914999999999996e+00 1.0656442593567499e+01 9.0432260743406943e+00 0 0 0
137 2 4.9220000000000006e+00 9.9460130873296642e+00 6.0845152871128469e+00 0 0 0
139 2 4.9220000000000006e+00 8.5251540748539991e+00 6.0845152871128469e+00 0 0 0
182 2 7.3830000000000009e+00 9.9460130873296642e+00 6.0845152871128469e+00 0 0 0
184 2 7.3830000000000009e+00 8.5251540748539991e+00 6.0845152871128469e+00 0 0 0
426 2 4.9220000000000006e+00 8.5251540748539991e+00 9.0432260743406943e+00 0 0 0
427 2 6.1524999999999999e+00 9.2355835810918343e+00 9.0432260743406943e+00 0 0 0
449 2 7.3830000000000009e+00 8.5251540748539991e+00 9.0432260743406943e+00 0 0 0
178 2 6.1524999999999999e+00 1.2077301606043163e+01 6.0845152871128469e+00 0 0 0
180 2 6.1524999999999999e+00 1.0656442593567499e+01 6.0845152871128469e+00 0 0 0
425 2 4.9220000000000006e+00 1.1366872099805333e+01 9.0432260743406943e+00 0 0 0
447 2 6.1524999999999999e+00 1.0656442593567499e+01 9.0432260743406943e+00 0 0 0
448 2 7.3829999999999991e+00 1.1366872099805333e+01 9.0432260743406943e+00 0 0 0
229 2 9.8440000000000012e+00 9.9460130873296642e+00 6.0845152871128469e+00 0 0 0
231 2 9.8440000000000012e+00 8.5251540748539956e+00 6.0845152871128469e+00 0 0 0
450 2 8.6134999999999984e+00 9.2355835810918343e+00 9.0432260743406943e+00 0 0 0
473 2 9.8440000000000012e+00 8.5251540748539956e+00 9.0432260743406943e+00 0 0 0
474 2 1.1074500000000002e+01 9.2355835810918343e+00 9.0432260743406943e+00 0 0 0
225 2 8.6135000000000002e+00 1.2077301606043163e+01 6.0845152871128469e+00 0 0 0
227 2 8.6134999999999984e+00 1.0656442593567498e+01 6.0845152871128469e+00 0 0 0
272 2 1.1074500000000002e+01 1.2077301606043163e+01 6.0845152871128469e+00 0 0 0
274 2 1.1074500000000002e+01 1.0656442593567498e+01 6.0845152871128469e+00 0 0 0
471 2 8.6134999999999984e+00 1.0656442593567498e+01 9.0432260743406943e+00 0 0 0
472 2 9.8440000000000012e+00 1.1366872099805333e+01 9.0432260743406943e+00 0 0 0
495 2 1.1074500000000002e+01 1.0656442593567498e+01 9.0432260743406943e+00 0 0 0
496 2 1.2304999999999998e+01 1.1366872099805333e+01 9.0432260743406943e+00 0 0 0
1953 1 2.1073011285801146e+00 1.6160986384702372e+00 1.2074415680701815e+01 1 1 0
1326 1 4.2828649699234905e-01 3.7176841588697052e+00 1.1739324879794433e+01 0 1 -1
569 1 4.7224206789885406e+00 4.5519958867364296e-01 1.1746066854256274e+01 0 0 1
3937 1 6.5846625467160056e+00 2.6851035632298710e+00 1.1963948425310212e+01 0 0 -1
1967 1 9.1314135366828157e+00 1.4974458426190043e+00 1.1721773402568763e+01 0 1 0
1352 1 1.1258963117486873e+01 9.1206427241293628e+00 1.1757286063774973e+01 1 1 -1
751 1 2.5390859478146437e+00 5.4784567761570182e+00 1.1680615181233964e+01 0 0 1
627 1 5.3651481176578493e+00 5.1122646400376386e+00 1.1639403337621037e+01 0 1 0
3405 1 6.9191030241792904e+00 7.3860149748428405e+00 1.1512322512354190e+01 -1 1 0
3283 1 9.5930895897819628e+00 6.6410728104745340e+00 1.1475406078117414e+01 0 0 0
4074 1 1.0223851345525738e+01 4.1145655687504883e+00 1.2243475302906891e+01 1 0 0
3266 1 1.9481117720754584e+00 8.2751697116464165e+00 1.1444918730066933e+01 -1 0 0
2077 1 3.3178441946184565e+00 1.0393607428063806e+01 1.2321482552360889e+01 0 0 1
1309 1 6.0732007412345101e+00 1.0066478443187144e+01 1.1913071000788632e+01 1 1 0
3423 1 1.0794759406442310e+01 1.1761665410672936e+01 1.1255706115580377e+01 0 0 0
3470 1 7.9779052963305253e+00 1.2127199560889649e+01 1.1976784237921407e+01 0 1 -1
704 1 1.1674530753500221e+01 2.8039975529352051e-01 1.1552164291674108e+01 1 1 -1
2681 1 2.9482409490163808e-01 8.2222568877449689e+00 1.3884774412246296e+01 -2 1 0
2733 1 4.6199913746565651e+00 9.0292536412967347e-02 1.5814834319496645e+01 0 0 0
2064 1 1.1928364953474558e+01 8.4689285220433472e+00 2.0213912738742984e+01 0 0 0
3350 1 8.1421281380186397e+00 3.5124615572981481e+00 1.5732224368077990e+01 0 -1 -1
1965 1 8.9133224146302794e+00 1.0995951380092608e+01 2.5890592530121978e+01 -1 1 1
2785 1 1.1017762102385435e+01 4.3035710079241127e+00 2.1849213881284413e+01 -1 0 -1
2013 1 7.5216776340848968e-01 3.2902148785649604e-01 1.8496174066316506e+01 1 0 0
2778 1 2.2452225621812394e+00 3.4176316102773909e+00 1.5643466527289661e+01 1 2 0
3970 1 3.1102174022526059e+00 5.8163357460348690e+00 1.4310298165985841e+01 1 1 0
2050 1 1.4246885482779925e+00 7.0920549512152506e+00 1.6221147006170707e+01 1 0 1
749 1 5.7055221553962472e+00 6.9508025122884636e+00 1.4158996920927812e+01 1 0 1
3301 1 1.0717811680640178e+01 3.8956510614727935e+00 1.5095991111526207e+01 1 -1 0
1257 1 1.1243582346011397e+01 6.6237195797267230e+00 1.5888497916766672e+01 -1 -1 1
3296 1 8.6191736434771791e+00 7.8151278109660600e+00 1.6108877232320808e+01 0 0 0
2776 1 2.9943102024250217e+00 8.9694463910957669e+00 1.7374013958260583e+01 -1 0 0
4009 1 3.8534697697066531e+00 1.0436675062747621e+01 1.4923860950096156e+01 0 1 0
1990 1 6.9438330218829343e+00 9.5903734502806675e+00 1.4787802220015857e+01 1 1 0
1283 1 5.6890933001334405e+00 1.0243502538477774e+01 1.7490790053772791e+01 -1 0 0
1368 1 1.2217565879441832e+01 7.9323803731647793e+00 2.5859745999914416e+01 0 -1 -2
1322 1 9.5995291429419289e+00 1.2057059865706218e+01 2.1335014569756737e+01 0 -1 -1
2653 1 7.1253875304935876e-01 2.5593259650196045e+00 2.2635433039866378e+01 0 0 1
1276 1 3.4039282170003458e+00 1.4689767973104744e+00 1.7986582290741865e+01 0 1 0
574 1 1.8370348489717099e+00 4.7569383926084248e+00 1.8097689631623723e+01 0 1 -1
600 1 7.1566017944595970e+00 2.6882582175721561e+00 2.0137439361158791e+01 0 0 -1
4065 1 5.3058696724047092e+00 4.0748969535611246e-01 2.0126928458314119e+01 0 0 0
2039 1 1.0543843022924779e+01 1.1414576822205802e+01 2.3836595160030640e+01 1 0 -1
1917 1 9.2524738222734779e+00 2.5809769595712035e+00 1.8113470871257995e+01 0 0 0
3430 1 8.8677055433281264e+00 2.4968029369653575e+00 2.2632035059459206e+01 1 1 1
1947 1 4.4737853545053845e+00 6.3589076855090090e+00 1.8230608148119352e+01 0 0 1
34 1 6.7844666681139563e+00 5.8724161435585218e+00 1.6392500591984309e+01 -1 1 1
1308 1 7.5284392419715864e+00 8.7641949058428708e+00 2.5469544639176682e+01 0 0 1
2638 1 3.7746922110159580e+00 9.2075159544417176e+00 2.3156030197777419e+01 1 0 1
9 1 3.3285702172658880e+00 8.1343904093460448e+00 2.0541758927706013e+01 0 -1 0
2606 1 2.2208201275043105e+00 1.0776932892174601e+01 1.9599278792778350e+01 0 1 0
2730 1 3.7073302519273654e+00 1.1429864937004011e+01 2.5981872765602354e+01 0 0 -1
3407 1 1.1574829896278221e+01 8.9807286034447031e+00 2.3404990400995828e+01 1 0 0
3351 1 8.2183510363401044e+00 9.1141475891063415e+00 1.8559194631820631e+01 1 1 1
2789 1 7.7896134980443170e+00 7.8116456115897126e+00 2.1074185839858544e+01 2 1 1
718 1 1.0614610341155418e+01 1.0666905188068590e+01 1.8881703866153138e+01 0 0 1
585 1 8.0389740448393077e-01 1.6550715289663651e+00 2.5463780000623984e+01 1 -1 -1
656 1 4.8775451318585772e-01 7.8131406460085655e+00 2.1008654491467055e+01 1 0 0
2076 1 3.6452436027965147e+00 1.6130683816400422e+00 2.5402608023135585e+01 1 0 -2
2083 1 1.1598097403880072e+01 4.0557729176300761e+00 1.9046512474920327e+01 1 2 0
1980 1 3.4184416639219837e+00 1.3718064590063261e+00 2.2475766324101137e+01 0 0 0
2655 1 6.3827553823507372e+00 1.7702738379236360e+00 1.4524255807783295e+01 1 0 -1
2639 1 6.4890934994476934e+00 9.5767109718610968e+00 2.3039530887375896e+01 0 1 0
2080 1 8.6657569282525024e+00 1.8114155382667130e+00 2.5665940596321533e+01 0 0 -1
2065 1 1.1671487349886153e+01 1.5163466633741096e+00 2.2808395274384814e+01 0 1 0
1931 1 3.9973598838713680e+00 6.0602911901478276e+00 2.2334702220399031e+01 0 -1 1
2632 1 1.7990910470019630e+00 5.3793016195978471e-01 1.4850323216892262e+01 0 0 0
1220 1 2.1636461351980838e+00 4.1433674796643585e+00 2.1025671109167071e+01 1 0 0
3300 1 5.4117062879301514e+00 3.4132772173220070e+00 2.2688928981977192e+01 0 1 0
3984 1 6.3453695652511826e+00 5.5283811660698072e+00 2.0277152459031321e+01 -1 0 0
4071 1 3.2821661946992435e+00 6.4746927273187316e+00 2.5170198305036948e+01 2 0 0
587 1 7.4317532495389145e+00 4.3268740216315908e+00 2.5685491762984121e+01 -1 1 -1
3427 1 4.6352878085730573e+00 4.0371150729345819e+00 2.5452527449764560e+01 0 -1 0
1426 1 9.9761158126842702e+00 6.9334421340415950e+00 2.2123617442875336e+01 -1 0 0
2089 1 9.3633026288425700e+00 6.5975258882434931e+00 2.5555105058006326e+01 0 0 -1
2053 1 1.0850671270246554e+01 1.0799146112915965e+01 1.5797088508452331e+01 0 0 1
3385 1 1.1325640645025052e+01 8.8706693906521417e-01 2.5485403657516990e+01 1 1 -1
1222 1 2.7823392739594160e-01 6.1161773883187527e+00 2.5087488836013947e+01 -1 0 -1
664 1 4.7270206072700338e+00 8.5832982708854182e+00 2.6100789840338891e+01 1 -1 0
628 1 8.6443896874724413e-01 1.0978943168301845e+01 2.5444231977710182e+01 0 0 -1
654 1 8.5282837731838281e+00 1.1802484431181501e+01 1.4796195041827051e+01 1 1 0
1325 1 1.2370757060492377e+00 1.1010791130427618e+01 2.2422890456905570e+01 0 1 -1
1321 1 1.1831749325551383e+01 8.7005775285802560e+00 1.4406504878755914e+01 0 1 -1
1235 1 1.0575908130644111e+01 4.0464413025935653e-01 1.7274758456352632e+01 0 0 0
93 2 0.0000000000000000e+00 1.2787731112280996e+01 3.1258044998850383e+00 0 0 0
95 2 1.2305000000000001e+00 1.3498160618518829e+01 3.1258044998850383e+00 0 0 0
130 2 2.4610000000000003e+00 1.2787731112280996e+01 3.1258044998850383e+00 0 0 0
132 2 3.6915000000000004e+00 1.3498160618518829e+01 3.1258044998850383e+00 0 0 0
91 2 0.0000000000000000e+00 1.5629449137232333e+01 3.1258044998850383e+00 0 0 0
126 2 1.2305000000000001e+00 1.4919019630994494e+01 3.1258044998850383e+00 0 0 0
128 2 2.4610000000000003e+00 1.5629449137232328e+01 3.1258044998850383e+00 0 0 0
171 2 3.6915000000000004e+00 1.4919019630994494e+01 3.1258044998850383e+00 0 0 0
175 2 4.9220000000000006e+00 1.2787731112280996e+01 3.1258044998850383e+00 0 0 0
177 2 6.1524999999999990e+00 1.3498160618518829e+01 3.1258044998850383e+00 0 0 0
222 2 7.3829999999999991e+00 1.2787731112280996e+01 3.1258044998850383e+00 0 0 0
173 2 4.9220000000000006e+00 1.5629449137232333e+01 3.1258044998850383e+00 0 0 0
218 2 6.1524999999999990e+00 1.4919019630994494e+01 3.1258044998850383e+00 0 0 0
220 2 7.3829999999999991e+00 1.5629449137232333e+01 3.1258044998850383e+00 0 0 0
224 2 8.6135000000000002e+00 1.3498160618518835e+01 3.1258044998850383e+00 0 0 0
269 2 9.8440000000000012e+00 1.2787731112280996e+01 3.1258044998850383e+00 0 0 0
271 2 1.1074500000000002e+01 1.3498160618518829e+01 3.1258044998850383e+00 0 0 0
265 2 8.6135000000000002e+00 1.4919019630994494e+01 3.1258044998850383e+00 0 0 0
267 2 9.8440000000000012e+00 1.5629449137232328e+01 3.1258044998850383e+00 0 0 0
307 2 1.1074500000000002e+01 1.4919019630994494e+01 3.1258044998850383e+00 0 0 0
122 2 0.0000000000000000e+00 1.7050308149707998e+01 3.1258044998850383e+00 0 0 0
167 2 2.4610000000000003e+00 1.7050308149707998e+01 3.1258044998850383e+00 0 0 0
120 2 0.0000000000000000e+00 1.9892026174659328e+01 3.1258044998850383e+00 0 0 0
124 2 1.2305000000000001e+00 1.7760737655945832e+01 3.1258044998850383e+00 0 0 0
163 2 1.2305000000000001e+00 1.9181596668421495e+01 3.1258044998850383e+00 0 0 0
165 2 2.4610000000000003e+00 1.9892026174659328e+01 3.1258044998850383e+00 0 0 0
169 2 3.6914999999999996e+00 1.7760737655945832e+01 3.1258044998850383e+00 0 0 0
210 2 3.6914999999999996e+00 1.9181596668421495e+01 3.1258044998850383e+00 0 0 0
214 2 4.9220000000000006e+00 1.7050308149707998e+01 3.1258044998850383e+00 0 0 0
261 2 7.3830000000000009e+00 1.7050308149707998e+01 3.1258044998850383e+00 0 0 0
212 2 4.9220000000000006e+00 1.9892026174659328e+01 3.1258044998850383e+00 0 0 0
216 2 6.1524999999999999e+00 1.7760737655945832e+01 3.1258044998850383e+00 0 0 0
257 2 6.1524999999999999e+00 1.9181596668421495e+01 3.1258044998850383e+00 0 0 0
259 2 7.3829999999999991e+00 1.9892026174659328e+01 3.1258044998850383e+00 0 0 0
303 2 9.8440000000000012e+00 1.7050308149707998e+01 3.1258044998850383e+00 0 0 0
337 2 1.2304999999999998e+01 1.7050308149707998e+01 3.1258044998850383e+00 0 0 0
263 2 8.6134999999999984e+00 1.7760737655945832e+01 3.1258044998850383e+00 0 0 0
299 2 8.6135000000000002e+00 1.9181596668421495e+01 3.1258044998850383e+00 0 0 0
301 2 9.8440000000000012e+00 1.9892026174659335e+01 3.1258044998850383e+00 0 0 0
305 2 1.1074500000000002e+01 1.7760737655945835e+01 3.1258044998850383e+00 0 0 0
333 2 1.1074500000000002e+01 1.9181596668421495e+01 3.1258044998850383e+00 0 0 0
157 2 0.0000000000000000e+00 2.4154603212086325e+01 3.1258044998850383e+00 0 0 0
159 2 0.0000000000000000e+00 2.1312885187134999e+01 3.1258044998850383e+00 0 0 0
161 2 1.2304999999999993e+00 2.2023314693372832e+01 3.1258044998850383e+00 0 0 0
202 2 1.2304999999999993e+00 2.3444173705848499e+01 3.1258044998850383e+00 0 0 0
204 2 2.4610000000000003e+00 2.4154603212086325e+01 3.1258044998850383e+00 0 0 0
206 2 2.4610000000000003e+00 2.1312885187134995e+01 3.1258044998850383e+00 0 0 0
208 2 3.6914999999999996e+00 2.2023314693372832e+01 3.1258044998850383e+00 0 0 0
249 2 3.6915000000000004e+00 2.3444173705848499e+01 3.1258044998850383e+00 0 0 0
251 2 4.9220000000000006e+00 2.4154603212086325e+01 3.1258044998850383e+00 0 0 0
253 2 4.9220000000000006e+00 2.1312885187134995e+01 3.1258044998850383e+00 0 0 0
255 2 6.1524999999999990e+00 2.2023314693372832e+01 3.1258044998850383e+00 0 0 0
291 2 6.1524999999999999e+00 2.3444173705848499e+01 3.1258044998850383e+00 0 0 0
293 2 7.3830000000000009e+00 2.4154603212086336e+01 3.1258044998850383e+00 0 0 0
295 2 7.3829999999999991e+00 2.1312885187134999e+01 3.1258044998850383e+00 0 0 0
297 2 8.6135000000000002e+00 2.2023314693372832e+01 3.1258044998850383e+00 0 0 0
325 2 8.6134999999999984e+00 2.3444173705848499e+01 3.1258044998850383e+00 0 0 0
327 2 9.8440000000000012e+00 2.4154603212086336e+01 3.1258044998850383e+00 0 0 0
329 2 9.8440000000000012e+00 2.1312885187134999e+01 3.1258044998850383e+00 0 0 0
331 2 1.1074500000000002e+01 2.2023314693372832e+01 3.1258044998850383e+00 0 0 0
351 2 1.1074500000000002e+01 2.3444173705848499e+01 3.1258044998850383e+00 0 0 0
94 2 0.0000000000000000e+00 1.2787731112280996e+01 6.0845152871128469e+00 0 0 0
131 2 2.4610000000000003e+00 1.2787731112280996e+01 6.0845152871128469e+00 0 0 0
403 2 0.0000000000000000e+00 1.2787731112280996e+01 9.0432260743406943e+00 0 0 0
404 2 1.2305000000000001e+00 1.3498160618518829e+01 9.0432260743406943e+00 0 0 0
422 2 2.4610000000000003e+00 1.2787731112280996e+01 9.0432260743406943e+00 0 0 0
423 2 3.6915000000000004e+00 1.3498160618518829e+01 9.0432260743406943e+00 0 0 0
92 2 0.0000000000000000e+00 1.4208590124756663e+01 6.0845152871128469e+00 0 0 0
127 2 1.2305000000000001e+00 1.4919019630994494e+01 6.0845152871128469e+00 0 0 0
129 2 2.4610000000000003e+00 1.4208590124756663e+01 6.0845152871128469e+00 0 0 0
172 2 3.6915000000000004e+00 1.4919019630994494e+01 6.0845152871128469e+00 0 0 0
402 2 0.0000000000000000e+00 1.5629449137232333e+01 9.0432260743406943e+00 0 0 0
420 2 1.2305000000000001e+00 1.4919019630994494e+01 9.0432260743406943e+00 0 0 0
421 2 2.4610000000000003e+00 1.5629449137232328e+01 9.0432260743406943e+00 0 0 0
443 2 3.6915000000000004e+00 1.4919019630994494e+01 9.0432260743406943e+00 0 0 0
176 2 4.9220000000000006e+00 1.2787731112280996e+01 6.0845152871128469e+00 0 0 0
223 2 7.3829999999999991e+00 1.2787731112280996e+01 6.0845152871128469e+00 0 0 0
445 2 4.9220000000000006e+00 1.2787731112280996e+01 9.0432260743406943e+00 0 0 0
446 2 6.1524999999999990e+00 1.3498160618518829e+01 9.0432260743406943e+00 0 0 0
469 2 7.3829999999999991e+00 1.2787731112280996e+01 9.0432260743406943e+00 0 0 0
174 2 4.9220000000000006e+00 1.4208590124756663e+01 6.0845152871128469e+00 0 0 0
219 2 6.1524999999999990e+00 1.4919019630994494e+01 6.0845152871128469e+00 0 0 0
221 2 7.3830000000000009e+00 1.4208590124756663e+01 6.0845152871128469e+00 0 0 0
444 2 4.9220000000000006e+00 1.5629449137232333e+01 9.0432260743406943e+00 0 0 0
467 2 6.1524999999999990e+00 1.4919019630994494e+01 9.0432260743406943e+00 0 0 0
468 2 7.3829999999999991e+00 1.5629449137232333e+01 9.0432260743406943e+00 0 0 0
270 2 9.8440000000000012e+00 1.2787731112280996e+01 6.0845152871128469e+00 0 0 0
470 2 8.6135000000000002e+00 1.3498160618518835e+01 9.0432260743406943e+00 0 0 0
493 2 9.8440000000000012e+00 1.2787731112280996e+01 9.0432260743406943e+00 0 0 0
494 2 1.1074500000000002e+01 1.3498160618518829e+01 9.0432260743406943e+00 0 0 0
266 2 8.6135000000000002e+00 1.4919019630994494e+01 6.0845152871128469e+00 0 0 0
268 2 9.8440000000000012e+00 1.4208590124756663e+01 6.0845152871128469e+00 0 0 0
306 2 1.1074500000000002e+01 1.6339878643470161e+01 6.0845152871128469e+00 0 0 0
308 2 1.1074500000000002e+01 1.4919019630994494e+01 6.0845152871128469e+00 0 0 0
310 2 1.2304999999999998e+01 1.4208590124756658e+01 6.0845152871128469e+00 0 0 0
491 2 8.6135000000000002e+00 1.4919019630994494e+01 9.0432260743406943e+00 0 0 0
492 2 9.8440000000000012e+00 1.5629449137232328e+01 9.0432260743406943e+00 0 0 0
512 2 1.1074500000000002e+01 1.4919019630994494e+01 9.0432260743406943e+00 0 0 0
123 2 0.0000000000000000e+00 1.7050308149707998e+01 6.0845152871128469e+00 0 0 0