LAMMPS data file via write_data, version 29 Sep 2021, timestep = 8000000

4065 atoms
2 atom types

0 49.22 xlo xhi
0 49.019635930410494 ylo yhi
1.0383626283889829 26.802469617894758 zlo zhi

Masses

1 18.015
2 12.01

Atoms # atomic

83 2 0 2.8417180249513345 2.5902705253647866 0 0 0
85 2 0 0 2.5902705253647866 0 0 0
87 2 1.2305000000000001 0.7104295062378347 2.5902705253647866 0 0 0
94 2 1.2305000000000001 2.1312885187135 2.5902705253647866 0 0 0
96 2 2.4610000000000003 2.8417180249513345 2.5902705253647866 0 0 0
98 2 2.4610000000000003 0 2.5902705253647866 0 0 0
100 2 3.6915000000000004 0.7104295062378347 2.5902705253647866 0 0 0
115 2 3.6914999999999996 2.1312885187135 2.5902705253647866 0 0 0
117 2 4.922000000000001 2.841718024951333 2.5902705253647866 0 0 0
119 2 4.922000000000001 0 2.5902705253647866 0 0 0
90 2 0 4.262577037427 2.5902705253647866 0 0 0
111 2 2.4610000000000003 4.262577037427 2.5902705253647866 0 0 0
140 2 4.922000000000001 4.262577037426998 2.5902705253647866 0 0 0
92 2 1.2305000000000001 4.973006543664834 2.5902705253647866 0 0 0
107 2 1.2305000000000001 6.393865556140498 2.5902705253647866 0 0 0
113 2 3.6914999999999996 4.973006543664834 2.5902705253647866 0 0 0
136 2 3.6914999999999996 6.393865556140498 2.5902705253647866 0 0 0
88 2 0 7.104295062378334 2.5902705253647866 0 0 0
103 2 0 8.525154074854 2.5902705253647866 0 0 0
105 2 1.2305000000000001 9.235583581091834 2.5902705253647866 0 0 0
109 2 2.4610000000000003 7.104295062378334 2.5902705253647866 0 0 0
132 2 2.4610000000000003 8.525154074854 2.5902705253647866 0 0 0
134 2 3.6915000000000004 9.235583581091834 2.5902705253647866 0 0 0
138 2 4.922000000000001 7.104295062378334 2.5902705253647866 0 0 0
169 2 4.922000000000001 8.525154074854 2.5902705253647866 0 0 0
84 2 0 1.420859012475665 5.694086319317353 0 0 0
86 2 0 0 5.694086319317353 0 0 0
95 2 1.2305000000000001 2.1312885187135 5.694086319317353 0 0 0
97 2 2.4610000000000003 1.420859012475665 5.694086319317353 0 0 0
99 2 2.4610000000000003 0 5.694086319317353 0 0 0
412 2 0 2.8417180249513345 8.797902113271425 0 0 0
413 2 0 0 8.797902113271425 0 0 0
414 2 1.2305000000000001 0.7104295062378347 8.797902113271425 0 0 0
418 2 1.2305000000000001 2.1312885187135 8.797902113271425 0 0 0
419 2 2.4610000000000003 2.8417180249513345 8.797902113271425 0 0 0
420 2 2.4610000000000003 0 8.797902113271425 0 0 0
116 2 3.6914999999999996 2.1312885187135 5.694086319317353 0 0 0
118 2 4.922000000000001 1.420859012475665 5.694086319317353 0 0 0
120 2 4.922000000000001 0 5.694086319317353 0 0 0
421 2 3.6915000000000004 0.7104295062378347 8.797902113271425 0 0 0
429 2 3.6914999999999996 2.1312885187135 8.797902113271425 0 0 0
430 2 4.922000000000001 2.841718024951333 8.797902113271425 0 0 0
431 2 4.922000000000001 0 8.797902113271425 0 0 0
91 2 0 4.262577037427 5.694086319317353 0 0 0
93 2 1.2305000000000001 3.5521475311891644 5.694086319317353 0 0 0
112 2 2.4610000000000003 4.262577037427 5.694086319317353 0 0 0
416 2 0 4.262577037427 8.797902113271425 0 0 0
427 2 2.4610000000000003 4.262577037427 8.797902113271425 0 0 0
114 2 3.6914999999999996 3.5521475311891644 5.694086319317353 0 0 0
141 2 4.922000000000001 4.262577037426998 5.694086319317353 0 0 0
442 2 4.922000000000001 4.262577037426998 8.797902113271425 0 0 0
89 2 0 5.683436049902664 5.694086319317353 0 0 0
108 2 1.2305000000000001 6.393865556140498 5.694086319317353 0 0 0
110 2 2.4610000000000003 5.683436049902664 5.694086319317353 0 0 0
417 2 1.2305000000000001 4.973006543664834 8.797902113271425 0 0 0
425 2 1.2305000000000001 6.393865556140498 8.797902113271425 0 0 0
137 2 3.6914999999999996 6.393865556140498 5.694086319317353 0 0 0
139 2 4.922000000000001 5.683436049902664 5.694086319317353 0 0 0
428 2 3.6914999999999996 4.973006543664834 8.797902113271425 0 0 0
440 2 3.6914999999999996 6.393865556140498 8.797902113271425 0 0 0
104 2 0 8.525154074854 5.694086319317353 0 0 0
106 2 1.2305000000000001 7.814724568616164 5.694086319317353 0 0 0
133 2 2.4610000000000003 8.525154074854 5.694086319317353 0 0 0
415 2 0 7.104295062378334 8.797902113271425 0 0 0
423 2 0 8.525154074854 8.797902113271425 0 0 0
424 2 1.2305000000000001 9.235583581091834 8.797902113271425 0 0 0
426 2 2.4610000000000003 7.104295062378334 8.797902113271425 0 0 0
438 2 2.4610000000000003 8.525154074854 8.797902113271425 0 0 0
135 2 3.6914999999999996 7.814724568616164 5.694086319317353 0 0 0
170 2 4.922000000000001 8.525154074854 5.694086319317353 0 0 0
439 2 3.6915000000000004 9.235583581091834 8.797902113271425 0 0 0
441 2 4.922000000000001 7.104295062378334 8.797902113271425 0 0 0
457 2 4.922000000000001 8.525154074854 8.797902113271425 0 0 0
3037 1 2.3606793393898893 1.8214591761349859 11.79376661886637 -1 -1 0
1042 1 1.3167356994877302 4.259326411670179 11.662470768057574 3 2 0
981 1 5.123499955331984 1.445649251776653 11.16087793138814 -2 1 1
1960 1 3.3912045927446504 6.216513594120627 11.314189214936793 3 2 0
907 1 1.9812838031748023 8.46282256632828 11.160103057087271 1 0 0
2841 1 1.6414579614436577 4.244733005103799 15.495334336490139 2 1 0
963 1 4.4452248866909345 1.395102816825396 17.377360497435532 1 -1 0
2076 1 2.5199970475464095 1.908935547910093 14.674861923163691 1 3 0
860 1 1.6242514412084808 4.232532273208548 18.409133538067643 -1 2 -1
834 1 1.4814728151794094 8.990255529583978 22.66070597232647 1 1 -1
1859 1 1.521391864487759 8.320252420902442 15.149402488823245 -4 -3 0
3868 1 4.836906470703478 7.007241121932169 15.88014196929498 2 1 0
3941 1 2.8432159824650585 6.197768517751205 14.245939865780393 3 0 1
3053 1 2.0512732441146606 8.35189450373452 25.578109095615694 2 0 -1
812 1 2.1182903184525665 1.6498721440032693 19.21037104581893 0 6 -1
2950 1 2.1326816130975312 1.5273275358736151 21.812167969409074 -1 2 1
14 1 1.1584553949183491 4.270557233308502 22.075855241625632 1 -2 0
3998 1 1.7506835204738098 8.866088145896773 17.989331149576067 -3 1 0
984 1 2.484183985828947 6.685796093997261 21.735363289883253 -2 -1 -1
58 1 3.198598541514495 6.100497702028118 19.119361978099683 -2 1 -1
1001 1 4.620599176012235 1.345726329975796 22.867130491849792 -3 -2 0
3138 1 3.2241841870382064 1.2820131061702866 25.692569456493047 0 2 1
1063 1 1.966412950063045 3.7997408609072596 24.882123274669674 1 -1 0
996 1 6.123603983538746 6.107818440313849 18.311261584313776 1 -2 -1
3097 1 3.687520242163888 6.181315977937986 25.471473742846754 5 0 0
937 1 4.828242847860525 6.014699053457424 22.836997008874015 -1 -3 0
925 1 5.36189705100941 1.4733366048397636 14.49206360514553 5 1 -1
899 1 6.053505192301896 0.8814079490367821 25.66405156303003 -1 -2 -1
101 2 0 11.366872099805333 2.5902705253647866 0 0 0
124 2 0 12.787731112280996 2.5902705253647866 0 0 0
126 2 1.2305000000000001 13.49816061851883 2.5902705253647866 0 0 0
128 2 1.2305000000000001 10.656442593567498 2.5902705253647866 0 0 0
130 2 2.4610000000000003 11.366872099805333 2.5902705253647866 0 0 0
161 2 2.4610000000000003 12.787731112280996 2.5902705253647866 0 0 0
163 2 3.6915000000000004 13.49816061851883 2.5902705253647866 0 0 0
165 2 3.6914999999999996 10.6564425935675 2.5902705253647866 0 0 0
167 2 4.922000000000001 11.366872099805333 2.5902705253647866 0 0 0
206 2 4.922000000000001 12.787731112280996 2.5902705253647866 0 0 0
208 2 6.152499999999999 13.49816061851883 2.5902705253647866 0 0 0
122 2 0 15.629449137232333 2.5902705253647866 0 0 0
153 2 0 17.050308149708 2.5902705253647866 0 0 0
157 2 1.2305000000000001 14.919019630994494 2.5902705253647866 0 0 0
159 2 2.4610000000000003 15.629449137232328 2.5902705253647866 0 0 0
198 2 2.4610000000000003 17.050308149708 2.5902705253647866 0 0 0
202 2 3.6915000000000004 14.919019630994494 2.5902705253647866 0 0 0
204 2 4.922000000000001 15.629449137232333 2.5902705253647866 0 0 0
245 2 4.922000000000001 17.050308149708 2.5902705253647866 0 0 0
249 2 6.152499999999999 14.919019630994494 2.5902705253647866 0 0 0
155 2 1.2305000000000001 17.76073765594583 2.5902705253647866 0 0 0
194 2 1.2305000000000001 19.181596668421495 2.5902705253647866 0 0 0
200 2 3.6914999999999996 17.76073765594583 2.5902705253647866 0 0 0
241 2 3.6914999999999996 19.181596668421495 2.5902705253647866 0 0 0
102 2 0 9.946013087329664 5.694086319317353 0 0 0
131 2 2.4610000000000003 9.946013087329664 5.694086319317353 0 0 0
168 2 4.922000000000001 9.946013087329664 5.694086319317353 0 0 0
125 2 0 12.787731112280996 5.694086319317353 0 0 0
127 2 1.2305000000000001 12.077301606043163 5.694086319317353 0 0 0
129 2 1.2305000000000001 10.656442593567498 5.694086319317353 0 0 0
162 2 2.4610000000000003 12.787731112280996 5.694086319317353 0 0 0
422 2 0 11.366872099805333 8.797902113271425 0 0 0
434 2 0 12.787731112280996 8.797902113271425 0 0 0
435 2 1.2305000000000001 13.49816061851883 8.797902113271425 0 0 0
436 2 1.2305000000000001 10.656442593567498 8.797902113271425 0 0 0
437 2 2.4610000000000003 11.366872099805333 8.797902113271425 0 0 0
453 2 2.4610000000000003 12.787731112280996 8.797902113271425 0 0 0
164 2 3.6914999999999996 12.077301606043163 5.694086319317353 0 0 0
166 2 3.6914999999999996 10.6564425935675 5.694086319317353 0 0 0
207 2 4.922000000000001 12.787731112280996 5.694086319317353 0 0 0
454 2 3.6915000000000004 13.49816061851883 8.797902113271425 0 0 0
455 2 3.6914999999999996 10.6564425935675 8.797902113271425 0 0 0
456 2 4.922000000000001 11.366872099805333 8.797902113271425 0 0 0
476 2 4.922000000000001 12.787731112280996 8.797902113271425 0 0 0
477 2 6.152499999999999 13.49816061851883 8.797902113271425 0 0 0
123 2 0 14.208590124756663 5.694086319317353 0 0 0
160 2 2.4610000000000003 14.208590124756663 5.694086319317353 0 0 0
205 2 4.922000000000001 14.208590124756663 5.694086319317353 0 0 0
154 2 0 17.050308149708 5.694086319317353 0 0 0
156 2 1.2305000000000001 16.339878643470165 5.694086319317353 0 0 0
158 2 1.2305000000000001 14.919019630994494 5.694086319317353 0 0 0
199 2 2.4610000000000003 17.050308149708 5.694086319317353 0 0 0
433 2 0 15.629449137232333 8.797902113271425 0 0 0
449 2 0 17.050308149708 8.797902113271425 0 0 0
451 2 1.2305000000000001 14.919019630994494 8.797902113271425 0 0 0
452 2 2.4610000000000003 15.629449137232328 8.797902113271425 0 0 0
472 2 2.4610000000000003 17.050308149708 8.797902113271425 0 0 0
201 2 3.6915000000000004 16.339878643470165 5.694086319317353 0 0 0
203 2 3.6915000000000004 14.919019630994494 5.694086319317353 0 0 0
246 2 4.922000000000001 17.050308149708 5.694086319317353 0 0 0
250 2 6.152499999999999 14.919019630994494 5.694086319317353 0 0 0
474 2 3.6915000000000004 14.919019630994494 8.797902113271425 0 0 0
475 2 4.922000000000001 15.629449137232333 8.797902113271425 0 0 0
496 2 4.922000000000001 17.050308149708 8.797902113271425 0 0 0
498 2 6.152499999999999 14.919019630994494 8.797902113271425 0 0 0
152 2 0 18.471167162183658 5.694086319317353 0 0 0
195 2 1.2305000000000001 19.181596668421495 5.694086319317353 0 0 0
197 2 2.4610000000000003 18.471167162183658 5.694086319317353 0 0 0
450 2 1.2305000000000001 17.76073765594583 8.797902113271425 0 0 0
470 2 1.2305000000000001 19.181596668421495 8.797902113271425 0 0 0
242 2 3.6914999999999996 19.181596668421495 5.694086319317353 0 0 0
244 2 4.922000000000001 18.471167162183658 5.694086319317353 0 0 0
473 2 3.6914999999999996 17.76073765594583 8.797902113271425 0 0 0
494 2 3.6914999999999996 19.181596668421495 8.797902113271425 0 0 0
3938 1 3.5851268791089574 10.792064384540549 11.418274709671426 2 1 -1
4040 1 2.178434266558206 12.955651642155793 11.06507268362584 3 0 -2
3078 1 3.8453500048923384 15.05592523631672 11.905185458731877 -3 1 0
1790 1 2.9923532018734313 17.718933547401395 11.454418437879955 0 4 1
4017 1 0.11614503877466804 18.154513463228163 11.889395633548656 0 -1 0
962 1 2.239176996203056 13.172864548371209 15.281956732118463 3 2 -1
787 1 5.098158748147907 13.50156145799686 17.226759421704195 3 -1 0
968 1 5.213495855436772 10.906076107387875 17.614876515301034 2 0 -1
1981 1 0.32318122818930145 18.396850470803365 14.608019324709735 2 0 0
3039 1 2.0796203126547073 17.515884821631985 22.888331429922594 -3 -4 0
1068 1 2.778003374535203 17.849895600017856 16.200418937945138 2 0 0
1822 1 3.852962628244595 15.222919017680098 15.047912752616245 0 -2 0
3088 1 1.891351632210109 13.775742465925667 17.9623954428245 2 -1 0
2827 1 2.7407893544732076 11.076135696943524 18.707875472163778 4 0 0
4053 1 3.2120762724258998 10.87283821910158 21.346252523992426 3 -1 0
931 1 2.8748325158650365 10.60398173212968 13.968409219548144 4 1 -1
4009 1 2.214859174149325 17.752615471886216 18.77229496738518 5 0 0
878 1 3.3495062757074723 15.289386505631425 21.623723479487083 -3 -2 -1
1936 1 3.799844317845898 15.666326552255358 19.056889439314418 2 -3 0
3937 1 1.8911014073151196 13.207329589161885 22.413848211129704 1 2 -1
2055 1 2.331477935730729 13.243871708783754 25.352626492635018 -2 2 1
885 1 3.4456263689954825 10.698175575997816 25.778928472991844 4 -1 0
2863 1 4.227489798679822 15.349735610689319 25.602262757757437 0 1 0
2024 1 5.623795463725532 14.995351256850775 22.969684040850375 2 -2 -1
3919 1 2.6326928358988173 17.485564334720483 25.812929339124793 2 0 0
2896 1 5.719148515115724 10.690245060674888 22.212549923186792 0 2 -1
1899 1 6.012019478533293 18.06002547915017 19.85662761896335 1 -3 0
1795 1 5.198396091310354 9.83089736313704 15.131541520642696 1 3 1
151 2 0 19.89202617465933 2.5902705253647866 0 0 0
196 2 2.4610000000000003 19.89202617465933 2.5902705253647866 0 0 0
243 2 4.922000000000001 19.89202617465933 2.5902705253647866 0 0 0
188 2 0 24.154603212086325 2.5902705253647866 0 0 0
190 2 0 21.312885187135 2.5902705253647866 0 0 0
192 2 1.2304999999999993 22.023314693372832 2.5902705253647866 0 0 0
233 2 1.2304999999999993 23.4441737058485 2.5902705253647866 0 0 0
235 2 2.4610000000000003 24.154603212086325 2.5902705253647866 0 0 0
237 2 2.4610000000000003 21.312885187134995 2.5902705253647866 0 0 0
239 2 3.6914999999999996 22.023314693372832 2.5902705253647866 0 0 0
280 2 3.6915000000000004 23.4441737058485 2.5902705253647866 0 0 0
282 2 4.922000000000001 24.154603212086325 2.5902705253647866 0 0 0
284 2 4.922000000000001 21.312885187134995 2.5902705253647866 0 0 0
286 2 6.152499999999999 22.023314693372832 2.5902705253647866 0 0 0
1130 2 0 25.575462224561992 2.5902705253647866 0 0 0
1132 2 1.2305000000000001 26.285891730799833 2.5902705253647866 0 0 0
1140 2 1.230500000000001 27.706750743275496 2.5902705253647866 0 0 0
1144 2 2.4610000000000003 25.575462224561992 2.5902705253647866 0 0 0
1146 2 3.691499999999999 26.285891730799833 2.5902705253647866 0 0 0
1162 2 3.6914999999999996 27.706750743275496 2.5902705253647866 0 0 0
1166 2 4.922000000000001 25.575462224561992 2.5902705253647866 0 0 0
1192 2 6.152499999999999 27.706750743275496 2.5902705253647866 0 0 0
1128 2 0 28.417180249513333 2.5902705253647866 0 0 0
1142 2 2.4610000000000003 28.417180249513326 2.5902705253647866 0 0 0
1164 2 4.922000000000001 28.417180249513336 2.5902705253647866 0 0 0
193 2 1.2305000000000001 20.60245568089716 5.694086319317353 0 0 0
448 2 0 19.89202617465933 8.797902113271425 0 0 0
471 2 2.4610000000000003 19.89202617465933 8.797902113271425 0 0 0
240 2 3.6915000000000004 20.60245568089716 5.694086319317353 0 0 0
495 2 4.922000000000001 19.89202617465933 8.797902113271425 0 0 0
189 2 0 22.733744199610655 5.694086319317353 0 0 0
191 2 0 21.312885187135 5.694086319317353 0 0 0
234 2 1.2304999999999993 23.4441737058485 5.694086319317353 0 0 0
236 2 2.4610000000000003 22.733744199610655 5.694086319317353 0 0 0
238 2 2.4610000000000003 21.312885187134995 5.694086319317353 0 0 0
467 2 0 24.154603212086325 8.797902113271425 0 0 0
468 2 0 21.312885187135 8.797902113271425 0 0 0
469 2 1.2304999999999993 22.023314693372832 8.797902113271425 0 0 0
490 2 1.2304999999999993 23.4441737058485 8.797902113271425 0 0 0
491 2 2.4610000000000003 24.154603212086325 8.797902113271425 0 0 0
492 2 2.4610000000000003 21.312885187134995 8.797902113271425 0 0 0
281 2 3.6915000000000004 23.4441737058485 5.694086319317353 0 0 0
283 2 4.922000000000001 22.733744199610655 5.694086319317353 0 0 0
285 2 4.922000000000001 21.312885187134995 5.694086319317353 0 0 0
493 2 3.6914999999999996 22.023314693372832 8.797902113271425 0 0 0
514 2 3.6915000000000004 23.4441737058485 8.797902113271425 0 0 0
515 2 4.922000000000001 24.154603212086325 8.797902113271425 0 0 0
516 2 4.922000000000001 21.312885187134995 8.797902113271425 0 0 0
517 2 6.152499999999999 22.023314693372832 8.797902113271425 0 0 0
1129 2 0 26.99632123703766 5.694086319317353 0 0 0
1131 2 0 25.575462224561992 5.694086319317353 0 0 0
1133 2 1.2305000000000001 24.865032718324155 5.694086319317353 0 0 0
1141 2 1.230500000000001 27.706750743275496 5.694086319317353 0 0 0
1143 2 2.4610000000000003 26.99632123703766 5.694086319317353 0 0 0
1145 2 2.4610000000000003 25.575462224561992 5.694086319317353 0 0 0
1444 2 0 25.575462224561992 8.797902113271425 0 0 0
1445 2 1.2305000000000001 26.285891730799833 8.797902113271425 0 0 0
1449 2 1.230500000000001 27.706750743275496 8.797902113271425 0 0 0
1451 2 2.4610000000000003 25.575462224561992 8.797902113271425 0 0 0
1147 2 3.6914999999999996 24.865032718324166 5.694086319317353 0 0 0
1163 2 3.6914999999999996 27.706750743275496 5.694086319317353 0 0 0
1165 2 4.922000000000001 26.99632123703766 5.694086319317353 0 0 0
1167 2 4.922000000000001 25.575462224561992 5.694086319317353 0 0 0
1169 2 6.152499999999999 24.865032718324155 5.694086319317353 0 0 0
1193 2 6.152499999999999 27.706750743275496 5.694086319317353 0 0 0
1452 2 3.691499999999999 26.285891730799833 8.797902113271425 0 0 0
1460 2 3.6914999999999996 27.706750743275496 8.797902113271425 0 0 0
1462 2 4.922000000000001 25.575462224561992 8.797902113271425 0 0 0
1475 2 6.152499999999999 27.706750743275496 8.797902113271425 0 0 0
1139 2 1.2304999999999993 29.127609755751163 5.694086319317353 0 0 0
1443 2 0 28.417180249513333 8.797902113271425 0 0 0
1450 2 2.4610000000000003 28.417180249513326 8.797902113271425 0 0 0
1161 2 3.691499999999999 29.127609755751152 5.694086319317353 0 0 0
1191 2 6.152499999999998 29.127609755751152 5.694086319317353 0 0 0
1461 2 4.922000000000001 28.417180249513336 8.797902113271425 0 0 0
3023 1 3.0827304798289417 22.563497561228242 11.53538252095749 1 1 0
2921 1 4.365634889712736 20.04991190655433 11.135203454404966 0 2 -1
3855 1 3.2613858819096966 27.242307888240994 11.558891751421909 3 0 1
20 1 4.6899677737192045 24.85160616299488 11.147570888642626 2 1 0
3951 1 0.5392569020806289 27.78699133494973 12.252232538713548 2 -3 -1
2892 1 0.49372529875622334 23.322086897159707 12.112713155261176 0 2 -1
898 1 5.244640193645229 29.12443231399559 11.961614185063588 -3 -1 0
1985 1 2.2093200087456166 23.600832344621875 16.142609221918157 -1 -1 0
55 1 5.925152446170882 20.893190259937352 17.5719809514626 2 -4 -1
1879 1 4.274292591288916 26.740197595395617 14.334743499971932 2 -1 0
3836 1 2.6035976102294587 22.725526213382018 18.679222534038303 -2 -1 0
3863 1 4.171761583567642 19.905435248707747 25.77812855959411 3 2 0
2064 1 2.1953389316822824 26.297509027005738 16.071955001970757 0 3 0
1047 1 3.897281161997738 22.5869348475147 14.17746086533991 -1 -2 -1
816 1 0.5059430385627801 22.950296818627464 25.435993153304935 3 1 0
2917 1 3.665037568731029 27.134167290350984 26.16581202847 1 1 0
2909 1 4.426678774457469 20.159683138991625 15.4133018781542 2 1 1
1875 1 5.251760857058394 29.16167299624324 25.563567159766933 -2 1 -1
4016 1 4.275111275789654 25.15410991644083 19.481471104173863 2 -1 -1
11 1 2.867953595906437 27.158648064050546 18.495338925920407 -1 -1 0
944 1 2.5974230718693527 24.528098440207952 21.88541706764662 -3 1 -1
2037 1 4.478994986885895 29.211735796245485 22.860755179077984 2 -1 0
3867 1 0.6324944403500894 27.280860218402236 25.9367105544209 0 -2 -1
811 1 5.17384059642993 23.961419167958784 22.773866766849842 6 -1 0
2824 1 1.437037198369789 22.30686190955742 22.856602812697993 0 -1 -1
876 1 5.0511578773482375 21.315298862989984 21.496783695374155 -1 0 0
3837 1 4.7995999482111005 24.55556271507634 25.44202736159577 3 4 0
786 1 5.641177908054091 23.66512079312388 17.325576238076074 -2 0 0
1057 1 3.16897854780801 22.396388333212688 25.735688874702433 2 0 -1
3972 1 2.5230110750109964 26.94051592158477 23.351526950099156 -1 1 0
3880 1 3.1153392903849553 20.154744154559314 23.041140926075727 1 -2 0
2095 1 3.939992499632916 20.290982774181018 19.211551417611275 -1 1 -1
1881 1 5.553069059233162 29.13269697792301 15.18263434667075 -1 0 0
805 1 0.31566279729926033 27.523670218754674 21.70647190508494 2 -5 0
1968 1 0.06221967649742055 28.134926313959188 15.054648267961255 1 1 -1
893 1 0.09935191894410167 27.571499253536132 19.079002100133586 0 3 0
1136 2 0 29.83803926198899 2.5902705253647866 0 0 0
1138 2 1.2304999999999993 30.54846876822683 2.5902705253647866 0 0 0
1158 2 2.4610000000000003 29.83803926198899 2.5902705253647866 0 0 0
1160 2 3.6915000000000004 30.54846876822683 2.5902705253647866 0 0 0
1188 2 4.922000000000001 29.83803926198899 2.5902705253647866 0 0 0
1134 2 0 32.67975728694033 2.5902705253647866 0 0 0
1150 2 0 34.100616299416 2.5902705253647866 0 0 0
1154 2 1.2304999999999993 31.969327780702493 2.5902705253647866 0 0 0
1156 2 2.4610000000000003 32.67975728694034 2.5902705253647866 0 0 0
1180 2 2.4609999999999985 34.100616299416 2.5902705253647866 0 0 0
1184 2 3.6914999999999996 31.969327780702493 2.5902705253647866 0 0 0
1186 2 4.9220000000000015 32.67975728694034 2.5902705253647866 0 0 0
1218 2 4.922000000000001 34.100616299416 2.5902705253647866 0 0 0
1152 2 1.230500000000001 34.81104580565383 2.5902705253647866 0 0 0
1182 2 3.691500000000002 34.81104580565383 2.5902705253647866 0 0 0
1148 2 0 36.94233432436734 2.5902705253647866 0 0 0
1172 2 0 38.36319333684299 2.5902705253647866 0 0 0
1176 2 1.2304999999999993 36.231904818129486 2.5902705253647866 0 0 0
1178 2 2.461000000000002 36.94233432436734 2.5902705253647866 0 0 0
1210 2 2.4610000000000003 38.36319333684299 2.5902705253647866 0 0 0
1214 2 3.6914999999999996 36.231904818129486 2.5902705253647866 0 0 0
1216 2 4.922000000000001 36.942334324367316 2.5902705253647866 0 0 0
1255 2 4.922000000000001 38.36319333684299 2.5902705253647866 0 0 0
1174 2 1.230500000000001 39.07362284308084 2.5902705253647866 0 0 0
1212 2 3.691500000000002 39.07362284308082 2.5902705253647866 0 0 0
1135 2 0 31.258898274464656 5.694086319317353 0 0 0
1137 2 0 29.83803926198899 5.694086319317353 0 0 0
1157 2 2.4609999999999985 31.258898274464656 5.694086319317353 0 0 0
1159 2 2.4610000000000003 29.83803926198899 5.694086319317353 0 0 0
1447 2 0 29.83803926198899 8.797902113271425 0 0 0
1448 2 1.2304999999999993 30.54846876822683 8.797902113271425 0 0 0
1458 2 2.4610000000000003 29.83803926198899 8.797902113271425 0 0 0
1187 2 4.921999999999998 31.258898274464656 5.694086319317353 0 0 0
1189 2 4.922000000000001 29.83803926198899 5.694086319317353 0 0 0
1459 2 3.6915000000000004 30.54846876822683 8.797902113271425 0 0 0
1473 2 4.922000000000001 29.83803926198899 8.797902113271425 0 0 0
1151 2 0 34.100616299416 5.694086319317353 0 0 0
1153 2 1.2304999999999993 33.39018679317816 5.694086319317353 0 0 0
1155 2 1.2304999999999993 31.969327780702493 5.694086319317353 0 0 0
1181 2 2.4609999999999985 34.100616299416 5.694086319317353 0 0 0
1446 2 0 32.67975728694033 8.797902113271425 0 0 0
1454 2 0 34.100616299416 8.797902113271425 0 0 0
1456 2 1.2304999999999993 31.969327780702493 8.797902113271425 0 0 0
1457 2 2.4610000000000003 32.67975728694034 8.797902113271425 0 0 0
1469 2 2.4609999999999985 34.100616299416 8.797902113271425 0 0 0
1183 2 3.691499999999998 33.39018679317816 5.694086319317353 0 0 0
1185 2 3.6914999999999996 31.969327780702493 5.694086319317353 0 0 0
1219 2 4.922000000000001 34.100616299416 5.694086319317353 0 0 0
1221 2 6.152499999999999 33.39018679317816 5.694086319317353 0 0 0
1471 2 3.6914999999999996 31.969327780702493 8.797902113271425 0 0 0
1472 2 4.9220000000000015 32.67975728694034 8.797902113271425 0 0 0
1488 2 4.922000000000001 34.100616299416 8.797902113271425 0 0 0
1455 2 1.230500000000001 34.81104580565383 8.797902113271425 0 0 0
1470 2 3.691500000000002 34.81104580565383 8.797902113271425 0 0 0
1149 2 0 35.52147531189165 5.694086319317353 0 0 0
1173 2 0 38.36319333684299 5.694086319317353 0 0 0
1175 2 1.2304999999999993 37.65276383060515 5.694086319317353 0 0 0
1177 2 1.2304999999999993 36.231904818129486 5.694086319317353 0 0 0
1179 2 2.4609999999999985 35.52147531189166 5.694086319317353 0 0 0
1211 2 2.4610000000000003 38.36319333684299 5.694086319317353 0 0 0
1453 2 0 36.94233432436734 8.797902113271425 0 0 0
1465 2 0 38.36319333684299 8.797902113271425 0 0 0
1467 2 1.2304999999999993 36.231904818129486 8.797902113271425 0 0 0
1468 2 2.461000000000002 36.94233432436734 8.797902113271425 0 0 0
1484 2 2.4610000000000003 38.36319333684299 8.797902113271425 0 0 0
1213 2 3.6914999999999996 37.65276383060515 5.694086319317353 0 0 0
1215 2 3.6914999999999996 36.231904818129486 5.694086319317353 0 0 0
1217 2 4.922000000000001 35.52147531189166 5.694086319317353 0 0 0
1256 2 4.922000000000001 38.36319333684299 5.694086319317353 0 0 0
1258 2 6.152499999999998 37.65276383060515 5.694086319317353 0 0 0
1486 2 3.6914999999999996 36.231904818129486 8.797902113271425 0 0 0
1487 2 4.922000000000001 36.942334324367316 8.797902113271425 0 0 0
1506 2 4.922000000000001 38.36319333684299 8.797902113271425 0 0 0
1466 2 1.230500000000001 39.07362284308084 8.797902113271425 0 0 0
1485 2 3.691500000000002 39.07362284308082 8.797902113271425 0 0 0
2061 1 3.7597240558846647 31.600519162161635 11.548237515569802 3 3 1
1006 1 1.2336984722707491 32.46568287002293 12.291491813356114 -1 0 0
1908 1 5.4566665015634275 33.80095611633572 11.819296242369168 -1 1 -1
3065 1 3.8513136125378566 36.46472159650383 11.453445670317722 1 2 -1
2036 1 1.2421930208785255 37.252131520605 12.052748219391031 3 0 0
3017 1 5.4502479379370214 36.11989960039061 13.778485478558729 2 -1 -1
3961 1 5.450795035428003 38.788456104814024 10.882371604982525 2 3 -1
4018 1 3.032564544961361 33.06585117825605 15.695507935737115 -2 -2 -1
865 1 4.835082150922822 38.791108904760634 18.508344900857317 0 -1 0
2007 1 5.079733912317821 31.879624096589417 14.289778484316647 4 0 0
3003 1 1.6028705677962236 37.012807528551264 25.77909446926469 -2 1 0
2820 1 3.441448661477529 35.66176709578107 15.699455099254193 4 0 1
3087 1 1.0796331942237618 37.063854585973154 14.904679540925729 0 2 0
2887 1 2.9665851587843797 36.63830604929584 18.280759467353242 1 2 0
2866 1 0.3477095375193577 32.59895129914276 19.37595080240466 -1 -1 1
1964 1 2.6833350382517898 31.889644361146058 18.188886336986783 1 1 0
806 1 3.9762195358716674 34.345284629505954 19.04205497842773 1 -2 0
3927 1 4.494606971231497 34.03407134160302 21.758867201765142 -1 5 0
2949 1 0.765771984653089 32.0982642833839 22.11424164663012 -1 2 0
2965 1 5.630441633525037 34.0474614012289 25.92232159870192 -2 -3 0
3146 1 0.5189285628314539 32.50902649985334 14.845329834243964 -4 -3 0
1927 1 4.846648190573615 38.56110356091452 21.365246014631985 0 -4 0
3815 1 0.9766971274925942 36.95388072778165 22.7519068552889 2 -1 0
804 1 0.5747372752114598 36.98583579264055 19.929053536293253 0 0 -1
919 1 4.475699318782108 29.419828525930132 17.694315586554872 0 -2 0
3988 1 1.0577358915413566 32.20859386416901 25.429331069374193 -2 3 1
1098 1 3.9126819917144937 31.750545341245235 25.942117012387115 1 1 1
2069 1 3.4145954069980675 31.846632473487666 22.972158935606373 4 2 1
904 1 3.633416011589245 36.46561913372615 22.589244690557372 0 -4 -1
3877 1 4.348904432911443 36.35249139918388 25.48208354971142 -1 1 0
1170 2 0 41.20491136179432 2.5902705253647866 0 0 0
1206 2 1.230500000000001 40.494481855556494 2.5902705253647866 0 0 0
1208 2 2.4610000000000003 41.20491136179432 2.5902705253647866 0 0 0
1251 2 3.6914999999999996 40.494481855556494 2.5902705253647866 0 0 0
1253 2 4.922000000000003 41.20491136179432 2.5902705253647866 0 0 0
1296 2 6.152499999999998 40.494481855556494 2.5902705253647866 0 0 0
1202 2 0 42.62577037427 2.5902705253647866 0 0 0
1204 2 1.2304999999999993 43.33619988050783 2.5902705253647866 0 0 0
1247 2 2.4610000000000003 42.62577037427 2.5902705253647866 0 0 0
1249 2 3.691500000000002 43.33619988050783 2.5902705253647866 0 0 0
1292 2 4.922000000000001 42.62577037426999 2.5902705253647866 0 0 0
1200 2 0 45.46748839922133 2.5902705253647866 0 0 0
1243 2 1.2304999999999993 44.757058892983494 2.5902705253647866 0 0 0
1245 2 2.4610000000000003 45.46748839922133 2.5902705253647866 0 0 0
1288 2 3.6914999999999996 44.757058892983494 2.5902705253647866 0 0 0
1290 2 4.922000000000001 45.46748839922133 2.5902705253647866 0 0 0
1239 2 0 46.888347411697 2.5902705253647866 0 0 0
1241 2 1.230500000000001 47.59877691793481 2.5902705253647866 0 0 0
1284 2 2.4609999999999985 46.888347411697 2.5902705253647866 0 0 0
1286 2 3.6914999999999996 47.598776917934835 2.5902705253647866 0 0 0
1329 2 4.922000000000001 46.888347411697 2.5902705253647866 0 0 0
1171 2 0 39.78405234931866 5.694086319317353 0 0 0
1205 2 1.230500000000001 41.91534086803216 5.694086319317353 0 0 0
1207 2 1.230500000000001 40.494481855556494 5.694086319317353 0 0 0
1209 2 2.4610000000000003 39.78405234931866 5.694086319317353 0 0 0
1464 2 0 41.20491136179432 8.797902113271425 0 0 0
1482 2 1.230500000000001 40.494481855556494 8.797902113271425 0 0 0
1483 2 2.4610000000000003 41.20491136179432 8.797902113271425 0 0 0
1250 2 3.6914999999999996 41.91534086803216 5.694086319317353 0 0 0
1252 2 3.6914999999999996 40.494481855556494 5.694086319317353 0 0 0
1254 2 4.922000000000001 39.78405234931866 5.694086319317353 0 0 0
1295 2 6.152499999999998 41.91534086803216 5.694086319317353 0 0 0
1297 2 6.152499999999998 40.494481855556494 5.694086319317353 0 0 0
1504 2 3.6914999999999996 40.494481855556494 8.797902113271425 0 0 0
1505 2 4.922000000000003 41.20491136179432 8.797902113271425 0 0 0
1526 2 6.152499999999998 40.494481855556494 8.797902113271425 0 0 0