LAMMPS data file via write_data, version 29 Sep 2021, timestep = 100000

4065 atoms
2 atom types

0 49.22 xlo xhi
0 49.019635930410494 ylo yhi
2.012347177120226 25.828485069165147 zlo zhi

Masses

1 18.015
2 12.01

Atoms # atomic

83 2 0 2.8417180249513345 3.446918632874377 0 0 0
85 2 0 0 3.446918632874377 0 0 0
87 2 1.2305000000000001 0.7104295062378347 3.446918632874377 0 0 0
94 2 1.2305000000000001 2.1312885187135 3.446918632874377 0 0 0
96 2 2.4610000000000003 2.8417180249513345 3.446918632874377 0 0 0
98 2 2.4610000000000003 0 3.446918632874377 0 0 0
100 2 3.6915000000000004 0.7104295062378347 3.446918632874377 0 0 0
115 2 3.6914999999999996 2.1312885187135 3.446918632874377 0 0 0
117 2 4.922000000000001 2.841718024951333 3.446918632874377 0 0 0
119 2 4.922000000000001 0 3.446918632874377 0 0 0
90 2 0 4.262577037427 3.446918632874377 0 0 0
111 2 2.4610000000000003 4.262577037427 3.446918632874377 0 0 0
140 2 4.922000000000001 4.262577037426998 3.446918632874377 0 0 0
92 2 1.2305000000000001 4.973006543664834 3.446918632874377 0 0 0
107 2 1.2305000000000001 6.393865556140498 3.446918632874377 0 0 0
113 2 3.6914999999999996 4.973006543664834 3.446918632874377 0 0 0
136 2 3.6914999999999996 6.393865556140498 3.446918632874377 0 0 0
88 2 0 7.104295062378334 3.446918632874377 0 0 0
103 2 0 8.525154074854 3.446918632874377 0 0 0
105 2 1.2305000000000001 9.235583581091834 3.446918632874377 0 0 0
109 2 2.4610000000000003 7.104295062378334 3.446918632874377 0 0 0
132 2 2.4610000000000003 8.525154074854 3.446918632874377 0 0 0
134 2 3.6915000000000004 9.235583581091834 3.446918632874377 0 0 0
138 2 4.922000000000001 7.104295062378334 3.446918632874377 0 0 0
169 2 4.922000000000001 8.525154074854 3.446918632874377 0 0 0
84 2 0 1.420859012475665 6.316061544382798 0 0 0
86 2 0 0 6.316061544382798 0 0 0
95 2 1.2305000000000001 2.1312885187135 6.316061544382798 0 0 0
97 2 2.4610000000000003 1.420859012475665 6.316061544382798 0 0 0
99 2 2.4610000000000003 0 6.316061544382798 0 0 0
412 2 0 2.8417180249513345 9.185204455890297 0 0 0
413 2 0 0 9.185204455890297 0 0 0
414 2 1.2305000000000001 0.7104295062378347 9.185204455890297 0 0 0
418 2 1.2305000000000001 2.1312885187135 9.185204455890297 0 0 0
419 2 2.4610000000000003 2.8417180249513345 9.185204455890297 0 0 0
420 2 2.4610000000000003 0 9.185204455890297 0 0 0
116 2 3.6914999999999996 2.1312885187135 6.316061544382798 0 0 0
118 2 4.922000000000001 1.420859012475665 6.316061544382798 0 0 0
120 2 4.922000000000001 0 6.316061544382798 0 0 0
421 2 3.6915000000000004 0.7104295062378347 9.185204455890297 0 0 0
429 2 3.6914999999999996 2.1312885187135 9.185204455890297 0 0 0
430 2 4.922000000000001 2.841718024951333 9.185204455890297 0 0 0
431 2 4.922000000000001 0 9.185204455890297 0 0 0
91 2 0 4.262577037427 6.316061544382798 0 0 0
93 2 1.2305000000000001 3.5521475311891644 6.316061544382798 0 0 0
112 2 2.4610000000000003 4.262577037427 6.316061544382798 0 0 0
416 2 0 4.262577037427 9.185204455890297 0 0 0
427 2 2.4610000000000003 4.262577037427 9.185204455890297 0 0 0
114 2 3.6914999999999996 3.5521475311891644 6.316061544382798 0 0 0
141 2 4.922000000000001 4.262577037426998 6.316061544382798 0 0 0
442 2 4.922000000000001 4.262577037426998 9.185204455890297 0 0 0
89 2 0 5.683436049902664 6.316061544382798 0 0 0
108 2 1.2305000000000001 6.393865556140498 6.316061544382798 0 0 0
110 2 2.4610000000000003 5.683436049902664 6.316061544382798 0 0 0
417 2 1.2305000000000001 4.973006543664834 9.185204455890297 0 0 0
425 2 1.2305000000000001 6.393865556140498 9.185204455890297 0 0 0
137 2 3.6914999999999996 6.393865556140498 6.316061544382798 0 0 0
139 2 4.922000000000001 5.683436049902664 6.316061544382798 0 0 0
428 2 3.6914999999999996 4.973006543664834 9.185204455890297 0 0 0
440 2 3.6914999999999996 6.393865556140498 9.185204455890297 0 0 0
104 2 0 8.525154074854 6.316061544382798 0 0 0
106 2 1.2305000000000001 7.814724568616164 6.316061544382798 0 0 0
133 2 2.4610000000000003 8.525154074854 6.316061544382798 0 0 0
415 2 0 7.104295062378334 9.185204455890297 0 0 0
423 2 0 8.525154074854 9.185204455890297 0 0 0
424 2 1.2305000000000001 9.235583581091834 9.185204455890297 0 0 0
426 2 2.4610000000000003 7.104295062378334 9.185204455890297 0 0 0
438 2 2.4610000000000003 8.525154074854 9.185204455890297 0 0 0
135 2 3.6914999999999996 7.814724568616164 6.316061544382798 0 0 0
170 2 4.922000000000001 8.525154074854 6.316061544382798 0 0 0
439 2 3.6915000000000004 9.235583581091834 9.185204455890297 0 0 0
441 2 4.922000000000001 7.104295062378334 9.185204455890297 0 0 0
457 2 4.922000000000001 8.525154074854 9.185204455890297 0 0 0
1883 1 0.9705772218287396 2.81838536037259 11.813760250599303 0 0 0
1789 1 3.5397736664764996 3.6568407309759996 12.391427334282408 1 0 0
3975 1 2.185393468914742 8.062954308768498 11.99397548628249 1 1 -1
3846 1 4.390730121897176 6.534219004342449 11.811427791631282 2 1 1
896 1 5.51030459008024 2.006869540515303 13.221508749377254 0 0 0
978 1 0.4836441117184433 5.641619632753061 11.901702452438188 0 0 -1
3890 1 5.255966194510624 8.834613155904435 20.65527600530185 1 1 0
3865 1 2.1440626920035357 2.3745959225262645 24.974629770180073 1 0 0
35 1 5.400279051682359 0.5688561774612594 20.58330468273425 0 0 1
937 1 3.4429206792924356 5.017042769127749 14.757982836446152 0 1 0
3809 1 5.022477646674738 5.463043349705774 17.915877744338275 0 1 1
876 1 3.6314712066342385 7.962100527648775 18.37488417976765 -1 -1 0
1002 1 3.141351036597216 7.838072725262774 14.75520746617508 0 1 -1
823 1 5.227976898997275 5.824556343785745 21.70941665230598 1 0 -1
1086 1 3.011822196344599 0.7306121217442412 22.273708714097875 0 1 1
1799 1 1.1783926177021096 1.1611274397798819 20.071449812027794 1 1 0
79 1 3.469159418710739 1.219407617888792 17.85326719746451 1 0 1
1946 1 0.9531620093658384 4.337083619925133 19.071035924327603 0 0 1
3114 1 2.728862225440851 5.284500447673424 24.302027679258586 1 1 0
2887 1 2.8109215412479394 7.419381779627196 21.879835834219804 1 0 0
2102 1 1.3090435700598908 7.017940930687881 19.59592957445873 1 0 0
2903 1 2.3402458169844182 3.837682219260926 21.880668730269466 1 1 0
907 1 1.6762333469305783 8.471046673997838 24.244325844453122 0 2 0
1074 1 5.4261621822969115 5.490923331120584 24.577496531771814 1 2 0
3857 1 2.964576738173074 3.8394899703231977 17.319488761663493 -1 1 0
912 1 0.1852925788060676 9.760414244050352 19.52232174046524 0 0 -1
2945 1 1.0640653599713799 7.984614143189626 16.359840283082814 0 0 0
3880 1 5.042237404226553 2.3970958017877178 24.24508301639078 0 0 0
101 2 0 11.366872099805333 3.446918632874377 0 0 0
124 2 0 12.787731112280996 3.446918632874377 0 0 0
126 2 1.2305000000000001 13.49816061851883 3.446918632874377 0 0 0
128 2 1.2305000000000001 10.656442593567498 3.446918632874377 0 0 0
130 2 2.4610000000000003 11.366872099805333 3.446918632874377 0 0 0
161 2 2.4610000000000003 12.787731112280996 3.446918632874377 0 0 0
163 2 3.6915000000000004 13.49816061851883 3.446918632874377 0 0 0
165 2 3.6914999999999996 10.6564425935675 3.446918632874377 0 0 0
167 2 4.922000000000001 11.366872099805333 3.446918632874377 0 0 0
206 2 4.922000000000001 12.787731112280996 3.446918632874377 0 0 0
208 2 6.152499999999999 13.49816061851883 3.446918632874377 0 0 0
122 2 0 15.629449137232333 3.446918632874377 0 0 0
153 2 0 17.050308149708 3.446918632874377 0 0 0
157 2 1.2305000000000001 14.919019630994494 3.446918632874377 0 0 0
159 2 2.4610000000000003 15.629449137232328 3.446918632874377 0 0 0
198 2 2.4610000000000003 17.050308149708 3.446918632874377 0 0 0
202 2 3.6915000000000004 14.919019630994494 3.446918632874377 0 0 0
204 2 4.922000000000001 15.629449137232333 3.446918632874377 0 0 0
245 2 4.922000000000001 17.050308149708 3.446918632874377 0 0 0
249 2 6.152499999999999 14.919019630994494 3.446918632874377 0 0 0
155 2 1.2305000000000001 17.76073765594583 3.446918632874377 0 0 0
194 2 1.2305000000000001 19.181596668421495 3.446918632874377 0 0 0
200 2 3.6914999999999996 17.76073765594583 3.446918632874377 0 0 0
241 2 3.6914999999999996 19.181596668421495 3.446918632874377 0 0 0
102 2 0 9.946013087329664 6.316061544382798 0 0 0
131 2 2.4610000000000003 9.946013087329664 6.316061544382798 0 0 0
168 2 4.922000000000001 9.946013087329664 6.316061544382798 0 0 0
125 2 0 12.787731112280996 6.316061544382798 0 0 0
127 2 1.2305000000000001 12.077301606043163 6.316061544382798 0 0 0
129 2 1.2305000000000001 10.656442593567498 6.316061544382798 0 0 0
162 2 2.4610000000000003 12.787731112280996 6.316061544382798 0 0 0
422 2 0 11.366872099805333 9.185204455890297 0 0 0
434 2 0 12.787731112280996 9.185204455890297 0 0 0
435 2 1.2305000000000001 13.49816061851883 9.185204455890297 0 0 0
436 2 1.2305000000000001 10.656442593567498 9.185204455890297 0 0 0
437 2 2.4610000000000003 11.366872099805333 9.185204455890297 0 0 0
453 2 2.4610000000000003 12.787731112280996 9.185204455890297 0 0 0
164 2 3.6914999999999996 12.077301606043163 6.316061544382798 0 0 0
166 2 3.6914999999999996 10.6564425935675 6.316061544382798 0 0 0
207 2 4.922000000000001 12.787731112280996 6.316061544382798 0 0 0
454 2 3.6915000000000004 13.49816061851883 9.185204455890297 0 0 0
455 2 3.6914999999999996 10.6564425935675 9.185204455890297 0 0 0
456 2 4.922000000000001 11.366872099805333 9.185204455890297 0 0 0
476 2 4.922000000000001 12.787731112280996 9.185204455890297 0 0 0
477 2 6.152499999999999 13.49816061851883 9.185204455890297 0 0 0
123 2 0 14.208590124756663 6.316061544382798 0 0 0
160 2 2.4610000000000003 14.208590124756663 6.316061544382798 0 0 0
205 2 4.922000000000001 14.208590124756663 6.316061544382798 0 0 0
154 2 0 17.050308149708 6.316061544382798 0 0 0
156 2 1.2305000000000001 16.339878643470165 6.316061544382798 0 0 0
158 2 1.2305000000000001 14.919019630994494 6.316061544382798 0 0 0
199 2 2.4610000000000003 17.050308149708 6.316061544382798 0 0 0
433 2 0 15.629449137232333 9.185204455890297 0 0 0
449 2 0 17.050308149708 9.185204455890297 0 0 0
451 2 1.2305000000000001 14.919019630994494 9.185204455890297 0 0 0
452 2 2.4610000000000003 15.629449137232328 9.185204455890297 0 0 0
472 2 2.4610000000000003 17.050308149708 9.185204455890297 0 0 0
201 2 3.6915000000000004 16.339878643470165 6.316061544382798 0 0 0
203 2 3.6915000000000004 14.919019630994494 6.316061544382798 0 0 0
246 2 4.922000000000001 17.050308149708 6.316061544382798 0 0 0
250 2 6.152499999999999 14.919019630994494 6.316061544382798 0 0 0
474 2 3.6915000000000004 14.919019630994494 9.185204455890297 0 0 0
475 2 4.922000000000001 15.629449137232333 9.185204455890297 0 0 0
496 2 4.922000000000001 17.050308149708 9.185204455890297 0 0 0
498 2 6.152499999999999 14.919019630994494 9.185204455890297 0 0 0
152 2 0 18.471167162183658 6.316061544382798 0 0 0
195 2 1.2305000000000001 19.181596668421495 6.316061544382798 0 0 0
197 2 2.4610000000000003 18.471167162183658 6.316061544382798 0 0 0
450 2 1.2305000000000001 17.76073765594583 9.185204455890297 0 0 0
470 2 1.2305000000000001 19.181596668421495 9.185204455890297 0 0 0
242 2 3.6914999999999996 19.181596668421495 6.316061544382798 0 0 0
244 2 4.922000000000001 18.471167162183658 6.316061544382798 0 0 0
473 2 3.6914999999999996 17.76073765594583 9.185204455890297 0 0 0
494 2 3.6914999999999996 19.181596668421495 9.185204455890297 0 0 0
3829 1 2.835587570060672 14.090521521877546 12.30675699737084 0 1 0
3819 1 3.4556791112087977 18.985165955862193 11.677260724894296 0 1 0
2985 1 0.915462604031869 18.354765118889897 11.759730101905085 0 -1 0
4058 1 5.607856874476376 14.670839944533487 11.617593166785817 0 0 0
3977 1 5.998702969183314 17.48779266946142 11.784300192681856 1 1 1
51 1 2.6841464487006035 11.135841282637116 12.031055785251779 0 0 0
1925 1 5.386871216809479 10.688920783010518 11.528334033335673 1 0 0
3887 1 0.20599871260350824 15.306435890350192 11.6576179850071 1 0 -1
2111 1 5.320200522051142 14.970600202273667 14.27337573600242 0 0 0
1833 1 2.4560690299678085 13.921904219654277 15.292954169667418 0 2 0
3143 1 4.682299103168014 15.090626318293202 20.38017477685912 1 1 1
1079 1 2.52434453293525 14.393805056405142 22.326160312827223 0 0 0
3079 1 2.5090093888608993 11.207598029499119 14.95183080449389 -1 1 0
4023 1 2.9618443684395017 15.235367152866553 17.61524828310676 1 -1 1
1904 1 2.6433904323178257 17.797509726659214 16.731488356973767 0 1 0
1979 1 5.911851082910626 17.563297273768406 14.98822499762101 0 1 0
2915 1 5.711171075083597 13.946920965841874 17.486279356342685 1 1 0
2860 1 0.35824594780529234 11.432605350614713 23.15694981165377 0 0 -1
1886 1 2.868419735143556 11.654847710507445 21.723684871533255 -1 -1 1
3927 1 0.15549330853124366 15.19236640702073 14.464651700540733 1 1 0
1891 1 4.37692251185666 17.752347081342 19.508065655430748 0 0 0
2026 1 2.9836625736997013 18.435253219179636 21.91058860780601 0 -1 0
901 1 5.951571086157943 19.313653381749724 24.88168183383169 0 0 0
48 1 0.6617344350644844 14.011122543078173 24.964286905533815 1 0 0
1915 1 2.9256531391158362 17.77273485601395 24.667786033249023 0 1 0
3106 1 3.924461969762141 10.792836522420762 17.507064071634815 0 0 1
2032 1 5.024393186020782 9.874258729675995 14.413037831523575 0 0 0
973 1 5.193271395382192 12.727051506030236 24.36630225750773 0 0 -1
2959 1 2.685714634762545 11.096763790503438 24.88979395550871 -1 1 -1
894 1 3.407802647896755 14.992188852608653 24.859013174053583 1 0 0
991 1 6.025378522414282 16.443399473145558 24.61755861850484 0 0 -1
4012 1 3.6129732568160087 19.000563269536052 14.347601329319854 1 0 0
1031 1 0.2759951270852108 15.536707904237154 18.519653137385394 0 -1 0
2092 1 0.5263467561959654 18.0716402511514 20.49110184020739 0 1 0
1101 1 0.6197727872653084 17.889063853925673 14.396441529663472 0 1 -1
2824 1 1.9216198976247412 12.330921215185965 19.12084218675865 0 0 -1
1024 1 5.855425069052177 12.447380177754823 21.670213018866654 0 0 0
3995 1 0.09837051234155945 14.518800479111585 21.046429855395974 2 -1 1
2069 1 0.9797366062719055 19.367830693226093 18.093876124932024 1 0 1
2991 1 0.18623036826494832 17.164379680728608 24.707679461761373 1 0 1
151 2 0 19.89202617465933 3.446918632874377 0 0 0
196 2 2.4610000000000003 19.89202617465933 3.446918632874377 0 0 0
243 2 4.922000000000001 19.89202617465933 3.446918632874377 0 0 0
188 2 0 24.154603212086325 3.446918632874377 0 0 0
190 2 0 21.312885187135 3.446918632874377 0 0 0
192 2 1.2304999999999993 22.023314693372832 3.446918632874377 0 0 0
233 2 1.2304999999999993 23.4441737058485 3.446918632874377 0 0 0
235 2 2.4610000000000003 24.154603212086325 3.446918632874377 0 0 0
237 2 2.4610000000000003 21.312885187134995 3.446918632874377 0 0 0
239 2 3.6914999999999996 22.023314693372832 3.446918632874377 0 0 0
280 2 3.6915000000000004 23.4441737058485 3.446918632874377 0 0 0
282 2 4.922000000000001 24.154603212086325 3.446918632874377 0 0 0
284 2 4.922000000000001 21.312885187134995 3.446918632874377 0 0 0
286 2 6.152499999999999 22.023314693372832 3.446918632874377 0 0 0
1130 2 0 25.575462224561992 3.446918632874377 0 0 0
1132 2 1.2305000000000001 26.285891730799833 3.446918632874377 0 0 0
1140 2 1.230500000000001 27.706750743275496 3.446918632874377 0 0 0
1144 2 2.4610000000000003 25.575462224561992 3.446918632874377 0 0 0
1146 2 3.691499999999999 26.285891730799833 3.446918632874377 0 0 0
1162 2 3.6914999999999996 27.706750743275496 3.446918632874377 0 0 0
1166 2 4.922000000000001 25.575462224561992 3.446918632874377 0 0 0
1192 2 6.152499999999999 27.706750743275496 3.446918632874377 0 0 0
1128 2 0 28.417180249513333 3.446918632874377 0 0 0
1142 2 2.4610000000000003 28.417180249513326 3.446918632874377 0 0 0
1164 2 4.922000000000001 28.417180249513336 3.446918632874377 0 0 0
193 2 1.2305000000000001 20.60245568089716 6.316061544382798 0 0 0
448 2 0 19.89202617465933 9.185204455890297 0 0 0
471 2 2.4610000000000003 19.89202617465933 9.185204455890297 0 0 0
240 2 3.6915000000000004 20.60245568089716 6.316061544382798 0 0 0
495 2 4.922000000000001 19.89202617465933 9.185204455890297 0 0 0
189 2 0 22.733744199610655 6.316061544382798 0 0 0
191 2 0 21.312885187135 6.316061544382798 0 0 0
234 2 1.2304999999999993 23.4441737058485 6.316061544382798 0 0 0
236 2 2.4610000000000003 22.733744199610655 6.316061544382798 0 0 0
238 2 2.4610000000000003 21.312885187134995 6.316061544382798 0 0 0
467 2 0 24.154603212086325 9.185204455890297 0 0 0
468 2 0 21.312885187135 9.185204455890297 0 0 0
469 2 1.2304999999999993 22.023314693372832 9.185204455890297 0 0 0
490 2 1.2304999999999993 23.4441737058485 9.185204455890297 0 0 0
491 2 2.4610000000000003 24.154603212086325 9.185204455890297 0 0 0
492 2 2.4610000000000003 21.312885187134995 9.185204455890297 0 0 0
281 2 3.6915000000000004 23.4441737058485 6.316061544382798 0 0 0
283 2 4.922000000000001 22.733744199610655 6.316061544382798 0 0 0
285 2 4.922000000000001 21.312885187134995 6.316061544382798 0 0 0
493 2 3.6914999999999996 22.023314693372832 9.185204455890297 0 0 0
514 2 3.6915000000000004 23.4441737058485 9.185204455890297 0 0 0
515 2 4.922000000000001 24.154603212086325 9.185204455890297 0 0 0
516 2 4.922000000000001 21.312885187134995 9.185204455890297 0 0 0
517 2 6.152499999999999 22.023314693372832 9.185204455890297 0 0 0
1129 2 0 26.99632123703766 6.316061544382798 0 0 0
1131 2 0 25.575462224561992 6.316061544382798 0 0 0
1133 2 1.2305000000000001 24.865032718324155 6.316061544382798 0 0 0
1141 2 1.230500000000001 27.706750743275496 6.316061544382798 0 0 0
1143 2 2.4610000000000003 26.99632123703766 6.316061544382798 0 0 0
1145 2 2.4610000000000003 25.575462224561992 6.316061544382798 0 0 0
1444 2 0 25.575462224561992 9.185204455890297 0 0 0
1445 2 1.2305000000000001 26.285891730799833 9.185204455890297 0 0 0
1449 2 1.230500000000001 27.706750743275496 9.185204455890297 0 0 0
1451 2 2.4610000000000003 25.575462224561992 9.185204455890297 0 0 0
1147 2 3.6914999999999996 24.865032718324166 6.316061544382798 0 0 0
1163 2 3.6914999999999996 27.706750743275496 6.316061544382798 0 0 0
1165 2 4.922000000000001 26.99632123703766 6.316061544382798 0 0 0
1167 2 4.922000000000001 25.575462224561992 6.316061544382798 0 0 0
1169 2 6.152499999999999 24.865032718324155 6.316061544382798 0 0 0
1193 2 6.152499999999999 27.706750743275496 6.316061544382798 0 0 0
1452 2 3.691499999999999 26.285891730799833 9.185204455890297 0 0 0
1460 2 3.6914999999999996 27.706750743275496 9.185204455890297 0 0 0
1462 2 4.922000000000001 25.575462224561992 9.185204455890297 0 0 0
1475 2 6.152499999999999 27.706750743275496 9.185204455890297 0 0 0
1139 2 1.2304999999999993 29.127609755751163 6.316061544382798 0 0 0
1443 2 0 28.417180249513333 9.185204455890297 0 0 0
1450 2 2.4610000000000003 28.417180249513326 9.185204455890297 0 0 0
1161 2 3.691499999999999 29.127609755751152 6.316061544382798 0 0 0
1191 2 6.152499999999998 29.127609755751152 6.316061544382798 0 0 0
1461 2 4.922000000000001 28.417180249513336 9.185204455890297 0 0 0
1996 1 0.700281965323084 29.362571008848487 11.497446354382078 1 0 0
1874 1 5.942295270266889 22.976747460222246 12.025718417312056 1 0 2
2013 1 5.116442151972046 26.974231451437383 12.256330131211651 0 0 -1
1124 1 3.0774296523368347 25.061675582370686 11.49183941447404 0 -1 0
2973 1 3.3896829947572993 21.83919988765916 12.014881363545303 1 0 -1
3799 1 0.48799022798499964 23.282368669820134 11.812933473471851 1 -1 -1
1889 1 0.48864873582411406 26.525078599279638 11.98827878756284 0 0 0
2061 1 3.0291034277634603 24.39598052180972 17.44746579868363 1 1 1
2995 1 5.399006733218576 24.016117242617735 15.00446147509294 0 0 -1
82 1 2.9754294051753596 22.411311653606504 14.606745031284476 1 0 0
1832 1 0.36791311105592617 24.903359513238964 22.27682749387571 2 0 -1
976 1 3.504739264373181 28.12229150800703 15.414120548849672 2 0 -1
2002 1 5.799349334184994 26.677606409596237 15.107676237926633 0 -1 0
4036 1 4.283979309801085 20.841327014025794 16.853085348978006 1 0 0
3010 1 2.3896649933687835 21.91620921061338 18.596132828179364 0 -1 -1
1834 1 3.2653133453551164 21.315614126280703 21.21288134198869 1 0 0
992 1 2.6012175447490047 29.23061691348878 25.092257146120676 0 -1 -1
2036 1 0.06258430274016363 27.744899386138623 24.174650964072008 0 0 0
3113 1 0.48194527701083156 25.45305937156403 17.02890752119386 1 0 1
2070 1 1.1374992954992018 22.549853995442646 24.20866818472121 0 0 -1
3015 1 4.274635593725871 28.80790122716514 19.23047310337298 0 0 0
3941 1 4.5367091846622065 25.394984343215086 22.09780628470153 1 0 1
80 1 3.240478779467031 26.079957616476275 19.56888797942562 0 0 0
2955 1 5.509067626301247 22.835043517716638 21.707431809466833 0 0 0
1924 1 1.2579685061353185 26.807492788914626 14.733194309970527 0 -1 1
3988 1 3.436377042030666 20.98125882351628 24.02821708835617 2 1 1
4011 1 5.444235934382745 22.884604359351734 24.834950730127296 1 0 -1
1983 1 1.9134510972399632 25.368485932459873 24.838788742901162 0 -1 -2
4051 1 5.120773707212586 27.908853176970354 24.64369822437793 0 -1 0
2085 1 4.472855945227542 25.46577231034516 24.976582267875163 1 0 0
3947 1 0.745488992569447 23.911171077093893 14.488264927605425 1 0 -1
3820 1 0.4964298522895655 26.37997602791608 20.016698045346576 0 0 1
3982 1 5.498645015876487 23.729290202510597 18.605008671808875 0 0 0
3094 1 5.641129765964698 20.568762847371172 19.51069108792654 1 1 0
1136 2 0 29.83803926198899 3.446918632874377 0 0 0
1138 2 1.2304999999999993 30.54846876822683 3.446918632874377 0 0 0
1158 2 2.4610000000000003 29.83803926198899 3.446918632874377 0 0 0
1160 2 3.6915000000000004 30.54846876822683 3.446918632874377 0 0 0
1188 2 4.922000000000001 29.83803926198899 3.446918632874377 0 0 0
1134 2 0 32.67975728694033 3.446918632874377 0 0 0
1150 2 0 34.100616299416 3.446918632874377 0 0 0
1154 2 1.2304999999999993 31.969327780702493 3.446918632874377 0 0 0
1156 2 2.4610000000000003 32.67975728694034 3.446918632874377 0 0 0
1180 2 2.4609999999999985 34.100616299416 3.446918632874377 0 0 0
1184 2 3.6914999999999996 31.969327780702493 3.446918632874377 0 0 0
1186 2 4.9220000000000015 32.67975728694034 3.446918632874377 0 0 0
1218 2 4.922000000000001 34.100616299416 3.446918632874377 0 0 0
1152 2 1.230500000000001 34.81104580565383 3.446918632874377 0 0 0
1182 2 3.691500000000002 34.81104580565383 3.446918632874377 0 0 0
1148 2 0 36.94233432436734 3.446918632874377 0 0 0
1172 2 0 38.36319333684299 3.446918632874377 0 0 0
1176 2 1.2304999999999993 36.231904818129486 3.446918632874377 0 0 0
1178 2 2.461000000000002 36.94233432436734 3.446918632874377 0 0 0
1210 2 2.4610000000000003 38.36319333684299 3.446918632874377 0 0 0
1214 2 3.6914999999999996 36.231904818129486 3.446918632874377 0 0 0
1216 2 4.922000000000001 36.942334324367316 3.446918632874377 0 0 0
1255 2 4.922000000000001 38.36319333684299 3.446918632874377 0 0 0
1174 2 1.230500000000001 39.07362284308084 3.446918632874377 0 0 0
1212 2 3.691500000000002 39.07362284308082 3.446918632874377 0 0 0
1135 2 0 31.258898274464656 6.316061544382798 0 0 0
1137 2 0 29.83803926198899 6.316061544382798 0 0 0
1157 2 2.4609999999999985 31.258898274464656 6.316061544382798 0 0 0
1159 2 2.4610000000000003 29.83803926198899 6.316061544382798 0 0 0
1447 2 0 29.83803926198899 9.185204455890297 0 0 0
1448 2 1.2304999999999993 30.54846876822683 9.185204455890297 0 0 0
1458 2 2.4610000000000003 29.83803926198899 9.185204455890297 0 0 0
1187 2 4.921999999999998 31.258898274464656 6.316061544382798 0 0 0
1189 2 4.922000000000001 29.83803926198899 6.316061544382798 0 0 0
1459 2 3.6915000000000004 30.54846876822683 9.185204455890297 0 0 0
1473 2 4.922000000000001 29.83803926198899 9.185204455890297 0 0 0
1151 2 0 34.100616299416 6.316061544382798 0 0 0
1153 2 1.2304999999999993 33.39018679317816 6.316061544382798 0 0 0
1155 2 1.2304999999999993 31.969327780702493 6.316061544382798 0 0 0
1181 2 2.4609999999999985 34.100616299416 6.316061544382798 0 0 0
1446 2 0 32.67975728694033 9.185204455890297 0 0 0
1454 2 0 34.100616299416 9.185204455890297 0 0 0
1456 2 1.2304999999999993 31.969327780702493 9.185204455890297 0 0 0
1457 2 2.4610000000000003 32.67975728694034 9.185204455890297 0 0 0
1469 2 2.4609999999999985 34.100616299416 9.185204455890297 0 0 0
1183 2 3.691499999999998 33.39018679317816 6.316061544382798 0 0 0
1185 2 3.6914999999999996 31.969327780702493 6.316061544382798 0 0 0
1219 2 4.922000000000001 34.100616299416 6.316061544382798 0 0 0
1221 2 6.152499999999999 33.39018679317816 6.316061544382798 0 0 0
1471 2 3.6914999999999996 31.969327780702493 9.185204455890297 0 0 0
1472 2 4.9220000000000015 32.67975728694034 9.185204455890297 0 0 0
1488 2 4.922000000000001 34.100616299416 9.185204455890297 0 0 0
1455 2 1.230500000000001 34.81104580565383 9.185204455890297 0 0 0
1470 2 3.691500000000002 34.81104580565383 9.185204455890297 0 0 0
1149 2 0 35.52147531189165 6.316061544382798 0 0 0
1173 2 0 38.36319333684299 6.316061544382798 0 0 0
1175 2 1.2304999999999993 37.65276383060515 6.316061544382798 0 0 0
1177 2 1.2304999999999993 36.231904818129486 6.316061544382798 0 0 0
1179 2 2.4609999999999985 35.52147531189166 6.316061544382798 0 0 0
1211 2 2.4610000000000003 38.36319333684299 6.316061544382798 0 0 0
1453 2 0 36.94233432436734 9.185204455890297 0 0 0
1465 2 0 38.36319333684299 9.185204455890297 0 0 0
1467 2 1.2304999999999993 36.231904818129486 9.185204455890297 0 0 0
1468 2 2.461000000000002 36.94233432436734 9.185204455890297 0 0 0
1484 2 2.4610000000000003 38.36319333684299 9.185204455890297 0 0 0
1213 2 3.6914999999999996 37.65276383060515 6.316061544382798 0 0 0
1215 2 3.6914999999999996 36.231904818129486 6.316061544382798 0 0 0
1217 2 4.922000000000001 35.52147531189166 6.316061544382798 0 0 0
1256 2 4.922000000000001 38.36319333684299 6.316061544382798 0 0 0
1258 2 6.152499999999998 37.65276383060515 6.316061544382798 0 0 0
1486 2 3.6914999999999996 36.231904818129486 9.185204455890297 0 0 0
1487 2 4.922000000000001 36.942334324367316 9.185204455890297 0 0 0
1506 2 4.922000000000001 38.36319333684299 9.185204455890297 0 0 0
1466 2 1.230500000000001 39.07362284308084 9.185204455890297 0 0 0
1485 2 3.691500000000002 39.07362284308082 9.185204455890297 0 0 0
2876 1 2.822290860932822 32.26282641709356 11.79863205367187 1 0 0
4037 1 0.6931603020158118 34.31651561962813 11.569789750680162 1 -1 -1
2993 1 1.5034849668765213 37.099715459231305 12.000381186620356 1 0 -1
2820 1 4.956716952419007 34.0186750281487 11.884597763719004 2 -1 1
839 1 4.474688622609499 36.7565003147648 11.605040944809833 1 -1 0
3827 1 3.430892499932444 29.518174898966087 11.768973914375207 0 -1 0
12 1 4.722054438387018 38.287712808791525 13.799604934377768 1 0 0
1985 1 2.739899275054752 31.925483662307784 24.830274918092822 0 0 0
960 1 0.9435704805273392 30.014778644707295 22.29138365375598 1 0 -1
3918 1 0.5148395638669178 33.41094934671531 24.81705216621436 1 0 -1
3963 1 1.1653435675455814 31.938924711755707 14.07312307041021 0 0 0
2035 1 2.6442638250948414 32.080414732589944 16.385405054385682 0 0 0
812 1 0.5342287979094792 37.9604324358149 16.26567786469488 0 0 -1
3997 1 2.2964266791624657 29.436217555667103 17.515152448160972 1 0 0
902 1 2.1419061978333107 36.18787107199653 14.537193537488784 0 0 -1
952 1 5.731807356955994 38.229253231733274 21.873953004985204 1 1 -1
949 1 4.075002695357935 38.322841435722424 16.69512961066524 1 -1 0
2910 1 5.926535157387805 33.11543093710551 24.798975056705878 -1 0 -1
2921 1 1.0602043443827551 35.99210271967452 22.744698289032947 2 -1 -1
3914 1 4.882165018221963 35.12082783921839 14.926137868436516 0 0 -1
2046 1 4.310661346077489 32.678308722205166 22.25101300742196 0 0 1
1914 1 2.1014982445320185 34.62841119548743 19.10249070658499 0 -1 0
1797 1 4.56280899239388 33.847571080124325 17.699707121468716 0 0 0
1062 1 2.246318793821151 37.51490347985642 18.832408740698206 1 0 0
2822 1 0.24248873558707945 32.84389374239627 17.749483226222083 0 0 0
4025 1 2.876279639564602 36.49572981931162 24.91535824081168 0 -1 1
3907 1 1.7060343162279994 33.34050757649196 21.791508591248604 0 1 0
926 1 3.9539983814813713 29.87466763577477 22.083006214433922 0 -1 -1
3006 1 4.202557879508193 30.51545281267304 14.378167011495735 2 -1 -1
1032 1 5.409307269385299 35.89350746259429 24.455437479918167 1 0 -1
2060 1 5.952078770940412 33.52993352975075 20.178359817906625 0 0 1
2068 1 0.08764653874720317 34.37442452306251 14.500660022073209 1 0 0
3956 1 3.2214123393881806 39.103035199196036 23.881726424243272 0 -1 0
1170 2 0 41.20491136179432 3.446918632874377 0 0 0
1206 2 1.230500000000001 40.494481855556494 3.446918632874377 0 0 0
1208 2 2.4610000000000003 41.20491136179432 3.446918632874377 0 0 0
1251 2 3.6914999999999996 40.494481855556494 3.446918632874377 0 0 0
1253 2 4.922000000000003 41.20491136179432 3.446918632874377 0 0 0
1296 2 6.152499999999998 40.494481855556494 3.446918632874377 0 0 0
1202 2 0 42.62577037427 3.446918632874377 0 0 0
1204 2 1.2304999999999993 43.33619988050783 3.446918632874377 0 0 0
1247 2 2.4610000000000003 42.62577037427 3.446918632874377 0 0 0
1249 2 3.691500000000002 43.33619988050783 3.446918632874377 0 0 0
1292 2 4.922000000000001 42.62577037426999 3.446918632874377 0 0 0
1200 2 0 45.46748839922133 3.446918632874377 0 0 0
1243 2 1.2304999999999993 44.757058892983494 3.446918632874377 0 0 0
1245 2 2.4610000000000003 45.46748839922133 3.446918632874377 0 0 0
1288 2 3.6914999999999996 44.757058892983494 3.446918632874377 0 0 0
1290 2 4.922000000000001 45.46748839922133 3.446918632874377 0 0 0
1239 2 0 46.888347411697 3.446918632874377 0 0 0
1241 2 1.230500000000001 47.59877691793481 3.446918632874377 0 0 0
1284 2 2.4609999999999985 46.888347411697 3.446918632874377 0 0 0
1286 2 3.6914999999999996 47.598776917934835 3.446918632874377 0 0 0
1329 2 4.922000000000001 46.888347411697 3.446918632874377 0 0 0
1171 2 0 39.78405234931866 6.316061544382798 0 0 0
1205 2 1.230500000000001 41.91534086803216 6.316061544382798 0 0 0
1207 2 1.230500000000001 40.494481855556494 6.316061544382798 0 0 0
1209 2 2.4610000000000003 39.78405234931866 6.316061544382798 0 0 0