
# Create simulation box and atoms

read_data data.graphite_substrate
  orthogonal box = (0 0 -0.0398667) to (49.22 49.0196 60.1019)
  4 by 4 by 4 MPI processor grid
  reading atoms ...
  6736 atoms
  reading velocities ...
  6736 velocities
group water type 1
3976 atoms in group water
group graphite type 2
2760 atoms in group graphite

# Define potential

pair_style sw
pair_coeff * * mWC.sw mW C
Reading potential file mWC.sw with DATE: 2019-02-27


# Fix graphite atoms in place

fix 5 graphite setforce 0.0 0.0 0.0
velocity graphite set 0.0 0.0 0.0


# Equilibration of molecular water

# Add velocity/set timestep

velocity	    water create ${TEMP} ${SEED} rot yes dist gaussian
velocity	    water create 225 ${SEED} rot yes dist gaussian
velocity	    water create 225 1449 rot yes dist gaussian
timestep	    5.0

# Define output

compute			1 water msd
compute			3 water temp
thermo	    	50
thermo_style	custom step temp press vol etotal ke pe c_1[4] c_3

# Neighbor lists

neigh_modify    delay 0 every 1 check yes

# Set fixes

fix             1 water momentum 10 linear 1 1 1 rescale
fix             2 water nve
fix             3 water temp/csvr ${TEMP} ${TEMP} 500.0 ${SEED}
fix             3 water temp/csvr 225 ${TEMP} 500.0 ${SEED}
fix             3 water temp/csvr 225 225 500.0 ${SEED}
fix             3 water temp/csvr 225 225 500.0 1449
fix             4 water press/berendsen z ${PRES} ${PRES} 1000.0 modulus 20000
fix             4 water press/berendsen z 1 ${PRES} 1000.0 modulus 20000
fix             4 water press/berendsen z 1 1 1000.0 modulus 20000

# Run 0.5 ns equilibration

dump		    1 all atom 2000 ${DIR}/eq.${NAME}-${TEMP}.dump
dump		    1 all atom 2000 run_14/eq.${NAME}-${TEMP}.dump
dump		    1 all atom 2000 run_14/eq.het_freeze_14-${TEMP}.dump
dump		    1 all atom 2000 run_14/eq.het_freeze_14-225.dump

reset_timestep  0

run	            100000
Neighbor list info ...
  update every 1 steps, delay 0 steps, check yes
  max neighbors/atom: 2000, page size: 100000
  master list distance cutoff = 7.76
  ghost atom cutoff = 7.76
  binsize = 3.88, bins = 13 13 16
  1 neighbor lists, perpetual/occasional/extra = 1 0 0
  (1) pair sw, perpetual
      attributes: full, newton on
      pair build: full/bin/atomonly
      stencil: full/bin/3d
      bin: standard
Per MPI rank memory allocation (min/avg/max) = 4.084 | 4.203 | 4.509 Mbytes
Step Temp Press Volume TotEng KinEng PotEng c_1[4] c_3 
       0     132.7951   -1147.9579    145106.76   -36018.829     2665.962   -38684.791            0          225 
      50    174.26843   -1079.7672    144564.98   -36397.496    3498.5704   -39896.066   0.83704742    295.26991 
     100    166.51548   -1132.8209    144092.93   -36824.246    3342.9241    -40167.17     1.874588    282.13378 
     150     159.7608   -789.44094    143594.17   -37163.546    3207.3187   -40370.864    2.7349565    270.68905 
     200    156.32308   -797.27227    143274.38   -37451.603    3138.3039   -40589.907    3.5157969    264.86439 
     250    151.26433   -1004.6009    142963.28   -37718.625    3036.7457   -40755.371    4.1745941    256.29315 
     300    148.80312   -703.38248    142528.44   -37848.727    2987.3351   -40836.062    4.8373677    252.12302 
     350    147.03949   -608.29478    142228.75   -38029.021    2951.9288    -40980.95     5.466783    249.13483 
     400    144.54439   -663.87998    142026.78   -38157.045     2901.838   -41058.883    6.0718784     244.9073 
     450    145.21243   -666.72649    141742.42   -38295.539    2915.2493   -41210.789    6.6612835    246.03918 
     500    143.59629   -310.69207    141533.56   -38381.543    2882.8041   -41264.347    7.2239084    243.30089 
     550    138.72249   -485.78847     141429.4   -38477.762    2784.9588    -41262.72    7.7013234    235.04301 
     600    140.12385   -382.03114    141245.88   -38550.238    2813.0922    -41363.33    8.1698172    237.41739 
     650    138.81633   -463.92167       140996   -38649.254    2786.8426   -41436.096    8.6665298      235.202 
     700    138.30564   -636.51255     140840.8   -38725.429    2776.5903   -41502.019    9.1110741    234.33673 
     750    133.72715   -549.96438    140636.72   -38775.529    2684.6736   -41460.202    9.5603766    226.57921 
     800    138.16634   -246.89453    140540.92   -38802.292    2773.7936   -41576.086     9.971742     234.1007 
     850    137.39817   -168.91947    140499.11   -38831.457    2758.3721   -41589.829    10.395292    232.79916 
     900    138.89931   -262.98105    140538.92   -38898.467    2788.5086   -41686.975    10.807758     235.3426 
     950    136.28418     -355.648    140487.39   -38942.232    2736.0079    -41678.24    11.261282    230.91169 
    1000    134.73034   -278.47235    140519.14   -38994.117    2704.8134    -41698.93    11.683689    228.27896 
    1050    135.05742   -436.41159    140463.63   -39016.301    2711.3798    -41727.68    11.954868    228.83314 
    1100    133.61953   -195.83524    140422.05    -39070.73     2682.513   -41753.243    12.294196    226.39686 
    1150    135.20743   -362.44242    140361.24   -39070.691    2714.3913   -41785.083    12.643135     229.0873 
    1200    133.53657   -368.64674    140343.07   -39127.064    2680.8476   -41807.912    13.077664     226.2563 
    1250    133.44935   -333.64884    140266.61    -39173.05    2679.0966   -41852.147    13.511245    226.10853 
    1300    132.47774   -306.16619    140277.01   -39136.031    2659.5908   -41795.622    13.859545    224.46229 
    1350    134.37869   -271.75007    140211.88   -39106.983    2697.7538   -41804.737    14.326565    227.68314 
    1400    136.10182   -149.12767    140193.63   -39103.008    2732.3469   -41835.355      14.6925    230.60271 
    1450    135.45317   -388.07405    140102.82   -39144.461    2719.3247   -41863.786    15.129557    229.50367 
    1500    134.77584   -226.77811    140117.24   -39177.331    2705.7269   -41883.058    15.394818    228.35605 
    1550    134.34674   -489.31014    140065.23   -39178.382    2697.1124   -41875.494    15.749857    227.62901 
    1600    135.43845    119.22656    140092.12   -39171.239    2719.0293   -41890.268    15.970464    229.47873 
    1650    135.80037   -75.351557     140184.7   -39155.492     2726.295   -41881.787    16.131581    230.09194 
    1700    133.29838   -222.02665    140233.37   -39168.124    2676.0656    -41844.19    16.408715    225.85272 
    1750    133.84979    16.440315    140178.52   -39212.052    2687.1358   -41899.188    16.715128    226.78701 
    1800    134.00162   -179.10475    140209.43   -39209.725    2690.1839   -41899.908    16.943051    227.04426 
    1850    133.46443   -54.788743    140225.17   -39172.781    2679.3993    -41852.18    17.181604    226.13407 
    1900    136.08331    -186.6638    140284.37   -39165.696    2731.9752   -41897.671    17.401266    230.57134 
    1950    134.18893   -141.78681    140389.15   -39181.737    2693.9442   -41875.681    17.627417    227.36162 
    2000    135.84914   -137.71733    140458.82   -39178.714    2727.2742   -41905.989    17.939542    230.17458 
    2050    136.38392   -398.63279     140362.2   -39152.628    2738.0103   -41890.638    18.222655    231.08069 
    2100     134.2425    3.3995247     140332.9   -39163.353    2695.0196   -41858.373    18.500297    227.45238 
    2150    132.32451   -232.74274    140363.76   -39194.195    2656.5145   -41850.709    18.781434    224.20265 
    2200    133.05475   -147.53688    140389.61   -39216.292    2671.1746   -41887.466    19.124831    225.43993 
    2250    135.52046   -244.41376    140426.23   -39170.724    2720.6757     -41891.4    19.573903    229.61769 
    2300    135.31046   -111.68876    140505.26   -39202.424    2716.4598   -41918.884    19.800195    229.26188 
    2350    133.74646   -74.074132    140623.89   -39270.562    2685.0612   -41955.623     20.00962    226.61192 
    2400    134.82125   -222.75316    140672.96   -39226.739    2706.6386   -41933.377    20.129395    228.43299 
    2450    132.88782   -35.119868    140716.47   -39271.666    2667.8233   -41939.489    20.340591    225.15709 
    2500    132.37921   -291.47714     140719.7   -39250.947    2657.6127    -41908.56    20.631548    224.29534 
    2550    135.00162   -285.11923    140753.99   -39213.519    2710.2596   -41923.779    20.977338     228.7386 
    2600    135.22554   -88.043575     140840.8   -39235.356    2714.7549   -41950.111    21.216754    229.11799 
    2650    133.45007   -52.056028    140957.31   -39245.124    2679.1111   -41924.235    21.420114    226.10975 
    2700    133.70779   -311.31219    140994.36   -39282.588    2684.2848   -41966.873    21.516017     226.5464 
    2750    134.75386   -279.62108     141010.2   -39282.325    2705.2856   -41987.611    21.804286    228.31881 
    2800    130.05226   -487.07368    141028.52   -39340.767    2610.8974   -41951.664    22.073318     220.3527 
    2850    133.06133   -234.64875    140979.97       -39322    2671.3068   -41993.307    22.335988    225.45109 
    2900    133.39227   -391.79502    140922.54   -39321.301    2677.9505   -41999.251    22.710607     226.0118 
    2950    134.40795   -116.96721    140904.09   -39320.445    2698.3412   -42018.786    22.937907    227.73272 
    3000    134.59083   -237.24909    140930.92   -39333.082    2702.0126   -42035.094    23.095542    228.04257 
    3050      131.577   -354.31472    140921.35   -39328.791    2641.5076   -41970.299    23.352473    222.93612 
    3100    134.46323   -277.95269     140904.2   -39367.304    2699.4509   -42066.755    23.546007    227.82637 
    3150    131.70592   -515.87564    140866.51   -39383.914    2644.0958    -42028.01    23.712459    223.15456 
    3200    130.79379   -16.778191    140906.75   -39390.812    2625.7842   -42016.596    23.862453    221.60911 
    3250    133.19853   -196.91064    140871.58   -39376.136    2674.0612   -42050.198    24.127691    225.68355 
    3300    131.96329   -321.36483    140823.82    -39383.29    2649.2629   -42032.553    24.322336    223.59064 
    3350    132.55245   -343.13862    140699.24   -39362.612    2661.0907   -42023.703    24.630008    224.58888 
    3400    131.27953   -233.43114    140634.09     -39395.7    2635.5358   -42031.235    24.740661    222.43211 
    3450    131.65625   -254.07104    140646.91    -39384.98    2643.0988   -42028.079    24.965283    223.07041 
    3500    130.94904   -140.06409     140619.4   -39350.945    2628.9008   -41979.846    25.114642    221.87214 
    3550    132.93172   -210.55645    140774.09   -39327.329    2668.7047   -41996.034    25.445032    225.23148 
    3600    133.06113    -232.5272    140801.26   -39389.199    2671.3027   -42060.502     25.73059    225.45074 
    3650    129.99331   -373.44624     140759.4   -39375.157     2609.714   -41984.871    25.960477    220.25282 
    3700    134.46773   -402.29171    140790.55   -39399.337    2699.5414   -42098.878    26.171801    227.83401 
    3750    133.25415   -74.279623    140719.36   -39383.214    2675.1778   -42058.392    26.302811    225.77779 
    3800    131.51596   -153.78809    140688.29   -39376.317    2640.2823   -42016.599    26.557681     222.8327 
    3850    133.23436   -187.52026    140707.28   -39394.467    2674.7805   -42069.248    26.737761    225.74426 
    3900    134.05023    -163.6721    140734.48   -39313.274    2691.1596   -42004.434     26.75754    227.12661 
    3950    134.61838   -218.65967     140725.7   -39289.316    2702.5658   -41991.882    26.950034    228.08926 
    4000    133.63694   -127.01521    140815.15   -39393.136    2682.8625   -42075.998    27.251895    226.42636 
    4050    131.79743   -15.030045    140825.33   -39402.827    2645.9331    -42048.76    27.642812    223.30961 
    4100    133.98436   -139.13978    140897.54   -39407.876    2689.8373   -42097.713    27.822516    227.01501 
    4150    133.82297   -350.70479    140876.55   -39376.377    2686.5973   -42062.974    27.969197    226.74156 
    4200    133.69373   -288.12162    140857.83   -39380.605    2684.0026   -42064.607    28.206278    226.52258 
    4250    133.39041   -47.858917    140836.42   -39357.491    2677.9132   -42035.404    28.460837    226.00865 
    4300    133.42842   -287.36508    140791.75   -39379.403    2678.6764    -42058.08    28.730882    226.07306 
    4350     135.6088   -194.69845    140813.66   -39334.806    2722.4491   -42057.255    29.049126    229.76736 
    4400    135.18637    -418.0696    140731.01   -39281.928    2713.9686   -41995.897    29.292303    229.05163 
    4450    135.21306   -178.17656    140714.42   -39287.555    2714.5044   -42002.059    29.420182    229.09685 
    4500    134.57623   -74.287252    140751.22   -39306.647    2701.7196   -42008.366    29.685172    228.01785 
    4550     133.2317      -275.52    140691.58   -39333.127     2674.727   -42007.854    29.952094    225.73974 
    4600    133.96519   -191.88319    140755.94   -39357.883    2689.4524   -42047.335    30.221242    226.98253 
    4650    133.97412   -197.20442    140773.97   -39350.396    2689.6316   -42040.027    30.632786    226.99765 
    4700    134.58731   -253.72912    140756.33   -39352.095     2701.942   -42054.037    30.888632    228.03662 
    4750    131.24948   -78.088399    140702.86   -39352.449    2634.9324   -41987.381    31.200887    222.38119 
    4800    134.83136   -263.46378    140733.53   -39328.709    2706.8415   -42035.551    31.521814    228.45012 
    4850    131.14533    -280.3036    140712.64   -39299.052    2632.8416   -41931.893    31.899507    222.20473 
    4900    136.77145   -283.56089    140724.04   -39261.301    2745.7901   -42007.091    32.142576    231.73728 
    4950    132.69393   -201.16439    140777.46   -39312.898    2663.9309   -41976.829    32.585994    224.82858 
    5000    134.44331   -208.91407    140693.32    -39316.06     2699.051    -42015.11    32.884371    227.79262 
    5050    133.22674   -181.04878    140546.95   -39345.401    2674.6275   -42020.028    32.946003    225.73135 
    5100    135.86076   -217.58501    140574.76   -39338.496    2727.5074   -42066.004    32.994132    230.19426 
    5150    131.78875   -253.82529    140535.55   -39353.426    2645.7587   -41999.185    33.306871     223.2949 
    5200    133.70587   -341.58476    140437.23   -39355.524    2684.2464   -42039.771    33.583439    226.54316 
    5250    134.94942   -91.150123     140403.3   -39366.391    2709.2116   -42075.602    33.726371    228.65015 
    5300    135.07295   -238.47083    140354.08   -39377.842    2711.6916   -42089.533    34.042763    228.85945 
    5350    133.91776   -55.450474    140226.07   -39343.565    2688.5003   -42032.065    34.402424    226.90217 
    5400    134.33345   -223.28451     140249.4   -39378.134    2696.8455    -42074.98    34.605573    227.60648 
    5450     134.2052   -157.74687    140191.95   -39430.904    2694.2707   -42125.175    34.790276    227.38918 
    5500    133.43566   -12.168129    140178.72   -39414.231    2678.8217   -42093.052    34.811561    226.08532 
    5550    131.71076   -178.89614    140231.66   -39432.493    2644.1931   -42076.686    35.017244    223.16276 
    5600    131.82286   -126.58823    140301.04   -39451.563    2646.4436   -42098.007    35.159438     223.3527 
    5650    132.37281   -165.69759    140344.88   -39445.867    2657.4843   -42103.351    35.215603     224.2845 
    5700    132.13623   -78.777526    140407.63   -39446.733    2652.7347   -42099.468    35.297214    223.88365 
    5750    132.78664   -129.65038     140478.8   -39372.957    2665.7922   -42038.749    35.620979    224.98567 
    5800     133.1084   -308.97617    140487.27    -39375.65    2672.2518   -42047.902    35.692449    225.53084 
    5850    135.38088   -123.28185    140477.62   -39409.723    2717.8734   -42127.597    35.814455    229.38119 
    5900    133.99044   -133.30504    140521.82   -39436.729    2689.9594   -42126.689    36.091328    227.02532 
    5950    132.16597   -296.83468    140527.02   -39503.057    2653.3317   -42156.389    36.200677    223.93403 
    6000    129.63914   -120.46196     140471.8   -39507.792    2602.6037   -42110.396    36.410712    219.65273 
    6050    132.70805    -467.9273    140446.36   -39476.127    2664.2144   -42140.341    36.539195    224.85251 
    6100    132.14334   -260.33962    140440.13   -39485.981    2652.8774   -42138.859    36.859447     223.8957 
    6150    131.88446   -302.70142    140478.64   -39468.601    2647.6801   -42116.281    37.208398    223.45706 
    6200    135.08155   -85.281909    140448.59   -39403.603    2711.8643   -42115.468    37.575543    228.87403 
    6250    130.51892   -11.937217    140494.87   -39410.542    2620.2659   -42030.808      37.7862    221.14337 
    6300    131.31994   -121.79879    140519.34    -39411.82    2636.3471   -42048.167    37.968626    222.50058 
    6350    132.81619   -42.825529    140590.37   -39380.902    2666.3853   -42047.287    38.125234    225.03573 
    6400     133.4713   -337.63402    140591.87   -39414.803    2679.5371    -42094.34    38.509804    226.14571 
    6450    132.09146   -116.39072    140530.48   -39414.751    2651.8358   -42066.587    38.847292    223.80779 
    6500    129.82825   -258.29896    140502.83   -39458.007    2606.4002   -42064.408    38.994361    219.97315 
    6550    130.63941   -130.67099    140506.17   -39434.109    2622.6848   -42056.794    39.172885    221.34752 
    6600    133.22946   -229.65581    140553.54   -39417.511    2674.6821   -42092.193    39.428887    225.73596 
    6650    130.48095   -224.19581     140494.3   -39403.772    2619.5037   -42023.276    39.597879    221.07905 
    6700    132.88289   -188.86126    140446.67   -39390.004    2667.7245   -42057.729    39.851177    225.14875 
    6750    131.21405    -227.6415    140444.56   -39357.553    2634.2212   -41991.774    40.124735    222.32117 
    6800    130.69358   -216.17341    140454.63   -39308.405    2623.7724   -41932.177    40.225218    221.43931 
    6850    132.34658   -311.83323    140493.06   -39355.219    2656.9577   -42012.177    40.386656    224.24006 
    6900    130.99033   -94.239831    140536.97   -39388.683    2629.7299   -42018.413    40.820742    221.94211 
    6950    131.27832    -83.06319     140572.3   -39401.881    2635.5115   -42037.393    41.099314    222.43006 
    7000    135.21155   -202.00623    140544.66   -39374.298     2714.474   -42088.772    41.590134    229.09428 
    7050    130.87244   -307.51329    140521.77   -39409.831    2627.3632   -42037.195    41.932301    221.74236 
    7100    133.27635   -201.68783    140542.42   -39443.314    2675.6234   -42118.938    42.282185     225.8154 
    7150    133.27526   -99.695809    140554.95   -39410.215    2675.6016   -42085.817    42.355264    225.81355 
    7200    133.09255   -114.66948    140527.41   -39449.564    2671.9335   -42121.498    42.544735    225.50398 
    7250     132.0011   -163.97492    140562.12   -39419.338    2650.0219    -42069.36    42.682609     223.6547 
    7300    134.26278   -260.78758     140537.8    -39427.03    2695.4268   -42122.456    42.944776    227.48675 
    7350    130.92867    -309.0559    140511.59   -39447.879    2628.4921   -42076.371    43.239858    221.83764 
    7400    132.97389   -184.71989    140506.63   -39399.255    2669.5514   -42068.806    43.443642    225.30293 
    7450    135.56236   -147.96241    140537.32   -39370.144    2721.5169   -42091.661    43.588785    229.68868 
    7500    132.34945   -92.313519    140503.81    -39388.51    2657.0152   -42045.525     43.86141    224.24492 
    7550     133.5608    10.657216     140564.7   -39421.694    2681.3341   -42103.028    43.973762    226.29736 
    7600    131.52537   -118.68068    140594.43   -39467.909    2640.4712    -42108.38    44.105283    222.84865 
    7650    131.99744    -70.60096    140637.53   -39482.187    2649.9483   -42132.135    44.370901    223.64849 
    7700    131.85051    -192.1339    140670.85   -39493.044    2646.9986   -42140.043     44.65264    223.39954 
    7750    132.43305    37.616354    140728.27   -39475.737    2658.6936    -42134.43    44.884244    224.38657 
    7800    132.55651   -155.93241    140714.46   -39400.938     2661.172    -42062.11    44.986472    224.59574 
    7850    133.83612   -217.88524    140801.68   -39386.195    2686.8613   -42073.057    45.069684    226.76384 
    7900    130.68691   -228.72061    140877.14   -39401.872    2623.6385   -42025.511    45.224794    221.42802 
    7950     130.4353   -131.78401     140893.8   -39402.127    2618.5872   -42020.714    45.394162     221.0017 
    8000    132.07041   -383.98219    140938.23   -39433.167    2651.4133    -42084.58    45.552993    223.77213 
    8050     132.2796   -242.36463    140832.58   -39458.599     2655.613   -42114.212    45.787356    224.12657 
    8100    132.73816   -181.68707     140865.7   -39435.869    2664.8188   -42100.688    45.952529    224.90352 
    8150    132.92559   -226.32962    140823.61   -39391.902    2668.5818   -42060.484    46.218145     225.2211 
    8200     132.7543   -54.488505    140792.29   -39418.838    2665.1429   -42083.981    46.533143    224.93087 
    8250    133.21484    -252.6012    140866.99       -39378    2674.3885   -42052.388    46.634998    225.71117 
    8300    132.36896   -98.522899    140843.86   -39361.094    2657.4068   -42018.501    46.851108    224.27797 
    8350     134.0009    95.354712    140845.29   -39321.838    2690.1692   -42012.008    47.042884    227.04303 
    8400    132.79858    12.855172    140869.15    -39337.69    2666.0318   -42003.721    47.273159    225.00589 
    8450    135.29394   -213.13975    140881.33   -39396.547     2716.128   -42112.675    47.626558    229.23388 
    8500    134.89996    85.001155    140822.66   -39354.467    2708.2186   -42062.686    47.928778    228.56634 
    8550    134.34032   -165.03793    140844.03   -39384.566    2696.9834   -42081.549    48.229104    227.61812 
    8600    133.70158   -358.75791    140857.72   -39385.007    2684.1603   -42069.168    48.522064    226.53589 
    8650    134.92397   -322.80229    140807.35   -39365.018    2708.7007   -42073.719    48.697899    228.60704 
    8700    134.87785   -204.13621    140808.06   -39296.912    2707.7747   -42004.687    48.892543    228.52888 
    8750    131.67142   -86.105773    140705.01   -39346.104    2643.4033   -41989.507    49.369539     223.0961 
    8800    135.26133   -316.89219    140711.53   -39357.628    2715.4733   -42073.102    49.473667    229.17863 
    8850    132.76023   -289.14088    140696.42   -39353.291    2665.2619   -42018.553    49.717342    224.94092 
    8900    132.96438     -381.215    140654.05   -39350.346    2669.3604   -42019.706    50.088866    225.28682 
    8950    132.86198   -354.29616    140661.09   -39385.756    2667.3047    -42053.06    50.084646    225.11332 
    9000     133.8251    2.9949994    140618.22   -39376.037      2686.64   -42062.677    50.337565    226.74517 
    9050    132.83421   -160.30532    140696.14   -39384.069    2666.7471   -42050.817    50.784877    225.06626 
    9100    135.13649   -84.046898    140728.91   -39383.312    2712.9673   -42096.279    51.078875    228.96712 
    9150    134.46458   -106.59431    140805.46   -39394.105     2699.478   -42093.583    51.281259    227.82866 
    9200    133.27374   -137.83232    140778.41   -39402.305    2675.5711   -42077.876    51.365381    225.81099 
    9250    131.25518    -88.95186    140828.33   -39442.664    2635.0469   -42077.711    51.643734    222.39085 
    9300    132.30006   -166.15957    140778.46   -39390.763    2656.0237   -42046.787    51.953848    224.16124 
    9350    134.57094   -264.21504    140778.91   -39342.957    2701.6133    -42044.57     52.07402    228.00887 
    9400    132.75262   -132.19823    140818.63   -39337.203    2665.1091   -42002.312    52.350092    224.92802 
    9450    133.40283    -204.1405    140808.95   -39368.043    2678.1626   -42046.206    52.570538     226.0297 
    9500    132.12458   -428.24617    140754.62   -39454.471    2652.5008   -42106.972     52.89819    223.86392 
    9550    132.16675   -304.96205    140779.41    -39462.73    2653.3474   -42116.078    52.975123    223.93537 
    9600    133.28063   -402.68798     140801.7   -39440.021    2675.7093    -42115.73    53.196437    225.82265 
    9650    132.61367   -182.04423    140790.67   -39434.087    2662.3197   -42096.407    53.470923     224.6926 
    9700    130.08816    -63.93538    140813.07   -39437.089     2611.618   -42048.707    53.821579    220.41352 
    9750    131.55375   -302.84845    140787.87   -39461.105    2641.0409   -42102.146    54.171407    222.89673 
    9800    132.22546   -164.54412    140807.35   -39423.264    2654.5261   -42077.791    54.267506    224.03484 
    9850     130.0846   -282.32033    140811.85   -39438.807    2611.5466   -42050.353    54.717562    220.40749 
    9900    132.96671   -128.55215    140836.15   -39353.195    2669.4071   -42022.602    54.994028    225.29076 
    9950    132.54858   -238.80375    140877.52   -39376.677    2661.0129   -42037.689    54.988632    224.58231 
   10000    132.89846   -176.26499     140828.6   -39356.296    2668.0369   -42024.333    55.238512    225.17512 
   10050     133.8691   -214.49363    140871.14   -39344.098    2687.5233   -42031.622    55.319732    226.81972 
   10100    133.20552   -311.28389    140865.24   -39383.808    2674.2015    -42058.01    55.439166    225.69539 
   10150    132.73817    -229.8135    140860.83   -39364.076    2664.8191   -42028.895    55.659202    224.90354 
   10200    133.91206   -421.89206    140843.18   -39374.814    2688.3858     -42063.2    55.896144    226.89251 
   10250    132.92074   -255.28247    140738.27   -39359.664    2668.4843   -42028.149    56.016674    225.21287 
   10300    133.64178   -226.41079     140685.1   -39365.187    2682.9597   -42048.147    56.317395    226.43456 
   10350    132.68986   -252.56122    140657.38   -39393.342    2663.8492   -42057.191     56.39963    224.82169 
   10400    133.06228   -224.90905    140699.16   -39397.136    2671.3258   -42068.461    56.527848    225.45269 
   10450    132.90569   -305.22109     140741.1   -39404.425    2668.1821   -42072.608    56.843677    225.18737 
   10500    133.80429   -249.66345    140706.24    -39348.87    2686.2223   -42035.092    56.718008    226.70991 
   10550    134.74833   -305.74969    140724.87   -39356.088    2705.1746   -42061.263    57.076383    228.30944 
   10600    133.17289   -176.75768    140747.08   -39359.372    2673.5463   -42032.918    57.587628     225.6401 
   10650    135.25775   -185.33709    140742.28   -39333.315    2715.4016   -42048.716     57.90619    229.17257 
   10700    133.68377   -299.11224    140624.21   -39328.729    2683.8027   -42012.532    58.220109    226.50571 
   10750    132.46786   -25.227858    140620.07   -39364.466    2659.3924   -42023.858    58.314414    224.44554 
   10800    135.22964   -202.66118    140597.45   -39420.704    2714.8373   -42135.541    58.534379    229.12494 
   10850    131.84283   -300.28638    140624.79   -39479.871    2646.8445   -42126.715    58.886411    223.38654 
   10900     131.6822   -166.77856    140643.31   -39443.705    2643.6197   -42087.324    59.017375    223.11437 
   10950    129.48996   -183.70287    140674.69   -39477.076    2599.6089   -42076.685     59.24828    219.39998 
   11000    126.71253   -267.25928    140643.07   -39537.503    2543.8498   -42081.352    59.486254    214.69406 
   11050    132.10803   -224.76418     140643.9   -39492.521    2652.1685    -42144.69      59.4452    223.83586 
   11100    132.71725   -158.96575    140647.21   -39450.829    2664.3991   -42115.228    59.258637     224.8681 
   11150     131.1942   -148.20448    140688.46   -39424.794    2633.8226   -42058.617    59.506329    222.28753 
   11200    132.60271   -218.29039       140681   -39436.755    2662.0997   -42098.854    59.671616    224.67403 
   11250    131.71074   -188.25994    140695.01   -39468.152    2644.1927   -42112.345    60.196152    223.16273 
   11300    133.01474   -269.12383    140779.29   -39457.597    2670.3714   -42127.969    60.411117    225.37214 
   11350    132.62374   -159.06346    140780.11   -39429.738    2662.5219    -42092.26    60.630423    224.70966 
   11400    132.23095   -108.51468    140832.64   -39421.116    2654.6362   -42075.752    60.720086    224.04413 
   11450    135.73403   -164.87307    140870.59   -39327.812    2724.9633   -42052.775    60.833443    229.97955 
   11500    135.50866    -373.3917    140812.33   -39345.579    2720.4388   -42066.018    61.044698     229.5977 
   11550    132.19931   -156.53079    140884.15   -39361.043     2654.001   -42015.044    61.244102    223.99052 
   11600     134.0699   -257.26392    140840.57   -39393.736    2691.5546    -42085.29    61.303825    227.15994 
   11650    135.08597   -328.42894    140874.23   -39381.527    2711.9529    -42093.48    61.468527    228.88151 
   11700    131.20608   -248.52925    140906.18   -39433.937    2634.0612   -42067.998    61.595491    222.30766 
   11750    134.62059   -308.06182    140901.86   -39399.146    2702.6102   -42101.756    62.031356    228.09301 
   11800    134.43245   -324.15858    140852.88   -39393.535     2698.833   -42092.368    62.228958    227.77422 
   11850    133.74606   -349.86577     140819.8   -39403.741    2685.0531   -42088.794    62.293504    226.61124 
   11900    134.39171   -68.666777    140781.36   -39399.345    2698.0151    -42097.36    62.573634     227.7052 
   11950    133.82291   -189.97053     140813.1   -39377.929    2686.5961   -42064.526    62.852043    226.74146 
   12000    134.80747    -187.7458    140795.64   -39380.202    2706.3619   -42086.564    63.040984    228.40964 
   12050    131.86518    -217.5904    140745.26   -39421.545     2647.293   -42068.838    63.335429    223.42439 
   12100    131.47734   -215.72438    140633.14   -39438.286    2639.5069   -42077.793    63.652804    222.76726 
   12150    133.01579    -41.63539    140613.37   -39403.579    2670.3924   -42073.971    63.984763    225.37392 
   12200    131.76105   -152.36495    140653.97   -39399.028    2645.2027   -42044.231    63.890866    223.24797 
   12250    133.38481   -174.85121    140613.26   -39372.468    2677.8008   -42050.269    64.116754    225.99916 
   12300    129.78811     -264.119    140604.96   -39411.792    2605.5943   -42017.386    64.393365    219.90513 
   12350    134.39881   -350.71067    140678.56   -39437.943    2698.1577   -42136.101    64.390124    227.71723 
   12400    132.59743    -243.7261    140719.23   -39461.555    2661.9936   -42123.549    64.627384    224.66508 
   12450    133.32776   -48.375595    140758.39   -39427.043    2676.6556   -42103.698    64.795575    225.90251 
   12500    134.17766   -280.79537    140690.72    -39405.59    2693.7178   -42099.308    65.084715    227.34252 
   12550    130.45527    35.437847    140720.74   -39386.413    2618.9881   -42005.402    65.255154    221.03553 
   12600    132.74002   -117.74304    140757.55   -39431.028    2664.8562   -42095.884    65.440807    224.90668 
   12650    133.56163   -84.643666    140766.45    -39442.73    2681.3507   -42124.081    65.622128    226.29877 
   12700    131.88946   -127.39644    140695.69   -39389.516    2647.7806   -42037.296    65.857396    223.46554 
   12750    132.90059    -113.3575    140756.59   -39399.716    2668.0797   -42067.796     65.94003    225.17873 
   12800    133.96745   -188.82451    140794.09   -39365.876    2689.4978   -42055.374    65.965558    226.98636 
   12850    133.05592    -202.5868    140787.45   -39360.618    2671.1981   -42031.816    66.024616    225.44192 
   12900    131.65747   -338.12677    140728.75   -39378.257    2643.1232    -42021.38    66.238665    223.07247 
   12950    130.50449   -215.59484    140666.12   -39439.401    2619.9763   -42059.377    66.626639    221.11893 
   13000    132.03364   -305.43011    140645.46   -39379.376    2650.6751   -42030.051     66.84335    223.70983 
   13050    133.61301   -273.09251    140644.38   -39363.594    2682.3822   -42045.976    67.134125    226.38582 
   13100     134.9219   -201.98572    140647.33   -39283.447    2708.6592   -41992.106    67.382603    228.60353 
   13150    134.76256   -253.51571    140694.86   -39297.156    2705.4602   -42002.616    67.627307    228.33354 
   13200    137.05153   -92.016758    140690.21   -39257.469    2751.4131   -42008.882     68.03808    232.21184 
   13250    134.04889   -108.64073    140746.13   -39264.591    2691.1328   -41955.724     68.55646    227.12435 
   13300    131.42005   -100.03478    140760.28   -39263.824    2638.3567    -41902.18    68.717276    222.67019 
   13350    133.32666   -147.18226    140763.73   -39319.823    2676.6334   -41996.456    69.059787    225.90064 
   13400    132.35849   -389.78041    140725.99   -39259.408    2657.1967   -41916.605    69.309345    224.26023 
   13450    133.57361   -236.47614    140654.19   -39283.575    2681.5911   -41965.166    69.483077    226.31906 
   13500    134.44131   -93.559936    140696.61   -39279.544    2699.0109   -41978.555    69.590944    227.78924 
   13550    134.89798   -322.36023    140717.84   -39315.579    2708.1789   -42023.758    69.739604      228.563 
   13600    132.44028   -421.75991    140615.59   -39306.704    2658.8387   -41965.543    69.919216    224.39881 
   13650    134.19877   -217.55733    140522.68   -39290.142    2694.1417   -41984.283    69.908323    227.37829 
   13700     133.9127   -251.80549    140460.01   -39324.978    2688.3986   -42013.376    70.072004    226.89359 
   13750    135.18948   -217.70821    140408.26   -39353.194     2714.031   -42067.225    70.166233    229.05689 
   13800    134.41506   -208.45374    140352.66   -39341.323    2698.4838   -42039.807    70.508269    227.74475 
   13850    131.90933   -3.9893062    140320.92   -39360.032    2648.1795   -42008.211    70.739681    223.49921 
   13900    130.50228   -122.93809    140329.54   -39332.715    2619.9318   -41952.647    71.022971    221.11518 
   13950    132.81122    131.64505    140375.16    -39303.07    2666.2855   -41969.356    71.315583     225.0273 
   14000    134.80082   -33.866321    140442.12   -39274.682    2706.2283   -41980.911    71.625948    228.39837 
   14050    135.49382   -330.14994    140489.08   -39322.352    2720.1408   -42042.493    72.105669    229.57255 
   14100    133.87951   -289.01298    140461.06   -39339.296    2687.7324   -42027.029    72.293409    226.83736 
   14150    133.80386   -390.42123    140416.58   -39382.757    2686.2135    -42068.97    72.433092    226.70917 
   14200    135.37947   -244.44068    140369.89   -39382.377    2717.8453   -42100.222    72.741119    229.37881 
   14250    132.76058   -146.77427    140321.44   -39374.347     2665.269   -42039.616    72.988845    224.94151 
   14300    134.49195   -229.89794    140266.51   -39410.734    2700.0276   -42110.762     73.17784    227.87505 
   14350    131.12253   -115.85549    140351.62   -39423.659    2632.3839   -42056.043    73.358738     222.1661 
   14400     135.2024   -71.750912     140407.3   -39363.857    2714.2904   -42078.147    73.473166    229.07879 
   14450     132.8208   -46.308592    140478.68   -39368.351    2666.4779   -42034.829    73.644911    225.04354 
   14500     131.9546   -23.617895    140514.91   -39376.699    2649.0882   -42025.787    73.990232     223.5759 
   14550    134.56152   -244.79245    140608.45   -39366.626    2701.4242    -42068.05    74.186776    227.99292 
   14600    132.73969   -168.93615     140588.3   -39365.506    2664.8497   -42030.356    74.349789    224.90612 
   14650    132.91065   -191.27546    140582.06   -39362.472    2668.2817   -42030.753    74.750138    225.19577 
   14700    134.06356   -305.66826    140608.99   -39370.625    2691.4273   -42062.052    74.957867     227.1492 
   14750    131.16127   -324.05545    140690.81   -39354.026    2633.1615   -41987.188    75.184427    222.23173 
   14800     136.5491   -218.64281    140643.93   -39301.923    2741.3264    -42043.25    75.419124    231.36055 
   14850    134.59679   -194.70396    140688.77   -39339.329    2702.1322   -42041.461    75.546814    228.05267 
   14900    133.28089   -286.57959    140757.39   -39395.282    2675.7145   -42070.996     75.59784    225.82309 
   14950     133.1809   -65.414044     140811.1   -39418.279    2673.7071   -42091.986     76.00897    225.65367 
   15000    130.70507   -192.05861    140878.21   -39448.545     2624.003   -42072.548    76.448176    221.45878 
   15050    132.33331   -399.81704    140918.99    -39477.75    2656.6913   -42134.441    76.689143    224.21758 
   15100    130.56008   -274.68237    140858.92   -39454.301    2621.0922   -42075.393     76.84362    221.21311 
   15150    135.11479   -47.239678    140871.47   -39397.422    2712.5316   -42109.953    77.174073    228.93035 
   15200    131.79075   -102.39361    140854.21   -39380.385    2645.7988   -42026.184    77.579466    223.29828 
   15250    133.62135   -162.22639    140856.33    -39349.74    2682.5495   -42032.289    78.034964    226.39994 
   15300    133.04901   -356.55892    140819.51   -39369.667    2671.0594   -42040.726     78.32219    225.43021 
   15350    132.59394   -265.91091    140694.47   -39365.654    2661.9235   -42027.577    78.463752    224.65916 
   15400    134.24704   -124.25149    140718.41   -39378.778    2695.1108   -42073.888    78.580185    227.46008 
   15450    131.68956   -208.21234    140660.84   -39385.738    2643.7674   -42029.506    78.900654    223.12684 
   15500    134.16663    -46.10671    140660.97   -39384.243    2693.4965   -42077.739    79.160221    227.32384 
   15550    131.21082   -13.963588       140711   -39418.452    2634.1564   -42052.608    79.479851     222.3157 
   15600    130.61014   -79.829383    140713.82   -39464.852    2622.0973    -42086.95    79.818861    221.29794 
   15650    131.26682   -67.597575    140692.69   -39456.162    2635.2806   -42091.443    79.924183    222.41058 
   15700    131.85814   -109.40792    140766.66   -39385.482    2647.1519   -42032.634    80.243284    223.41248 
   15750    132.47391   -180.32734    140806.79   -39434.417    2659.5139   -42093.931    80.196059    224.45579 
   15800    131.74783   -86.903652    140888.44   -39432.082    2644.9373    -42077.02    80.153998    223.22557 
   15850    130.67907   -351.11312    141019.39   -39486.445    2623.4812   -42109.927    80.186816    221.41473 
   15900    131.30174   -292.91886    140993.71   -39465.005    2635.9817   -42100.987     80.32922    222.46974 
   15950    132.07363   -183.38206    140976.84   -39497.533    2651.4779   -42149.011    80.141487    223.77759 
   16000    129.47695   -130.33652    141050.89   -39542.902    2599.3476   -42142.249    80.080345    219.37793 
   16050    130.36854   -256.46563     141041.2   -39567.288     2617.247   -42184.535    80.284179    220.88859 
   16100    132.82877   -310.21282    140981.08   -39541.347     2666.638   -42207.985    80.283447    225.05705 
   16150    131.72026   -113.23867    140994.08   -39502.459    2644.3837   -42146.843    80.620441    223.17885 
   16200    127.64899   -64.021017    141006.03   -39531.465      2562.65   -42094.115    80.908399    216.28075 
   16250    133.14593   -84.864139    141057.78   -39491.022    2673.0051   -42164.027    81.088725    225.59442 
   16300     130.2905   -50.710559    141099.24   -39469.677    2615.6803   -42085.357    81.473242    220.75636 
   16350    130.70133   -250.02121    141130.05   -39489.411     2623.928   -42113.339    81.482801    221.45244 
   16400    131.34777   -206.80274    141074.06   -39495.841    2636.9058   -42132.747    81.727832    222.54774 
   16450    131.32054   -201.66833    141008.75   -39481.749     2636.359   -42118.108    81.793474    222.50159 
   16500    132.95385   -227.01768    141021.46   -39478.006    2669.1489   -42147.155    82.122429    225.26897 
   16550    132.49831   -214.92859    141013.08   -39456.981    2660.0036   -42116.984    82.585921    224.49713 
   16600    131.66287   -225.71289    141007.66   -39507.183    2643.2316   -42150.415    82.882621    223.08162 
   16650    132.78129   -169.93003    141071.92   -39515.229    2665.6847   -42180.913    83.156973    224.97659 
   16700    131.14208   -220.37476    141035.73   -39554.708    2632.7763   -42187.484    83.402752    222.19922 
   16750    130.01399   -338.07908    141002.35   -39545.992    2610.1292   -42156.121    83.738018    220.28786 
   16800    133.21641   -239.67947    140911.25   -39511.184    2674.4202   -42185.604    84.166641    225.71385 
   16850    133.12622   -183.80307    140857.49   -39463.407    2672.6094   -42136.017    84.608214    225.56102 
   16900    132.60474   -63.210543    140842.08   -39475.772    2662.1404   -42137.912    84.859765    224.67747 
   16950    134.64246   -374.60575    140786.07   -39483.073    2703.0491   -42186.122    85.020145    228.13005 
   17000    134.80049   -380.51402    140732.32   -39469.499    2706.2218    -42175.72    85.424373    228.39782 
   17050    132.81598   -98.240295    140681.88   -39431.846    2666.3811   -42098.228    85.805256    225.03537 
   17100    130.15567   -349.89757    140640.51   -39491.549    2612.9735   -42104.522    86.207463    220.52792 
   17150     133.8832    38.803512    140693.59   -39390.123    2687.8064   -42077.929    86.561259    226.84361 
   17200    134.28966   -176.71628     140767.4   -39335.998    2695.9665   -42031.965    86.913733     227.5323 
   17250    135.05781   -299.45928    140790.68   -39340.197    2711.3877   -42051.584    87.279698    228.83381 
   17300    134.05371   -70.663636    140806.62   -39357.809    2691.2295   -42049.039    87.611568    227.13251 
   17350    134.91847   -255.73979    140808.91   -39392.673    2708.5902   -42101.263    87.960551     228.5977 
   17400    134.32799   -306.15784    140780.21   -39401.904    2696.7359   -42098.639    88.258518    227.59723 
   17450    133.72723   -111.05137    140770.94   -39416.853    2684.6753   -42101.528    88.197294    226.57935 
   17500    137.08811    -315.5911    140840.15   -39423.227    2752.1474   -42175.375    88.297222    232.27381 
   17550    133.36684   -64.714179    140803.44   -39467.254      2677.44   -42144.694    88.326657    225.96871 
   17600    132.90454   -161.52211    140845.05   -39486.296    2668.1591   -42154.455    88.589361    225.18543 
   17650    134.16319   -109.73706    140935.87   -39487.765    2693.4275   -42181.192    88.792693    227.31801 
   17700     135.6293   -90.166671    140956.91   -39511.769    2722.8607    -42234.63    89.367344     229.8021 
   17750    135.80122    -172.8169    140959.11   -39455.175    2726.3122   -42181.487    89.372104     230.0934 
   17800       134.82    31.159142    141038.94   -39475.136    2706.6134    -42181.75    89.663615    228.43087 
   17850    133.48216   -287.71662    141055.14   -39445.015    2679.7553    -42124.77    89.987097    226.16412 
   17900     136.6869   -77.426908    140988.91   -39382.952    2744.0928   -42127.045    90.260875    231.59403 
   17950    136.29806   -157.40007    140985.44   -39386.051    2736.2866   -42122.338    90.497564    230.93521 
   18000     136.0624   -153.93862    140987.35   -39393.221    2731.5555   -42124.777    90.635948    230.53591 
   18050    134.03663   -75.057764    140950.45   -39387.501    2690.8866   -42078.388    90.991167    227.10357 
   18100    132.88639   -303.74159    141035.25   -39442.464    2667.7947   -42110.258    91.217246    225.15468 
   18150     133.0865   -167.07745    140996.73   -39433.312    2671.8121   -42105.124    91.255325    225.49373 
   18200    133.56442   -331.78941    140909.71   -39484.833    2681.4067   -42166.239    91.275234    226.30349 
   18250    130.61141    -269.0752    140877.58   -39524.746    2622.1228   -42146.869    91.449515    221.30009 
   18300    133.55279   -234.14332    140832.04   -39517.437    2681.1733    -42198.61    91.654556    226.28379 
   18350    131.01474    -177.7533    140876.64   -39522.963    2630.2199   -42153.182    91.720175    221.98346 
   18400    131.82718   -107.98561    140905.26   -39526.497    2646.5302   -42173.027    92.094864    223.36001 
   18450     131.1303   -286.58284    140872.76   -39516.647    2632.5398   -42149.187    92.311875    222.17926 
   18500     129.8547   -235.35458     140838.6   -39526.758    2606.9313   -42133.689    92.690498    220.01797 
   18550    131.44786    -199.2576    140858.34   -39550.729    2638.9151   -42189.644    92.822822    222.71731 
   18600    131.29028   -310.76876    140807.96    -39509.98    2635.7517   -42145.732     93.06795    222.45033 
   18650    133.05975   -148.03946    140850.99   -39528.418    2671.2751   -42199.693     93.17728    225.44841 
   18700    134.04076   -190.18019    140868.98   -39494.069    2690.9696   -42185.039     93.24468    227.11057 
   18750    135.16416    -194.4911    140853.18   -39482.712    2713.5226   -42196.235    93.419383    229.01399 
   18800    136.22532   -189.29127    140734.81    -39513.14    2734.8262   -42247.966    93.828508    230.81195 
   18850    133.45114    -116.3381    140703.37   -39448.242    2679.1324   -42127.374    94.330851    226.11155 
   18900    131.60456   -133.25797    140636.53   -39492.408     2642.061   -42134.469    94.495415    222.98283 
   18950    134.95333   -172.04033    140637.99   -39422.498      2709.29   -42131.788    94.511512    228.65677 
   19000    132.73881   -138.63389     140668.1   -39397.983    2664.8319   -42062.815    94.841988    224.90463 
   19050    132.60973   -13.013864    140710.88   -39410.944    2662.2405   -42073.184    94.923831    224.68592 
   19100    133.73512   -106.38132    140716.87   -39383.469    2684.8335   -42068.303    94.867933    226.59271 
   19150    135.48166   -375.39959    140680.08   -39352.381    2719.8967   -42072.278    94.967049    229.55194 
   19200    133.90482   -102.71589    140627.79   -39350.196    2688.2405   -42038.437     95.16958    226.88025 
   19250    133.42131   -264.94282    140560.72   -39404.158    2678.5335   -42082.692    95.281443      226.061 
   19300    132.89102   -384.61556    140429.56   -39440.632    2667.8877    -42108.52    95.455023    225.16252 
   19350    132.53701    18.565273    140404.63   -39421.507    2660.7807   -42082.288    95.696231    224.56271 
   19400    133.96941   -158.08572    140499.41   -39391.121    2689.5371   -42080.658    95.967138    226.98968 
   19450    134.53473   -180.49593    140611.73   -39408.981    2700.8864   -42109.867     96.21633    227.94753 
   19500    132.80861    -27.71823    140686.72   -39371.361    2666.2331   -42037.594     96.57981    225.02289 
   19550    133.15326   -173.33024    140762.16    -39357.41    2673.1524   -42030.563    96.820656    225.60685 
   19600    134.03325   -397.06548    140757.71   -39368.293    2690.8187   -42059.111    97.022344    227.09784 
   19650    133.09959   -191.22916    140749.11   -39358.925    2672.0748       -42031    97.059521     225.5159 
   19700    135.14533   -101.57041    140809.54    -39368.67    2713.1447   -42081.814    97.234446    228.98209 
   19750    132.83995   -549.05104    140775.68    -39373.62    2666.8625   -42040.482    97.464437      225.076 
   19800    133.85982   -269.18177     140782.2   -39360.598     2687.337   -42047.935    97.803572    226.80399 
   19850    133.15284   -281.74201    140748.52   -39337.144    2673.1439   -42010.288      98.1167    225.60614 
   19900    133.76148    -258.7646    140726.51   -39350.504    2685.3629   -42035.867    98.585535    226.63738 
   19950    134.43447    -191.3181    140726.66   -39317.508    2698.8735   -42016.382    98.557633    227.77765 
   20000    134.69258    -379.3759    140710.46   -39369.381    2704.0554   -42073.437    98.590116    228.21498 
   20050    130.62832   -325.38862    140621.12   -39440.854    2622.4622   -42063.317    98.731467    221.32874 
   20100    129.46022   -337.79629    140622.95   -39465.397    2599.0117   -42064.409    99.001485    219.34958 
   20150    131.57583   -255.25499    140617.61   -39476.379    2641.4843   -42117.863    98.641246    222.93415 
   20200    129.44432   -212.38751    140565.23   -39474.269    2598.6925   -42072.962    98.925828    219.32263 
   20250    130.68324   -181.72379    140554.93   -39442.101    2623.5648   -42065.666     99.01649    221.42179 
   20300    132.97567   -252.01413    140499.18   -39419.041     2669.587   -42088.628    99.349118    225.30594 
   20350    130.99717   -242.01852    140477.88    -39391.77    2629.8673   -42021.638    99.556372     221.9537 
   20400    132.80234   -146.03083    140441.83   -39412.079    2666.1073   -42078.187    99.682865    225.01227 
   20450    133.42674   -95.962053    140417.53   -39405.557    2678.6425     -42084.2    100.17422     226.0702 
   20500    134.32531   -48.085748    140438.89    -39437.72    2696.6822   -42134.402    100.51531     227.5927 
   20550    133.53931   -131.97423    140460.54   -39443.124    2680.9025   -42124.027     100.8781    226.26094 
   20600    133.14706   -190.80679    140445.96   -39408.363    2673.0279   -42081.391    101.28931    225.59634 
   20650    132.19071   -340.24804    140444.04   -39453.961    2653.8284   -42107.789    101.53459    223.97596 
   20700    131.33274    -116.0709     140437.4   -39472.108     2636.604   -42108.712    101.43044    222.52226 
   20750     134.9175   -318.28976    140397.78   -39447.562    2708.5708   -42156.132    101.55866    228.59607 
   20800    136.66495   -317.90232    140439.24   -39442.913    2743.6522   -42186.565    101.38023    231.55684 
   20850    134.69767   -181.45281    140368.81   -39433.224    2704.1575   -42137.382    101.78523     228.2236 
   20900    136.24827   -52.943011       140351   -39411.307    2735.2869   -42146.594     101.8405    230.85084 
   20950    132.49973    65.849142     140385.2   -39442.151    2660.0322   -42102.184    101.85713    224.49954 
   21000    134.55167    -216.0898    140361.93   -39425.294    2701.2266   -42126.521    101.72728    227.97623 
   21050    133.70746   -147.45083    140390.91   -39421.405    2684.2783   -42105.684     102.0597    226.54584 
   21100    133.74631   -75.004092    140322.18   -39380.813    2685.0582   -42065.871    102.07759    226.61167 
   21150    133.63286   -240.42871    140353.38   -39404.872    2682.7806   -42087.653    102.18289    226.41945 
   21200    132.65753   -79.289103    140334.75   -39391.411    2663.2002   -42054.611     102.4261    224.76692 
   21250     133.8482   -169.62245     140406.3   -39348.455    2687.1037   -42035.559    102.69172     226.7843 
   21300    136.10007   -189.22917    140331.09   -39355.348    2732.3118    -42087.66    103.05298    230.59975 
   21350    132.16408   -257.90793       140336   -39344.874    2653.2938   -41998.168    103.24522    223.93084 
   21400    132.66895   -195.23019    140309.33   -39390.985    2663.4295   -42054.414    103.55415    224.78626 
   21450    134.14554   -1.2422678    140308.37   -39363.894    2693.0731   -42056.967    103.97475     227.2881 
   21500    134.54336   -78.584551     140332.4   -39374.966    2701.0597   -42076.026     104.1176    227.96215 
   21550    133.88368   -22.204177    140362.62   -39348.893     2687.816   -42036.709    104.43997    226.84442 
   21600    134.25417   -117.51726    140291.76   -39369.229     2695.254   -42064.483     104.6283    227.47216 
   21650    135.85631   -267.61682    140317.94   -39321.482    2727.4181     -42048.9    104.90664    230.18673 
   21700    133.53053   -194.51326    140325.06   -39307.531    2680.7263   -41988.258    105.16695    226.24607 
   21750    134.00175   -102.03557    140351.21   -39315.055    2690.1864   -42005.242    105.58942    227.04448 
   21800    130.17431   -133.39688    140378.32   -39336.651    2613.3475   -41949.999    105.93191    220.55948 
   21850    132.90045    -33.39255     140437.5   -39366.753    2668.0769    -42034.83    106.51367    225.17849 
   21900    132.88242    -134.7232    140493.68   -39375.143    2667.7149   -42042.858    107.09319    225.14794 
   21950    132.06708   -206.47445     140490.2   -39370.222    2651.3464   -42021.569    107.27529    223.76648 
   22000    133.47136   -295.53598    140438.19   -39373.363    2679.5385   -42052.902    107.82463    226.14582 
   22050     131.8407   -95.852924    140379.32   -39381.206    2646.8016   -42028.008    108.05857    223.38292 
   22100    129.68517   -107.35489    140395.46    -39422.75    2603.5277   -42026.277    108.48668    219.73071 
   22150    130.97966   -82.238547    140485.25   -39404.512    2629.5157   -42034.027    108.63822    221.92403 
   22200    132.89345   -264.14227    140452.35   -39408.329    2667.9364   -42076.265    108.76826    225.16663 
   22250    131.97911   -245.40778    140467.41   -39376.858    2649.5803   -42026.439    108.92717    223.61743 
   22300    133.97338    63.650641    140532.71   -39358.508    2689.6168   -42048.124    109.09048     226.9964 
   22350    133.49931   -69.079564     140626.3   -39369.224    2680.0995   -42049.323    109.16032    226.19317 
   22400    134.07209   -65.136182    140654.58   -39323.682    2691.5985   -42015.281    109.23529    227.16366 
   22450    134.89274   -204.55991    140554.95   -39328.011    2708.0736   -42036.085    109.44385    228.55411 
   22500    133.59875   -98.378495    140521.17    -39337.23    2682.0958   -42019.326    109.34967    226.36165 
   22550    133.45348   -251.70135    140465.31   -39333.503    2679.1794   -42012.682    109.77835    226.11552 
   22600    136.97873   -171.42397    140460.88   -39362.896    2749.9515   -42112.848    109.86901    232.08849 
   22650     135.2952   -281.86046     140511.8   -39387.028    2716.1534   -42103.181    109.81661    229.23602 
   22700    133.19265   -82.179562    140542.14   -39407.495     2673.943   -42081.438    109.85834    225.67358 
   22750    132.39881   -201.25356    140610.43   -39468.207    2658.0062   -42126.213    110.14715    224.32855 
   22800    129.22893   -383.37414    140613.43   -39502.844    2594.3683   -42097.213    110.36496    218.95769 
   22850    129.18123   -169.27709    140592.11   -39490.745    2593.4109   -42084.156    110.76134    218.87688 
   22900    130.89829   -158.93336    140645.24   -39485.825     2627.882   -42113.707    111.05539    221.78615 
   22950    131.18651   -103.66402    140697.39    -39457.95    2633.6684   -42091.618    111.51179    222.27451 
   23000    132.10114   -182.12591    140741.63   -39462.608    2652.0302   -42114.638    111.64542     223.8242 
   23050    131.31854   -58.842808    140776.61   -39477.858    2636.3189   -42114.177    111.84262     222.4982 
   23100    132.74207   -474.97646    140794.07   -39466.253    2664.8973    -42131.15    112.18639    224.91014 
   23150    133.81157   -194.70365     140733.8   -39443.067    2686.3684   -42129.435    112.35796    226.72225 
   23200    132.12756   -249.69688    140782.05   -39445.514    2652.5607   -42098.074    112.42254    223.86897 
   23250    134.01385   -192.46157     140814.9     -39423.8    2690.4294   -42114.229    112.65629    227.06498 
   23300    130.14268   -245.26831    140796.99   -39480.703    2612.7126   -42093.416    112.70407     220.5059 
   23350    131.55885   -62.725689    140809.38   -39464.379    2641.1434   -42105.522    113.24303    222.90538 
   23400    132.90943   -301.18245    140781.53   -39476.565    2668.2572   -42144.822    113.68883    225.19371 
   23450    132.42511    -185.7615    140745.51   -39492.023    2658.5342   -42150.557    113.69915    224.37311 
   23500     131.5639   -216.23657    140801.57   -39470.471    2641.2447   -42111.715    113.59378    222.91393 
   23550    134.91391   -263.86178    140808.27   -39469.474    2708.4987   -42177.972    113.72872    228.58998 
   23600    131.88744   -345.18829    140780.36   -39462.654      2647.74   -42110.394    114.17818    223.46212 
   23650    132.27244   -220.62367     140821.9   -39417.269    2655.4693   -42072.739    114.44911    224.11444 
   23700    131.74721   -298.81224    140799.05   -39493.664    2644.9247   -42138.589    114.95206    223.22451 
   23750    133.39576   -126.26045     140805.9   -39423.144    2678.0207   -42101.165    115.13083    226.01772 
   23800    130.17988   -261.23054    140813.24    -39387.58    2613.4595   -42001.039    115.19272    220.56893 
   23850    135.94031   -174.99383    140753.63   -39402.377    2729.1044   -42131.482    115.51309    230.32905 
   23900    131.94703   -252.53609    140767.43   -39407.544    2648.9364    -42056.48    115.62332    223.56308 
   23950    132.83434    -202.1604    140729.02   -39425.757    2666.7498   -42092.507    115.99705    225.06649 
   24000     132.4429   -60.241538    140750.22   -39430.003    2658.8914   -42088.894    115.97255    224.40326 
   24050     131.4352   -274.18485     140739.6   -39461.306     2638.661   -42099.967    115.99127    222.69587 
   24100    131.76483   -302.92359    140736.11   -39470.759    2645.2785   -42116.037    115.97963    223.25437 
   24150    132.13491   -310.30702    140722.91   -39448.768    2652.7082   -42101.477     116.3158    223.88142 
   24200    131.16335    -419.3022    140739.73   -39440.367    2633.2034   -42073.571    116.46332    222.23527 
   24250    129.94637   -108.47109    140770.89   -39417.405    2608.7716   -42026.176    116.63162    220.17328 
   24300    131.26799   -223.14436    140783.66   -39453.983    2635.3041   -42089.287    117.02698    222.41255 
   24350    134.57203   -251.80302    140840.22   -39457.109    2701.6352   -42158.744    117.32662    228.01072 
   24400    131.12202   -62.129434    140864.67   -39469.634    2632.3737   -42102.008    117.67078    222.16524 
   24450     133.9077   -237.67966    140895.74   -39396.795    2688.2984   -42085.093    118.02907    226.88513 
   24500     133.2751     -140.731    140928.54   -39414.987    2675.5983   -42090.586    118.07939    225.81328 
   24550    133.86004   -33.054628    140925.07   -39439.077    2687.3416   -42126.419    117.81228    226.80438 
   24600    132.52592   -176.17163    140976.91   -39461.788    2660.5579   -42122.346    117.79248    224.54391 
   24650    133.13076    -165.4802    140975.95   -39451.705    2672.7007   -42124.406    117.92951    225.56873 
   24700    134.98125   -155.07047    140979.68   -39476.287    2709.8506   -42186.137    118.01191    228.70408 
   24750     132.3576   -180.60331    141038.38   -39425.134    2657.1788   -42082.313    118.21305    224.25872 
   24800    132.71308   -209.83962    141046.73   -39405.328    2664.3153   -42069.643    118.46421    224.86102 
   24850    132.81987   -144.31921    141080.64   -39432.878    2666.4592   -42099.337    118.65623    225.04196 
   24900     130.9046   -240.32228    141149.81   -39401.842    2628.0088    -42029.85    118.80251    221.79685 
   24950    132.74545   -239.36682    141148.91   -39383.395    2664.9653    -42048.36     119.1528    224.91588 
   25000    132.50142   -276.46973    141098.16   -39368.273    2660.0661   -42028.339    119.46457     224.5024 
   25050    134.22519   -281.13071    141122.74   -39335.511    2694.6721   -42030.183    119.71487    227.42306 
   25100    134.14134   -158.50905    141085.42   -39336.276    2692.9887   -42029.265    119.91175    227.28099 
   25150    133.01377   -225.21032    141127.46   -39371.833    2670.3519   -42042.185    120.29899     225.3705 
   25200     133.8199    -249.7737    141097.11   -39378.093    2686.5356   -42064.629     120.4141    226.73636 
   25250    131.92054   -310.37997     141037.4   -39414.719    2648.4044   -42063.123     121.1061    223.51819 
   25300    132.56381   -223.00823    141011.77   -39405.075    2661.3186   -42066.393    121.38559    224.60811 
   25350    132.57021   -292.81157    140994.31    -39394.25    2661.4471   -42055.697    121.58659    224.61896 
   25400     133.3328   -281.30262    140972.35   -39375.027    2676.7567   -42051.783    121.82208    225.91105 
   25450    134.89453   -284.91406    140989.61   -39338.974    2708.1097   -42047.084    121.90869    228.55715 
   25500    134.01411   -189.53666    140950.92   -39348.108    2690.4345   -42038.542    122.27924    227.06541 
   25550    135.91067   -150.43947    140996.88   -39408.458    2728.5095   -42136.967    122.49277    230.27884 
   25600    132.70095   -305.22753    141039.21   -39398.673    2664.0718   -42062.745    122.81965    224.84047 
   25650    131.70515   -153.11315     141061.2   -39361.905    2644.0804   -42005.986    122.60725    223.15326 
   25700    134.21643   -333.51145    141026.97   -39318.621    2694.4962   -42013.118    122.88042    227.40821 
   25750    135.01842    -190.2859    141074.49   -39332.578    2710.5969   -42043.175    123.18501    228.76706 
   25800    131.63779   -459.90207    141047.93    -39381.29    2642.7281   -42024.018    123.20465    223.03913 
   25850    131.09661   -300.95005    140993.73   -39356.764    2631.8634   -41988.627    123.43671    222.12217 
   25900    134.72536   -392.34122    141045.29   -39341.918    2704.7134   -42046.631    123.51409    228.27051 
   25950    132.27899    -322.5876    141036.16   -39340.927    2655.6008   -41996.527    123.99999    224.12554 
   26000    135.15621   -382.09521    140910.36   -39362.602    2713.3631   -42075.965    124.61848    229.00052 
   26050    132.44285   -141.06318     140909.6   -39367.978    2658.8904   -42026.868    124.81359    224.40318 
   26100    133.07229    -260.3272    140876.23    -39317.43    2671.5268   -41988.956    125.21999    225.46966 
   26150    132.44933   -281.98123    140777.23   -39349.581    2659.0204   -42008.602    125.24265    224.41415 
   26200    134.47885   -162.54429    140671.44   -39341.141    2699.7645   -42040.905    125.61837    227.85284 
   26250    133.91947   -283.78389    140691.11   -39386.102    2688.5345   -42074.637    125.80288    226.90506 
   26300    132.11185   -209.50997    140647.69   -39331.522    2652.2452   -41983.767    126.02588    223.84234 
   26350    134.15664   -175.36224    140662.99   -39325.037     2693.296   -42018.333    126.42443    227.30691 
   26400    133.81588   -194.44788    140692.05   -39348.558    2686.4548   -42035.012    126.60863    226.72954 
   26450    132.05545   -75.414835    140612.17   -39401.162     2651.113   -42052.275    126.86123    223.74679 
   26500    133.59669   -165.91438    140568.48   -39382.862    2682.0545   -42064.917    127.27043    226.35817 
   26550    132.11131   -113.71081    140569.66   -39379.169    2652.2344   -42031.403    127.62168    223.84143 
   26600     134.1335   -178.67933    140629.72   -39347.026    2692.8314   -42039.857    127.95661    227.26771 
   26650    134.00738   -77.000649    140603.34   -39361.354    2690.2994   -42051.654    128.31902    227.05402 
   26700    133.90083   -154.45485    140642.94   -39401.644    2688.1604   -42089.805    128.57238    226.87348 
   26750    133.13687   -172.75029    140594.71   -39389.555    2672.8232   -42062.378    128.64047    225.57907 
   26800    131.98533   -372.07464    140542.54   -39430.476    2649.7052   -42080.182    128.68827    223.62797 
   26850    131.53716   -287.25135    140510.44   -39394.563    2640.7079   -42035.271    128.87754    222.86863 
   26900    129.72509   -359.21733    140433.92   -39462.376    2604.3293   -42066.705    128.86927    219.79837 
   26950    132.95795   -203.49682    140452.55   -39433.975    2669.2313   -42103.206    129.10412    225.27592 
   27000    133.49895   -254.62114    140473.97    -39478.69    2680.0923   -42158.783    129.27158    226.19256 
   27050    131.69183   -274.12911     140396.3   -39510.331     2643.813   -42154.144    129.52395    223.13068 
   27100    131.66762   -177.72059    140336.95   -39486.675     2643.327   -42130.002    130.23022    223.08967 
   27150    131.22839   -246.88936    140409.65    -39497.28    2634.5091   -42131.789    130.67406    222.34546 
   27200    132.80811   -190.62882    140447.31   -39474.341    2666.2232   -42140.564     130.8368    225.02205 
   27250    129.82033   -226.00236    140480.08   -39483.083    2606.2412   -42089.324    131.25532    219.95973 
   27300     128.5725   -307.87058    140440.92   -39488.377    2581.1901   -42069.567    131.62906    217.84548 
   27350    130.60055   -126.34635    140447.82   -39496.839    2621.9047   -42118.744    131.87609    221.28168 
   27400    130.34182    -81.33983    140526.18   -39514.583    2616.7105   -42131.293    132.30841    220.84331 
   27450    131.00523   -62.499294     140565.4   -39516.974    2630.0289   -42147.003     132.5293    221.96734 
   27500    130.65444   -79.482882    140590.32   -39505.218    2622.9867   -42128.205    132.51299      221.373 
   27550    131.65545   -451.87829    140593.81   -39506.261    2643.0826   -42149.344    132.84602    223.06904 
   27600    132.45485   -68.139684    140579.07   -39461.815    2659.1312   -42120.946    133.09296     224.4235 
   27650    133.93292   -355.45846    140592.67   -39418.599    2688.8047   -42107.403     133.6329    226.92786 
   27700    132.17808   -232.69072    140570.23   -39417.941    2653.5749   -42071.516    134.06704    223.95456 
   27750    136.26417   -123.01962    140551.69   -39415.142    2735.6062   -42150.748    134.02252    230.87778 
   27800    133.17644   -203.78724    140549.33   -39384.753    2673.6177   -42058.371    134.17618    225.64612 
   27850    134.91646   -282.94007     140464.1   -39344.561    2708.5498   -42053.111    134.30243     228.5943 
   27900    131.95462   -145.61014     140460.5   -39370.227    2649.0887   -42019.315    134.35146    223.57594 
   27950    128.75098   -241.08268    140468.73   -39400.118    2584.7733   -41984.892    134.93018    218.14789 
   28000    131.17183   -3.9958558    140509.18   -39395.475    2633.3736   -42028.849    135.23455    222.24963 
   28050      134.993   -202.10599    140559.11   -39307.159    2710.0865   -42017.246    135.27834    228.72399 
   28100    132.82833   -453.73712    140508.03   -39321.772    2666.6291   -41988.401    135.36588     225.0563 
   28150    132.45198   -287.13465    140502.28   -39388.138    2659.0736   -42047.211    135.56566    224.41864 
   28200    131.71636   -372.37214    140413.15   -39406.356    2644.3055   -42050.661    135.84923    223.17225 
   28250    132.92254    -242.9106    140439.53   -39351.851    2668.5204   -42020.372     136.4028    225.21592 
   28300    133.59758   -396.40241    140467.56   -39350.093    2682.0724   -42032.165    136.61222    226.35968 
   28350    132.69685   -293.54503    140486.98   -39426.732    2663.9895   -42090.721    136.91543    224.83352 
   28400    132.77625   -127.60513    140503.31   -39409.702    2665.5836   -42075.285    137.04186    224.96806 
   28450    136.01943   -213.25026    140516.27   -39435.841    2730.6928   -42166.533    137.16007     230.4631 
   28500    133.42412   -160.03958    140552.88   -39421.863      2678.59   -42100.453    137.55243    226.06577 
   28550     130.7979   -8.1368951    140541.37   -39439.762    2625.8666   -42065.628    137.71879    221.61606 
   28600    132.07696   -111.25122    140532.39   -39440.393    2651.5447   -42091.937    137.90193    223.78322 
   28650    132.64564    246.41726    140586.87   -39458.646    2662.9615   -42121.608    138.29394    224.74677 
   28700    130.80409   -110.35659    140699.62   -39455.793     2625.991   -42081.784    138.43385    221.62655 
   28750    131.96921   -160.15901    140658.44    -39476.21    2649.3816   -42125.592    138.51688    223.60066 
   28800    130.46499   -170.16366    140712.76   -39488.739    2619.1832   -42107.923    138.59292      221.052 
   28850     133.4076   -89.292282    140688.44   -39468.948    2678.2584   -42147.207     138.6888    226.03779 
   28900    132.01174   -89.767995    140720.42   -39452.398    2650.2354   -42102.633    138.75052    223.67272 
   28950    133.99809     31.02495    140780.54   -39428.561    2690.1128   -42118.674    138.94073    227.03827 
   29000    133.02406   -277.27527    140673.27    -39399.49    2670.5586   -42070.049    139.17082    225.38794 
   29050    133.06504    38.657586    140606.85   -39434.599    2671.3813    -42105.98    139.16825    225.45737 
   29100    128.47507   -198.61279    140578.09   -39464.781    2579.2342   -42044.016    139.50615    217.68041 
   29150    133.19366   -135.20691    140622.28   -39459.197    2673.9634    -42133.16    139.56829     225.6753 
   29200    132.86078   -90.840101    140612.73   -39467.553    2667.2807   -42134.833    139.75879    225.11129 
   29250    131.35514   -232.06285     140644.6   -39445.778    2637.0537   -42082.831    139.96592    222.56022 
   29300     133.3589    42.242332    140674.19   -39415.961    2677.2808   -42093.242    140.13186    225.95527 
   29350    131.22706    -134.6987    140760.35   -39403.146    2634.4823   -42037.628    140.29338     222.3432 
   29400    135.15041   -371.85813    140698.38   -39342.257    2713.2466   -42055.503    140.47691     228.9907 
   29450    137.14184   -54.976999    140665.92   -39295.716    2753.2261   -42048.942    140.71785    232.36486 
   29500    134.66075   -139.59523    140655.61   -39319.833    2703.4162   -42023.249    141.02257    228.16104 
   29550    134.56105   -196.25475     140761.3   -39294.706    2701.4147   -41996.121    141.29931    227.99212 
   29600    133.67559   -82.966568     140658.9   -39360.147    2683.6384   -42043.785    141.42653    226.49184 
   29650    134.57477   -79.527071    140708.13   -39340.851    2701.6903   -42042.541    141.63563    228.01537 
   29700    133.92236   -302.87912    140716.59   -39398.829    2688.5926   -42087.421    141.87658    226.90996 
   29750    135.46772   -221.88248    140601.25   -39371.146    2719.6168   -42090.763    142.50365    229.52832 
   29800    133.36103    21.691184    140572.64   -39405.656    2677.3235    -42082.98    142.63378    225.95888 
   29850    131.34115   -175.17838    140576.93   -39442.924    2636.7728   -42079.696    142.78838    222.53651 
   29900    131.43033   -138.47627     140534.9    -39401.93    2638.5633   -42040.494    143.15969    222.68762 
   29950    131.27164   -70.109488    140560.33   -39422.204    2635.3773   -42057.581    143.46864    222.41874 
   30000    130.43873   -27.973452       140490   -39455.037     2618.656   -42073.693    143.54556     221.0075 
   30050    133.55832   -253.43371    140500.69    -39460.27    2681.2843   -42141.554    143.68975    226.29316 
   30100    132.46626   -242.11833    140464.19   -39413.787    2659.3602   -42073.147    143.91514    224.44283 
   30150    133.66568   -189.26579    140499.46   -39382.328    2683.4395   -42065.767    144.17181    226.47506 
   30200    133.87584   -19.083235    140429.84   -39354.117    2687.6587   -42041.776    144.32533    226.83114 
   30250     136.1139   -46.977069    140434.34   -39264.987    2732.5893   -41997.576    144.76544    230.62317 
   30300    133.95085   -322.51087    140443.34    -39264.04    2689.1646   -41953.205     145.4568    226.95824 
   30350    135.48282   -269.55855    140432.38   -39263.719    2719.9201   -41983.639    145.78844    229.55392 
   30400    133.70309    -460.9931    140408.08   -39297.578    2684.1906   -41981.768    145.90218    226.53844 
   30450     135.5147   -334.96887    140323.98    -39299.38      2720.56    -42019.94    145.82782    229.60792 
   30500    132.67364   -59.955524    140282.54   -39344.557    2663.5237   -42008.081    145.88879    224.79421 
   30550    131.38434   -276.92116    140302.43   -39363.912    2637.6399   -42001.552    146.12187    222.60969 
   30600      134.575   -12.425416    140321.79   -39354.495    2701.6948    -42056.19    146.27838    228.01575 
   30650    131.87211   -479.60421     140346.7   -39416.222    2647.4322   -42063.654    146.24893    223.43613 
   30700    134.86357   -273.05216    140316.17   -39393.212    2707.4881     -42100.7    146.56834    228.50469 
   30750    130.29062   -361.82593    140292.19    -39374.35    2615.6827   -41990.033    146.95557    220.75657 
   30800    133.79211   -256.88938    140252.56    -39411.21    2685.9776   -42097.188    146.97783    226.68927 
   30850    132.45849    -224.3422    140298.18   -39368.662    2659.2042   -42027.867    147.29142    224.42966 
   30900    134.36364    -74.28406     140362.2    -39334.11    2697.4517   -42031.561    147.73317    227.65764 
   30950    133.91826   -162.72536    140435.01   -39308.965    2688.5102   -41997.476     148.0775    226.90301 
   31000    136.12166   -58.798511    140427.88   -39253.208    2732.7452   -41985.953    148.36277    230.63632 
   31050    136.12256   -246.92635    140402.96   -39268.402    2732.7632   -42001.165    148.49953    230.63784 
   31100    136.41677   -220.49781    140396.46   -39240.175    2738.6698   -41978.845    148.84642    231.13634 
   31150    135.07592   -272.12533    140411.89   -39247.625    2711.7512   -41959.377    149.27819    228.86448 
   31200     132.4985   -232.14725    140420.54   -39275.206    2660.0076   -41935.214    149.48601    224.49747 
   31250    132.84162   -155.62621    140495.02   -39303.133    2666.8959   -41970.029    149.95086    225.07882 
   31300    133.18132   -346.63825    140470.48   -39295.598    2673.7157   -41969.313    150.42706    225.65439 
   31350    134.08855   -384.54614    140357.02   -39272.208     2691.929   -41964.137    150.90528    227.19154 
   31400    131.57996   -129.39243    140314.31   -39261.907     2641.567   -41903.474    151.17026    222.94113 
   31450    133.20884   -76.500167    140356.66   -39296.427    2674.2682   -41970.695    151.37197    225.70102 
   31500    132.66393   -336.14418    140308.45    -39309.93    2663.3287   -41973.258    151.53035    224.77776 
   31550    135.80043   -111.74491    140252.31   -39318.678    2726.2963   -42044.975    151.63354    230.09205 
   31600    133.87344     25.13011    140277.07   -39291.317    2687.6105   -41978.927    151.92679    226.82708 
   31650    133.47511   -15.642302    140327.81   -39319.349    2679.6137   -41998.962     152.4522    226.15217 
   31700    131.54098   -243.16828    140296.64   -39366.331    2640.7847   -42007.116      152.642     222.8751 
   31750    133.40383   -104.55958    140284.48   -39350.641    2678.1826   -42028.824    153.01328    226.03139 
   31800    131.97907     -345.937    140290.13   -39301.257    2649.5796   -41950.837    153.38775    223.61737 
   31850    133.85162   -344.53553    140238.58   -39319.057    2687.1725    -42006.23    153.39752    226.79011 
   31900    132.38186   -45.901829    140243.24   -39361.397    2657.6658   -42019.063    153.64099    224.29983 
   31950    130.38603   -133.86547     140374.4   -39345.781     2617.598   -41963.379    153.78749    220.91821 
   32000    134.33612   -208.16204    140420.22    -39298.57    2696.8992   -41995.469    153.78236    227.61101 
   32050    136.73221   -207.25531    140488.49   -39250.116    2745.0024   -41995.118    153.95915     231.6708 
   32100    135.39693   -410.82683    140493.32    -39267.14    2718.1956   -41985.335    154.43858    229.40838 
   32150    134.78838   -300.15695     140502.9    -39277.09    2705.9786   -41983.069    154.60045    228.37729 
   32200    133.13742    -285.6086    140514.62   -39336.742    2672.8342   -42009.577    154.80329       225.58 
   32250     132.1048   -158.34007    140614.33   -39335.368    2652.1037   -41987.472    155.13947     223.8304 
   32300    131.89706   -79.855437    140666.09   -39341.085    2647.9331   -41989.018    155.28493    223.47841 
   32350    134.05661    -66.13474    140685.14   -39315.989    2691.2877   -42007.277    155.16484    227.13742 
   32400    131.97058   -408.40544    140673.64   -39301.809     2649.409   -41951.218    155.39759    223.60298 
   32450    133.67623   -91.737169    140676.96   -39269.556    2683.6512   -41953.207    155.68271    226.49293 
   32500    135.64014   -199.31731     140765.8   -39245.968    2723.0783   -41969.046    155.59321    229.82046 
   32550    134.32723   -197.65833    140823.59   -39275.121    2696.7206   -41971.842    155.59899    227.59594 
   32600    137.17752    -97.47137    140932.48   -39296.206    2753.9424   -42050.149    155.73337    232.42531 
   32650     135.9063   -188.65888    140955.11   -39309.318    2728.4217    -42037.74    155.68982    230.27143 
   32700    132.23379   -382.72269    140935.45   -39350.236    2654.6933   -42004.929    156.01374    224.04895 
   32750    134.08567   -516.44458    140832.46   -39370.227    2691.8711   -42062.098    156.39837    227.18666 
   32800    135.07915   -405.69517    140797.17   -39374.953     2711.816   -42086.769    156.66378    228.86996 
   32850    132.52904   -139.91249     140743.8   -39382.935    2660.6206   -42043.555    156.84959     224.5492 
   32900    133.46071   -88.376747     140767.9   -39408.252    2679.3247   -42087.577    157.30749    226.12777 
   32950    131.44098   -100.97776     140757.9   -39361.025    2638.7769   -41999.801    157.58308    222.70566 
   33000    132.88094   -486.27899    140694.27   -39383.926    2667.6852   -42051.612    157.76946    225.14543 
   33050    131.41588   -268.42066    140654.04    -39399.79    2638.2731   -42038.063     158.0114    222.66313 
   33100    132.13259   -108.81368    140680.22   -39445.293    2652.6616   -42097.955    158.13166    223.87749 
   33150    132.13108   -323.53719    140627.83   -39492.806    2652.6313   -42145.438    158.26659    223.87492 
   33200    135.08887   -138.77439    140588.16   -39420.397    2712.0111   -42132.408    158.31637    228.88642 
   33250    132.48562   -178.23281    140700.45   -39402.116    2659.7489   -42061.865    158.57508    224.47563 
   33300     134.6784   -347.26805    140752.72   -39372.833    2703.7707   -42076.604    158.28873    228.19095 
   33350    132.30747   -352.75661    140715.71   -39388.071    2656.1725   -42044.243    158.72538     224.1738 
   33400    131.09468   -286.85359    140689.99    -39411.63    2631.8247   -42043.454    158.95194     222.1189 
   33450    134.09893   -264.17593    140688.78   -39420.575    2692.1374   -42112.713    159.24439    227.20913 
   33500    134.08208   -89.618194    140742.26   -39443.969     2691.799   -42135.768    159.38198    227.18057 
   33550    135.83219    -57.59508    140771.12    -39429.87    2726.9338   -42156.804    159.84654    230.14586 
   33600    130.50014   -127.27021    140861.62   -39491.707    2619.8889   -42111.596    160.33666    221.11155 
   33650    131.34834   -305.63607    140893.95   -39489.019    2636.9172   -42125.936    161.00784    222.54869 
   33700    130.49823   -380.20663    140856.55   -39517.887    2619.8506   -42137.738    161.17172    221.10832 
   33750    130.75748    -217.0357    140701.95   -39515.645    2625.0553     -42140.7    161.45746    221.54758 
   33800    133.65604   -105.93984    140800.42   -39451.803     2683.246   -42135.049    161.68592    226.45872 
   33850    132.71103   -430.09699    140839.93   -39430.006    2664.2743    -42094.28    162.05614    224.85756 
   33900    132.54824   -206.48163    140855.87   -39405.831    2661.0061   -42066.837    162.22428    224.58174 
   33950    135.28163   -258.33064    140897.83   -39365.799    2715.8809    -42081.68    162.42638    229.21302 
[...]
   92000    133.64559    23.134505    140711.74   -39385.608    2683.0361   -42068.644    390.73186    226.44101 
   92050    132.59955   -254.21038    140760.08   -39419.463    2662.0362   -42081.499    390.94119    224.66867 
   92100    135.27735   -299.57952    140748.94   -39386.836    2715.7949   -42102.631    391.01415    229.20577 
   92150    133.75298   -152.54972    140688.57   -39413.469    2685.1921   -42098.661    391.13764    226.62297 
   92200    135.77885   -341.31307    140678.31   -39409.013    2725.8631   -42134.876    391.34807    230.05549 
   92250    135.15243   -303.33024    140662.02   -39463.837    2713.2873   -42177.124    391.20074    228.99412 
   92300    134.07999   -295.37347    140654.16   -39442.989    2691.7572   -42134.746    391.48981    227.17704 
   92350    131.06641   -132.45644    140661.96   -39488.482    2631.2572    -42119.74     391.0063    222.07101 
   92400    129.77896   -255.12199    140718.35   -39519.862    2605.4106   -42125.273    391.02128    219.88963 
   92450    128.16133   -322.33816    140719.11   -39524.176    2572.9355   -42097.112    391.24175    217.14881 
   92500    134.83807    -159.4411    140651.66   -39476.963    2706.9762    -42183.94    391.45694    228.46149 
   92550    132.18118   -115.41634    140735.03   -39467.486    2653.6371   -42121.123    391.60672    223.95981 
   92600    131.38229   -151.63618    140793.39   -39444.271    2637.5987    -42081.87    391.59593    222.60622 
   92650    133.73088    112.09956    140880.01   -39414.991    2684.7485    -42099.74     391.9994    226.58553 
   92700    129.36913   -141.92945    140890.59   -39426.278     2597.183   -42023.461    392.10661    219.19524 
   92750    129.73336    -279.9564    140759.92   -39469.781    2604.4952   -42074.276    392.13607    219.81237 
   92800    131.87034   -54.624926     140709.9   -39507.937    2647.3968   -42155.334     392.4049    223.43315 
   92850    131.28695   -22.360344     140684.4   -39485.278    2635.6848   -42120.963    393.22808    222.44469 
   92900    131.56273   -153.03755    140790.62   -39436.283    2641.2212   -42077.504     393.5268    222.91194 
   92950    132.30723   -307.18415    140751.33   -39440.747    2656.1676   -42096.915    393.47322    224.17338 
   93000    131.12143   -408.37778    140736.99   -39422.364    2632.3617   -42054.726    393.61593    222.16423 
   93050    132.39872   -187.76545    140751.77    -39377.24    2658.0044   -42035.244    393.79843     224.3284 
   93100    131.82403   -293.69878    140699.34   -39408.795    2646.4671   -42055.262    394.16436    223.35468 
   93150    133.26994   -63.256468    140722.25   -39406.151    2675.4948   -42081.646    394.46832    225.80455 
   93200    131.19666   0.10955463    140794.96   -39415.452     2633.872   -42049.324      395.252    222.29169 
   93250    133.75987   -38.896829    140951.94   -39440.004    2685.3305   -42125.335    395.69919    226.63465 
   93300    133.57189   -131.76356     140968.5   -39415.701    2681.5566   -42097.258     395.7885    226.31614 
   93350    133.20551   -177.82848    140934.79   -39420.329    2674.2012    -42094.53    395.99041    225.69537 
   93400    131.01379   -395.36685    140840.83   -39385.395    2630.2009   -42015.595    396.04382    221.98186 
   93450    132.22493    -129.9385    140750.42   -39431.275    2654.5153    -42085.79    395.54714    224.03393 
   93500    132.68572   -189.57857    140738.56   -39410.617    2663.7661   -42074.383    395.53526    224.81467 
   93550    131.07518   -69.941281    140766.02   -39413.584    2631.4332   -42045.017    395.76736    222.08586 
   93600    131.02492   -565.60636     140681.1   -39420.243    2630.4242   -42050.667    395.90459    222.00071 
   93650    131.62299   -227.41196    140662.29   -39433.198     2642.431   -42075.629    396.27655    223.01405 
   93700    131.93484   -333.06494     140683.5   -39412.813    2648.6915   -42061.505    396.60727    223.54242 
   93750    132.67694   -242.09618    140603.82   -39400.916    2663.5899   -42064.506    396.77494     224.7998 
   93800    134.34142   -215.70396    140592.93   -39340.163    2697.0056   -42037.169    397.31567       227.62 
   93850    132.40967   -226.02544    140609.81   -39373.955    2658.2241   -42032.179    397.08237    224.34694 
   93900    134.31757   -339.19048    140598.58   -39373.861    2696.5267   -42070.388    396.91256    227.57958 
   93950    133.77408    76.905128    140669.56   -39350.891    2685.6158   -42036.507    396.85031    226.65873 
   94000      135.829   -258.40805    140690.34    -39343.96    2726.8698    -42070.83    397.13548    230.14045 
   94050    133.92345   -277.76788    140691.35   -39323.156    2688.6146   -42011.771    397.42026    226.91182 
   94100    134.50419   -182.63174    140656.65   -39355.374    2700.2732   -42055.648    397.33227    227.89577 
   94150    132.99003   -217.90494    140625.03   -39390.418    2669.8754   -42060.294    397.29732    225.33028 
   94200    132.20649   -326.95437       140592   -39347.424    2654.1452   -42001.569     397.0522    224.00269 
   94250    135.17741   -266.38708    140473.04   -39345.392    2713.7886   -42059.181    397.09293    229.03643 
   94300    133.76186   -40.328519    140495.32   -39332.354    2685.3704   -42017.724    397.50024    226.63802 
   94350    134.39768   -393.03212    140451.54   -39339.259     2698.135   -42037.394    397.69707    227.71531 
   94400    128.88516   -269.15061     140326.2   -39373.114    2587.4669   -41960.581    397.55916    218.37523 
   94450    130.09429   -443.95904    140293.48   -39444.881    2611.7413   -42056.622    397.50505    220.42392 
   94500    129.03295   -278.56122    140210.12   -39414.508    2590.4339   -42004.942     397.7086    218.62564 
   94550    130.34504    -335.4562    140210.58   -39401.981    2616.7752   -42018.757    397.70262    220.84877 
   94600    129.28844    12.344076    140228.56   -39383.659    2595.5632   -41979.222    397.13791    219.05853 
   94650    131.29388   -295.74561     140268.9   -39371.335    2635.8238   -42007.159    397.41591    222.45642 
   94700    131.83633   -195.26827     140237.8   -39349.066     2646.714    -41995.78    397.55452    223.37552 
   94750    131.37788    -158.0213    140144.99   -39371.403    2637.5102   -42008.913    398.11818    222.59875 
   94800    128.30468   -287.73733    140090.95   -39366.784    2575.8134   -41942.598    398.10388     217.3917 
   94850    131.60194   -55.019524    140147.24   -39326.937    2642.0083   -41968.945    398.22659    222.97837 
   94900    135.58029   -136.26179     140236.9    -39310.83    2721.8767   -42032.707    398.70221    229.71905 
   94950    134.85801    178.99642    140272.75   -39289.475    2707.3765   -41996.851    399.36898    228.49527 
   95000    136.15494   -151.71561    140376.72   -39325.265    2733.4132   -42058.679    400.38908     230.6927 
   95050    131.91848   -149.07138    140488.78   -39306.283    2648.3632   -41954.647    400.55999    223.51471 
   95100     132.6368   -208.40786    140514.55   -39360.588     2662.784   -42023.372    400.50827    224.73179 
   95150    130.38847   -320.93267    140523.82   -39332.306    2617.6471   -41949.954    401.02817    220.92236 
   95200    130.97938   -205.10334    140566.71   -39385.297      2629.51   -42014.807    401.14848    221.92355 
   95250    130.55186   -519.71137    140518.82   -39409.969    2620.9273   -42030.896    400.93294    221.19919 
   95300    134.60463   -317.78476    140435.21   -39359.779    2702.2897   -42062.069    400.91398    228.06596 
   95350    132.71117   -406.27111    140369.64   -39369.064     2664.277   -42033.341    400.75931     224.8578 
   95400    130.82681   -245.41415    140287.13   -39392.699     2626.447   -42019.146    401.38192    221.66504 
   95450    131.83075    -175.1656    140267.88   -39348.347     2646.602   -41994.949    401.22249    223.36607 
   95500    133.67344   -244.64859     140279.3   -39322.571    2683.5952   -42006.166    400.76241     226.4882 
   95550    132.14897   -248.74841    140381.54   -39342.487    2652.9905   -41995.478     401.5275    223.90524 
   95600    134.45357   -41.709114    140433.15    -39288.83    2699.2569   -41988.087    401.81887       227.81 
   95650     134.1845   -47.524274    140563.18   -39330.676    2693.8551   -42024.532    402.10048    227.35411 
   95700    133.93518   -223.68464    140560.54   -39344.802      2688.85   -42033.652    402.11221    226.93169 
   95750    131.00765   -203.77008    140526.18   -39370.295    2630.0776   -42000.373    402.12337    221.97146 
   95800    133.12522   -278.32185    140515.18   -39360.892    2672.5895   -42033.481    402.65099    225.55934 
   95850    133.22239   -235.48881    140465.22   -39356.941    2674.5402   -42031.481    402.62232    225.72397 
   95900     133.0457    -418.4548    140346.72   -39348.456    2670.9929   -42019.449    402.92874     225.4246 
   95950    133.21895   -330.59499    140407.64   -39345.634     2674.471   -42020.105    402.77818    225.71814 
   96000    134.24554   -427.66975    140431.68    -39365.25    2695.0807   -42060.331    402.97477    227.45754 
   96050    130.90659   -134.42254    140380.58   -39389.896    2628.0487   -42017.944     403.1174    221.80022 
   96100    131.12075   -268.13765    140452.07   -39341.425    2632.3482   -41973.773     403.3032    222.16308 
   96150    132.72919   -219.95681    140413.21    -39362.82    2664.6388   -42027.459    403.98266    224.88833 
   96200    131.49858   -157.81835    140426.27   -39408.057    2639.9334   -42047.991    404.33696    222.80326 
   96250    132.24034   -273.30059    140390.81   -39396.072    2654.8247   -42050.897    404.62497    224.06004 
   96300    131.25397   -338.31579    140385.69   -39418.321    2635.0226   -42053.344    404.86378     222.3888 
   96350    129.23646   -389.02177    140362.94   -39447.709    2594.5196   -42042.229    404.96766    218.97045 
   96400    131.64651   -135.09836    140371.11    -39411.33    2642.9031   -42054.233    405.39647     223.0539 
   96450    130.15098   -173.15462    140445.14    -39422.44    2612.8793   -42035.319    405.41016    220.51996 
   96500    133.13073    -364.7871    140481.96   -39377.179       2672.7   -42049.879     405.5859    225.56867 
   96550    130.37637   -265.28133    140456.63   -39382.956    2617.4042    -42000.36    405.70039    220.90185 
   96600    132.19539   -284.84576    140466.52   -39389.037    2653.9224   -42042.959     405.6974     223.9839 
   96650    130.83225   -212.53048    140557.04   -39369.644    2626.5564     -41996.2    406.03194    221.67427 
   96700     132.2741    -396.7182    140533.06   -39391.621    2655.5025   -42047.123    406.67993    224.11725 
   96750    131.84509   -390.03292    140495.29    -39375.31    2646.8899     -42022.2    406.46234    223.39037 
   96800     131.4974   -284.57993    140503.23   -39386.527    2639.9096   -42026.437    406.77062    222.80125 
   96850    132.69278   -201.70617    140502.51   -39372.385    2663.9077   -42036.292    407.18679    224.82663 
   96900    133.24567   -319.70749    140548.07   -39310.707    2675.0074   -41985.715    407.48217    225.76341 
   96950    133.87494   -227.33539     140525.1   -39303.029    2687.6407    -41990.67    408.35078    226.82962 
   97000    134.74704   -17.573606    140492.54   -39301.651    2705.1487   -42006.799      408.553    228.30725 
   97050    135.81765   -200.89971    140484.28   -39325.894     2726.642   -42052.536    408.57135    230.12123 
   97100    135.87766   -159.40302    140523.16   -39350.756    2727.8467   -42078.603    408.50381     230.2229 
   97150    135.16906   -176.90054    140519.99   -39345.054    2713.6211   -42058.675    408.51627     229.0223 
   97200    132.22016   -251.06119    140491.14   -39306.877    2654.4195   -41961.297    408.83595    224.02585 
   97250    135.38802    -479.7905    140452.02   -39311.243    2718.0169   -42029.259    408.93183    229.39329 
   97300    133.18003   -384.15556    140380.26    -39333.18    2673.6898    -42006.87    409.19559    225.65221 
   97350    132.90626   -211.98657    140452.53   -39315.063    2668.1936   -41983.256    409.78831    225.18834 
   97400    131.66097   -255.31933    140433.07   -39301.023    2643.1935   -41944.217    410.35649     223.0784 
   97450    132.40702   -345.35452    140359.43   -39337.864    2658.1709   -41996.035    410.55998    224.34246 
   97500    131.47459   -206.55016    140395.77   -39375.771    2639.4518   -42015.222    410.89506    222.76261 
   97550    134.28666   -424.74232    140357.04   -39397.072    2695.9061   -42092.978    411.06456     227.5272 
   97600    130.98115   -189.71925    140397.49   -39414.856    2629.5455   -42044.401    411.12725    221.92655 
   97650    132.16016   -73.937922    140477.37    -39411.68     2653.215   -42064.895    411.77527    223.92419 
   97700    131.15167    -280.4017    140473.95   -39406.896    2632.9688   -42039.865    412.53816    222.21546 
   97750    131.38479   -74.734579    140541.65   -39413.189    2637.6488   -42050.838    412.93832    222.61045 
   97800    131.96842   -328.25324    140531.25   -39425.129    2649.3658   -42074.495    412.82365    223.59933 
   97850    132.94317   -183.23224    140498.47    -39490.58    2668.9346   -42159.514    412.86971    225.25088 
   97900    132.53671   -181.14479    140563.93   -39413.277    2660.7745   -42074.051    413.24923    224.56219 
   97950    132.58252   -126.23802    140582.49   -39386.571    2661.6944   -42048.265      413.437    224.63982 
   98000    132.03468   -392.55253     140626.3   -39355.871     2650.696   -42006.567    413.68287    223.71159 
   98050    134.27536   -210.14099    140602.26   -39378.758    2695.6793   -42074.437    413.98932    227.50806 
   98100    130.87559   -56.848111     140657.8   -39366.331    2627.4263   -41993.758    414.57567     221.7477 
   98150     133.0333   -138.32555    140634.14   -39354.509     2670.744   -42025.253    414.89658    225.40359 
   98200    132.32055   -111.29415       140633   -39343.013    2656.4351   -41999.448    415.12437    224.19595 
   98250    130.96321   -316.20254     140618.6   -39356.259    2629.1855   -41985.444     416.0002    221.89616 
   98300    131.01881   -323.30367    140604.51   -39352.952    2630.3017   -41983.254    416.14418    221.99037 
   98350    130.66305   -230.79502    140634.74   -39389.573    2623.1594   -42012.732    416.77908    221.38758 
   98400    132.76361   -267.15316    140620.15   -39369.372    2665.3298   -42034.702    416.90502    224.94664 
   98450    133.29835   -87.289366    140608.64   -39343.718    2676.0652   -42019.783    416.79951    225.85268 
   98500    133.34559   -159.04309    140619.52   -39325.777    2677.0134    -42002.79    417.04185    225.93271 
   98550    134.35098   -271.85179    140600.46   -39334.218    2697.1975   -42031.415    417.32433    227.63619 
   98600    135.61376   -93.238523    140604.56   -39326.464    2722.5488   -42049.013    417.62325    229.77577 
   98650    136.01154   -50.343945    140669.38   -39308.168    2730.5344   -42038.703    418.24797    230.44974 
   98700    131.88007   -289.27462    140693.11    -39319.03    2647.5922   -41966.622    418.17817    223.44964 
   98750    133.90648    -194.9415    140764.74   -39331.308    2688.2738   -42019.582    418.10479    226.88305 
   98800    131.29384   -215.11794    140716.14    -39436.41    2635.8231   -42072.233    417.92929    222.45636 
   98850    130.29606   -205.25596    140744.47   -39454.278    2615.7918    -42070.07    418.13012    220.76577 
   98900    130.22195    -98.28686    140780.97    -39433.55     2614.304   -42047.854    418.56963     220.6402 
   98950    130.80291   -189.09978    140844.45   -39452.709    2625.9672   -42078.676    418.19581    221.62455 
   99000    132.91679   -383.08222    140836.35   -39430.871    2668.4049   -42099.276    418.28787    225.20618 
   99050    132.01252   -366.33493    140805.84    -39412.96    2650.2511   -42063.211    419.18041    223.67405 
   99100    132.24504   -300.14936    140807.72   -39403.575    2654.9192   -42058.494    419.77924    224.06802 
   99150    133.09552   -251.39726    140833.42    -39417.77    2671.9932   -42089.763    419.85787    225.50902 
   99200    131.21619   -441.25292    140797.71   -39454.612    2634.2641   -42088.876    419.60567    222.32479 
   99250     133.3065   -154.73794    140720.78   -39385.043    2676.2287   -42061.271    419.88319    225.86648 
   99300    134.58144   -229.19766    140730.24   -39332.277    2701.8241   -42034.101    420.30507    228.02666 
   99350    132.53904   -322.89801    140640.85   -39349.754    2660.8215   -42010.576    420.83529    224.56615 
   99400    133.19844   -282.54952    140575.68   -39409.109    2674.0594   -42083.169    420.96402     225.6834 
   99450    131.94945   -42.875604    140597.63   -39440.623     2648.985   -42089.608    420.73071    223.56719 
   99500    133.47104    71.832965    140660.54   -39437.537    2679.5319   -42117.069    420.58714    226.14526 
   99550    132.36069   -66.552341    140705.67   -39429.369    2657.2408    -42086.61    420.50284    224.26396 
   99600    131.67659   -263.63269     140744.1   -39461.221    2643.5071   -42104.729     420.5432    223.10486 
   99650    132.62714   -322.87039    140699.84    -39428.37    2662.5901   -42090.961    420.82156    224.71542 
   99700    133.82374    1.3786833    140750.02   -39423.518    2686.6127   -42110.131     421.4603    226.74286 
   99750     132.6127   -325.55135    140766.32   -39437.577    2662.3001   -42099.877    421.49917    224.69095 
   99800    131.17486   -292.56884    140770.96   -39436.078    2633.4345   -42069.513    421.55501    222.25477 
   99850    133.13659   -116.78469    140752.11   -39385.937    2672.8178   -42058.755    421.40703    225.57861 
   99900     131.0789   -152.66784    140809.09    -39391.37    2631.5079   -42022.878    421.84634    222.09217 
   99950    136.10018   -152.70922    140853.55   -39336.616     2732.314    -42068.93     421.9407    230.59993 
  100000    133.72578   -191.06688    140884.24   -39322.694    2684.6462    -42007.34    421.82083    226.57689 
Loop time of 194.856 on 64 procs for 100000 steps with 6736 atoms

Performance: 221.702 ns/day, 0.108 hours/ns, 513.200 timesteps/s
100.0% CPU use with 64 MPI tasks x no OpenMP threads

MPI task timing breakdown:
Section |  min time  |  avg time  |  max time  |%varavg| %total
---------------------------------------------------------------
Pair    | 37.18      | 92.671     | 153.2      | 570.0 | 47.56
Neigh   | 1.3077     | 2.6462     | 5.4968     |  88.6 |  1.36
Comm    | 28.569     | 87.232     | 145.02     | 566.9 | 44.77
Output  | 0.12408    | 0.12581    | 0.13695    |   0.4 |  0.06
Modify  | 6.9093     | 11.442     | 19.939     | 134.3 |  5.87
Other   |            | 0.7393     |            |       |  0.38

Nlocal:    105.25 ave 173 max 68 min
Histogram: 29 3 0 9 7 0 0 0 7 9
Nghost:    996.422 ave 1341 max 671 min
Histogram: 32 0 0 0 0 0 0 0 4 28
Neighs:    0 ave 0 max 0 min
Histogram: 64 0 0 0 0 0 0 0 0 0
FullNghs:  12658.9 ave 27632 max 4354 min
Histogram: 32 0 0 0 16 0 0 0 4 12

Total # of neighbors = 810170
Ave neighs/atom = 120.275
Neighbor list builds = 6147
Dangerous builds = 0

write_data		${DIR}/data.eq-${NAME}-${TEMP}
write_data		run_14/data.eq-${NAME}-${TEMP}
write_data		run_14/data.eq-het_freeze_14-${TEMP}
write_data		run_14/data.eq-het_freeze_14-225
undump          1

reset_timestep  0

unfix           2
unfix           3
unfix           4


################################################
#######         Run Simulation         #########
################################################

log				${DIR}/log.run_${NAME}
log				run_14/log.run_${NAME}
log				run_14/log.run_het_freeze_14
