LAMMPS data file via write_data, version 16 Mar 2018, timestep = 100000

4990 atoms
2 atom types

0.0000000000000000e+00 4.9219999999999999e+01 xlo xhi
0.0000000000000000e+00 4.9019635930410494e+01 ylo yhi
2.1478601954920791e+00 3.7852139804508219e+01 zlo zhi

Masses

1 18.015
2 12.01

Atoms # atomic

460 1 7.1266972467631016e+00 1.9301755854451799e+00 1.0591744637101279e+01 1 1 1
1714 1 2.0636030952430415e+00 3.2070171743977869e+00 5.5266796849092792e+00 1 0 0
923 1 4.8551662283921537e+00 2.8784157013060891e+00 4.6600905535274801e+00 0 0 1
3044 1 8.9991451121136556e+00 4.7361623112005374e-01 3.7591246221559302e+00 0 1 1
2900 1 7.3018431132083830e+00 3.5179999996457050e+00 6.2598116140733300e+00 1 0 0
3512 1 6.3861545329187637e+00 4.7341419004729113e-01 5.2369498856471655e+00 0 1 0
4359 1 1.2081364068593293e+01 4.6836621114590828e+00 5.6255482525246610e+00 1 0 0
4355 1 2.5496953225035837e+00 3.6189760458094156e-01 5.7706031737572694e+00 0 0 0
2980 1 3.5971159789575915e+00 6.1683211150339048e+00 6.0684630273335038e+00 0 1 1
3053 1 8.1666159646085017e+00 8.2848546148483617e+00 2.4222935038725248e+00 0 0 1
2053 1 7.1140702162241656e+00 9.9157562194265072e+00 7.0014835632647312e+00 1 -1 1
1734 1 6.8890701709857840e+00 1.1182770329294840e+01 4.3422858415426244e+00 0 1 1
1344 1 8.1250057530182325e+00 3.7878564030522290e+00 3.2380186761065577e+00 1 0 1
1041 1 1.0316055665163379e+01 4.8143158711313108e+00 9.3793264490905948e+00 1 1 0
1757 1 2.4845577021176712e-01 3.9225211132484383e+00 3.3341806186386842e+00 0 0 1
3781 1 1.2269698203262898e+01 7.5810567784044487e+00 8.5381157000614092e+00 0 -1 1
3450 1 5.0136742405697658e+00 7.1293472800320128e+00 3.5804599019445202e+00 0 0 0
4338 1 1.0936926618141177e+01 1.1822900609188736e+01 8.1398482073879741e+00 0 0 1
2569 1 9.5029069985321577e+00 1.0276579389457165e+01 4.0736992241760603e+00 -1 0 0
461 1 1.9995796402973320e+00 7.8778501228817497e+00 8.4651020055935575e+00 1 -1 1
3518 1 4.0605559311026207e+00 1.1781414610368534e+01 3.2192838720430550e+00 1 -1 0
10 1 9.8043907696153365e+00 9.3938170464666317e+00 6.8475411220860458e+00 0 0 0
3472 1 1.0548221977614533e+01 7.0026046620680082e+00 5.1708147367980342e+00 0 0 1
1278 1 1.0995479616956548e+01 2.9475537589228096e+00 3.7606544413738301e+00 -1 1 1
4594 1 2.8653696843700462e+00 4.8891540322665632e+00 8.9608228709992108e+00 1 0 2
2168 1 7.0337393699302968e+00 9.0718085027301498e+00 1.0222149238838595e+01 0 0 1
360 1 5.0219240753383438e+00 2.8391795179622927e+00 8.5681552299388137e+00 1 1 1
2926 1 6.5251828000217982e-01 5.7953739692803019e+00 6.3021139961493731e+00 1 1 2
3392 1 7.0004557010396358e+00 5.4114530272809596e+00 8.8541112089500125e+00 1 1 0
2164 1 1.2855675666302027e+00 1.1625383955200000e+01 6.0420338634064628e+00 0 0 1
3451 1 1.1635489372895142e+01 6.9737403353864044e-03 2.3290186230156564e+00 -1 0 0
1815 1 6.3141948240066759e+00 7.3805199499790408e+00 6.9668482172253876e+00 0 0 0
993 1 8.4380216822730798e+00 1.7316802277188970e-01 8.7566151782939805e+00 1 1 1
950 1 7.7847653788372169e+00 6.5214272988421271e+00 4.7036472456281544e+00 0 1 1
4574 1 9.1913141155765121e+00 7.5823416937478836e+00 9.0089945959803455e+00 1 0 1
2078 1 9.4979702703373867e+00 1.5096239012449275e+00 6.5348168974164702e+00 1 0 1
2133 1 3.6660371618485841e+00 9.2893835889341876e+00 6.7601122794951216e+00 1 0 1
82 1 4.2528452016333471e+00 1.0381243369431493e+01 9.5225729684913958e+00 0 1 -1
3462 1 3.1839596171478699e+00 9.3390057010732246e+00 3.9014969051349246e+00 0 0 0
1292 1 1.1515441994696317e+01 3.0345043476347784e+00 7.6315751839546389e+00 0 1 2
2221 1 6.4911091197912874e-01 3.1758280176530822e+00 8.3640408860040960e+00 -1 0 0
483 1 1.1805151557929488e+01 1.0006534511885098e+01 1.0143640093906052e+01 1 -1 1
4300 1 4.3201342159469019e-01 9.7646839856762124e+00 2.5619969836939012e+00 1 -1 0
2129 1 6.4651395934381197e+00 1.2236031925440729e+01 9.3175267369906472e+00 0 0 0
518 1 3.7180069386718824e+00 3.9581671255098172e-01 8.3042816433086983e+00 1 0 1
3005 1 2.3175038996840902e+00 4.7417207803470331e+00 1.4347238698225855e+01 0 0 0
137 1 2.3345734790622994e+00 1.1535496844222356e+01 1.3765827635093853e+01 0 0 0
4646 1 1.1066699625304420e+01 7.9570868205290450e+00 1.1974248577152792e+01 1 1 2
2671 1 2.2378630488835261e-01 2.8083578933309563e+00 1.4350321629274854e+01 0 1 0
4193 1 4.7077061979684300e+00 4.1743447771203881e+00 1.1146452094990067e+01 1 0 1
32 1 4.3667612881426603e+00 1.2220587341736644e+00 1.4389704625469950e+01 0 1 0
4194 1 8.7502110671975561e+00 6.1898934021826146e-01 1.4472164089663837e+01 -1 1 0
4302 1 9.1707769114095363e+00 3.1725764266082717e+00 1.4179587141717155e+01 1 0 0
262 2 8.6134999999999984e+00 9.2355835810918343e+00 1.7008691040064356e+01 0 0 0
1358 1 7.7707676502818634e-01 7.2028471365165876e+00 1.4044239165308342e+01 0 -1 1
284 2 9.8440000000000012e+00 1.1366872099805333e+01 1.7008691040064356e+01 0 0 0
1777 1 4.6707750482669583e+00 4.0281435927993803e+00 1.4034171932488970e+01 1 0 0
2963 1 6.5243960668645524e+00 1.0216571451621640e+01 1.4287831641999373e+01 0 1 2
285 2 9.8440000000000012e+00 8.5251540748539956e+00 1.7008691040064356e+01 0 0 0
880 1 7.2957572952430514e+00 5.3256075119806949e+00 1.4375638590273420e+01 -1 1 0
3798 1 1.1462136611689489e+01 9.1092235201166822e+00 1.4594951976351803e+01 1 0 1
286 2 1.1074500000000002e+01 9.2355835810918343e+00 1.7008691040064356e+01 0 0 0
1808 1 9.1584411091678515e+00 5.8314158948607746e+00 1.2103310482509000e+01 1 0 0
307 2 1.1074500000000002e+01 1.0656442593567498e+01 1.7008691040064356e+01 0 0 0
4573 1 2.8160588793322523e+00 8.8316224772279721e+00 1.4347591584401496e+01 0 0 0
308 2 1.2304999999999998e+01 1.1366872099805333e+01 1.7008691040064356e+01 0 0 0
283 2 8.6134999999999984e+00 1.0656442593567498e+01 1.7008691040064356e+01 0 0 0
3767 1 5.4752919870918637e+00 7.8875063297743049e+00 1.4236762101589434e+01 0 1 0
1824 1 6.3893863256933621e+00 6.4379346216716735e+00 1.1691345622399306e+01 1 1 0
3532 1 9.2291647648933459e+00 1.0651771592556210e+01 1.4312784878725740e+01 1 1 1
122 1 1.2129564371402665e+01 3.2882313869465727e+00 1.4681658891448995e+01 1 0 1
3487 1 9.2719338661293875e+00 1.0285604631964365e+01 1.1489262713225717e+01 0 0 -1
1345 1 1.8451303940628836e+00 4.6748428740231401e-01 1.3970314134898615e+01 0 1 0
193 2 0.0000000000000000e+00 2.8417180249513345e+00 1.7008691040064356e+01 0 0 0
194 2 0.0000000000000000e+00 0.0000000000000000e+00 1.7008691040064356e+01 0 0 0
195 2 1.2305000000000001e+00 7.1042950623783474e-01 1.7008691040064356e+01 0 0 0
199 2 1.2305000000000001e+00 2.1312885187134998e+00 1.7008691040064356e+01 0 0 0
200 2 2.4610000000000003e+00 2.8417180249513345e+00 1.7008691040064356e+01 0 0 0
201 2 2.4610000000000003e+00 0.0000000000000000e+00 1.7008691040064356e+01 0 0 0
202 2 3.6915000000000004e+00 7.1042950623783474e-01 1.7008691040064356e+01 0 0 0
210 2 3.6914999999999996e+00 2.1312885187134998e+00 1.7008691040064356e+01 0 0 0
211 2 4.9220000000000006e+00 2.8417180249513332e+00 1.7008691040064356e+01 0 0 0
212 2 4.9220000000000006e+00 0.0000000000000000e+00 1.7008691040064356e+01 0 0 0
213 2 6.1524999999999999e+00 7.1042950623783407e-01 1.7008691040064356e+01 0 0 0
225 2 6.1524999999999999e+00 2.1312885187134989e+00 1.7008691040064356e+01 0 0 0
226 2 7.3829999999999991e+00 2.8417180249513345e+00 1.7008691040064356e+01 0 0 0
227 2 7.3829999999999991e+00 0.0000000000000000e+00 1.7008691040064356e+01 0 0 0
228 2 8.6134999999999984e+00 7.1042950623783407e-01 1.7008691040064356e+01 0 0 0
244 2 8.6134999999999984e+00 2.1312885187135002e+00 1.7008691040064356e+01 0 0 0
245 2 9.8440000000000012e+00 2.8417180249513332e+00 1.7008691040064356e+01 0 0 0
246 2 9.8440000000000012e+00 0.0000000000000000e+00 1.7008691040064356e+01 0 0 0
247 2 1.1074500000000002e+01 7.1042950623783330e-01 1.7008691040064356e+01 0 0 0
267 2 1.1074500000000002e+01 2.1312885187135002e+00 1.7008691040064356e+01 0 0 0
197 2 0.0000000000000000e+00 4.2625770374269996e+00 1.7008691040064356e+01 0 0 0
198 2 1.2305000000000001e+00 4.9730065436648339e+00 1.7008691040064356e+01 0 0 0
206 2 1.2305000000000001e+00 6.3938655561404980e+00 1.7008691040064356e+01 0 0 0
208 2 2.4610000000000003e+00 4.2625770374269996e+00 1.7008691040064356e+01 0 0 0
209 2 3.6914999999999996e+00 4.9730065436648339e+00 1.7008691040064356e+01 0 0 0
221 2 3.6914999999999996e+00 6.3938655561404980e+00 1.7008691040064356e+01 0 0 0
196 2 0.0000000000000000e+00 7.1042950623783341e+00 1.7008691040064356e+01 0 0 0
207 2 2.4610000000000003e+00 7.1042950623783341e+00 1.7008691040064356e+01 0 0 0
223 2 4.9220000000000006e+00 4.2625770374269978e+00 1.7008691040064356e+01 0 0 0
224 2 6.1524999999999999e+00 4.9730065436648339e+00 1.7008691040064356e+01 0 0 0
240 2 6.1524999999999999e+00 6.3938655561404980e+00 1.7008691040064356e+01 0 0 0
242 2 7.3829999999999991e+00 4.2625770374269996e+00 1.7008691040064356e+01 0 0 0
222 2 4.9220000000000006e+00 7.1042950623783341e+00 1.7008691040064356e+01 0 0 0
241 2 7.3830000000000009e+00 7.1042950623783341e+00 1.7008691040064356e+01 0 0 0
243 2 8.6135000000000002e+00 4.9730065436648339e+00 1.7008691040064356e+01 0 0 0
263 2 8.6135000000000002e+00 6.3938655561404980e+00 1.7008691040064356e+01 0 0 0
265 2 9.8440000000000012e+00 4.2625770374270004e+00 1.7008691040064356e+01 0 0 0
266 2 1.1074500000000002e+01 4.9730065436648339e+00 1.7008691040064356e+01 0 0 0
287 2 1.1074500000000002e+01 6.3938655561404980e+00 1.7008691040064356e+01 0 0 0
264 2 9.8440000000000012e+00 7.1042950623783341e+00 1.7008691040064356e+01 0 0 0
204 2 0.0000000000000000e+00 8.5251540748539991e+00 1.7008691040064356e+01 0 0 0
205 2 1.2305000000000001e+00 9.2355835810918343e+00 1.7008691040064356e+01 0 0 0
219 2 2.4610000000000003e+00 8.5251540748539991e+00 1.7008691040064356e+01 0 0 0
220 2 3.6915000000000004e+00 9.2355835810918343e+00 1.7008691040064356e+01 0 0 0
203 2 0.0000000000000000e+00 1.1366872099805333e+01 1.7008691040064356e+01 0 0 0
217 2 1.2305000000000001e+00 1.0656442593567498e+01 1.7008691040064356e+01 0 0 0
218 2 2.4610000000000003e+00 1.1366872099805333e+01 1.7008691040064356e+01 0 0 0
236 2 3.6914999999999996e+00 1.0656442593567499e+01 1.7008691040064356e+01 0 0 0
239 2 6.1524999999999999e+00 9.2355835810918343e+00 1.7008691040064356e+01 0 0 0
237 2 4.9220000000000006e+00 1.1366872099805333e+01 1.7008691040064356e+01 0 0 0
261 2 7.3830000000000009e+00 8.5251540748539991e+00 1.7008691040064356e+01 0 0 0
259 2 6.1524999999999999e+00 1.0656442593567499e+01 1.7008691040064356e+01 0 0 0
260 2 7.3829999999999991e+00 1.1366872099805333e+01 1.7008691040064356e+01 0 0 0
238 2 4.9220000000000006e+00 8.5251540748539991e+00 1.7008691040064356e+01 0 0 0
2701 1 9.6806169203647059e+00 2.6134454780731158e+00 1.1601644376252667e+01 0 0 -1
1793 1 6.8660255010749860e-01 5.6607587826314996e+00 1.1349384906357130e+01 -1 0 0
893 1 9.6398203023717335e-02 2.8617352049538014e+00 1.1398979997508995e+01 0 1 0
3409 1 1.8270174183216070e+00 9.8224653917079880e+00 1.1487098937307787e+01 1 0 0
4360 1 4.0234502268536287e+00 1.1389172135702044e+00 1.1242121905372120e+01 0 2 1
1874 1 1.6106806367393725e+00 1.9755223150931209e-01 1.1165245316523874e+01 1 0 1
2165 1 1.2114938486236829e+01 6.2748827355822110e+00 1.4853540782104902e+01 0 -1 2
3755 1 6.4888726250877733e+00 1.5005642462474356e-01 1.3079665692069691e+01 1 1 0
538 1 3.2134475078101343e+00 7.1957664406205168e+00 1.1164450315663807e+01 1 0 0
549 2 0.0000000000000000e+00 1.4208590124756650e+00 2.0027905680937685e+01 0 0 0
550 2 0.0000000000000000e+00 0.0000000000000000e+00 2.0027905680937685e+01 0 0 0
554 2 1.2305000000000001e+00 2.1312885187134998e+00 2.0027905680937685e+01 0 0 0
555 2 2.4610000000000003e+00 1.4208590124756650e+00 2.0027905680937685e+01 0 0 0
556 2 2.4610000000000003e+00 0.0000000000000000e+00 2.0027905680937685e+01 0 0 0
564 2 3.6914999999999996e+00 2.1312885187134998e+00 2.0027905680937685e+01 0 0 0
710 2 0.0000000000000000e+00 2.8417180249513345e+00 2.3047120321811192e+01 0 0 0
711 2 0.0000000000000000e+00 0.0000000000000000e+00 2.3047120321811192e+01 0 0 0
712 2 1.2305000000000001e+00 7.1042950623783474e-01 2.3047120321811192e+01 0 0 0
716 2 1.2305000000000001e+00 2.1312885187134998e+00 2.3047120321811192e+01 0 0 0
717 2 2.4610000000000003e+00 2.8417180249513345e+00 2.3047120321811192e+01 0 0 0
718 2 2.4610000000000003e+00 0.0000000000000000e+00 2.3047120321811192e+01 0 0 0
719 2 3.6915000000000004e+00 7.1042950623783474e-01 2.3047120321811192e+01 0 0 0
727 2 3.6914999999999996e+00 2.1312885187134998e+00 2.3047120321811192e+01 0 0 0
553 2 1.2305000000000001e+00 3.5521475311891644e+00 2.0027905680937685e+01 0 0 0
563 2 3.6914999999999996e+00 3.5521475311891644e+00 2.0027905680937685e+01 0 0 0
565 2 4.9220000000000006e+00 1.4208590124756650e+00 2.0027905680937685e+01 0 0 0
566 2 4.9220000000000006e+00 0.0000000000000000e+00 2.0027905680937685e+01 0 0 0
578 2 6.1524999999999999e+00 2.1312885187134989e+00 2.0027905680937685e+01 0 0 0
579 2 7.3829999999999991e+00 1.4208590124756659e+00 2.0027905680937685e+01 0 0 0
580 2 7.3829999999999991e+00 0.0000000000000000e+00 2.0027905680937685e+01 0 0 0
728 2 4.9220000000000006e+00 2.8417180249513332e+00 2.3047120321811192e+01 0 0 0
729 2 4.9220000000000006e+00 0.0000000000000000e+00 2.3047120321811192e+01 0 0 0
730 2 6.1524999999999999e+00 7.1042950623783407e-01 2.3047120321811192e+01 0 0 0
742 2 6.1524999999999999e+00 2.1312885187134989e+00 2.3047120321811192e+01 0 0 0
743 2 7.3829999999999991e+00 2.8417180249513345e+00 2.3047120321811192e+01 0 0 0
744 2 7.3829999999999991e+00 0.0000000000000000e+00 2.3047120321811192e+01 0 0 0
577 2 6.1524999999999999e+00 3.5521475311891644e+00 2.0027905680937685e+01 0 0 0
596 2 8.6134999999999984e+00 2.1312885187135002e+00 2.0027905680937685e+01 0 0 0
597 2 9.8440000000000012e+00 1.4208590124756659e+00 2.0027905680937685e+01 0 0 0
598 2 9.8440000000000012e+00 0.0000000000000000e+00 2.0027905680937685e+01 0 0 0
618 2 1.1074500000000002e+01 2.1312885187135002e+00 2.0027905680937685e+01 0 0 0
745 2 8.6134999999999984e+00 7.1042950623783407e-01 2.3047120321811192e+01 0 0 0
761 2 8.6134999999999984e+00 2.1312885187135002e+00 2.3047120321811192e+01 0 0 0
762 2 9.8440000000000012e+00 2.8417180249513332e+00 2.3047120321811192e+01 0 0 0
763 2 9.8440000000000012e+00 0.0000000000000000e+00 2.3047120321811192e+01 0 0 0
764 2 1.1074500000000002e+01 7.1042950623783330e-01 2.3047120321811192e+01 0 0 0
784 2 1.1074500000000002e+01 2.1312885187135002e+00 2.3047120321811192e+01 0 0 0
595 2 8.6134999999999984e+00 3.5521475311891657e+00 2.0027905680937685e+01 0 0 0
617 2 1.1074500000000002e+01 3.5521475311891644e+00 2.0027905680937685e+01 0 0 0
551 2 0.0000000000000000e+00 5.6834360499026637e+00 2.0027905680937685e+01 0 0 0
552 2 0.0000000000000000e+00 4.2625770374269996e+00 2.0027905680937685e+01 0 0 0
560 2 1.2305000000000001e+00 6.3938655561404980e+00 2.0027905680937685e+01 0 0 0
561 2 2.4610000000000003e+00 5.6834360499026637e+00 2.0027905680937685e+01 0 0 0
562 2 2.4610000000000003e+00 4.2625770374269996e+00 2.0027905680937685e+01 0 0 0
574 2 3.6914999999999996e+00 6.3938655561404980e+00 2.0027905680937685e+01 0 0 0
714 2 0.0000000000000000e+00 4.2625770374269996e+00 2.3047120321811192e+01 0 0 0
715 2 1.2305000000000001e+00 4.9730065436648339e+00 2.3047120321811192e+01 0 0 0
723 2 1.2305000000000001e+00 6.3938655561404980e+00 2.3047120321811192e+01 0 0 0
725 2 2.4610000000000003e+00 4.2625770374269996e+00 2.3047120321811192e+01 0 0 0
726 2 3.6914999999999996e+00 4.9730065436648339e+00 2.3047120321811192e+01 0 0 0
738 2 3.6914999999999996e+00 6.3938655561404980e+00 2.3047120321811192e+01 0 0 0
559 2 1.2305000000000001e+00 7.8147245686161639e+00 2.0027905680937685e+01 0 0 0
573 2 3.6914999999999996e+00 7.8147245686161639e+00 2.0027905680937685e+01 0 0 0
713 2 0.0000000000000000e+00 7.1042950623783341e+00 2.3047120321811192e+01 0 0 0
724 2 2.4610000000000003e+00 7.1042950623783341e+00 2.3047120321811192e+01 0 0 0
575 2 4.9220000000000006e+00 5.6834360499026637e+00 2.0027905680937685e+01 0 0 0
576 2 4.9220000000000006e+00 4.2625770374269978e+00 2.0027905680937685e+01 0 0 0
592 2 6.1524999999999999e+00 6.3938655561404980e+00 2.0027905680937685e+01 0 0 0
593 2 7.3829999999999991e+00 5.6834360499026637e+00 2.0027905680937685e+01 0 0 0
594 2 7.3829999999999991e+00 4.2625770374269996e+00 2.0027905680937685e+01 0 0 0
740 2 4.9220000000000006e+00 4.2625770374269978e+00 2.3047120321811192e+01 0 0 0
741 2 6.1524999999999999e+00 4.9730065436648339e+00 2.3047120321811192e+01 0 0 0
757 2 6.1524999999999999e+00 6.3938655561404980e+00 2.3047120321811192e+01 0 0 0
759 2 7.3829999999999991e+00 4.2625770374269996e+00 2.3047120321811192e+01 0 0 0
591 2 6.1524999999999999e+00 7.8147245686161639e+00 2.0027905680937685e+01 0 0 0
739 2 4.9220000000000006e+00 7.1042950623783341e+00 2.3047120321811192e+01 0 0 0
758 2 7.3830000000000009e+00 7.1042950623783341e+00 2.3047120321811192e+01 0 0 0
614 2 8.6135000000000002e+00 6.3938655561404980e+00 2.0027905680937685e+01 0 0 0
615 2 9.8440000000000012e+00 5.6834360499026637e+00 2.0027905680937685e+01 0 0 0
616 2 9.8440000000000012e+00 4.2625770374270004e+00 2.0027905680937685e+01 0 0 0
637 2 1.1074500000000002e+01 6.3938655561404980e+00 2.0027905680937685e+01 0 0 0
760 2 8.6135000000000002e+00 4.9730065436648339e+00 2.3047120321811192e+01 0 0 0
780 2 8.6135000000000002e+00 6.3938655561404980e+00 2.3047120321811192e+01 0 0 0
782 2 9.8440000000000012e+00 4.2625770374270004e+00 2.3047120321811192e+01 0 0 0
783 2 1.1074500000000002e+01 4.9730065436648339e+00 2.3047120321811192e+01 0 0 0
804 2 1.1074500000000002e+01 6.3938655561404980e+00 2.3047120321811192e+01 0 0 0
613 2 8.6135000000000002e+00 7.8147245686161639e+00 2.0027905680937685e+01 0 0 0
636 2 1.1074500000000002e+01 7.8147245686161639e+00 2.0027905680937685e+01 0 0 0
781 2 9.8440000000000012e+00 7.1042950623783341e+00 2.3047120321811192e+01 0 0 0
557 2 0.0000000000000000e+00 9.9460130873296642e+00 2.0027905680937685e+01 0 0 0
558 2 0.0000000000000000e+00 8.5251540748539991e+00 2.0027905680937685e+01 0 0 0
571 2 2.4610000000000003e+00 9.9460130873296642e+00 2.0027905680937685e+01 0 0 0
572 2 2.4610000000000003e+00 8.5251540748539991e+00 2.0027905680937685e+01 0 0 0
721 2 0.0000000000000000e+00 8.5251540748539991e+00 2.3047120321811192e+01 0 0 0
722 2 1.2305000000000001e+00 9.2355835810918343e+00 2.3047120321811192e+01 0 0 0
736 2 2.4610000000000003e+00 8.5251540748539991e+00 2.3047120321811192e+01 0 0 0
737 2 3.6915000000000004e+00 9.2355835810918343e+00 2.3047120321811192e+01 0 0 0
569 2 1.2305000000000001e+00 1.2077301606043163e+01 2.0027905680937685e+01 0 0 0
570 2 1.2305000000000001e+00 1.0656442593567498e+01 2.0027905680937685e+01 0 0 0
587 2 3.6914999999999996e+00 1.2077301606043163e+01 2.0027905680937685e+01 0 0 0
588 2 3.6914999999999996e+00 1.0656442593567499e+01 2.0027905680937685e+01 0 0 0
720 2 0.0000000000000000e+00 1.1366872099805333e+01 2.3047120321811192e+01 0 0 0
734 2 1.2305000000000001e+00 1.0656442593567498e+01 2.3047120321811192e+01 0 0 0
735 2 2.4610000000000003e+00 1.1366872099805333e+01 2.3047120321811192e+01 0 0 0
753 2 3.6914999999999996e+00 1.0656442593567499e+01 2.3047120321811192e+01 0 0 0
589 2 4.9220000000000006e+00 9.9460130873296642e+00 2.0027905680937685e+01 0 0 0
590 2 4.9220000000000006e+00 8.5251540748539991e+00 2.0027905680937685e+01 0 0 0
611 2 7.3830000000000009e+00 9.9460130873296642e+00 2.0027905680937685e+01 0 0 0
612 2 7.3830000000000009e+00 8.5251540748539991e+00 2.0027905680937685e+01 0 0 0
755 2 4.9220000000000006e+00 8.5251540748539991e+00 2.3047120321811192e+01 0 0 0
756 2 6.1524999999999999e+00 9.2355835810918343e+00 2.3047120321811192e+01 0 0 0
778 2 7.3830000000000009e+00 8.5251540748539991e+00 2.3047120321811192e+01 0 0 0
609 2 6.1524999999999999e+00 1.2077301606043163e+01 2.0027905680937685e+01 0 0 0
610 2 6.1524999999999999e+00 1.0656442593567499e+01 2.0027905680937685e+01 0 0 0
754 2 4.9220000000000006e+00 1.1366872099805333e+01 2.3047120321811192e+01 0 0 0
776 2 6.1524999999999999e+00 1.0656442593567499e+01 2.3047120321811192e+01 0 0 0
777 2 7.3829999999999991e+00 1.1366872099805333e+01 2.3047120321811192e+01 0 0 0
634 2 9.8440000000000012e+00 9.9460130873296642e+00 2.0027905680937685e+01 0 0 0
635 2 9.8440000000000012e+00 8.5251540748539956e+00 2.0027905680937685e+01 0 0 0
779 2 8.6134999999999984e+00 9.2355835810918343e+00 2.3047120321811192e+01 0 0 0
802 2 9.8440000000000012e+00 8.5251540748539956e+00 2.3047120321811192e+01 0 0 0
803 2 1.1074500000000002e+01 9.2355835810918343e+00 2.3047120321811192e+01 0 0 0
632 2 8.6135000000000002e+00 1.2077301606043163e+01 2.0027905680937685e+01 0 0 0
633 2 8.6134999999999984e+00 1.0656442593567498e+01 2.0027905680937685e+01 0 0 0
655 2 1.1074500000000002e+01 1.2077301606043163e+01 2.0027905680937685e+01 0 0 0
656 2 1.1074500000000002e+01 1.0656442593567498e+01 2.0027905680937685e+01 0 0 0
800 2 8.6134999999999984e+00 1.0656442593567498e+01 2.3047120321811192e+01 0 0 0
801 2 9.8440000000000012e+00 1.1366872099805333e+01 2.3047120321811192e+01 0 0 0
824 2 1.1074500000000002e+01 1.0656442593567498e+01 2.3047120321811192e+01 0 0 0
825 2 1.2304999999999998e+01 1.1366872099805333e+01 2.3047120321811192e+01 0 0 0
4572 1 1.0516746289345036e+01 5.8419793523938535e-01 2.8415311987564600e+01 0 0 -1
992 1 1.0935092631181096e+01 6.7861288717405337e+00 2.8223774571286654e+01 0 1 0
4642 1 1.0661505326162878e+01 6.0477704149975500e+00 2.5566953587892414e+01 0 0 -1
4374 1 5.1666451448506212e+00 1.8471009451412113e+00 2.5749999059606928e+01 1 0 -1
25 1 2.7379884075937349e+00 1.8549464867864074e+00 2.8239461173410131e+01 0 0 0
2996 1 5.4140007171874922e+00 5.2335198881510827e+00 2.8346319581172374e+01 0 0 0
890 1 3.6048046585373332e+00 1.1071398478069701e+01 2.8605855634144223e+01 1 0 -1
425 1 1.0065805182505045e+01 1.0611848355299383e+00 2.5231392420452565e+01 0 0 0
3822 1 9.7285398460392667e+00 8.6146326531156863e+00 2.5417821604901889e+01 0 0 -1
2715 1 7.5952861761411414e+00 1.2533645066117552e-01 2.5984238925835108e+01 1 0 -1
4665 1 5.0205215458116852e+00 7.0928539871187208e+00 2.5529533308527320e+01 1 0 0
3821 1 2.7014078344193519e+00 3.4942798196183475e+00 2.5186083135394096e+01 0 1 0
2176 1 2.3243768408074961e+00 6.1697457659431389e+00 2.6120377364643698e+01 2 0 0
1340 1 8.9234709596844279e+00 3.7289929005081324e+00 2.5496389273602883e+01 1 1 0
1850 1 6.2123151317706551e+00 4.6349182282143220e+00 2.5671260238449065e+01 1 2 -1
3371 1 3.3448465255703406e+00 1.0138192970569852e+01 2.5721132666671586e+01 1 0 0
4598 1 7.4577989492382563e-02 1.4488452551091939e+00 2.8908444686765186e+01 2 0 1
1707 1 8.7757100520007914e+00 2.6179306922293191e+00 2.7981723985270843e+01 0 0 0
409 1 7.0485891160324474e+00 9.0350985675714224e+00 2.6142256353084335e+01 0 0 0
472 1 1.3864201625682955e+00 1.2232177487952987e+01 2.5583153184388703e+01 0 1 0
4664 1 1.3246882332613130e+00 8.6588693234560150e+00 2.7526467570375022e+01 2 1 1
4290 1 1.0664937492226443e+01 1.1244742064624980e+01 2.5986616634976262e+01 -1 0 -1
2989 1 2.3308643564818021e-01 2.1646785505907027e+00 2.5677016311448668e+01 1 0 -1
3514 1 4.4988495893856735e+00 8.2130930162017197e+00 2.8534947343814146e+01 0 0 -1
2906 1 2.6056965495488571e+00 4.7804534741615070e+00 2.8463677019580366e+01 1 0 0
65 1 6.2024750404162701e+00 2.7207152510537909e+00 2.8646392568068570e+01 0 0 0
2172 1 5.8844760029272409e+00 1.1496682537440821e+01 2.5460573624220178e+01 0 0 0
994 1 9.7989484302598253e+00 9.2069744855899049e+00 2.8627782767645712e+01 1 1 -1
4261 1 8.5101958848273789e+00 1.1579209373360266e+01 3.6434438570335786e+01 1 -1 0
388 1 1.0657858400462866e+01 7.8089106154671279e+00 3.7131942141401240e+01 0 -1 0
78 1 8.5147052923739530e-01 3.1015608381098732e+00 3.2596631391166298e+01 0 0 -1
1221 1 1.1160185091001397e+01 1.1356123836977501e+01 3.4746932673529848e+01 0 0 0
3793 1 1.0003907128167731e+01 5.3880819865826028e+00 3.3702119263827015e+01 1 0 0
2939 1 1.1726175227019728e+00 4.9096689476332023e-01 3.4015855249059648e+01 0 1 -1
3698 1 6.7132094868652592e+00 3.5951371172322304e+00 3.1553998542222011e+01 0 1 -1
3723 1 3.8152283405485767e+00 4.1705090701250125e-01 3.5048329176396571e+01 1 0 -1
2137 1 1.0122652742156124e+01 2.0516441720722403e-01 3.1401821133739301e+01 -1 0 -1
516 1 1.1584433176793418e+01 3.2716566577332085e+00 3.6881176693075680e+01 1 0 0
3785 1 2.8456470632011306e+00 7.0533447486351886e+00 3.0676825167275851e+01 1 0 0
4616 1 4.1158575582791457e-02 6.8572435002429160e+00 3.1517827468961141e+01 -1 1 -1
3754 1 2.5630271786015513e+00 4.4480431666057347e+00 3.4646652409762353e+01 0 1 0
940 1 4.7957413590719664e+00 6.0790040169250315e+00 3.2695044352707995e+01 0 1 -1
4304 1 9.2480485601439923e+00 4.9880709692924237e+00 2.9669062431229630e+01 0 1 0
926 1 3.8257391837601400e+00 1.1444234897947293e+01 3.5797491630752923e+01 1 -1 0
408 1 1.0078686859997610e+01 3.3503528856044205e+00 3.1778163011514717e+01 0 0 0
3065 1 5.3516523090564094e+00 8.9495477961669305e+00 3.1979943847260436e+01 3 -1 0
904 1 2.8710101520836782e+00 9.9607279045026438e+00 3.1001987222915179e+01 0 -1 -1
52 1 6.5029745013754461e+00 9.5783829017893840e+00 3.6421378046246538e+01 0 0 -1
3433 1 8.2638956169813369e+00 7.2583070287978044e+00 3.2942041748193247e+01 1 0 -1
4190 1 7.0291248806733071e+00 6.7233885218410263e+00 3.0333113779933740e+01 0 1 -1
881 1 1.1269249854187118e+01 1.3315559814928681e+00 3.5263158568022519e+01 0 0 0
2542 1 1.3715324730162117e+00 2.8666447468764633e+00 3.6731049268629299e+01 1 1 -1
4695 1 3.1223667041975016e+00 6.4665385841717367e+00 3.7082351265951090e+01 0 0 0
457 1 6.9031321876059444e+00 1.2843366841463915e+00 3.7597962411229894e+01 1 1 0
4382 1 6.6296769496550905e+00 1.5524293698156871e-01 3.4522403623912659e+01 1 0 -1
877 1 6.9295801442823208e+00 4.6503583998516040e-01 3.1132756122364068e+01 1 1 -1
4551 1 1.3279803424477832e+00 9.9462019345124340e+00 3.5479131988064218e+01 2 0 0
350 1 1.6558746353495899e+00 7.1701344724255573e+00 3.3749129526498528e+01 0 0 0
1748 1 4.0485011598317007e+00 8.2767070098722328e+00 3.5225001650881232e+01 1 0 -1
2215 1 5.1177856343075270e+00 3.2830117194553634e+00 3.4219855347947501e+01 1 0 -1
883 1 1.1492127473518407e+01 8.6859322767142970e+00 3.4583630278544220e+01 -1 1 -1
870 1 6.7955384281471902e+00 6.6486905805440992e+00 3.5321555909889788e+01 0 2 0
3842 1 8.6452157072662121e+00 2.0618039331634384e+00 3.3882342686435393e+01 0 0 -1
4246 1 1.0139302469974272e+01 8.8608641676515241e+00 3.1629440542626448e+01 1 0 0
936 1 9.9138589123544314e+00 5.3032314888166177e+00 3.6628238349074934e+01 2 0 -1
2056 1 9.2548031112445734e+00 1.1515574123973281e+01 3.1805800696477732e+01 0 1 0
49 1 7.3339966617057009e+00 3.8220829552732787e+00 3.5927442980118478e+01 0 -1 -2
999 1 4.8599951845450973e-01 6.6829048481163689e+00 3.7780394820630811e+01 0 -1 -1
2652 1 8.0321143747860271e-02 4.0837612531726526e+00 2.9997019768508984e+01 1 0 -1
3439 1 3.8308237424244145e+00 1.3500193958544291e+00 3.7512176469695788e+01 0 0 -1
4269 1 6.7075929057476076e+00 1.1354368298343152e+01 3.0673238645543954e+01 0 0 0
3881 1 1.7817895868373956e-01 1.1637570401497937e+01 3.0771947194750325e+01 0 0 0
1286 1 4.5640666400043512e+00 4.0928791550569512e+00 3.7504697915995997e+01 -1 2 0
3021 1 4.2034681849308360e+00 4.5400731605941047e-01 3.0045114668680913e+01 1 1 0
506 1 7.1667773518462763e+00 9.1511102473052635e+00 2.8984811418336005e+01 1 0 1
3425 1 4.0940770324618754e+00 1.5642107403938642e+01 3.5521602516987176e+00 1 0 1
450 1 3.9719586910799420e+00 1.4508582536130923e+01 8.5586331836750968e+00 1 0 1
53 1 6.5972705562596570e+00 1.6866926076249019e+01 3.0105034186172643e+00 1 0 0
3880 1 8.9488875732597801e+00 2.1100224136995259e+01 2.1710571969036940e+00 1 -1 0
524 1 1.0783648732904533e+01 2.2936715773310578e+01 9.1788388043718410e+00 0 -1 1
1226 1 1.0887762859745393e+01 1.9484848153888926e+01 7.1934000529942059e+00 1 0 0
496 1 7.8283530111777671e+00 1.4594547311064204e+01 5.3083688645935592e+00 0 0 1
100 1 7.0650445378456403e+00 1.3416785675996973e+01 2.8451608345651835e+00 1 -1 0
907 1 1.0504778648966109e+01 1.4145223903947757e+01 6.1571625524420455e+00 -1 -2 0
3031 1 3.4858358970847863e+00 1.3454613073699413e+01 5.2057962427656257e+00 1 0 1
1030 1 2.3720865678112006e+00 1.9634067006116332e+01 4.3443854000975097e+00 1 1 1
3477 1 1.4449658688983753e+00 2.1053692731157788e+01 6.6880509541095519e+00 0 1 0
42 1 7.9170097581769481e+00 1.7184523239085483e+01 5.6029984951749041e+00 1 0 2
3772 1 9.6846400223096971e+00 1.9173349259261382e+01 4.3536660728134393e+00 0 1 1
1750 1 1.0871375296462354e+01 1.2911103303305993e+01 3.7753906726428026e+00 0 0 -1
2630 1 9.7215459298429305e+00 2.1742398843891092e+01 5.8818961865708745e+00 0 0 0
4336 1 2.1694823379278702e-01 1.5157653076599562e+01 8.5437869867437186e+00 1 0 1
3721 1 2.1018137869997293e+00 2.3593424963756014e+01 1.0184244267227044e+01 0 1 0
88 1 4.4143198848381147e+00 2.3230732705709489e+01 3.4362098561650409e+00 -1 1 0
2107 1 7.2160938591247321e+00 2.3296831811373597e+01 3.7033227873177186e+00 2 1 0
3441 1 7.4181424525499962e+00 2.2912067455143301e+01 6.4667828720254725e+00 1 -1 0
2177 1 1.2205133049856597e+01 2.2174729493727899e+01 4.4086475563915055e+00 1 -1 1
3032 1 1.2889388009757039e+00 1.9567706366512375e+01 8.6291479009338303e+00 2 1 1
2108 1 2.9780840633256580e+00 1.2803255613226801e+01 1.0400746429086764e+01 0 1 1
18 1 2.5431679940664575e+00 1.6854278896210158e+01 8.3706372926422770e+00 1 0 1
961 1 3.7606540267777229e+00 1.7360807133754793e+01 5.6768891132998114e+00 1 0 0
2223 1 5.5225232032293921e+00 1.7641585326883572e+01 9.6959820366509284e+00 1 0 0
1270 1 5.8295058317935773e+00 1.3033121456849562e+01 6.6830445731254100e+00 0 0 1
941 1 1.0991832500758479e+01 1.6501444442292211e+01 3.8208243184402519e+00 -1 0 0
2586 1 2.2566931978338469e+00 2.0499567967555684e+01 1.0994625722513311e+01 1 0 0
35 1 1.1963890000247678e+01 1.6738542996702034e+01 9.1650315910320757e+00 0 0 1
3848 1 4.9742664083791839e+00 2.1772055207377452e+01 1.0148175967068299e+01 2 0 1