LAMMPS data file via write_data, version 16 Mar 2018, timestep = 6000000

6489 atoms
2 atom types

0.0000000000000000e+00 4.9219999999999999e+01 xlo xhi
0.0000000000000000e+00 4.9019635930410494e+01 ylo yhi
7.6042962678700476e-01 5.9301570373196554e+01 zlo zhi

Masses

1 18.015
2 12.01

Atoms # atomic

1910 1 2.3710304129307036e+00 1.3807080465675976e+00 3.7967315035682079e+00 0 2 0
2006 1 2.3859175561249759e+00 1.6474146632066380e+00 9.8975812423107468e-01 2 2 0
6224 1 2.9617089236805738e-01 5.4031431163170751e+00 1.7498388150704729e+00 1 2 0
4651 1 6.8537301618976523e+00 1.2878055316807462e+01 8.7088583311139498e+00 0 0 1
227 1 4.6160606391645365e+00 2.4510653657597028e+00 5.1866540509635231e+00 1 2 0
4841 1 6.7603551301423170e+00 1.1351715473953974e+00 4.0634252538480515e+00 2 1 1
6295 1 8.9290966220240122e+00 2.0724004529818356e+00 5.0572128484409022e+00 0 -1 0
2884 1 6.6821251092088012e+00 1.3722826460273618e+00 1.3377125293279060e+00 1 1 1
5100 1 4.8094746751953937e-01 2.9556785786222313e+00 7.9660741038999507e+00 1 1 0
3744 1 4.5792081447178168e+00 4.9974795447035945e+00 1.5792186181493724e+00 -1 1 1
5399 1 2.6279573281177453e+00 1.3458912048996753e+01 6.1020673620492332e+00 0 1 0
1388 1 2.6773733143499681e+00 1.6058957552862470e+01 5.1439281611971728e+00 0 0 0
5335 1 2.6814117576315660e-01 9.5591006019106164e+00 5.8563437277017352e+00 1 1 1
1347 1 2.2588761405437818e-01 1.5658793518767975e+01 1.3458428382617982e+00 2 0 0
1881 1 4.8754772065407455e+00 4.9734030305354464e+00 4.3718611452362737e+00 0 0 0
1758 1 8.9208336504116215e+00 4.8801926392197172e+00 4.5881408898771898e+00 0 0 1
499 1 9.2143804237675244e+00 5.2328816789392194e+00 1.8937934877622364e+00 1 1 1
264 1 5.1146424295011117e-01 1.4763632279602243e+01 1.0124045440553624e+01 0 1 1
4518 1 2.7447188359152017e+00 1.1766839841367620e+01 1.0717514528167646e+00 2 0 0
4678 1 2.5645785230089131e+00 9.1638287566921104e+00 2.1638682980148065e+00 1 1 0
3185 1 2.8146902948368724e+00 8.7811933802542690e+00 4.9769844533092149e+00 -1 0 1
5362 1 7.0819706625679553e+00 1.1729771154031699e+01 1.1799133931954020e+00 0 -1 0
4988 1 7.4476046142215768e+00 8.6300949029177314e+00 4.8974803958982189e+00 1 -1 0
3520 1 7.1859990038388331e+00 8.9632666795370888e+00 1.8838615890638524e+00 1 1 0
2888 1 2.6294763500487317e+00 1.3433644083169265e+01 9.2488443835188026e+00 1 -1 1
1918 1 4.8184937635000811e+00 1.2840015391797927e+01 2.2904938126653542e+00 0 2 0
6469 1 5.0477922096171888e+00 1.5336276246506541e+01 1.1564476838590887e+00 -1 0 1
1971 1 6.2880683461239539e-01 1.2181896131427289e+01 5.1161142213160646e+00 -1 0 0
1278 1 4.8092336464610203e-01 7.2213314162769358e+00 9.5040201896845637e+00 2 1 0
4941 1 4.8968754519338473e+00 1.2561775785502984e+01 5.0609244073290478e+00 -1 0 0
6431 1 9.4590906479566161e+00 1.2297431542514740e+01 5.0924091678156849e+00 1 -1 1
5187 1 9.3800610041976764e+00 1.2430618513778910e+01 2.2004841064923939e+00 1 2 0
5019 1 9.4852991949354042e+00 1.5169837479796259e+01 1.6500790812965027e+00 0 0 0
4808 1 8.9574020783236961e+00 1.4342492489988251e+01 1.0137322405197352e+01 0 0 0
5414 1 4.7326718653730797e+00 7.6908065225016884e+00 9.1113127626348056e-01 -1 1 1
5008 1 5.6250656173713409e+00 1.9696767051369459e+00 7.9074002115561326e+00 0 1 0
3643 1 8.3764484876985499e+00 2.1642922876685251e+00 7.9568903270981330e+00 -1 0 0
3050 1 4.7058158470304736e+00 4.0674046834990820e+00 9.6318296061686546e+00 1 0 1
392 1 2.5402623702118978e+00 6.0672567809484450e+00 5.7335558176449100e+00 1 1 0
301 1 2.3257734289181076e+00 5.2308782990204126e+00 8.3868975831752266e+00 1 -1 0
1906 1 4.8188302800167699e+00 1.4691252682196415e+01 9.7754824923971366e+00 1 1 0
3284 1 6.7950293661055134e+00 6.1893989615706237e+00 5.8010118636740078e+00 0 0 1
2014 1 9.0668698395136254e+00 4.6692039949704833e+00 9.3245183935632046e+00 1 0 0
556 1 6.7127684550542428e+00 5.9946820858849961e+00 8.5618251170698159e+00 1 -1 1
5290 1 3.3946299866534119e-01 1.2943514347460569e+01 1.9678205567111611e+00 1 0 0
6457 1 3.0503897584942368e+00 1.0815139572644195e+01 9.6726066107742685e+00 2 1 0
6454 1 5.2726279341761133e+00 1.0095148572495351e+01 5.6877759579790208e+00 0 1 0
1738 1 4.8540248419596171e-01 9.7138247548343220e+00 8.6702766455076734e+00 0 1 0
146 1 9.6188190810181968e+00 9.7659689645715488e+00 5.9539714161282689e+00 3 -1 0
1571 1 7.0377250742423652e+00 8.6880191627351824e+00 9.9268610133663717e+00 0 1 0
4624 1 5.4583214783770435e+00 1.0481202221321011e+01 8.5891171366771992e+00 0 -1 1
3077 1 7.2934488625420126e+00 1.3642304212700768e+01 5.9676576496498139e+00 0 1 0
6426 1 3.1347930146394054e-01 5.1279569337559652e+00 4.3595371400011445e+00 0 2 0
3574 1 1.5596268542194389e-01 2.5485746750269604e+00 5.1481567601602434e+00 1 -1 0
457 1 9.6632579847462825e+00 9.1113952406795331e+00 8.6496466046721956e+00 0 1 0
1943 1 7.0299636599172066e+00 1.6262908546558272e+01 4.9554559181110696e+00 0 0 0
291 1 2.9041581654630977e-01 1.4219732850075917e-01 8.5963393701718296e+00 -1 2 0
2952 1 4.2704095876873077e-01 7.9708174018187723e+00 8.7661265950253198e-01 0 -1 1
509 1 9.3532716783425016e+00 7.9357714886980109e+00 8.1599183396555475e-01 0 0 1
1692 1 4.5886310915244728e+00 4.1659104966238409e+00 1.2313600726152421e+01 1 1 0
5354 1 5.4060718991758074e+00 1.7349963678120213e+00 1.3184095150462465e+01 1 -1 1
1309 1 8.3632305779576548e+00 1.7244204130974803e+00 1.3140655795038457e+01 -1 1 1
1536 1 2.2238475573264882e+00 4.7951532037283844e+00 1.3248424623797909e+01 0 1 1
6335 1 4.6704848387084512e+00 1.1869683530384114e+01 1.9892952476375022e+01 0 2 1
5112 1 9.1643150615810889e+00 4.3592787801840602e+00 1.2270474936561511e+01 1 2 0
6486 1 6.9278900297296158e+00 5.4920057572591920e+00 1.3326946899818763e+01 0 0 0
5102 1 2.5408485328918156e+00 1.0624921681491681e+01 1.2372659112452890e+01 1 2 0
3537 1 4.4422103904141197e-01 1.1580707781889908e+01 1.7121143619538383e+01 3 -1 0
3483 1 6.9117101698637224e+00 8.2721329654560289e+00 1.2688374549174096e+01 2 1 1
1469 1 5.0325548804929330e+00 1.0534641347870801e+01 1.3735453902898966e+01 0 0 1
3060 1 6.4527192242018427e-01 2.3407483566312219e+00 1.2991118398533121e+01 0 2 0
2118 1 2.6205959647453336e+00 1.3257813351578523e+01 1.3632866266721729e+01 2 0 0
4806 1 4.7434169991908313e+00 1.4694187994122146e+01 1.2545167489572160e+01 2 -1 0
451 1 6.0043956418428479e-01 6.9074424548475148e+00 1.2069731902172096e+01 0 0 0
6258 1 6.7004887266239228e+00 1.2801880124092328e+01 1.3240679748149624e+01 -1 -1 0
115 1 8.9151426305046684e+00 1.4252566071935446e+01 1.2816886307583390e+01 0 1 1
3349 1 4.7833099808484754e+00 3.8690061180663964e+00 1.9765213796925483e+01 2 0 0
4591 1 1.5971388667953018e-01 9.4209052721693922e+00 1.3203983509692216e+01 1 1 1
6297 1 4.4816470124795620e+00 3.8870892977679934e+00 1.6928289064634864e+01 1 2 1
5125 1 4.8595135791490423e+00 1.4971624116628441e+00 1.5659584538301074e+01 0 0 0
3040 1 1.9338212885986050e-01 3.7392195785155948e+00 1.9966898061260583e+01 0 0 1
4890 1 7.3706116970227331e+00 7.9838785583347338e+00 1.9844324169001311e+01 0 -1 1
6485 1 6.7819613244302195e+00 1.5563327512415844e+01 1.6981478853518620e+01 0 0 1
4752 1 8.9297638599970828e+00 3.6148056411396943e+00 1.9856418514801558e+01 0 0 1
274 1 9.2506026464669073e+00 1.2379019526165955e+00 1.5814671856844095e+01 0 1 0
1779 1 8.8253139377151975e+00 3.9296486478623440e+00 1.7214764773355661e+01 0 1 0
6309 1 2.2362749328098328e+00 5.3286496298546941e+00 1.5983616433785389e+01 1 1 0
4652 1 2.5468834891525245e+00 7.7319235175761678e+00 1.9792166140284387e+01 -1 2 1
4943 1 2.2785748141583380e+00 7.8759530000167963e+00 1.7048836847007877e+01 1 0 0
3526 1 2.6030053187550428e-01 1.5816574319404946e+00 1.5653987350512057e+01 2 1 0
4764 1 6.7527963954153494e+00 5.2550939529484753e+00 1.6096775375342951e+01 -1 1 0
2111 1 7.0047183872706080e+00 8.0060872269135501e+00 1.7093273701961540e+01 0 0 1
1501 1 2.2510086109135785e+00 1.5599817880727556e+01 1.7156999314717311e+01 1 1 1
2968 1 9.5139829151141360e+00 8.9359623811297197e+00 1.6225751874956970e+01 1 2 1
6118 1 4.5742860319710825e+00 1.1898487580775674e+01 1.7273032818802413e+01 0 0 1
6158 1 6.7551832228900315e+00 1.2951261456081033e+01 1.6077306380264140e+01 1 1 1
360 1 8.9237104886811967e+00 1.1589017636526927e+01 2.0200379131301087e+01 1 0 1
3376 1 3.7119960675638902e-01 1.4436801451602475e+01 1.2882185047976389e+01 1 -1 0
3798 1 1.1622162991269817e-01 9.2429562417633235e+00 1.5879292579895292e+01 1 0 0
6115 1 4.8226896662542709e+00 9.2490754735318497e+00 1.6228659130135107e+01 0 0 1
3224 1 9.0299526338575173e+00 1.1441427814464699e+01 1.7384659046861206e+01 0 0 0
6321 1 2.5189541382990037e+00 1.3175409586738930e+01 1.6240431505795026e+01 1 0 1
1821 1 1.3157337758100285e-01 1.1456011350432274e+01 1.9946180581145679e+01 0 2 0
3794 1 2.4905204242169674e+00 1.5379565892105445e+01 1.9877173748876057e+01 1 -2 0
5117 1 6.8430800641280367e+00 1.5408054083381852e+01 1.9712445602403964e+01 1 0 0
3623 1 9.5871859531800236e+00 8.4301463086839483e+00 1.3612798591476071e+01 1 0 0
6188 1 6.9834340554269012e+00 3.0159868936149392e-01 1.6827471787161038e+01 0 -1 1
4729 1 2.4227994283209098e+00 3.3306250360555539e-01 1.6596992643177245e+01 1 1 0
1988 1 2.7532938967125413e+00 2.3965972743193102e+00 2.3385661186413738e+01 1 0 0
5357 1 4.7941656909188470e+00 9.7006189318545100e-01 2.4355551186661923e+01 1 0 1
1877 1 4.6830637608986320e-01 8.4185362076111703e-01 2.4028971186421892e+01 1 1 0
2956 1 5.1978453585970075e-01 1.4326398041930226e+01 2.3989491254051345e+01 -1 1 1
185 1 9.2503886315836201e+00 1.4346122622159079e+01 2.0504275912623580e+01 0 -1 1
2121 1 6.9969069286520345e+00 2.2105980164347852e+00 2.3606954754893621e+01 -1 1 0
744 2 8.6135000000000002e+00 1.3498160618518835e+01 2.6734194205833347e+01 0 0 0
2159 1 2.5230306887869638e+00 4.6910891860652866e+00 2.4426846856222323e+01 1 2 1
2210 1 4.6583396390638399e+00 6.0814067039676214e+00 2.3183394112825077e+01 -1 0 1
3502 1 2.3217764217533934e-01 1.4099910429125261e+01 2.1143222058546431e+01 1 0 0
5051 1 9.1792819326152593e+00 6.2528267184195450e+00 2.1043839039498586e+01 0 1 0
3726 1 9.2759706440768532e+00 6.5419576663150121e+00 2.3750528910329667e+01 0 1 0
4542 1 7.1287644007835445e+00 4.8169659825356694e+00 2.3817731609491251e+01 -1 1 1
1464 1 2.5777920799571046e+00 2.3369519741397466e+00 2.0368798969882096e+01 0 2 1
1583 1 2.5866896198428253e+00 9.6830723620515151e+00 2.3365044736482439e+01 0 0 1
172 1 9.3219595818569712e+00 7.6969799357426028e-01 2.4421968588604674e+01 1 1 0
695 2 4.9220000000000006e+00 1.2787731112280996e+01 2.6734194205833347e+01 0 0 0
286 1 6.5244923077564030e+00 1.0206376003194043e+01 2.0959187366033962e+01 -1 1 0
1565 1 4.9309380445858348e+00 8.5490361362866842e+00 2.4310211507727722e+01 0 -1 0
3023 1 9.1203504939042404e+00 9.0434781777561533e+00 2.4267503973404832e+01 -2 0 1
108 1 6.8061490622035770e+00 1.0403113375880983e+01 2.3697493694313849e+01 0 1 0
785 2 8.6135000000000002e+00 1.4919019630994494e+01 2.6734194205833347e+01 0 0 0
4581 1 2.6334172051806686e+00 1.2363520458019345e+01 2.4182736915401168e+01 -1 0 1
323 1 4.6527623875846853e+00 1.4073180941413675e+01 2.3477459796103638e+01 0 0 0
1712 1 4.6569585539533014e+00 1.4242347758151791e+01 2.0856194640159938e+01 -1 0 1
740 2 7.3829999999999991e+00 1.5629449137232333e+01 2.6734194205833347e+01 0 0 0
5426 1 2.6085086045560795e+00 1.0356161390030890e+01 2.0767104368917657e+01 1 1 1
432 1 8.9257606948256303e+00 1.4593229271038313e+01 2.3350835530429531e+01 0 -1 0
38 1 7.0167366474447519e+00 1.3218033573913354e+01 2.4348878171039452e+01 2 0 0
572 2 0.0000000000000000e+00 2.8417180249513345e+00 2.6734194205833347e+01 0 0 0
574 2 0.0000000000000000e+00 0.0000000000000000e+00 2.6734194205833347e+01 0 0 0
576 2 1.2305000000000001e+00 7.1042950623783474e-01 2.6734194205833347e+01 0 0 0
583 2 1.2305000000000001e+00 2.1312885187134998e+00 2.6734194205833347e+01 0 0 0
585 2 2.4610000000000003e+00 2.8417180249513345e+00 2.6734194205833347e+01 0 0 0
587 2 2.4610000000000003e+00 0.0000000000000000e+00 2.6734194205833347e+01 0 0 0
589 2 3.6915000000000004e+00 7.1042950623783474e-01 2.6734194205833347e+01 0 0 0
604 2 3.6914999999999996e+00 2.1312885187134998e+00 2.6734194205833347e+01 0 0 0
606 2 4.9220000000000006e+00 2.8417180249513332e+00 2.6734194205833347e+01 0 0 0
608 2 4.9220000000000006e+00 0.0000000000000000e+00 2.6734194205833347e+01 0 0 0
610 2 6.1524999999999999e+00 7.1042950623783407e-01 2.6734194205833347e+01 0 0 0
633 2 6.1524999999999999e+00 2.1312885187134989e+00 2.6734194205833347e+01 0 0 0
635 2 7.3829999999999991e+00 2.8417180249513345e+00 2.6734194205833347e+01 0 0 0
637 2 7.3829999999999991e+00 0.0000000000000000e+00 2.6734194205833347e+01 0 0 0
639 2 8.6134999999999984e+00 7.1042950623783407e-01 2.6734194205833347e+01 0 0 0
670 2 8.6134999999999984e+00 2.1312885187135002e+00 2.6734194205833347e+01 0 0 0
579 2 0.0000000000000000e+00 4.2625770374269996e+00 2.6734194205833347e+01 0 0 0
581 2 1.2305000000000001e+00 4.9730065436648339e+00 2.6734194205833347e+01 0 0 0
596 2 1.2305000000000001e+00 6.3938655561404980e+00 2.6734194205833347e+01 0 0 0
600 2 2.4610000000000003e+00 4.2625770374269996e+00 2.6734194205833347e+01 0 0 0
602 2 3.6914999999999996e+00 4.9730065436648339e+00 2.6734194205833347e+01 0 0 0
625 2 3.6914999999999996e+00 6.3938655561404980e+00 2.6734194205833347e+01 0 0 0
577 2 0.0000000000000000e+00 7.1042950623783341e+00 2.6734194205833347e+01 0 0 0
598 2 2.4610000000000003e+00 7.1042950623783341e+00 2.6734194205833347e+01 0 0 0
629 2 4.9220000000000006e+00 4.2625770374269978e+00 2.6734194205833347e+01 0 0 0
631 2 6.1524999999999999e+00 4.9730065436648339e+00 2.6734194205833347e+01 0 0 0
662 2 6.1524999999999999e+00 6.3938655561404980e+00 2.6734194205833347e+01 0 0 0
666 2 7.3829999999999991e+00 4.2625770374269996e+00 2.6734194205833347e+01 0 0 0
668 2 8.6135000000000002e+00 4.9730065436648339e+00 2.6734194205833347e+01 0 0 0
707 2 8.6135000000000002e+00 6.3938655561404980e+00 2.6734194205833347e+01 0 0 0
627 2 4.9220000000000006e+00 7.1042950623783341e+00 2.6734194205833347e+01 0 0 0
664 2 7.3830000000000009e+00 7.1042950623783341e+00 2.6734194205833347e+01 0 0 0
592 2 0.0000000000000000e+00 8.5251540748539991e+00 2.6734194205833347e+01 0 0 0
594 2 1.2305000000000001e+00 9.2355835810918343e+00 2.6734194205833347e+01 0 0 0
621 2 2.4610000000000003e+00 8.5251540748539991e+00 2.6734194205833347e+01 0 0 0
623 2 3.6915000000000004e+00 9.2355835810918343e+00 2.6734194205833347e+01 0 0 0
590 2 0.0000000000000000e+00 1.1366872099805333e+01 2.6734194205833347e+01 0 0 0
617 2 1.2305000000000001e+00 1.0656442593567498e+01 2.6734194205833347e+01 0 0 0
619 2 2.4610000000000003e+00 1.1366872099805333e+01 2.6734194205833347e+01 0 0 0
654 2 3.6914999999999996e+00 1.0656442593567499e+01 2.6734194205833347e+01 0 0 0
658 2 4.9220000000000006e+00 8.5251540748539991e+00 2.6734194205833347e+01 0 0 0
660 2 6.1524999999999999e+00 9.2355835810918343e+00 2.6734194205833347e+01 0 0 0
703 2 7.3830000000000009e+00 8.5251540748539991e+00 2.6734194205833347e+01 0 0 0
705 2 8.6134999999999984e+00 9.2355835810918343e+00 2.6734194205833347e+01 0 0 0
656 2 4.9220000000000006e+00 1.1366872099805333e+01 2.6734194205833347e+01 0 0 0
699 2 6.1524999999999999e+00 1.0656442593567499e+01 2.6734194205833347e+01 0 0 0
701 2 7.3829999999999991e+00 1.1366872099805333e+01 2.6734194205833347e+01 0 0 0
746 2 8.6134999999999984e+00 1.0656442593567498e+01 2.6734194205833347e+01 0 0 0
691 2 3.6915000000000004e+00 1.4919019630994494e+01 2.6734194205833347e+01 0 0 0
652 2 3.6915000000000004e+00 1.3498160618518829e+01 2.6734194205833347e+01 0 0 0
615 2 1.2305000000000001e+00 1.3498160618518829e+01 2.6734194205833347e+01 0 0 0
611 2 0.0000000000000000e+00 1.5629449137232333e+01 2.6734194205833347e+01 0 0 0
650 2 2.4610000000000003e+00 1.2787731112280996e+01 2.6734194205833347e+01 0 0 0
646 2 1.2305000000000001e+00 1.4919019630994494e+01 2.6734194205833347e+01 0 0 0
613 2 0.0000000000000000e+00 1.2787731112280996e+01 2.6734194205833347e+01 0 0 0
648 2 2.4610000000000003e+00 1.5629449137232328e+01 2.6734194205833347e+01 0 0 0
697 2 6.1524999999999990e+00 1.3498160618518829e+01 2.6734194205833347e+01 0 0 0
693 2 4.9220000000000006e+00 1.5629449137232333e+01 2.6734194205833347e+01 0 0 0
738 2 6.1524999999999990e+00 1.4919019630994494e+01 2.6734194205833347e+01 0 0 0
742 2 7.3829999999999991e+00 1.2787731112280996e+01 2.6734194205833347e+01 0 0 0
1465 1 4.8604200887589908e+00 6.6304841470842630e+00 2.0502731351464174e+01 -1 1 1
1600 1 6.5576144157576683e+00 2.2374153633501082e+00 2.0668432762555643e+01 0 0 0
1301 1 1.9988273415341598e-01 8.7323898784449643e+00 2.4646726315913039e+01 -1 1 1
3006 1 2.9503122476996096e-01 6.3393714512921102e+00 2.0769968030807632e+01 1 2 1
2052 1 3.7319673115821472e-01 6.2604687414916409e+00 2.3510510809537951e+01 0 0 0
573 2 0.0000000000000000e+00 1.4208590124756650e+00 3.0030999999992261e+01 0 0 0
575 2 0.0000000000000000e+00 0.0000000000000000e+00 3.0030999999992261e+01 0 0 0
584 2 1.2305000000000001e+00 2.1312885187134998e+00 3.0030999999992261e+01 0 0 0
586 2 2.4610000000000003e+00 1.4208590124756650e+00 3.0030999999992261e+01 0 0 0
588 2 2.4610000000000003e+00 0.0000000000000000e+00 3.0030999999992261e+01 0 0 0
605 2 3.6914999999999996e+00 2.1312885187134998e+00 3.0030999999992261e+01 0 0 0
582 2 1.2305000000000001e+00 3.5521475311891644e+00 3.0030999999992261e+01 0 0 0
603 2 3.6914999999999996e+00 3.5521475311891644e+00 3.0030999999992261e+01 0 0 0
901 2 0.0000000000000000e+00 2.8417180249513345e+00 3.3327805794148446e+01 0 0 0
902 2 0.0000000000000000e+00 0.0000000000000000e+00 3.3327805794148446e+01 0 0 0
903 2 1.2305000000000001e+00 7.1042950623783474e-01 3.3327805794148446e+01 0 0 0
907 2 1.2305000000000001e+00 2.1312885187134998e+00 3.3327805794148446e+01 0 0 0
908 2 2.4610000000000003e+00 2.8417180249513345e+00 3.3327805794148446e+01 0 0 0
909 2 2.4610000000000003e+00 0.0000000000000000e+00 3.3327805794148446e+01 0 0 0
910 2 3.6915000000000004e+00 7.1042950623783474e-01 3.3327805794148446e+01 0 0 0
918 2 3.6914999999999996e+00 2.1312885187134998e+00 3.3327805794148446e+01 0 0 0
607 2 4.9220000000000006e+00 1.4208590124756650e+00 3.0030999999992261e+01 0 0 0
609 2 4.9220000000000006e+00 0.0000000000000000e+00 3.0030999999992261e+01 0 0 0
634 2 6.1524999999999999e+00 2.1312885187134989e+00 3.0030999999992261e+01 0 0 0
636 2 7.3829999999999991e+00 1.4208590124756659e+00 3.0030999999992261e+01 0 0 0
638 2 7.3829999999999991e+00 0.0000000000000000e+00 3.0030999999992261e+01 0 0 0
671 2 8.6134999999999984e+00 2.1312885187135002e+00 3.0030999999992261e+01 0 0 0
632 2 6.1524999999999999e+00 3.5521475311891644e+00 3.0030999999992261e+01 0 0 0
669 2 8.6134999999999984e+00 3.5521475311891657e+00 3.0030999999992261e+01 0 0 0
919 2 4.9220000000000006e+00 2.8417180249513332e+00 3.3327805794148446e+01 0 0 0
920 2 4.9220000000000006e+00 0.0000000000000000e+00 3.3327805794148446e+01 0 0 0
921 2 6.1524999999999999e+00 7.1042950623783407e-01 3.3327805794148446e+01 0 0 0
933 2 6.1524999999999999e+00 2.1312885187134989e+00 3.3327805794148446e+01 0 0 0
934 2 7.3829999999999991e+00 2.8417180249513345e+00 3.3327805794148446e+01 0 0 0
935 2 7.3829999999999991e+00 0.0000000000000000e+00 3.3327805794148446e+01 0 0 0
936 2 8.6134999999999984e+00 7.1042950623783407e-01 3.3327805794148446e+01 0 0 0
952 2 8.6134999999999984e+00 2.1312885187135002e+00 3.3327805794148446e+01 0 0 0
578 2 0.0000000000000000e+00 5.6834360499026637e+00 3.0030999999992261e+01 0 0 0
580 2 0.0000000000000000e+00 4.2625770374269996e+00 3.0030999999992261e+01 0 0 0
597 2 1.2305000000000001e+00 6.3938655561404980e+00 3.0030999999992261e+01 0 0 0
599 2 2.4610000000000003e+00 5.6834360499026637e+00 3.0030999999992261e+01 0 0 0
601 2 2.4610000000000003e+00 4.2625770374269996e+00 3.0030999999992261e+01 0 0 0
626 2 3.6914999999999996e+00 6.3938655561404980e+00 3.0030999999992261e+01 0 0 0
595 2 1.2305000000000001e+00 7.8147245686161639e+00 3.0030999999992261e+01 0 0 0
624 2 3.6914999999999996e+00 7.8147245686161639e+00 3.0030999999992261e+01 0 0 0
905 2 0.0000000000000000e+00 4.2625770374269996e+00 3.3327805794148446e+01 0 0 0
906 2 1.2305000000000001e+00 4.9730065436648339e+00 3.3327805794148446e+01 0 0 0
914 2 1.2305000000000001e+00 6.3938655561404980e+00 3.3327805794148446e+01 0 0 0
916 2 2.4610000000000003e+00 4.2625770374269996e+00 3.3327805794148446e+01 0 0 0
917 2 3.6914999999999996e+00 4.9730065436648339e+00 3.3327805794148446e+01 0 0 0
929 2 3.6914999999999996e+00 6.3938655561404980e+00 3.3327805794148446e+01 0 0 0
904 2 0.0000000000000000e+00 7.1042950623783341e+00 3.3327805794148446e+01 0 0 0
915 2 2.4610000000000003e+00 7.1042950623783341e+00 3.3327805794148446e+01 0 0 0
628 2 4.9220000000000006e+00 5.6834360499026637e+00 3.0030999999992261e+01 0 0 0
630 2 4.9220000000000006e+00 4.2625770374269978e+00 3.0030999999992261e+01 0 0 0
663 2 6.1524999999999999e+00 6.3938655561404980e+00 3.0030999999992261e+01 0 0 0
665 2 7.3829999999999991e+00 5.6834360499026637e+00 3.0030999999992261e+01 0 0 0
667 2 7.3829999999999991e+00 4.2625770374269996e+00 3.0030999999992261e+01 0 0 0
708 2 8.6135000000000002e+00 6.3938655561404980e+00 3.0030999999992261e+01 0 0 0
661 2 6.1524999999999999e+00 7.8147245686161639e+00 3.0030999999992261e+01 0 0 0
706 2 8.6135000000000002e+00 7.8147245686161639e+00 3.0030999999992261e+01 0 0 0
931 2 4.9220000000000006e+00 4.2625770374269978e+00 3.3327805794148446e+01 0 0 0
932 2 6.1524999999999999e+00 4.9730065436648339e+00 3.3327805794148446e+01 0 0 0
948 2 6.1524999999999999e+00 6.3938655561404980e+00 3.3327805794148446e+01 0 0 0
950 2 7.3829999999999991e+00 4.2625770374269996e+00 3.3327805794148446e+01 0 0 0
951 2 8.6135000000000002e+00 4.9730065436648339e+00 3.3327805794148446e+01 0 0 0
971 2 8.6135000000000002e+00 6.3938655561404980e+00 3.3327805794148446e+01 0 0 0
930 2 4.9220000000000006e+00 7.1042950623783341e+00 3.3327805794148446e+01 0 0 0
949 2 7.3830000000000009e+00 7.1042950623783341e+00 3.3327805794148446e+01 0 0 0
591 2 0.0000000000000000e+00 9.9460130873296642e+00 3.0030999999992261e+01 0 0 0
593 2 0.0000000000000000e+00 8.5251540748539991e+00 3.0030999999992261e+01 0 0 0
620 2 2.4610000000000003e+00 9.9460130873296642e+00 3.0030999999992261e+01 0 0 0
622 2 2.4610000000000003e+00 8.5251540748539991e+00 3.0030999999992261e+01 0 0 0
616 2 1.2305000000000001e+00 1.2077301606043163e+01 3.0030999999992261e+01 0 0 0
618 2 1.2305000000000001e+00 1.0656442593567498e+01 3.0030999999992261e+01 0 0 0
653 2 3.6914999999999996e+00 1.2077301606043163e+01 3.0030999999992261e+01 0 0 0
655 2 3.6914999999999996e+00 1.0656442593567499e+01 3.0030999999992261e+01 0 0 0
912 2 0.0000000000000000e+00 8.5251540748539991e+00 3.3327805794148446e+01 0 0 0
913 2 1.2305000000000001e+00 9.2355835810918343e+00 3.3327805794148446e+01 0 0 0
927 2 2.4610000000000003e+00 8.5251540748539991e+00 3.3327805794148446e+01 0 0 0
928 2 3.6915000000000004e+00 9.2355835810918343e+00 3.3327805794148446e+01 0 0 0
911 2 0.0000000000000000e+00 1.1366872099805333e+01 3.3327805794148446e+01 0 0 0
925 2 1.2305000000000001e+00 1.0656442593567498e+01 3.3327805794148446e+01 0 0 0
926 2 2.4610000000000003e+00 1.1366872099805333e+01 3.3327805794148446e+01 0 0 0
944 2 3.6914999999999996e+00 1.0656442593567499e+01 3.3327805794148446e+01 0 0 0
657 2 4.9220000000000006e+00 9.9460130873296642e+00 3.0030999999992261e+01 0 0 0
659 2 4.9220000000000006e+00 8.5251540748539991e+00 3.0030999999992261e+01 0 0 0
702 2 7.3830000000000009e+00 9.9460130873296642e+00 3.0030999999992261e+01 0 0 0
704 2 7.3830000000000009e+00 8.5251540748539991e+00 3.0030999999992261e+01 0 0 0
698 2 6.1524999999999999e+00 1.2077301606043163e+01 3.0030999999992261e+01 0 0 0
700 2 6.1524999999999999e+00 1.0656442593567499e+01 3.0030999999992261e+01 0 0 0
745 2 8.6135000000000002e+00 1.2077301606043163e+01 3.0030999999992261e+01 0 0 0
747 2 8.6134999999999984e+00 1.0656442593567498e+01 3.0030999999992261e+01 0 0 0
946 2 4.9220000000000006e+00 8.5251540748539991e+00 3.3327805794148446e+01 0 0 0
947 2 6.1524999999999999e+00 9.2355835810918343e+00 3.3327805794148446e+01 0 0 0
969 2 7.3830000000000009e+00 8.5251540748539991e+00 3.3327805794148446e+01 0 0 0
970 2 8.6134999999999984e+00 9.2355835810918343e+00 3.3327805794148446e+01 0 0 0
945 2 4.9220000000000006e+00 1.1366872099805333e+01 3.3327805794148446e+01 0 0 0
967 2 6.1524999999999999e+00 1.0656442593567499e+01 3.3327805794148446e+01 0 0 0
968 2 7.3829999999999991e+00 1.1366872099805333e+01 3.3327805794148446e+01 0 0 0
991 2 8.6134999999999984e+00 1.0656442593567498e+01 3.3327805794148446e+01 0 0 0
614 2 0.0000000000000000e+00 1.2787731112280996e+01 3.0030999999992261e+01 0 0 0
651 2 2.4610000000000003e+00 1.2787731112280996e+01 3.0030999999992261e+01 0 0 0
612 2 0.0000000000000000e+00 1.4208590124756663e+01 3.0030999999992261e+01 0 0 0
647 2 1.2305000000000001e+00 1.4919019630994494e+01 3.0030999999992261e+01 0 0 0
649 2 2.4610000000000003e+00 1.4208590124756663e+01 3.0030999999992261e+01 0 0 0
692 2 3.6915000000000004e+00 1.4919019630994494e+01 3.0030999999992261e+01 0 0 0
923 2 0.0000000000000000e+00 1.2787731112280996e+01 3.3327805794148446e+01 0 0 0
924 2 1.2305000000000001e+00 1.3498160618518829e+01 3.3327805794148446e+01 0 0 0
942 2 2.4610000000000003e+00 1.2787731112280996e+01 3.3327805794148446e+01 0 0 0
943 2 3.6915000000000004e+00 1.3498160618518829e+01 3.3327805794148446e+01 0 0 0
922 2 0.0000000000000000e+00 1.5629449137232333e+01 3.3327805794148446e+01 0 0 0
940 2 1.2305000000000001e+00 1.4919019630994494e+01 3.3327805794148446e+01 0 0 0
941 2 2.4610000000000003e+00 1.5629449137232328e+01 3.3327805794148446e+01 0 0 0
963 2 3.6915000000000004e+00 1.4919019630994494e+01 3.3327805794148446e+01 0 0 0
696 2 4.9220000000000006e+00 1.2787731112280996e+01 3.0030999999992261e+01 0 0 0
743 2 7.3829999999999991e+00 1.2787731112280996e+01 3.0030999999992261e+01 0 0 0
694 2 4.9220000000000006e+00 1.4208590124756663e+01 3.0030999999992261e+01 0 0 0
739 2 6.1524999999999990e+00 1.4919019630994494e+01 3.0030999999992261e+01 0 0 0
741 2 7.3830000000000009e+00 1.4208590124756663e+01 3.0030999999992261e+01 0 0 0
786 2 8.6135000000000002e+00 1.4919019630994494e+01 3.0030999999992261e+01 0 0 0
965 2 4.9220000000000006e+00 1.2787731112280996e+01 3.3327805794148446e+01 0 0 0
966 2 6.1524999999999990e+00 1.3498160618518829e+01 3.3327805794148446e+01 0 0 0
989 2 7.3829999999999991e+00 1.2787731112280996e+01 3.3327805794148446e+01 0 0 0
990 2 8.6135000000000002e+00 1.3498160618518835e+01 3.3327805794148446e+01 0 0 0
964 2 4.9220000000000006e+00 1.5629449137232333e+01 3.3327805794148446e+01 0 0 0
987 2 6.1524999999999990e+00 1.4919019630994494e+01 3.3327805794148446e+01 0 0 0
988 2 7.3829999999999991e+00 1.5629449137232333e+01 3.3327805794148446e+01 0 0 0
1011 2 8.6135000000000002e+00 1.4919019630994494e+01 3.3327805794148446e+01 0 0 0
4628 1 5.1260881072924356e+00 2.9936163742876807e+00 3.6037345028317631e+01 0 0 0
5447 1 2.8024667559552987e+00 3.7483008640117363e+00 3.8508411333773935e+01 -1 0 0
1880 1 7.0455753963107473e+00 1.5285892544121314e+01 3.8550279318846947e+01 2 -2 -1
6354 1 5.3644494242422169e+00 2.1907859671911361e+00 3.8693254033233558e+01 0 0 0
2057 1 7.6306353221060030e+00 4.0765401851544896e+00 3.8917695395041633e+01 1 -1 0
4688 1 7.4152372181862356e+00 4.3691772353560001e+00 3.6079985078022361e+01 0 2 0
4972 1 2.6900610655029498e+00 4.4363781049578668e+00 3.5845749113907146e+01 1 1 -1
6488 1 2.2068650272894894e+00 7.0262498005046936e+00 3.8659870214084705e+01 0 1 -1
3785 1 2.5203560677830299e+00 7.1641363212403029e+00 3.5919687414304221e+01 1 -1 0
4501 1 7.4304119872531365e+00 6.9926251379465940e+00 3.5925251714118190e+01 1 0 0
6434 1 7.2066043944189513e+00 6.8389230760883759e+00 3.8869399668581636e+01 0 0 0
3677 1 2.3952794249187970e+00 1.2131500653066501e+01 3.9002980361278404e+01 -1 1 0
4953 1 4.7396988100243655e+00 8.6143281405051475e+00 3.8720081159812239e+01 2 0 -1
3407 1 9.7593465460531714e+00 8.3988162859550606e+00 3.8907642061712409e+01 1 -1 -1
6217 1 2.6092207331199719e+00 1.2586151758755335e+01 3.5840182994967435e+01 1 0 0
4571 1 7.3195426198732241e+00 1.5552666376435962e+01 3.6050813602860629e+01 0 0 0
3057 1 4.8351571874027757e+00 1.1455665564018179e+01 3.8397402413780412e+01 -1 1 0
6260 1 4.7427073863127767e+00 1.1284861917208584e+01 3.5741663154073706e+01 0 1 0
5381 1 5.0194000259453491e+00 8.5516521245521080e+00 3.5686088048753319e+01 0 0 0
3448 1 7.1594932711235817e+00 1.2656507998517265e+01 3.9008761054787271e+01 -1 -1 0
6171 1 7.3500990716989527e+00 1.2872262338456045e+01 3.5878657124339014e+01 1 0 0
4740 1 2.4194223621312814e+00 1.5360737470402011e+01 3.6081320345605405e+01 0 1 -1
3362 1 2.4708371116428571e+00 1.5072349733533045e+01 3.8819261802247738e+01 1 0 0
2925 1 9.5323884722144250e+00 1.1134927372227033e+01 3.8478890703195646e+01 1 0 0
4827 1 3.2489180168812609e-01 2.5576070917798148e+00 3.8565340046906456e+01 0 0 0
2975 1 9.8023705901964213e+00 1.1511189766582692e+01 3.5616183710256365e+01 0 -1 0
4686 1 3.0176495422351873e-02 8.4299213827796784e+00 3.5665817162124824e+01 1 0 0
1528 1 1.7677738306358645e-01 2.8475104554807800e+00 3.5746607308577111e+01 1 0 0
3078 1 6.0916557515524251e-02 1.1175845280580091e+01 3.5654935362591274e+01 0 1 0
3467 1 4.9733888181818440e+00 1.7449902827697680e-01 3.5775724760831778e+01 1 1 -1
4734 1 9.7730345493615101e+00 8.5866392283919240e+00 3.6057847644927762e+01 0 1 -1
3423 1 3.7984426899237924e+00 3.3853437939503561e-01 4.1127366026990472e+01 0 0 -1
5063 1 3.3368555092891283e-01 8.5338397997725259e+00 4.8667661822113985e+01 0 0 0
1858 1 7.1429151078888848e+00 9.8253848927859000e+00 4.9435763996195988e+01 0 1 -1
1820 1 4.9894480107898609e+00 3.1070609005411742e+00 4.1751978032802683e+01 0 0 -1
4736 1 9.3539480477288528e+00 3.5310888696797007e+00 4.3933583002101827e+01 0 1 0
6196 1 4.7674472738981644e+00 3.6715138220100401e+00 4.4682820314651551e+01 0 0 0