LAMMPS data file via write_data, version 29 Oct 2020, timestep = 100650

4739 atoms
1 atom types

0.0 49.22 xlo xhi
0.0 49.019635930410494 ylo yhi
0.1496619407379427 59.912338059262 zlo zhi

Masses

1 18.015

Atoms # atomic

1375 1 12.976948501811984 23.850355361219673 2.6474340010716806 0 0 0
1468 1 3.767686045696381 1.7680477282973623 2.3489806914001004 0 1 0
4575 1 7.9106888939011215 2.1024157983392535 1.7430904694007663 1 1 1
1381 1 12.941168118145901 2.415564864663756 1.137592784258053 0 1 0
1040 1 17.312427909133877 20.449068426632117 0.81680261682718 0 0 1
505 1 0.5501228890384148 24.23562156124296 18.46694472178241 0 0 0
3295 1 16.386361735938202 3.149597957381087 2.897542180909328 0 0 1
291 1 21.04659171491283 2.8979107557288515 2.208363674700761 0 0 0
99 1 23.37097193650957 1.843578746762685 3.577496679548175 0 0 0
1095 1 5.236053763937992 24.496417038264795 3.166098733744104 0 0 1
2208 1 1.4367340005676996 4.176024730303529 1.890753290870059 0 1 1
376 1 5.851365251973338 6.007325301841957 2.4295151584510264 0 0 0
3405 1 7.923780611928661 4.748214866580625 4.025016402878531 0 0 1
2550 1 0.7657179737226076 9.869477134709813 4.000076315457118 1 0 0
1248 1 1.2807765023818052 7.7692901920970145 6.28220920760108 0 1 0
3143 1 11.056922637076886 0.25252005158408836 8.096417244260376 1 0 0
957 1 21.397925268378728 6.018513088078309 2.9095117350994353 0 0 1
45 1 24.018526503389353 4.684712165051315 3.401070900809231 0 0 0
72 1 23.37492136439546 22.802106787022478 4.717988323569676 0 0 0
1387 1 24.490314423288925 4.083345004553839 10.14982598802418 0 1 0
1353 1 0.3100472217193419 7.9757986791367195 1.5765509338791461 0 0 0
1464 1 3.143423613738165 7.4859717769675465 0.8913045195306225 0 1 0
381 1 20.54803445411585 0.4858603259934025 10.4266261176287 0 0 0
3191 1 7.298991092610626 8.671901345341638 1.8439026608906286 1 0 1
4085 1 19.320621126940125 0.47366020169111417 16.40026266591354 0 1 0
1009 1 13.385385672827208 7.976150301240689 3.7429883799697565 0 0 1
52 1 16.139726197118584 6.627547773279929 1.058825782724739 0 0 0
972 1 17.785475172588033 8.512928734292458 2.8383053734384682 0 0 1
1070 1 20.103889183283236 7.773235862435688 0.7543749942240524 0 0 1
630 1 19.293962034217778 10.19394273468074 19.140989034817903 0 0 0
1201 1 10.34424120602327 7.261513225616689 19.228865959955215 0 1 0
2380 1 5.400921522280093 12.96135613163683 1.3177267984919416 1 0 0
1072 1 7.700040854538862 11.390740826386589 1.3861897870164306 0 0 1
1295 1 10.762014968636882 7.713569625998769 4.9314333834940225 0 1 0
2162 1 14.608430315224249 12.130381084217944 3.6887278855863452 0 0 1
3559 1 0.9640007729978751 1.0220505375663784 1.9569015699424606 1 0 1
123 1 15.162403657312751 9.743231963380765 2.3818976525758804 0 0 0
302 1 24.10087965745285 9.448004761616605 2.9355815089899524 0 0 0
3710 1 20.323838945752467 11.872723438223904 2.223657651322405 0 1 0
1126 1 10.200828152027754 23.723842587107466 2.86245758516873 0 0 1
3536 1 23.37748637537507 16.417405804009896 11.185800879534433 0 0 1
27 1 1.493800288985299 14.54263731990359 0.6754304375144541 0 0 0
3550 1 1.551604381138094 6.67134279396343 8.946377621464842 1 0 1
851 1 9.235857204222595 12.869515422209668 2.99581959248 0 0 1
533 1 11.014539631343514 13.561482727162998 1.049990799465831 0 0 1
1299 1 13.520394180062546 16.230888142279902 4.376615843605058 0 1 0
3602 1 17.568063326657043 12.386893858343461 1.55419672509344 1 1 0
378 1 23.750917231281978 0.43359323829637636 10.03387844141322 0 0 0
242 1 24.550180233489172 19.313725179011854 2.354567186921831 0 0 0
4424 1 1.2449755679199306 18.19398508039766 3.0889080365455457 1 0 1
1048 1 5.703850981655234 3.912045953882243 0.259219484546908 0 0 1
1015 1 2.105437820495618 15.452520946192438 3.1700314051258047 1 0 1
911 1 6.824477976571433 15.564266234002593 0.9366296959998314 0 0 1
952 1 13.866366989074624 18.090698647781384 2.2637474071850465 0 0 1
1982 1 18.462957520588528 16.611114215380834 1.4811161779006081 0 0 1
2046 1 22.47302818535093 15.620740102946563 2.611638295901123 0 1 1
3451 1 1.9809198250126994 20.85034236116269 0.832372501241643 1 0 1
3164 1 5.48317449839097 17.767032347814464 0.772827996468069 1 0 1
1066 1 9.019247617031807 20.097858933303062 1.4134185102445844 0 0 1
1223 1 13.34489318486407 20.93502667640498 2.5389581765651434 0 0 0
1105 1 10.361021482410376 1.7980872821477136 0.5190377188901831 0 0 1
3447 1 22.849285607211357 21.10637457046599 1.8614125511571513 0 0 1
3068 1 7.9091354465899535 3.4277272839898387 19.397509178331884 1 0 0
2570 1 17.18441060228689 4.128632324796605 0.4191936886098451 0 0 0
2346 1 4.664961521565529 21.144823356857888 3.602169024273912 0 0 1
4250 1 14.720078410826943 1.0066755830384777 2.8176360180535447 0 1 1
3582 1 16.657276818198074 23.394491207584995 17.49488591109169 0 0 0
80 1 0.4865854125059028 14.971977619128227 5.558039707506733 0 0 0
3342 1 3.069453137740947 22.537760847265456 14.85045631820162 1 0 1
71 1 17.93263808060874 22.43161805846112 3.1947539479004856 0 0 0
3635 1 24.590633213570072 20.09900780293932 16.987889530428323 0 0 0
362 1 14.953537157778962 20.685689207549363 17.9873941888218 0 0 0
980 1 3.1538731777574602 5.27168282040275 5.956571122844872 0 0 1
2224 1 6.936839438445818 1.0852334923976372 6.045834740650581 0 1 1
331 1 10.684284043285707 2.621610637384743 6.5621148629944575 0 0 0
2316 1 14.350316951687955 1.950478162102798 5.503168516002391 0 1 1
2071 1 18.756520354971503 2.0886544759016696 3.6272994268047527 0 1 1
1160 1 12.994435577283104 19.58989218677263 19.642721046361967 0 0 0
2500 1 1.0086106013137388 0.15292446473041538 13.259326253410947 1 0 0
2538 1 5.372708990055653 5.797710663329797 7.596918376710376 1 0 0
2660 1 3.732296781283451 4.358396150643527 3.601031649206955 1 0 0
3418 1 8.954781855520173 1.8371665327509923 4.448558993828565 1 0 1
1244 1 7.953993083144556 6.279346964756506 6.616547707842923 0 1 0
1705 1 12.503587500363368 4.689334401925425 2.912667805542749 0 1 1
3697 1 15.20671232604981 5.5730733773617445 3.471486718653649 0 1 0
3716 1 19.371357053940425 4.677008545267423 4.588651011821553 1 1 0
2311 1 4.23575197918938 8.714012589807757 3.083505462505015 0 1 1
1261 1 7.171424810375245 8.833369773890576 4.769230330063452 0 1 0
3257 1 10.199184417455006 5.699701930142103 3.0972450873651303 1 0 1
2096 1 14.300154528888124 8.40273072229527 6.3278816605743895 0 1 1
2215 1 17.3736105564161 6.679156528155676 5.09779863154985 0 1 1
619 1 21.881809638600792 8.237143751363183 4.1418648374328555 0 0 1
2585 1 1.3929694836118842 11.688055389353499 1.5923163729078174 1 0 0
373 1 3.862390353907811 11.622169704239528 3.415087772827564 0 0 0
31 1 8.312726026719089 11.086050184008522 6.0123689299416405 0 0 0
1046 1 10.370927770803467 10.292689871510333 3.913028231354349 0 0 1
2690 1 12.226561736743426 12.00652536649326 5.2014152845811 1 0 0
1358 1 17.636043666685907 11.929051361922703 7.156244889027312 0 0 0
2029 1 19.6977517830131 9.789618814044534 3.9889240828143047 0 1 1
18 1 19.878336066659557 10.571866403168842 6.52827954117341 0 0 0
1289 1 23.924400323655522 11.698156951207702 4.843302138620207 0 0 0
1140 1 4.677995971343035 14.965084090161753 3.7068142341214054 0 0 1
148 1 11.26755226621754 14.449444532597624 5.117422588470956 0 0 0
1479 1 16.121444642760718 15.919119466226212 5.487958969306652 0 0 0
1246 1 17.01724531809977 13.118390546246385 4.556770148306581 0 1 0
560 1 20.20339090422352 14.399776320126435 3.754248667544036 0 0 0
3338 1 21.504103127535284 12.627595213602932 5.707476196468123 0 0 1
332 1 12.418337103901514 1.6456729847158207 10.453233220293546 0 0 0
2402 1 5.155769498799993 17.200671347250328 5.446785605610576 1 0 0
2557 1 7.890192373104918 17.909029087856435 5.3690774658997755 1 0 0
74 1 10.142261982662822 16.737405110291355 3.88061682273211 0 0 0
221 1 7.671075924832612 15.453485524611244 3.6239441799831518 0 0 0
3462 1 11.667101495820964 18.32653045405619 5.275798353675634 1 0 1
174 1 15.946443337860316 18.735466422874136 4.539836842204194 0 0 0
192 1 18.863506139506484 16.41300557689367 5.020297965034708 0 0 0
96 1 20.02720112829016 17.255685148255733 7.404017888945218 0 0 0
1120 1 24.06186873979016 17.206629520503007 4.120633645438668 0 0 1
20 1 4.616323238777688 0.6019962118256108 4.610904089188996 0 0 0
748 1 4.128532234332805 18.435982910728704 3.2419602896321424 0 0 0
210 1 7.912575199705908 20.454537528311025 4.013323263656609 0 0 0
1051 1 11.084489697015357 20.96839970506197 4.126120394257235 0 0 1
813 1 18.468364204977185 18.542188605488807 3.2649621339112556 0 0 1
1204 1 20.324099633606757 20.73960338677885 3.174070381309796 0 0 0
301 1 1.743949291548435 21.333580577414107 4.200907788394474 0 0 0
557 1 8.028606375913657 0.4966845699121555 10.985047476136396 0 0 0
898 1 5.838009765952038 23.198822539411367 5.763456190159169 0 0 1
1484 1 11.76845649052192 22.377438614482262 6.424980660128059 0 1 0
1028 1 8.654209027786463 23.17304707790268 5.469996902374617 0 0 1
1497 1 15.240746679987284 21.446736377919105 4.494058382915247 0 0 0
2225 1 18.583806825637296 24.328415700691792 5.298697839403795 -1 0 1
3434 1 1.262211465804429 3.732764014675199 6.947161215219101 1 0 1
1722 1 2.766015559305127 1.228495680531996 6.5867068349546924 0 1 0
209 1 5.279599596933542 1.1460833097023704 10.437836503039 0 0 0
299 1 6.240551275730216 2.8791826253437867 8.027412261118942 0 0 0
2596 1 24.436137779449677 17.077793217731507 8.384797950448919 1 0 0
940 1 8.618407865673284 3.8405651177537 8.195561963944613 0 0 1
1795 1 16.47035300061774 1.664376307508456 7.124247904897667 0 1 0
1950 1 19.052577248274858 2.3538071365379127 8.329141234229485 0 1 0
3861 1 22.92949839797788 2.4363030782867128 8.115888039863433 0 1 0
343 1 10.674951414218045 24.247365271841833 18.76105945335585 0 0 0
1306 1 4.026836910557633 3.8299018620375214 9.516629169070168 0 1 0
2843 1 13.484472350433341 24.313062359422393 5.45756088534986 1 0 0
828 1 3.2816060293827896 6.419175354183772 11.631699034460407 0 0 1
290 1 8.683828359945036 5.947747241431299 10.18692778227676 0 0 0
845 1 12.995406452033539 4.177978117950856 5.60255918458738 0 0 1
880 1 15.357230877081815 4.228435457461095 8.700730491862998 0 0 1
3312 1 17.522021179064296 6.052624529801788 9.420995449949386 0 0 1
2655 1 20.632255208400238 4.0304454241349275 6.8331669567617315 1 0 0
2964 1 22.0070382425324 6.17705778251124 8.288678740611557 0 0 0
81 1 21.15193211931365 21.57725248122491 18.608720637436114 0 0 0
3394 1 4.173403293192914 8.610092674540084 5.885128125965295 1 0 1
795 1 10.479854573301516 7.102340569613041 7.745480377875653 0 0 1
4159 1 13.257142469451919 6.161357109239998 7.741172630541441 0 1 0
1359 1 11.378790270919362 5.7083328843265315 10.523448227600856 0 1 0
3193 1 17.38302381560729 8.164630994538703 7.697435247654 0 0 1
1386 1 20.14563274573436 8.501196173526019 8.327205438928557 0 0 0
1215 1 23.216066859758776 8.253075430835608 6.532668335328274 0 0 0
2916 1 4.249268156787392 11.234797085553806 8.26607498627363 1 0 0
1664 1 21.889194179612392 6.790413128239759 19.24990311055314 0 0 0
2694 1 4.629458658400483 12.92257821748634 6.057228683234079 0 0 0
1241 1 11.518871815887445 9.768959089488192 8.59856262091738 0 1 0
2418 1 15.867411708624088 10.184636732079824 8.816243653296363 1 0 0
478 1 7.758663537903508 7.690571259935919 18.6522425685782 0 0 0
220 1 2.8321004585101597 14.785372450239722 7.279243811179963 0 0 0
2388 1 7.334098150188644 13.636592017609333 5.830490067676787 1 0 0
2433 1 13.244129233904973 13.905264529610346 8.63856212189329 1 0 0
974 1 15.479366264313322 15.318039587479571 8.119421207845633 0 0 1
260 1 17.707030650919386 14.109664762030667 9.040797176437978 0 0 0
2152 1 9.733265022347377 16.042557723402638 0.4184583359173083 0 0 1
121 1 22.46931005524221 13.56354774657052 7.929304971188988 0 0 0
1170 1 0.983124306477546 18.360317701344666 8.578784581742827 0 0 0
1947 1 4.564498205369177 14.761227521516332 10.701755004003562 0 1 0
375 1 7.521977041686309 17.184032786469817 8.00365256208076 0 0 0
2104 1 8.235471554082734 14.544857014947473 8.392925338366505 0 1 0
130 1 11.185664720827022 15.16667068727135 7.697490026902257 0 0 0
32 1 11.850541267608671 17.775828813270998 7.776667497082582 0 0 0
1465 1 16.78571862804522 18.84853667094257 7.0770808630639515 0 1 0
277 1 20.32131033223974 14.918973830787177 8.68006190470018 0 -1 0
2410 1 20.602391986472966 15.320775763536759 11.243530066315463 0 0 0
295 1 5.40672160473473 17.21579951762763 9.7350627095055 0 0 0
3326 1 3.5550540671765116 17.47716218317269 7.729060276992968 1 0 1
962 1 8.264888400577728 20.580410174421335 7.203596333491874 0 0 1
1437 1 9.881013973710717 19.305745796796035 9.315191413693263 0 1 0
1217 1 13.685478143242594 20.61218512318931 7.26684624933908 0 0 0
2894 1 19.53516665497799 19.64489338703992 8.142273727168712 0 0 1
1310 1 21.08181706167383 20.920619479890018 5.995182619818577 0 0 0
3585 1 22.733288071890023 18.27474005481964 6.328244337585041 1 0 0
3222 1 1.2667045137191641 11.62943956275663 8.664733702625478 1 0 1
1301 1 2.609320691122331 21.6853989812002 6.561610990566058 0 0 0
3199 1 7.4901022668780195 22.203179549164776 15.477353338513604 0 0 1
2998 1 5.202804555121037 21.17104808171731 7.645269622079317 1 0 1
2600 1 9.888347104489835 24.312001079715742 8.085194495062268 1 0 0
882 1 10.841820807907174 21.86721833330044 9.363267245831269 0 0 1
2264 1 16.628603775666353 21.53608233503435 8.013888196903396 0 1 1
2397 1 13.875450260588975 22.08062413920832 9.959593439639502 1 0 0
394 1 19.41936564979635 23.031740251321143 7.584947382781315 0 0 0
3851 1 22.662218232805703 22.875876941758847 7.423941019178924 0 0 0
1588 1 23.978915259991357 22.377181295976772 10.639877511895882 0 0 0
3320 1 3.738528822511978 1.4453420454314534 12.915834971729304 0 0 1
306 1 23.560990918474356 8.578815873661313 12.764940301025744 0 0 0
377 1 9.706237580758328 2.6724484446183694 10.787050954470807 0 0 0
91 1 13.915607002935003 4.19410682376783 10.873699111556883 0 0 0
126 1 5.878952067874201 20.381744906816774 18.831987366548475 0 0 0
2047 1 0.8706454991648722 3.897371910178712 9.695609703850451 1 1 1
825 1 15.988673454120175 1.8464041700715634 12.255203211758662 0 0 1
7 1 18.693893550474552 1.8264716833417538 12.506380433324166 0 0 0
185 1 21.07814208139836 16.71174512354167 19.135163430108758 0 0 0
3347 1 9.914783224475268 7.494562542303191 1.0351369914497184 1 0 1
3141 1 1.6875702148100091 6.063909289779663 15.896191665112228 1 1 0
2712 1 5.0671863648728745 4.194822730943674 12.226338449714738 1 0 0
270 1 7.6705669809128745 5.918701804678176 12.637139516840188 0 0 0
38 1 9.523997434647425 3.961404718790202 13.287138929346908 0 0 0
3335 1 11.267766265392853 5.781339174548828 13.53266887782797 1 0 1
404 1 15.50249888030619 4.450853639419031 13.32112044124001 0 0 0
1754 1 19.37314235098571 4.146569613624724 10.441432577550307 0 1 0
2597 1 21.89775309752933 5.361337485101843 10.929755292371109 0 0 0
3929 1 22.451873018652933 3.4430337129980875 13.081655357622413 0 1 0
2478 1 2.273354307505205 9.070883198984234 12.443858676931937 1 0 0
1324 1 16.168085004342768 24.130170230756377 6.434119555875793 0 0 0
2730 1 4.3086976605205995 7.706786619456134 8.872852657260589 1 0 0
3852 1 7.280989418035608 8.168106591090995 9.483810369559357 0 1 0
868 1 8.040662356523185 8.104717498902534 14.575471384304402 0 0 1
816 1 12.121080875047362 8.48183934354453 11.165655283523165 0 0 1
1149 1 14.918827352962923 8.96644857573951 11.472123482076736 0 0 1
2387 1 17.943225093437395 4.640389344571159 14.599476776073093 0 0 0
955 1 20.958065209360292 7.704698626929704 12.125895388956936 0 0 1
818 1 8.982427789837125 0.8923826267076901 18.83498927347294 0 0 1
2634 1 21.729891062936208 3.9936755923056158 19.617988379432887 0 0 0
2687 1 4.874603232449996 11.060158230382791 13.068591195404753 1 0 0
933 1 8.853970993024248 10.307002686492554 8.516168315927846 0 0 1
4670 1 11.107232292802403 11.515799390446999 11.38673045286056 0 1 1
143 1 13.574567159248287 11.210693972392896 7.606573030761879 0 0 0
1206 1 14.819724667971848 11.532853619735592 12.799326703048827 0 1 0
3778 1 17.657625465928145 9.977878932987132 12.748487401929626 0 1 0
253 1 16.65601776676993 13.67241067946606 13.661430593910996 0 0 0
1193 1 20.68974658694273 9.967839606816083 10.40755958057506 0 1 0
296 1 23.051262614643708 11.658369255246841 9.752438306853003 0 0 0
3163 1 5.510308052191326 12.309685251933338 10.51864074454559 1 0 1
545 1 5.894777532035842 15.05473220625502 13.19761339880096 0 0 0
696 1 8.242219755280892 12.350536097592682 10.26568034750725 0 0 0
3901 1 12.889425846098325 13.674277902329267 11.127483910404802 1 1 0
1426 1 18.330097655129382 11.168402325129456 10.602068411898836 0 0 0
3496 1 18.955635982937007 13.290534453030155 12.031914169981057 1 0 1
1026 1 2.0493514363362886 15.243252450365917 11.348211810454993 0 0 1
1265 1 8.544074955867682 15.45040973790385 11.356956285951371 0 1 0
3432 1 11.74337602527346 15.840384080705466 12.23474073149732 1 0 1
1088 1 15.132854684601707 15.651992888348246 11.21531250733186 0 0 1
22 1 14.546597561388927 18.291195235085105 8.754218603013882 0 0 0
3872 1 18.945347614935258 17.280133282534567 11.871645655170624 0 1 0
288 1 19.588819378262862 19.81696934661642 10.916080458621247 0 0 0
3557 1 10.356447702936958 18.027126962791687 16.8878925944133 0 0 1
68 1 24.035243999128447 22.59435589991228 13.592752470985909 0 0 0
3783 1 0.9961367539638774 4.57713627079491 13.052246423925965 1 0 0
3402 1 5.8937670388373435 19.070033854059112 11.826383260152266 1 0 1
879 1 8.36583090115165 17.976901549081497 11.749345944202462 0 0 1
4302 1 10.282045431178407 19.856210956000012 13.53153036184385 0 0 0
4685 1 14.46165438520974 19.655369043909083 11.073650520827178 0 0 1
1111 1 11.738564543987739 18.473398550028296 11.300739805029048 0 0 1
246 1 14.81248137836335 18.64271904414814 13.91262813351307 0 0 0
2683 1 17.151476102320697 21.055292038864206 10.658699593599739 0 0 0
167 1 7.509659975750832 23.503545439469985 8.735189171851562 0 0 0
178 1 20.44709308823719 20.978287903197536 14.940187516182243 0 0 0
1411 1 0.6218269977986258 21.200948440216127 8.953070227980081 0 0 0
2392 1 2.8528091640160325 22.178896568564024 10.97182885581039 1 0 0
2376 1 5.435681430709509 21.527255076095308 10.389490821054935 1 0 0
1169 1 23.34558112506639 24.12624544012213 1.0920024005945472 0 0 0
1337 1 8.33307566022413 23.586929780054632 11.25845966808114 0 0 0
3808 1 11.694124544597557 22.019210907168567 12.130638546636586 0 0 0
864 1 16.352442687443475 22.700386552897182 12.823466849072094 0 0 1
1850 1 21.234204889116654 23.347112618468213 11.497620813113114 0 0 0
1540 1 21.794764621164 20.2657966202397 12.852767438385536 0 1 0
2416 1 2.6341211669295457 1.8354435838473377 16.508052517992407 1 0 0
11 1 0.9820671997959849 13.785500119991873 13.315268753741517 0 0 0
1186 1 5.26514853602138 0.8596333318514408 16.65908249692145 0 1 0
2646 1 11.710971772692012 9.161772957392525 1.6226829111103782 1 0 0
412 1 10.953411813853846 0.4067281930910332 15.737345387862074 0 0 0
1321 1 11.738846101139638 1.3926064833525964 18.321908849183792 0 1 0
1421 1 15.240770236861948 1.3383634211885098 9.641210381307163 0 1 0
3912 1 2.0875803320988098 1.4102618447549446 10.472477294709888 1 1 0
294 1 2.595517082906143 19.768411566493512 17.894505692652242 0 0 0
3889 1 14.861032240016163 21.882403009030572 0.31851280775591306 0 0 0
2428 1 3.261230760664874 3.951948125118532 14.801413610982832 1 0 0
3069 1 8.826327210284237 2.2211895567192546 15.3133012888069 1 0 0
2661 1 6.271597915547773 3.5186583140066867 17.09395000650039 1 0 0
873 1 13.391440898814286 5.193040390526474 15.08163358933213 0 0 1
1502 1 13.450446627598927 3.329863952051734 17.288512596045752 0 1 0
4248 1 16.994701787513495 4.311955620687893 17.1617803683257 0 1 0
635 1 20.020767144438757 2.6664105337473516 14.870577256773403 0 0 0
574 1 0.40114207115035727 7.38576294569679 13.600125724220335 0 0 0
2667 1 4.107408241522073 7.026880853859014 17.107405239831394 1 0 0
1369 1 10.725992637812576 8.43948664263564 14.731584592329238 0 1 0
349 1 16.696639471503158 6.836465746929476 11.783915961828068 0 0 0
494 1 23.40151657190616 7.134082626516712 15.258855980733138 0 0 0
1403 1 1.9880780581617283 10.158938049593266 15.062420402524067 0 1 0
2567 1 4.374284218873251 9.633396423931337 16.38233816423864 1 0 0
791 1 7.254050478258678 9.32601146313752 12.15443041848422 0 0 1
892 1 9.91490018741685 11.200732101611129 13.763648880665833 0 0 1
1293 1 12.65803963940709 11.380792609620853 14.817383028525233 0 0 0
3877 1 14.633570911652185 10.909182572935288 16.731016191268413 0 0 0
65 1 17.649455503112804 10.53789635779277 15.381530398460932 0 0 0
418 1 18.762043034120918 7.517342977538667 13.980951423326292 0 0 0
1281 1 22.877079438211844 11.577671180607666 16.961055518066658 0 1 0
328 1 23.71728167629305 12.99571954844008 14.772825607910606 0 0 0
1142 1 23.98797387588169 18.718064116334077 12.842003788308913 0 0 1
1610 1 3.244464382535359 12.69358605202237 14.694650421836249 0 1 0
164 1 3.6462100645587765 14.880740804005159 16.866226113316323 0 0 0
1280 1 7.666097414912682 12.623672506324759 13.277877408995513 0 1 0
389 1 9.422655821989428 14.860506150639937 13.960046893244426 0 0 0
3572 1 11.830048284526452 13.917932413008119 15.233826433346378 0 0 0
3211 1 17.96148897225602 15.796064179747795 16.317208231726685 0 0 1
4068 1 16.671956122379825 16.572335784959606 13.552581005678375 0 0 0
1601 1 20.94177015082813 13.839653698537084 14.090588757917704 0 0 0
1279 1 19.17205471962465 13.037405070428495 16.044940445790555 0 0 0
2066 1 18.7189879646885 1.4747228326208701 0.3469380797164847 0 1 1
3683 1 5.450772972787628 16.755673689107322 15.735963159449604 1 0 0
226 1 8.193898283905424 16.576464569102836 15.827639511354196 0 0 0
3788 1 12.287958406648952 17.381601760615485 14.757199764382177 0 0 0
379 1 15.894122543508633 13.703476907317878 16.49582134594618 0 0 0
369 1 20.158128346776003 16.563009828635863 14.467158349349809 0 0 0
1042 1 23.156920717363175 16.64067794129441 14.751364298713272 0 0 1
2841 1 1.4985526108481506 18.604171323294814 13.690291991894172 1 0 0
147 1 5.045036840797884 20.844143397033026 16.13526111101956 1 0 0
101 1 4.135431780000136 18.811538100411383 14.229952415415543 0 0 0
1487 1 7.964085785914678 21.251596623476324 12.72780739386345 0 0 0
1184 1 10.10986495438037 20.962012536158092 16.25907905864646 0 0 0
278 1 16.02525662298639 18.221009925165845 16.713702937611956 0 0 0
1839 1 19.062903394805467 18.919133629804954 16.16192497306774 0 0 0
222 1 19.866576818821123 19.191131313549306 18.67458634911256 0 0 0
3414 1 1.0210864071402244 21.154643984485123 13.306667856183306 1 0 1
627 1 2.8054518369579435 22.749627406763764 17.8575008530879 0 0 0
292 1 18.183693026787726 24.138507442541783 10.118273344689536 0 0 0
208 1 13.915401969407501 21.398573938845146 13.923379088544623 0 0 0
1858 1 12.746710488522515 22.05769546389505 16.443806644695908 0 0 0
3838 1 19.154707519975407 22.992669475443627 13.431564569884777 0 0 0
322 1 22.886951021287103 22.71805734893753 16.636523789383588 0 0 0
2652 1 0.6961089448105092 17.53771540889078 11.347730851115791 1 0 0
833 1 13.395801722164208 14.174963847816901 2.3019730999480297 0 0 1
1524 1 10.956835020117795 18.18346303029751 1.6612073062212278 0 0 0
4096 1 0.793450138698551 14.340246204498428 9.124180497589654 1 0 0
214 1 9.05512792698304 19.139340951289082 19.174228497758765 0 0 0
2995 1 15.651508216200087 1.8686219586986732 18.231999683156275 0 0 0
4433 1 5.023228380793138 21.712956754914096 0.772524292014338 1 0 1
4332 1 0.13933653071466334 17.654480356458347 15.982240146660594 1 1 0
2933 1 19.502018309632813 2.822726640531042 18.13866709104766 0 1 0
136 1 1.5507692692918893 3.1644524975572486 18.944098617787525 0 0 0
3329 1 9.413981004238048 22.69886523895862 0.48030260947397646 1 0 1
1251 1 4.303766693095639 3.0201832904086165 19.4838883810076 0 1 0
162 1 24.491782704483924 11.811659860314846 12.161756795727515 0 0 0
4161 1 6.706089162523643 6.195922645847833 16.577651618472412 0 1 0
347 1 12.929913987084323 5.879827456490529 18.42267324425307 0 0 0
289 1 8.723360398109335 21.990945198882333 18.607553112304764 0 0 0
1085 1 22.573309104160334 4.480963747493812 15.635245247037275 0 0 1
4127 1 1.7706439610028148 8.492861566999066 19.030427810712922 1 1 0
2462 1 21.41148728150558 0.7553267898514571 0.3169773869452267 0 0 0
903 1 7.086093823148691 10.626130084746185 15.464974503276846 0 0 1
3733 1 14.345284401994283 7.690216907703348 16.544513239446513 0 1 0
2291 1 0.6696343987788372 24.16733486013721 3.9681732511464833 0 0 1
673 1 11.995665609800927 9.687949346212507 17.303335438645142 0 0 0
1627 1 16.71258601462104 7.203957915212888 17.992473877036037 0 1 0
1033 1 18.752663430095367 8.655805386389702 16.86163136714558 0 0 1
3818 1 20.26453986539154 5.4939502552978645 17.011288698264043 0 0 0
2378 1 3.5879695081039285 10.580551040329606 18.725464100986958 1 0 0
862 1 7.22438443580859 10.42750891137031 18.404537764829357 0 0 1
132 1 9.898722819849231 11.123705314955476 18.95624728694382 0 0 0
1192 1 14.528173388918157 11.747063937152006 19.25512934624878 0 0 0
2738 1 20.640424128187437 12.477864114533187 18.565762829154647 1 0 0
2638 1 23.18832350312097 17.81448428178532 17.552465111684334 0 0 0
966 1 0.8721310980317287 23.322364931111927 1.2049714690875635 0 0 1
219 1 21.748735934003836 8.649418333036943 16.82614478362754 0 0 0
2390 1 4.463560527386774 13.200184193916352 18.868714694956346 1 0 0
1452 1 4.460728516245795 24.48311892159529 19.76447365195426 0 0 0
1036 1 10.241347536654418 13.712708767937373 17.654095415459732 0 0 1
2911 1 13.177959512407098 14.148542669297136 18.99001655084494 1 0 0
703 1 18.925685039964293 14.828313678280374 18.987865762166564 0 0 0
2635 1 19.648238202884833 23.69082206448 16.770900601978383 0 0 0
645 1 1.916923834853466 16.926041416335835 17.854077883177734 0 0 0
3596 1 8.111430682384254 15.434191351417875 18.44094137338591 0 0 0
1607 1 12.186839265768018 17.294942251603707 18.79313414709075 0 0 0
215 1 14.106758337415117 16.031871728507898 16.40959437700257 0 0 0
25 1 17.185829122707904 17.18334362332893 19.224192045923406 0 0 0
165 1 24.433779799419078 13.610408808979674 2.947982875665984 0 0 0
4490 1 19.037674174816942 0.33865672953676956 5.800948513155941 1 1 1
2613 1 0.3747072729813718 9.936501676368367 10.876463959235283 1 0 0
3016 1 23.875038229000424 2.1677187859905254 19.58818268908682 0 0 0
4241 1 18.50141614770936 22.758540422377187 19.820756205027443 0 0 0
3239 1 22.46135388106927 9.263987683774788 0.6235998767166332 0 0 1
284 1 22.19791142051529 0.3626852852151986 13.355673111990654 0 0 0
320 1 24.42441687267571 19.63963760794813 10.226839637700905 0 0 0
805 1 5.619285656183569 24.288954479734777 0.4694591108106724 0 0 1
2366 1 6.7511884551427634 17.783048353847242 19.418871434181867 1 0 0
177 1 3.7689753642464163 5.9580024648525844 19.625709812500187 0 0 0
1519 1 20.213537627688027 4.831234490822741 0.23562111993137752 0 1 0
567 1 16.82638202546567 0.13454329264783424 26.156899408995248 0 0 0
596 1 1.134385879388113 22.289886099984464 32.65034385714105 0 0 0
754 1 0.48790415554912464 16.528344448500174 35.549931944283344 0 0 0
729 1 0.22039645154698984 13.46490713574393 22.373454348480095 0 0 0
1542 1 8.537524652804384 22.918572594038498 22.511641433977978 0 0 0
3994 1 24.15301112262631 3.699229592862889 34.685805656755285 0 1 0
51 1 19.77366782076013 3.767491419017288 21.63600420365503 0 0 0
815 1 21.536078566434547 2.6859374213353817 23.47688658838387 0 0 0
2957 1 23.883658192423862 3.795354483071628 22.039319801554406 0 0 0
837 1 4.6026893858489375 3.3319260722431205 22.307433959323653 0 0 1
2735 1 6.438885742762973 1.5559375369195256 21.363734043207433 1 0 0
1622 1 4.228831711856346 23.528818595052755 35.90912851059855 0 0 0
758 1 14.064130920836698 4.599314510533229 23.280668351848366 0 0 0
1716 1 19.039258909914466 6.4423503517468355 22.451371179294426 0 1 0
3428 1 3.8397137183377366 3.2709110488413615 37.50776341113594 1 0 0
153 1 0.23093976631335333 7.10623783572529 36.873269656390406 0 0 0
1121 1 10.261888993215289 0.4685818230330822 36.48921668209661 0 0 0
859 1 13.135941990466563 0.3729106584659143 39.127974586285895 0 0 0
2789 1 2.274423118219227 7.586642009931439 21.903516061178212 1 0 0
684 1 6.224463403844283 6.736389483009081 20.696324659405988 0 0 0
2282 1 9.686597289730162 5.150098336085542 22.681176385470618 0 1 0
316 1 0.13017920986866185 17.681751148132363 28.45175376206359 0 0 0
112 1 0.5188223602177388 4.138631935653756 22.97403030460274 0 0 0
2983 1 12.599837088868348 8.119415721544813 24.118621284390706 0 0 0
2487 1 14.694805651624158 8.634742972807802 22.26506317831514 1 0 0
3134 1 20.31962873058391 8.500547405296926 20.96989949422017 0 0 0
434 1 10.9189468993393 21.47177816672636 20.175014507079236 0 0 0
3792 1 3.3931061601957353 10.799725254105345 22.451568364946173 1 0 0
3776 1 5.321886251750296 9.485867167990277 20.5555844966551 0 1 0
2501 1 8.019156289803549 8.753175580817704 22.647572616375722 1 0 0
1678 1 10.585478388155849 7.98834915130465 22.09493802370094 0 1 0
1624 1 15.768370865515898 11.107250042280288 22.863663970466224 0 0 0
499 1 2.832335021082438 18.147630882252756 39.0042347758254 0 0 0
3846 1 12.807181547633382 9.53645093404815 20.255386501741572 1 0 0
1380 1 15.33179740935965 22.551691664793587 20.16947535464356 0 0 0
2838 1 3.286058100126667 13.509556276039676 22.96637376422717 1 0 0
2531 1 5.7129689737301845 14.486631872944761 22.280741516317843 1 0 0
632 1 8.110431242806156 11.754234194694137 22.452803610456233 0 0 0
863 1 10.814788967968127 11.187642268204996 21.494893266705056 0 0 1
3819 1 11.663882663646502 13.800158067021401 21.298738256914127 0 0 0
374 1 17.422755742505405 14.541851538461462 21.20630909197014 0 0 0
1454 1 18.55546637580423 14.365723903802037 23.52754854153797 0 0 0
3308 1 19.816870281777913 15.096113083819624 39.70339739446666 0 0 0
2897 1 4.327611495738326 16.795854449512763 21.11804287637036 1 0 0
3256 1 24.465965177219623 8.522791757594476 38.065095750116235 0 0 0