
# read in water data
read_data data.liquid_ML group water extra/atom/types 1
Reading data file ...
  orthogonal box = (0.0000000 0.0000000 0.14966194) to (49.220000 49.019636 59.912338)
  2 by 2 by 3 MPI processor grid
  reading atoms ...
  4739 atoms
  reading velocities ...
  4739 velocities
  read_data CPU = 0.011 seconds

# remove area for graphite
region substrate block 0 ${XDIM} 0 ${YDIM} ${Z_LO} ${Z_HI}
region substrate block 0 49.22 0 ${YDIM} ${Z_LO} ${Z_HI}
region substrate block 0 49.22 0 49.019635930410494 ${Z_LO} ${Z_HI}
region substrate block 0 49.22 0 49.019635930410494 25 ${Z_HI}
region substrate block 0 49.22 0 49.019635930410494 25 35.062
delete_atoms region substrate
Deleted 801 atoms, new total = 3938

# Insert substrate
read_data data.graphite add append shift 0.0 0.0 ${Z_LO} group graphite offset 1 0 0 0 0
read_data data.graphite add append shift 0.0 0.0 25 group graphite offset 1 0 0 0 0
Reading data file ...
  orthogonal box = (0.0000000 0.0000000 0.14966194) to (49.220000 49.019636 59.912338)
  2 by 2 by 3 MPI processor grid
  reading atoms ...
  2760 atoms
  reading velocities ...
  2760 velocities
  read_data CPU = 0.015 seconds


# Define potential
# CHECK ON THIS %%%%%%%%%%%%
#
pair_style sw
pair_coeff * * MLC_e.sw mW C


# Delete water and ice atoms that are overlapping
#
delete_atoms overlap 2.5 water graphite
System init for delete_atoms ...
Neighbor list info ...
  update every 1 steps, delay 10 steps, check yes
  max neighbors/atom: 2000, page size: 100000
  master list distance cutoff = 7.76
  ghost atom cutoff = 7.76
  binsize = 3.88, bins = 13 13 16
  2 neighbor lists, perpetual/occasional/extra = 1 1 0
  (1) command delete_atoms, occasional, copy from (2)
      attributes: full, newton on
      pair build: copy
      stencil: none
      bin: none
  (2) pair sw, perpetual
      attributes: full, newton on
      pair build: full/bin/atomonly
      stencil: full/bin/3d
      bin: standard
Deleted 109 atoms, new total = 6589

# set timestep
#
timestep 10.0

# Define output
#
compute 1 all msd
thermo 50
thermo_style custom step temp press vol etotal ke pe c_1[4]

# Neighbor lists
#
neigh_modify delay 0 every 1 check yes


# Fix graphite atoms in place
# CHECK ON THIS %%%%%%%%%%%%%%%%%%%%
#
fix 1 graphite setforce 0.0 0.0 0.0
velocity graphite set 0.0 0.0 0.0

# Set fixes
#
fix 2 water momentum 10 linear 1 1 1 rescale
fix 3 all nph z ${PRES} ${PRES} ${PCOUPL}
fix 3 all nph z 1 ${PRES} ${PCOUPL}
fix 3 all nph z 1 1 ${PCOUPL}
fix 3 all nph z 1 1 10000.0
fix 4 all temp/csvr ${TEMP} ${TEMP} ${TCOUPL} 837492
fix 4 all temp/csvr 235 ${TEMP} ${TCOUPL} 837492
fix 4 all temp/csvr 235 235 ${TCOUPL} 837492
fix 4 all temp/csvr 235 235 5000.0 837492


# Run 0.5 ns equilibration of water
#
dump 1 all atom 1000 eq.all.${NAME}.dump
dump 1 all atom 1000 eq.all.graphite_ML_1atm_e.dump
run 50000
Neighbor list info ...
  update every 1 steps, delay 0 steps, check yes
  max neighbors/atom: 2000, page size: 100000
  master list distance cutoff = 7.76
  ghost atom cutoff = 7.76
  binsize = 3.88, bins = 13 13 16
  1 neighbor lists, perpetual/occasional/extra = 1 0 0
  (1) pair sw, perpetual
      attributes: full, newton on
      pair build: full/bin/atomonly
      stencil: full/bin/3d
      bin: standard
Per MPI rank memory allocation (min/avg/max) = 4.560 | 4.691 | 4.955 Mbytes
Step Temp Press Volume TotEng KinEng PotEng c_1[4] 
       0    137.53943   -765.60198    144192.19   -35800.004     2700.941   -38500.945            0 
      50    150.64277   -2113.9562    143887.28   -35645.289     2958.259   -38603.548   0.65578999 
     100    151.10716   -1707.5185    142816.19   -35489.828    2967.3784   -38457.206    1.2722734 
     150    160.01374   -1002.4206     141638.2   -35330.718     3142.282       -38473    1.7255278 
     200     160.5548   -937.86604    140816.56   -35243.978    3152.9071   -38396.885    2.1906144 
     250     164.6726   -752.36392    140110.84   -35106.342    3233.7709   -38340.113    2.8286997 
     300    166.24819   -323.88531    139485.51   -34927.813    3264.7116   -38192.525    3.3715589 
     350    169.66333   -712.54206     138981.8   -34833.527    3331.7766   -38165.304    3.9596929 
     400    172.12831   -270.44817    138486.31   -34731.248     3380.183   -38111.431    4.7129625 
     450    172.73751   -157.20121    138099.51   -34576.657    3392.1461   -37968.803    5.4566056 
     500    174.93223   -197.94623    137823.98   -34483.069     3435.245   -37918.314    6.1076853 
     550    175.27133   -486.09106    137675.91   -34385.491    3441.9041   -37827.395    6.8582314 
     600    180.11232   -400.80365    137546.37    -34283.19    3536.9695    -37820.16    7.5502939 
     650     181.0569   -284.69503    137464.54   -34175.362    3555.5187   -37730.881    8.3150406 
     700    186.66855    75.899954    137455.59   -34075.654    3665.7179   -37741.372    9.2014042 
     750    186.14043   -165.77453    137512.24   -33992.069     3655.347   -37647.416    10.028389 
     800    182.57739   -702.09905    137515.28   -33882.777    3585.3775   -37468.155    11.162932 
     850    182.77676   -381.01556     137441.2   -33761.922    3589.2926   -37351.215    12.063747 
     900    186.67195    -145.5107    137403.22   -33665.306    3665.7847   -37331.091    12.921599 
     950    193.21785   -281.26118       137420   -33579.121    3794.3303   -37373.452    13.894183 
    1000    192.76573   -752.16294    137449.73   -33496.673    3785.4518   -37282.125    14.759509 
    1050    195.27351   -656.24007    137353.58   -33426.968    3834.6985   -37261.667    15.773644 
    1100    191.62333   -420.61817    137186.49   -33364.408    3763.0177   -37127.425     16.89118 
    1150    195.60747   -585.23719    137057.15   -33288.657    3841.2567   -37129.914     17.76891 
    1200    197.08032   -96.822243    136913.33   -33234.136    3870.1799   -37104.316    18.875566 
    1250    198.82875    -439.3469    136803.78   -33172.849    3904.5149   -37077.363    19.852935 
    1300    199.00558   -29.331543    136712.76   -33124.346    3907.9873   -37032.333    20.983066 
    1350    196.96867   -86.924078    136661.54   -33069.339    3867.9874   -36937.327    22.165172 
    1400    203.60441   -69.092786    136705.64   -32990.773    3998.2972    -36989.07    23.187853 
    1450    204.52875    64.165757    136802.68   -32927.396    4016.4491   -36943.845    24.328954 
    1500    204.26381    107.64792    136928.29   -32878.865    4011.2462   -36890.111    25.612739 
    1550    205.37554   -129.63962    137074.89   -32829.253    4033.0779   -36862.331    26.843414 
    1600    208.00018    107.95613    137279.87   -32778.155    4084.6194   -36862.774    28.073935 
    1650    208.32775   -293.51002     137474.3   -32731.145    4091.0522   -36822.198    29.247251 
    1700    208.98534   -134.23759    137615.63   -32665.941    4103.9656   -36769.907    30.228817 
    1750    210.00185    167.38594    137746.95   -32629.508    4123.9273   -36753.436    31.409857 
    1800    210.72506    238.16748     137969.1   -32563.136    4138.1296   -36701.266    32.817538 
    1850    213.02865   -174.33546    138199.24     -32500.4    4183.3664   -36683.767    34.244676 
    1900    213.08693   -608.13771    138410.27    -32437.15    4184.5108   -36621.661    35.535926 
    1950    213.08686    290.44808    138562.65   -32382.007    4184.5096   -36566.517    36.894807 
    2000    211.50453   -439.66001    138725.92   -32314.826    4153.4364   -36468.262    38.182738 
    2050    211.47067   -195.21907    138828.23   -32302.651    4152.7715   -36455.423    39.557013 
    2100    214.99441   -266.87345    138901.88   -32278.477    4221.9693   -36500.446    41.078898 
    2150     215.2085   -178.49001    138929.78    -32234.33    4226.1735   -36460.504    42.421714 
    2200    214.93647   -408.37482    138904.76   -32183.341    4220.8314   -36404.173    44.044044 
    2250    216.88571   -408.99531    138872.65   -32154.751    4259.1098   -36413.861     45.63496 
    2300    219.78945   -474.80674    138783.84   -32085.818    4316.1321    -36401.95    46.994131 
    2350    221.05522   -111.60502    138662.22   -32022.719    4340.9889   -36363.708      48.5892 
    2400    221.79789    309.93929     138596.3   -31999.626    4355.5731   -36355.199    49.750188 
    2450    219.74788    104.82832    138630.47   -31964.309    4315.3158   -36279.625    51.106757 
    2500    223.27571   -35.881849    138755.05   -31905.923    4384.5938   -36290.517    52.703578 
    2550    225.96609    -31.93741    138923.38   -31882.905    4437.4264   -36320.331    54.468961 
    2600    221.24815   -161.02416    139036.78   -31862.502    4344.7776    -36207.28    56.069368 
    2650    223.82849   -371.52435    139069.96   -31799.937    4395.4491   -36195.386    57.623406 
    2700    223.33957   -61.874093    139051.89   -31775.843    4385.8479    -36161.69    59.157197 
    2750     224.2044    6.5807433    139079.54   -31774.306     4402.831   -36177.137    60.888685 
    2800    226.25257   -254.46857    139072.35   -31755.261    4443.0522   -36198.313    62.460564 
    2850    224.09566    89.635362    139041.47   -31757.642    4400.6958   -36158.338    64.306977 
    2900    229.17129   -467.28244    139079.87   -31757.198    4500.3688   -36257.567     65.76931 
    2950     225.3612   -102.94307    139184.42   -31750.197    4425.5477   -36175.744    67.264883 
    3000    227.55683   -294.30334    139302.05   -31716.818    4468.6647   -36185.482    69.032934 
    3050    227.30815   -242.56972    139344.74   -31717.472    4463.7811   -36181.253    70.612589 
    3100    225.75173   -282.50308    139386.85   -31696.432    4433.2169   -36129.649    72.189895 
    3150    224.78856   -231.77781    139388.52   -31699.738    4414.3026    -36114.04    73.716464 
    3200    227.03606   -141.19219    139351.45   -31661.648     4458.438   -36120.086     75.09763 
    3250    227.78391   -573.37886    139336.21   -31636.178    4473.1239   -36109.302    76.938767 
    3300    230.38675   -195.10638    139293.25   -31605.024    4524.2375   -36129.261    78.671844 
    3350    230.33268   -277.68899    139280.59   -31523.506    4523.1756   -36046.682    80.551514 
    3400    223.34819   -96.299873    139285.17    -31548.23    4386.0172   -35934.247    82.514395 
    3450    228.70859    58.629587    139307.58   -31564.326    4491.2824   -36055.608    84.471385 
    3500    229.74999    181.68301    139341.91   -31548.258     4511.733   -36059.991    86.161887 
    3550    232.65704    83.734837    139438.92   -31522.457    4568.8205   -36091.278    87.716663 
    3600    229.29798   -420.17899    139551.19   -31522.916    4502.8566   -36025.773    89.336241 
    3650    229.12191    1.7194211    139643.08   -31531.666    4499.3991   -36031.065    90.773582 
    3700     229.9269   -62.483296    139740.74   -31520.317    4515.2072   -36035.524    92.473404 
    3750    230.70905    184.61359    139862.74       -31523    4530.5666   -36053.567    94.091577 
    3800    226.66149    226.18714    140043.78   -31522.564    4451.0824   -35973.646    95.805812 
    3850    229.53756    -252.5799    140169.11   -31506.335    4507.5613   -36013.896    97.645601 
    3900    226.88698   -308.26033     140186.6   -31508.418    4455.5105   -35963.928    99.272754 
    3950    227.79432   -271.08133    140161.01    -31473.79    4473.3285   -35947.118    100.99915 
    4000    226.48486    118.54196    140100.96   -31480.827    4447.6138   -35928.441    102.66795 
    4050    231.51798   -311.09738    140127.67   -31463.187     4546.452   -36009.639    104.23573 
    4100    235.90508    187.01605    140211.43    -31449.08     4632.604   -36081.684    105.77691 
    4150    234.37823    -553.7661    140331.19   -31424.229    4602.6205   -36026.849     107.7362 
    4200    231.51345    -377.3268    140343.16   -31420.121    4546.3631   -35966.484    109.47306 
    4250    231.98687   -73.785065    140320.11   -31396.619      4555.66   -35952.279    110.97421 
    4300    232.95152   -666.70706    140284.58   -31404.073    4574.6034   -35978.676    113.00951 
    4350    226.35608    169.97669    140153.78   -31402.726    4445.0849   -35847.811    114.25221 
    4400    233.71826   -97.226858    140035.53    -31398.63    4589.6602    -35988.29    115.79417 
    4450    231.46548    279.13299    139970.45   -31342.239    4545.4211    -35887.66    117.62218 
    4500    235.67691   -256.04109    139986.42   -31297.698    4628.1234   -35925.821    119.12867 
    4550    235.02151   -109.83574    139999.92    -31270.52    4615.2529   -35885.773    120.94235 
    4600    237.51589   -512.55734    139992.17    -31268.83    4664.2365   -35933.067    122.39262 
    4650    235.60155    155.94181    139981.19   -31227.329    4626.6434   -35853.972    124.60551 
    4700    235.53853   -112.94966    140057.25   -31208.086     4625.406   -35833.492    126.52717 
    4750    229.15841    160.96502    140191.67   -31212.341    4500.1158   -35712.457    127.86429 
    4800    237.59785   -860.80921    140339.29   -31210.727    4665.8459   -35876.573    129.54975 
    4850    232.77802   -570.39813    140442.17   -31211.269    4571.1961   -35782.465    131.18038 
    4900     235.4902   -598.30733    140483.86    -31211.14    4624.4568   -35835.597     133.1695 
    4950    238.08812   -459.65613     140481.4   -31206.838    4675.4737   -35882.312    135.10798 
    5000    235.30598   -20.478573     140402.2   -31225.549    4620.8391   -35846.388     136.9482 
    5050    234.62051   -296.72343    140315.06   -31243.124    4607.3782   -35850.503    138.66909 
    5100    233.41377   -643.97904    140173.35   -31235.627    4583.6809   -35819.308    141.08763 
    5150    236.30088   -315.68444    139976.52   -31257.247    4640.3766   -35897.624    142.72833 
    5200    233.99685   -359.75382     139803.4   -31259.528     4595.131   -35854.659    145.16425 
    5250     236.4041    192.43453    139677.13   -31242.628    4642.4036   -35885.031    147.58174 
    5300    235.93068   -100.16947    139690.29   -31233.384    4633.1069   -35866.491     149.0724 
    5350    233.90755    93.249115    139741.42   -31217.238    4593.3774   -35810.616    151.07834 
    5400    239.28676   -279.08617    139810.23   -31252.601     4699.012   -35951.613    153.19426 
    5450     236.3615    340.96495    139900.29   -31242.769     4641.567   -35884.336    155.07456 
    5500    237.66741    -211.1779    140059.93   -31236.159     4667.212   -35903.371    156.75788 
    5550    232.49558   -157.12234    140276.28    -31272.38    4565.6498    -35838.03    159.09115 
    5600    236.86957   -209.72878    140435.28   -31301.944    4651.5443   -35953.488    160.75625 
    5650     229.4443    135.68726    140486.13   -31369.611      4505.73   -35875.341     162.5861 
    5700    231.47732   -36.916229    140492.11   -31355.068    4545.6536   -35900.722    164.81382 
    5750    230.87317   -531.10306    140516.24   -31338.109    4533.7897   -35871.899    166.72269 
    5800    233.56999   -141.76554    140507.98   -31330.359    4586.7485   -35917.107    168.64051 
    5850    233.74364    88.643849    140479.58   -31290.437    4590.1586   -35880.595    171.21685 
    5900    235.48811   -315.92166    140450.61   -31311.344    4624.4157    -35935.76     172.8289 
    5950    234.07346    45.855574     140383.6   -31320.195    4596.6354   -35916.831    174.75371 
    6000     235.0299   -25.462721    140320.67   -31309.649    4615.4177   -35925.067    176.57115 
    6050    238.12934    -438.7134    140253.76    -31266.49    4676.2832   -35942.774     178.0608 
    6100    238.00225   -164.95064    140225.88   -31276.869    4673.7873   -35950.656    179.39182 
    6150    233.78312   -444.86214    140230.69   -31263.084     4590.934   -35854.018    181.53731 
    6200    236.33455   -122.86239    140238.39   -31275.464    4641.0379   -35916.502    183.34669 
    6250    236.68218   -335.29596    140239.49   -31273.773    4647.8645   -35921.637    185.24338 
    6300    231.75835   -188.15969    140149.23   -31245.389    4551.1723   -35796.561    187.07762 
    6350    235.94298    59.787608    140047.72    -31215.63    4633.3483   -35848.978    188.58104 
    6400    239.13172    189.23737     140043.3   -31267.005    4695.9675   -35962.973    190.49839 
    6450    232.36874    157.03812    140113.23   -31276.083     4563.159   -35839.242    192.44921 
    6500    239.40133   -4.9800187    140273.44   -31247.837    4701.2621   -35949.099    194.32037 
    6550    231.17277   -354.14261    140510.08   -31216.517    4539.6731    -35756.19    196.50066 
    6600    236.28944   -749.89756     140722.2   -31231.027    4640.1521   -35871.179    199.11269 
    6650    230.09777   -255.93349    140805.39   -31247.639    4518.5626   -35766.201    200.93321 
    6700    232.79896    75.506536    140798.14   -31263.925    4571.6074   -35835.532    203.43408 
    6750    234.11139   -601.52882    140726.64   -31274.261    4597.3804   -35871.641     205.2509 
    6800    229.89274   -348.30806    140552.02   -31258.348    4514.5362   -35772.884    206.91358 
    6850    234.22802    -339.3922    140349.73    -31243.11    4599.6706   -35842.781    208.16806 
    6900    233.85058    131.31919    140135.84   -31227.387    4592.2586   -35819.645    209.96076 
    6950    236.71191    327.41005    139906.58   -31234.832    4648.4482   -35883.281    211.70639 
    7000     234.7332    197.07039    139768.08   -31204.136    4609.5912   -35813.727    213.72711 
    7050    238.59676   -548.05871    139709.97     -31214.1    4685.4622   -35899.563    215.84456 
    7100    237.83601   -477.07617    139675.23   -31203.379    4670.5229   -35873.902    217.82402 
    7150    231.34021   -173.94011    139677.04   -31245.815    4542.9612   -35788.776    219.24079 
    7200    234.99095   -12.982555    139719.58   -31270.994    4614.6528   -35885.647     221.3337 
    7250    238.55697     138.1171    139822.29   -31254.818    4684.6807   -35939.498    222.94878 
    7300    235.70395   -103.00163    139943.45    -31228.86    4628.6544   -35857.514     224.4775 
    7350      237.424   -32.846132    140103.43   -31215.402     4662.432   -35877.834    226.16681 
    7400    232.81595   -137.82068    140297.78   -31202.161    4571.9411   -35774.102    227.90185 
    7450    240.03959   -679.20993    140548.03   -31195.924    4713.7958   -35909.719    229.34726 
    7500    232.77222   -434.77464    140725.77   -31242.656    4571.0822   -35813.738    230.52996 
    7550    232.86471   -435.15234    140774.72   -31249.913    4572.8987   -35822.812    232.58298 
    7600    235.01159   -352.57232     140756.7   -31220.627     4615.058   -35835.685    234.39213 
    7650    237.00198   -230.10438    140722.35   -31212.657    4654.1445   -35866.802    235.42676 
    7700    236.75153   -444.99807    140717.85   -31218.179    4649.2262   -35867.405    236.71958 
    7750    234.88551   -259.29538    140682.22   -31196.657    4612.5821   -35809.239    238.34362 
    7800    235.44996   -92.964307    140660.05   -31232.904    4623.6667   -35856.571    239.42904 
    7850    234.09462    72.188185    140651.69   -31207.398    4597.0511   -35804.449    241.09273 
    7900    235.93686   -345.95197    140657.89   -31222.821    4633.2281   -35856.049    243.11224 
    7950    231.56321   -308.68423    140639.27   -31257.727    4547.3403   -35805.068      245.301 
    8000    228.99728    162.13477    140640.32   -31255.128    4496.9516   -35752.079    247.43035 
    8050    236.21955   -103.46277     140691.7   -31230.194    4638.7794   -35868.974    248.45811 
    8100    236.21125   -233.17487    140685.64   -31260.671    4638.6165   -35899.287    250.10165 
    8150    231.48001   -247.33957    140620.42   -31226.853    4545.7065   -35772.559    251.45673 
    8200    235.47504   -341.00737    140508.35   -31234.831    4624.1591    -35858.99    253.33134 
    8250    235.69021   -358.84173    140415.22   -31229.877    4628.3845   -35858.262    255.23888 
    8300    238.21336    333.90803    140311.49   -31226.734    4677.9332   -35904.667    257.10512 
    8350    234.29972    120.96256    140278.83   -31253.484    4601.0788   -35854.563    258.91918 
    8400    238.18708   -84.333128    140277.69    -31265.64     4677.417   -35943.057    260.34839 
    8450     230.9035    234.51352    140280.22   -31284.752    4534.3852   -35819.137    262.00032 
    8500    232.22558   -25.956734    140293.39   -31261.305    4560.3476   -35821.653      264.404 
    8550    234.88216    125.42973    140301.42   -31283.022    4612.5164   -35895.539     266.5074 
    8600    231.17877    -13.03152    140321.04   -31275.259    4539.7908    -35815.05    268.19457 
    8650     232.8534   -213.14703    140344.71   -31271.982    4572.6764   -35844.658    270.43472 
    8700    234.38414   -258.80402    140367.53   -31276.724    4602.7365    -35879.46    272.56287 
    8750    231.41921   -260.35464    140383.83   -31242.716    4544.5125   -35787.228    274.04725 
    8800    232.61748   -477.74381     140408.4   -31262.303    4568.0436   -35830.346    276.58011 
    8850    234.37532   -397.81161    140344.41   -31281.767    4602.5632    -35884.33    278.16361 
    8900    231.76676   -175.39317    140203.63   -31291.522    4551.3374   -35842.859    280.06215 
    8950    232.01397   -226.71161    140085.59   -31281.658    4556.1921    -35837.85    280.95543 
    9000    232.89078   -593.60874    139993.37   -31273.805    4573.4106   -35847.216    281.46998 
    9050    232.33274   -479.91617    139914.51   -31278.528     4562.452    -35840.98     282.8525 
    9100    233.07497    81.135744    139861.46   -31309.043    4577.0275    -35886.07    284.56527 
    9150    236.03775     42.26684    139882.84   -31289.196    4635.2093   -35924.405    286.03991 
    9200    233.14434   -358.51691    139994.33   -31295.918    4578.3898   -35874.308    288.23308 
    9250    229.25693   -165.64726    140142.74   -31304.367    4502.0506   -35806.418    290.00903 
    9300    236.17466   -368.82105    140283.95   -31343.974    4637.8979   -35981.871    291.49802 
    9350    235.52939   -213.53949    140352.43   -31338.345    4625.2264   -35963.571    293.66248 
    9400    233.56939    198.16513    140403.96   -31325.239    4586.7367   -35911.976    296.38294 
    9450    233.32376    -380.0281    140480.33   -31288.529    4581.9132   -35870.442    297.33156 
    9500    235.18024    59.459592    140495.77   -31312.179    4618.3701   -35930.549    299.27042 
    9550    229.37693   -252.57596    140496.71   -31299.872    4504.4069   -35804.279    301.32891 
    9600    232.34109   -552.80726    140469.85   -31282.676     4562.616   -35845.292    302.47098 
    9650    231.83587   -276.13503    140341.15   -31302.249    4552.6947   -35854.943    304.32011 
    9700    235.54362   -206.22405    140164.47   -31306.204    4625.5058    -35931.71     305.8216 
    9750    237.76177   -286.07062    139972.99   -31303.834     4669.065   -35972.899    307.89199 
    9800    235.97465    220.31612    139805.22   -31316.863    4633.9703   -35950.833    309.99359 
    9850    235.18703    54.900763    139756.04   -31314.633    4618.5034   -35933.137    311.96329 
    9900    232.95834   -269.55707    139778.99   -31314.212    4574.7373   -35888.949    313.64366 
    9950    232.35358    111.92691    139874.61   -31305.994    4562.8612   -35868.855    315.95134 
   10000    233.32483   -101.73646    140060.86   -31289.663    4581.9343   -35871.597     318.9776 
   10050    233.40963    313.21721    140235.57     -31303.2    4583.5995   -35886.799     321.7806 
   10100    233.66537   -108.56593    140398.32   -31282.043    4588.6216   -35870.665    323.00297 
   10150    234.43967   -78.353981    140529.82   -31257.862     4603.827   -35861.689    325.32333 
   10200    230.27229    -443.4537    140611.92   -31240.334    4521.9897   -35762.324    326.98339 
   10250    236.09729   -71.221659    140608.59   -31249.906    4636.3786   -35886.285    328.73043 
   10300    232.29418   -37.189151    140588.51   -31239.719    4561.6948   -35801.414    330.27672 
   10350    235.39012   -309.74204    140545.38   -31235.452    4622.4914   -35857.943    332.31748 
   10400     236.6034   -619.50818    140374.93   -31267.478    4646.3174   -35913.795    333.32161 
   10450    236.26285   -102.11216    140124.85   -31263.317    4639.6298   -35902.947    335.46315 
   10500    234.24055   -74.548836     139950.1   -31254.085    4599.9168   -35854.002    337.20814 
   10550    236.46885    87.947175    139817.67   -31253.866    4643.6752   -35897.541    339.25839 
   10600    236.14084     233.1007    139784.57   -31247.536    4637.2338    -35884.77    340.87222 
   10650    234.50179   -146.31034    139784.84   -31239.478    4605.0469   -35844.525     342.3367 
   10700      230.992   -59.565874    139832.43   -31249.656     4536.123   -35785.779    344.55065 
   10750    236.36736   -123.00012    139997.89   -31237.185    4641.6821   -35878.867    346.87548 
   10800    238.67022    -250.7338    140217.24   -31253.201    4686.9048   -35940.106    349.34629 
   10850    236.35612   -201.03544    140435.65   -31226.768    4641.4615    -35868.23    351.22378 
   10900     239.4313   -162.69654    140585.43   -31217.213    4701.8504   -35919.063    353.50117 
   10950    233.59953   -107.26468     140683.7   -31215.389    4587.3287   -35802.718    356.32464 
   11000    233.13028   -349.19658    140734.03   -31249.007    4578.1137   -35827.121    357.75715 
   11050    231.29438   -300.41177    140699.32   -31263.337    4542.0612   -35805.398     359.6131 
   11100    230.46355   -606.12702    140598.66   -31248.262    4525.7457   -35774.007    362.21963 
   11150     235.4354   -244.15856    140465.04   -31264.915    4623.3807   -35888.296    363.94108 
   11200     234.9636    275.78709    140316.66   -31256.888    4614.1156   -35871.003    365.73805 
   11250    235.74806    -297.0932    140270.22    -31272.95    4629.5206   -35902.471    368.61917 
   11300    233.75512   -11.528366    140212.69   -31268.064    4590.3841   -35858.448    370.08523 
   11350    233.07696   -501.05554    140175.19   -31276.964    4577.0667    -35854.03    372.39748 
   11400     234.5169    393.31117    140140.48   -31295.487    4605.3435    -35900.83    375.02566 
   11450    233.44293   -556.87969    140214.57   -31337.143    4584.2534   -35921.396    377.15213 
   11500    232.22589   -612.27544    140286.35   -31333.911    4560.3537   -35894.265    379.01883 
   11550    232.90263   -255.43867     140288.9   -31338.834    4573.6432   -35912.477    380.84114 
   11600    231.95777    288.41831     140246.2   -31332.946    4555.0884   -35888.035    381.92058 
   11650    234.75715   -161.56792    140279.71   -31316.476    4610.0616   -35926.538    383.20741 
   11700     229.5372   -417.29722    140310.72   -31301.846    4507.5543     -35809.4    384.91358 
   11750    234.49372   -288.04344    140279.46   -31293.221    4604.8884    -35898.11    387.10066 
   11800    230.39242   -362.17386    140188.74   -31318.628    4524.3487   -35842.977    388.53851 
   11850    237.05195   -184.09224    140090.74   -31276.714    4655.1259    -35931.84    390.02553 
   11900     230.8148     460.2783    140007.46    -31315.77    4532.6433   -35848.414    392.23972 
   11950    237.33303   -446.93918    140016.79   -31320.756    4660.6455   -35981.401    394.42834 
   12000    230.15843   -459.69986    140043.81   -31318.281    4519.7539   -35838.035     396.3138 
   12050    229.65793   -154.23634    140083.41   -31313.081    4509.9252   -35823.006     398.2427 
   12100    233.69183   -391.89735    140135.77   -31305.264    4589.1412   -35894.405    399.94888 
   12150    233.27283   -288.45903    140133.04   -31293.339    4580.9131   -35874.252    402.02729 
   12200    233.84567   -114.21579     140077.7   -31287.766    4592.1622   -35879.928    403.70479 
   12250    233.78829    128.12625    140043.43   -31260.941    4591.0355   -35851.976    404.57937 
   12300    234.98577   -132.77416    140003.75       -31254     4614.551   -35868.551    406.23822 
   12350    232.44343   -510.08758    140016.99   -31277.438    4564.6257   -35842.064    408.12729 
   12400    233.73637   -194.49175    139996.83   -31322.303    4590.0159   -35912.319    409.57811 
   12450    234.23992    343.83371    140050.38   -31291.722    4599.9043   -35891.626    410.36296 
   12500    233.68028   -357.62629    140198.13   -31281.239    4588.9144   -35870.154    412.27529 
   12550    234.25892   -153.26752    140393.25   -31308.597    4600.2775   -35908.875    413.26171 
   12600    235.36304   -277.24644    140613.41   -31278.767    4621.9597   -35900.727    415.89803 
   12650    232.72913   -233.74586    140824.28   -31281.943    4570.2361   -35852.179    417.70689 
   12700    230.14114   -127.39997    140977.74   -31250.972    4519.4144   -35770.386    419.80351 
   12750    232.96222    209.38856    141083.96   -31294.635    4574.8133   -35869.449    422.00458 
   12800    231.72982   -542.46088    141135.66   -31301.523    4550.6121   -35852.135    423.47819 
   12850    235.36097   -344.10142    141078.69   -31299.815     4621.919   -35921.734    424.51923 
   12900    231.56145   -653.01269    140972.75   -31290.548    4547.3057   -35837.854    426.00267 
   12950    234.62245   -466.52171    140783.07   -31279.745    4607.4164   -35887.161    427.49268 
   13000    230.09768   -289.18353    140568.48    -31273.22    4518.5608   -35791.781    428.32316 
   13050    236.68209    193.32144    140380.19   -31252.404    4647.8627   -35900.267    429.47528 
   13100    237.25626   -77.631834    140224.81   -31234.897    4659.1379   -35894.034    431.14049 
   13150    238.72399   -66.205127    140108.01   -31258.608    4687.9606   -35946.569    432.62089 
   13200    232.32048   -40.431253    140063.31   -31263.362    4562.2113   -35825.573      434.517 
   13250    235.02308   -200.33725    140060.09   -31302.247    4615.2838    -35917.53    435.27717 
   13300    231.22151   -221.85583    140030.75   -31307.556    4540.6301   -35848.186    436.84272 
   13350    230.54125   -110.48366    139997.91    -31289.47    4527.2716   -35816.741    438.53183 
   13400    233.36065   -20.107113    140005.12   -31304.433    4582.6377   -35887.071    438.93579 
   13450    234.51515    49.090627    140101.92   -31335.781    4605.3092    -35941.09    440.02972 
   13500    232.34282   -9.6057987     140226.9   -31313.935      4562.65   -35876.585    441.57675 
   13550    229.25343    131.38713    140320.29     -31367.1    4501.9818   -35869.081    444.19799 
   13600    233.13792    -368.3457    140352.22   -31374.133    4578.2637   -35952.397    444.95707 
   13650    230.98275   -183.31537     140316.1   -31357.368    4535.9414    -35893.31    445.93915 
   13700     233.6478    129.25035    140223.11   -31361.544    4588.2765    -35949.82     447.1831 
   13750    232.05228    183.99646    140127.23   -31372.181    4556.9444   -35929.126     448.9869 
   13800     235.6765   -419.94989       140082    -31370.52    4628.1152   -35998.636    450.27697 
   13850    233.31552   -328.36112     140106.4   -31379.394    4581.7513   -35961.146    451.98233 
   13900    230.46879    49.952367    140185.19    -31359.98    4525.8486   -35885.829    453.52227 
   13950     233.7515   -408.57621    140329.54   -31375.731    4590.3131   -35966.044     455.0098 
   14000    233.41907   -708.66588    140456.33   -31361.174    4583.7848   -35944.958    456.84767 
   14050     232.0817   -311.39812    140574.22   -31339.446    4557.5222   -35896.968    458.63107 
   14100    233.95731   -336.43992    140663.39   -31341.663    4594.3545   -35936.017    459.83686 
   14150    233.27931   -332.21818     140712.1   -31297.231    4581.0403   -35878.271    461.00837 
   14200    234.24476   -111.68412    140748.43   -31309.471    4599.9994    -35909.47    463.39853 
   14250    232.94371   -452.09299    140815.06   -31266.692    4574.4499   -35841.142    464.68828 
   14300    229.92528   -10.829325    140755.39    -31257.41    4515.1754   -35772.585    466.22659 
   14350    234.08195   -245.59915    140670.09   -31269.981    4596.8021   -35866.783    467.29418 
   14400    232.91288    -132.1888     140551.7   -31225.191    4573.8444   -35799.035    469.30345 
   14450    234.95881   -225.09295    140384.94   -31269.795    4614.0216   -35883.817     471.0764 
   14500    230.26735   -246.65702    140214.43   -31263.144    4521.8928   -35785.037    472.79001 
   14550    237.28828   -117.81812    140050.47   -31302.996    4659.7668   -35962.763    474.47638 
   14600    234.88772   -642.32575    139950.55   -31321.039    4612.6255   -35933.665    476.10744 
   14650    235.52703    276.04475    139859.38   -31309.402      4625.18   -35934.582    476.99707 
   14700    235.11144     208.6682    139809.75   -31311.307    4617.0188   -35928.326    478.76348 
   14750    234.00029   -352.20526    139789.73   -31299.609    4595.1986   -35894.808    479.72841 
   14800    237.74647   -217.51563    139749.13   -31350.246    4668.7646   -36019.011    480.32468 
   14850    235.40199   -241.70069    139744.05   -31356.033    4622.7246   -35978.758    481.50127 
   14900    232.67399   -60.134409    139783.47   -31374.425    4569.1532   -35943.578     483.1748 
   14950    231.22119   -513.04107    139896.12   -31401.503    4540.6238   -35942.127     485.0743 
   15000    231.35786   -388.10234    139921.59   -31418.156    4543.3077   -35961.463    485.71876 
   15050    232.18818   -181.63027    139904.91   -31422.377    4559.6132    -35981.99    486.92361 
   15100    230.88614   -377.17318    139844.79   -31395.895    4534.0442    -35929.94    488.73703 
   15150    233.92713   -256.86518    139747.25   -31409.751     4593.762   -36003.513    490.28063 
   15200    232.87971    152.62753    139717.43   -31405.174    4573.1932   -35978.367    491.16943 
   15250      234.493   -131.70313    139778.38   -31417.499    4604.8743   -36022.374    492.05121 
   15300    232.93706    -430.8384    139916.52   -31378.731    4574.3193   -35953.051    493.63761 
   15350    232.97658    -139.2475    140049.35   -31356.408    4575.0954   -35931.504    495.20926 
   15400    232.21807   -305.65018    140157.08   -31346.011    4560.2001   -35906.211    497.31233 
   15450    232.76598   -338.20225    140246.09   -31355.954    4570.9598   -35926.913    498.93442 
   15500    233.82275   -121.24081    140286.23   -31337.179    4591.7123   -35928.891    500.72038 
   15550    232.90833   -12.807199    140357.04   -31352.932    4573.7553   -35926.687    502.23197 
   15600    229.79356    -651.4618    140415.75   -31335.511    4512.5886     -35848.1    504.07886 
   15650    230.43512    342.80182    140393.35     -31355.1    4525.1873   -35880.287     505.4168 
   15700    232.87097   -338.59842    140438.22   -31338.995    4573.0215   -35912.017    507.44722 
   15750    235.24002   -508.80774    140449.23   -31319.384    4619.5438   -35938.927     509.7596 
   15800    235.42004    274.49968    140357.52    -31318.61     4623.079   -35941.689    511.31508 
   15850    235.36446   -264.66417    140266.76   -31318.889    4621.9877   -35940.877    513.15195 
   15900    229.99373   -593.31161     140185.1   -31327.599    4516.5194   -35844.119    513.88655 
   15950    230.68777   -230.83294    140031.11   -31307.453    4530.1488   -35837.601    514.54293 
   16000    237.13258    205.09994    139864.38   -31289.395    4656.7091   -35946.105    516.04194 
   16050    237.93471     202.2543    139847.08   -31266.987     4672.461   -35939.448    518.61912 
   16100    236.37053    -42.34614    139923.68   -31241.167    4641.7444   -35882.911    520.08793 
   16150    234.74758   -105.19295    140048.63   -31249.685    4609.8737   -35859.559    522.79349 
   16200    238.27882    -103.9197    140240.26   -31216.867    4679.2186   -35896.085    523.74632 
   16250    236.59793      -423.98    140467.74   -31202.499      4646.21   -35848.709    524.86206 
   16300    236.05207   -431.05959     140587.9   -31212.845    4635.4906   -35848.336    526.13282 
   16350     232.4135   -491.33535    140573.74   -31219.938     4564.038   -35783.976    528.36804 
   16400    231.59066   -242.41397     140527.7   -31208.711    4547.8793   -35756.591    529.82501 
   16450     230.9634   -6.7622238    140405.67   -31231.503    4535.5615   -35767.064      531.019 
   16500    237.19269    115.05979    140293.44   -31219.602    4657.8896   -35877.492    533.18701 
   16550    239.50095   -236.81642    140256.86   -31192.097    4703.2182   -35895.316    534.71362 
   16600    236.77643   -700.28383    140266.92   -31178.075    4649.7153    -35827.79    536.44866 
   16650     237.8486    -237.5232    140232.42   -31153.183      4670.77   -35823.953    538.09463 
   16700    237.94325   -142.16298    140219.28   -31197.499    4672.6288   -35870.128    540.14554 
   16750    235.09531    230.25013     140239.7   -31202.121    4616.7021   -35818.823    541.14133 
   16800    232.13872    242.36529    140279.89   -31220.376     4558.642   -35779.018    541.88504 
   16850    234.39747   -201.39128    140258.44   -31255.294    4602.9982   -35858.293    543.13761 
   16900    236.54443   -198.18439    140211.64   -31241.726    4645.1595   -35886.886    544.53103 
   16950    233.86127   -78.693896    140202.63   -31227.156    4592.4686   -35819.624    546.28234 
   17000    234.37898   -45.727868    140215.05   -31242.045    4602.6352    -35844.68    547.14217 
   17050     233.4724   -304.83565    140206.56   -31208.285    4584.8322   -35793.117    548.46318 
   17100    234.90944   -192.28588    140172.87    -31218.45    4613.0521   -35831.502    550.83813 
   17150    237.67616   -112.83431    140147.92   -31186.668    4667.3838   -35854.052    552.47754 
   17200     242.6741    128.97046    140127.59   -31134.491    4765.5312   -35900.022       554.61 
   17250    241.28044   -98.299068    140145.15   -31139.199    4738.1631   -35877.362    556.44173 
   17300    235.44531   -6.6369941    140199.42   -31107.782    4623.5754   -35731.358    557.96351 
   17350    236.02271   -430.19437    140209.23   -31113.262     4634.914   -35748.176    560.47756 
   17400    237.05962    90.575535    140232.47   -31142.195    4655.2765   -35797.471    562.89839 
   17450    235.42566   -212.86559    140392.72    -31117.73    4623.1893   -35740.919    563.80067 
   17500     238.0829   -25.656448    140562.44     -31132.7    4675.3713   -35808.072    565.28067 
   17550    239.51292   -162.94256    140647.13   -31181.796    4703.4533   -35885.249    567.17578 
   17600    234.63109   -519.01826    140625.94   -31174.934    4607.5861    -35782.52    567.71016 
   17650    232.53879   -86.320855    140522.16   -31144.655    4566.4984   -35711.153    569.75241 
   17700    236.58267   -415.39777    140376.24   -31115.097    4645.9103   -35761.008    571.67048 
   17750    234.12404   -24.268138    140224.51   -31100.104    4597.6287   -35697.733    572.65767 
   17800    239.33259   -119.00226    140116.14   -31110.003     4699.912   -35809.915    574.27346 
   17850    235.66821   -387.33805    140034.08   -31127.825    4627.9526   -35755.777    576.19697 
   17900    236.65465   -164.60667    139974.36   -31155.191    4647.3238   -35802.515    578.01183 
   17950     238.4295    -36.21223    139927.97   -31155.912    4682.1775   -35838.089    580.03145 
   18000    234.39341    127.29167    140016.49   -31206.736    4602.9186   -35809.654    582.56683 
   18050     236.4738    75.565208    140206.42   -31235.691    4643.7723   -35879.463    583.88706 
   18100    232.19571   -120.96591    140383.28   -31273.963    4559.7611   -35833.724    585.30747 
   18150    228.68597   -645.76211    140519.51   -31275.822    4490.8383    -35766.66    588.22859 
   18200    235.23848   -416.38331    140544.81   -31257.154    4619.5136   -35876.668    589.88615 
   18250    234.65358    39.162469    140511.55   -31198.807    4608.0277   -35806.835    591.40882 
   18300     235.6638   -292.52266    140442.31   -31203.646    4627.8659   -35831.512    592.19697 
   18350    232.70892   -168.98963    140320.35   -31186.661    4569.8392     -35756.5    593.79122 
   18400    238.17805   -161.33623    140268.19   -31190.476    4677.2396   -35867.716    596.20929 
   18450    236.31992    -339.5648     140263.6   -31205.797    4640.7506   -35846.548    597.36677 
   18500    235.19434     18.88955    140303.24   -31184.675    4618.6469   -35803.322    597.56079 
   18550    238.09182    234.28471    140431.68   -31159.941    4675.5463   -35835.487     599.6025 
   18600     235.7215   -196.19398    140670.87   -31148.514    4628.9989   -35777.513    601.06253 
   18650    235.24123   -424.56638    140953.21   -31156.007    4619.5677   -35775.574    602.96224 
   18700    230.87615   -131.01288     141183.7   -31175.239     4533.848   -35709.087    604.48902 
   18750     235.3794   -434.19145    141291.04    -31152.54     4622.281   -35774.821    605.78733 
   18800    235.56973    -420.8544    141287.87   -31122.384    4626.0187   -35748.402    607.29298 
   18850    239.53907   -177.87576    141244.95   -31148.191    4703.9668   -35852.158    608.53424 
   18900    236.43619   -353.05959    141168.27   -31148.927    4643.0337   -35791.961    609.99058 
   18950     233.2597   -1.3456263    141057.81   -31180.612    4580.6551   -35761.267    611.34777 
   19000     237.5056   -379.01761    140958.36   -31161.247    4664.0344   -35825.281    612.62068 
   19050    237.55147   -35.339344    140793.65   -31150.706    4664.9351   -35815.642    613.64786 
   19100    239.89924    216.10739    140678.82     -31161.6    4711.0397    -35872.64    614.90844 
   19150    238.48211   -331.45745    140671.52   -31164.166    4683.2106   -35847.377    617.58454 
   19200    237.59247   -528.67299    140660.64   -31160.245    4665.7403   -35825.985    620.17223 
   19250    234.96448   -396.65562    140600.11   -31145.164    4614.1331   -35759.297    619.98336 
   19300    234.61875   -593.79562    140563.47   -31165.655    4607.3436   -35772.999    621.29265 
   19350    237.57911   -459.18808    140511.86   -31177.339    4665.4779   -35842.817    622.78553 
   19400    236.56007   -483.44632    140490.97   -31203.783    4645.4664    -35849.25     623.0864 
   19450    235.73246   -294.67214     140439.7   -31197.087    4629.2143   -35826.302    624.20935 
   19500    233.42205    -512.8544    140388.17   -31240.655    4583.8434   -35824.498     625.9665 
   19550    237.12987   -422.54747    140350.47   -31193.942    4656.6559   -35850.598    627.38765 
   19600    239.91915   -372.66674    140257.77   -31198.374    4711.4308   -35909.805    630.32223 
   19650    240.51073   -288.61295    140166.18   -31170.076    4723.0479   -35893.124    631.80916 
   19700    237.77115   -11.620679    140206.15   -31144.281    4669.2492    -35813.53    633.36324 
   19750    231.54339   -111.48443    140292.62   -31146.983    4546.9511   -35693.934     635.4219 
   19800    236.04226   -241.48729    140389.26   -31168.138    4635.2981   -35803.436    637.87775 
   19850    238.91185   -363.00008    140510.38   -31150.466    4691.6498   -35842.116    640.44825 
   19900    237.27348    7.4115501    140589.24   -31120.054    4659.4761    -35779.53    642.26169 
   19950    235.89706    184.13649    140669.55   -31104.728    4632.4466   -35737.175    644.23339 
   20000     232.9431   -468.10229    140836.36   -31098.508     4574.438   -35672.946    645.56372 
   20050    237.30286   -453.89864     140935.4   -31108.872    4660.0532   -35768.925     647.2074 
   20100    236.23939     -447.773    140955.54   -31128.258    4639.1691   -35767.427    647.51204 
   20150    234.78547   -490.19389    140890.49   -31142.962    4610.6177    -35753.58    648.56507 
   20200    237.64975   -172.10877    140706.13   -31143.942    4666.8651   -35810.808    649.85263 
   20250    233.54322   -317.80065    140475.16   -31160.003    4586.2229   -35746.226    651.12833 
   20300    235.06404    33.971806    140277.06    -31146.68    4616.0881   -35762.768    652.21312 
   20350    237.61075   -452.49703    140165.11   -31139.404    4666.0994   -35805.503    653.13308 
   20400    239.30058   -485.40825    140095.01   -31117.301    4699.2834   -35816.584     654.7714 
   20450    236.57443   -165.46802     140138.9   -31095.745    4645.7486   -35741.494    657.03858 
   20500    239.59144   -318.55865    140274.01   -31086.053    4704.9953   -35791.048    658.40843 
   20550    242.74548    57.953302    140394.92   -31079.663     4766.933   -35846.596    660.83924 
   20600    237.97802    271.78488    140497.77   -31084.136    4673.3116   -35757.448    662.83923 
   20650    240.62414   -571.20683    140588.02   -31058.293     4725.275   -35783.568     663.4421 
   20700    239.73203   -663.76454    140680.36   -31093.679    4707.7561   -35801.435    666.50087 
   20750    238.98528   -572.39448    140785.89   -31094.842    4693.0918   -35787.933    668.79462 
   20800    236.02753   -523.27863    140823.29   -31093.695    4635.0087   -35728.704     670.0214 
   20850    237.76594   -45.196931    140806.24   -31094.079    4669.1469   -35763.226    671.66771 
   20900    238.67591   -237.66818    140773.68   -31040.141    4687.0164   -35727.157    672.76073 
   20950    241.80264   -106.76562    140738.67   -31061.163    4748.4179   -35809.581    672.93989 
   21000      236.972   -467.69169    140797.31   -31081.714    4653.5557    -35735.27    674.43188 
   21050    238.65329   -300.84666     140817.2   -31064.606    4686.5723   -35751.178    675.73291 
   21100     238.6944   -672.28602     140772.7    -31064.03    4687.3797    -35751.41    677.13031 
   21150    240.57361   -635.81902    140653.26   -31070.856    4724.2827   -35795.138     678.8612 
   21200    242.50397    -83.83422    140520.56   -31101.498    4762.1904   -35863.689    680.55392 
   21250    237.29626    258.48241    140434.31   -31121.839    4659.9235   -35781.762    681.63971 
   21300    239.75697   -170.25105    140402.39   -31115.415    4708.2458   -35823.661    683.40719 
   21350    230.41144     -180.936    140357.28   -31157.332    4524.7222   -35682.054    685.28015 
   21400    235.06704   -328.42924    140332.08   -31167.535    4616.1469   -35783.682    686.71491 
   21450    234.71312    80.811025    140352.66   -31153.844    4609.1969   -35763.041    688.30956 
   21500    235.68505   -77.928376    140419.12   -31142.424    4628.2833   -35770.707    690.27562 
   21550    234.90974   -81.707757    140544.02   -31147.713    4613.0581   -35760.772    692.19595 
   21600    233.83274   -187.78734    140667.63   -31170.982    4591.9083    -35762.89    693.99489 
   21650    236.00079    -335.6143    140723.77   -31174.545    4634.4836   -35809.029    696.14511 
   21700    234.30256   -48.119418     140742.4   -31165.993    4601.1345   -35767.128    697.30682 
   21750    239.21101    144.98977    140697.93   -31172.637    4697.5245   -35870.161    699.45416 
   21800    238.41602   -323.22034    140652.09   -31173.044    4681.9129   -35854.957    701.41451 
   21850    240.10159   -278.71792    140577.08   -31167.074    4715.0133   -35882.088    701.84108 
   21900    238.71747   -76.209265    140488.31   -31169.109    4687.8327   -35856.942    702.98638 
   21950    235.22148    329.60539    140463.53   -31143.729    4619.1799   -35762.909    704.46555 
   22000    231.76198   -290.14266    140572.28   -31157.204    4551.2437   -35708.447     706.6042 
   22050    236.95038   -605.05859     140712.7   -31162.551    4653.1311   -35815.682    708.58258 
   22100    236.29825   -345.92142    140812.12   -31140.795     4640.325    -35781.12    710.75795 
   22150    238.85865   -716.63951    140870.38   -31141.465    4690.6051    -35832.07     711.7623 
   22200    237.43823    100.96241     140792.8    -31123.68    4662.7115   -35786.391    712.18335 
   22250    236.51984   -1.5060863    140651.59    -31130.69    4644.6765   -35775.367    713.40353 
   22300    238.50339   -248.87417    140503.96    -31128.55    4683.6286   -35812.178    715.78995 
   22350    235.98448    -144.9124    140405.29   -31158.166    4634.1633    -35792.33    717.59595 
   22400    236.74907    197.41804    140346.63   -31170.622     4649.178     -35819.8    718.62597 
   22450    237.21787   -108.56532    140356.61   -31163.741    4658.3842   -35822.125    719.14231 
   22500    239.03647    123.58421    140410.85   -31105.003     4694.097     -35799.1    720.50098 
   22550    241.59477    11.375503    140462.43   -31127.384    4744.3359    -35871.72    722.25977 
   22600    235.01602   -187.56002    140466.67   -31151.772    4615.1451   -35766.917    722.72677 
   22650    243.44349    27.814427    140460.72   -31150.933    4780.6403   -35931.573    723.93677 
   22700    238.57983   -314.26118    140457.59   -31138.045    4685.1296   -35823.174    726.77199 
   22750    242.29481   -343.28054    140412.84   -31137.878    4758.0828   -35895.961    728.12726 
   22800    238.13253   0.23353361    140362.79   -31141.589    4676.3457   -35817.935    729.41105 
   22850     234.4179    -48.40764    140391.66   -31151.692    4603.3995   -35755.092    730.03957 
   22900    237.61277   -236.37378    140462.26   -31112.901     4666.139    -35779.04    731.11208 
   22950    240.50258   -680.83492    140536.79   -31117.822    4722.8878    -35840.71     732.7591 
   23000    233.43346   -135.25536    140570.11   -31177.805    4584.0674   -35761.873    735.24453 
   23050    238.02182   -238.02742    140560.55   -31135.521    4674.1718   -35809.693    737.40038 
   23100    232.14775   -465.52475    140529.58   -31178.151    4558.8193    -35736.97     739.2174 
   23150    238.26445   -138.01963     140457.1   -31187.522    4678.9364   -35866.459     741.3203 
   23200    233.71356    111.91288    140380.19   -31164.009    4589.5679   -35753.577    743.12241 
   23250     241.4829   -289.13455    140351.44   -31159.858    4742.1389   -35901.997    745.62183 
   23300    236.94726   -31.176498    140322.77   -31170.919    4653.0699   -35823.989    746.57854 
   23350     238.6958   -769.51091    140267.49   -31174.884     4687.407   -35862.291    747.37517 
   23400    240.92465   -638.86898    140170.83   -31163.659    4731.1763   -35894.835    748.26675 
   23450    239.66527   -105.05822     140062.8   -31181.117    4706.4452   -35887.562    750.08134 
   23500     237.6136    22.029517    140032.03   -31189.356    4666.1552   -35855.511     751.4291 
   23550    235.87495   -250.57739    140119.44   -31196.256    4632.0125   -35828.269    754.01354 
   23600    242.63358   -198.60569    140209.63   -31216.123    4764.7355   -35980.858    754.45533 
   23650    233.93201   -665.24296    140324.29    -31244.29    4593.8577   -35838.148    757.17206 
   23700    233.94409   -786.06989    140446.94   -31245.812    4594.0949   -35839.907    758.61866 
   23750    235.08364   -162.01194    140513.83   -31238.057     4616.473    -35854.53    759.33441 
   23800    239.26433   -302.77707    140498.27   -31226.827    4698.5716   -35925.398    759.70939 
   23850    233.81314   -762.01057    140441.44    -31211.33    4591.5235   -35802.853    761.05901 
   23900    235.76263   -230.21965    140351.66   -31205.066    4629.8067   -35834.873     763.7028 
   23950    234.01836    149.85884    140236.93    -31223.45    4595.5536   -35819.003    764.63897 
   24000    232.18397   -51.317515    140130.53   -31223.669    4559.5305   -35783.199    766.28625 
   24050    236.24924    154.23944     140010.3   -31201.436    4639.3626   -35840.798    766.83454 
   24100    236.92714    81.154603    139941.28   -31214.738    4652.6749   -35867.413    767.64913 
   24150    234.61928    309.72123    139960.12   -31195.104     4607.354   -35802.458    770.04818 
   24200    238.88129    468.07344    140053.86   -31201.496    4691.0496   -35892.546    771.96727 
   24250    237.01209   -130.95458    140191.28   -31156.828     4654.343   -35811.171    773.65451 
   24300     237.3169   -253.89793    140312.51   -31186.555    4660.3289   -35846.884    775.74517 
   24350    238.06459    290.36036    140445.47   -31210.013    4675.0115   -35885.024    778.16652 
   24400     230.5535   -343.52558     140584.8   -31220.284     4527.512   -35747.796    780.30148 
   24450    234.24905   -624.04792    140666.84   -31232.766    4600.0837    -35832.85    781.80873 
   24500    233.84766    -429.5783    140701.94    -31220.15    4592.2013   -35812.351    784.25819 
   24550    229.22335   -277.31362    140670.78   -31235.997    4501.3912   -35737.388    787.23156 
   24600    234.47965   -304.12448    140591.52   -31239.665    4604.6121   -35844.277    789.56308 
   24650    231.92304   -145.80875    140545.96   -31264.943    4554.4064    -35819.35    791.20562 
   24700    235.20806   -630.03826    140492.57   -31245.413    4618.9162    -35864.33    793.31562 
   24750    235.48745    78.841845    140373.67   -31255.425    4624.4029   -35879.828    795.47622 
   24800    236.60277    0.1023258    140260.83   -31257.479     4646.305   -35903.784    797.60455 
   24850    234.34941   -60.094016    140172.78   -31240.784    4602.0545   -35842.839    799.79611 
   24900    234.62568   -61.200699    140113.41   -31278.382    4607.4798   -35885.862    802.08673 
   24950    231.36346   -140.56386    140095.67   -31284.057    4543.4177   -35827.474    803.81868 
   25000    236.10163   -398.53078    140048.17   -31266.477    4636.4639   -35902.941    805.28854 
   25050    233.23115   -102.26633    139945.99   -31257.425    4580.0945    -35837.52    807.75998 
   25100    235.71726    110.76277    139881.83   -31285.016    4628.9158   -35913.932    809.73323 
   25150    235.20702   -313.05431    139863.81   -31257.436    4618.8959   -35876.332    811.16524 
   25200    237.40047    221.42197    139907.53    -31228.91    4661.9699    -35890.88    812.80798 
   25250     240.6492   -449.21458    140061.79   -31216.539    4725.7671   -35942.306    815.09615 
   25300    236.45049   -198.01586    140218.52   -31211.537    4643.3146   -35854.852    818.17665 
   25350    230.27391   -122.11669    140382.48   -31196.043    4522.0215   -35718.065    821.04099 
   25400    236.37579    56.145518    140539.17   -31232.818    4641.8478   -35874.665    823.12984 
   25450    236.30334   -67.450007    140679.31   -31232.888    4640.4249   -35873.313    824.99017 
   25500    233.76249   -724.68746    140777.28   -31232.635    4590.5288   -35823.163     826.3085 
   25550    234.28909   -427.48736    140804.34   -31256.333      4600.87   -35857.203    828.18105 
   25600    240.01857   -10.968308    140707.49   -31262.868    4713.3831   -35976.251    830.55579 
   25650    231.95589   -137.60911    140626.62   -31248.992    4555.0516   -35804.044    832.12245 
   25700    236.48403   -226.93645    140568.25   -31227.332    4643.9732   -35871.305    832.71526 
   25750    238.14153   -417.52689    140458.06   -31237.785    4676.5226   -35914.308    833.53512 
   25800     233.0632   -71.514737    140353.37    -31207.37    4576.7965   -35784.167    834.86309 
   25850    233.91944     135.5914    140284.67   -31235.148    4593.6109   -35828.759    834.70778 
   25900    235.51765   -116.68822    140297.96   -31240.188    4624.9959   -35865.184    836.61699 
   25950    237.10296   -489.65356    140360.03   -31245.128    4656.1275   -35901.256    838.50819 
   26000     230.0316   -833.83501    140354.31   -31286.932    4517.2632   -35804.195    840.38181 
   26050    232.25678   -592.52126     140296.3   -31280.378    4560.9604   -35841.338    840.83716 
   26100    238.22688    106.45653    140160.74   -31277.496    4678.1985   -35955.695    842.40751 
   26150    231.08963   -450.37612     140084.4   -31256.906    4538.0403   -35794.946    843.28845 
   26200    234.11222   -344.75201    140013.12   -31240.659    4597.3967   -35838.055    844.11004 
   26250    238.42483    170.89631     139963.7   -31228.537     4682.086   -35910.623    845.05242 
   26300    237.03928     -170.339    139988.97   -31241.766     4654.877   -35896.643    845.66436 
   26350    234.92816   -112.40962    140114.63   -31201.414    4613.4197   -35814.833    847.58931 
   26400    237.07071    205.16565    140315.15   -31183.746    4655.4942    -35839.24    849.77728 
   26450    234.16438    -104.1359    140516.73   -31203.199    4598.4209    -35801.62    853.27327 
   26500    235.53705    -254.6774    140616.52    -31201.19    4625.3768   -35826.566    855.25951 
   26550     231.5287   -290.24535    140640.33   -31221.306    4546.6626   -35767.968    857.31731 
   26600     237.8942   -144.79704    140687.94   -31211.931    4671.6656   -35883.597    860.89927 
   26650    231.93323   -412.00033     140777.6   -31236.484    4554.6066   -35791.091    862.58403 
   26700    234.18247     -622.515    140872.64   -31249.446    4598.7762   -35848.222    864.62459 
   26750    230.51534   -890.13224    140845.95   -31278.526    4526.7626   -35805.289    865.80471 
   26800     231.8458   -63.830137    140673.21   -31283.452    4552.8897   -35836.342     866.5131 
   26850    236.62584   -594.23826    140466.68   -31306.199     4646.758   -35952.957    866.88673 
   26900    227.27527   -445.63447    140220.56   -31340.406    4463.1356   -35803.541    869.76566 
   26950    230.93912   -93.734206    139959.22   -31336.746    4535.0846    -35871.83    869.79517 
   27000    232.55005   -266.62239    139689.78   -31354.909    4566.7193   -35921.628     869.5975 
   27050    231.46636   -90.892433    139393.63   -31350.379    4545.4383   -35895.818     871.2199 
   27100    233.45846   -322.10297    139135.49   -31391.541    4584.5584   -35976.099    872.41109 
   27150      238.704    186.62761     139003.8   -31329.685    4687.5681   -36017.253    874.30381 
   27200    235.65993    92.105113    139049.86   -31329.275    4627.7899   -35957.065    876.07719 
   27250    236.75706   -2.4890482    139198.54   -31340.999    4649.3349   -35990.334    877.77621 
   27300    233.96617   -35.394322    139414.97   -31335.494    4594.5285   -35930.023    879.49931 
   27350    233.02138    131.09188    139663.11   -31318.506    4575.9751   -35894.481    881.18907 
   27400     234.3454   -107.51646    139992.97   -31303.334    4601.9758   -35905.309    882.99432 
   27450    234.97699    33.113937    140335.05   -31276.317    4614.3786   -35890.696    885.18217 
   27500     234.7226   -200.82222     140702.9   -31262.796     4609.383   -35872.179    888.05119 
   27550    238.05306   -107.47963    141009.61   -31230.916    4674.7852   -35905.701    890.11978 
   27600    231.46239   -398.17313    141187.47   -31201.275    4545.3604   -35746.636    893.78928 
   27650    232.36129   -478.11968    141268.14   -31215.873    4563.0126   -35778.886    895.84246 
   27700     233.5948   -693.03406    141305.67   -31239.909    4587.2358   -35827.145    897.13707 
   27750    237.26687   -396.39014    141267.33    -31213.72    4659.3464   -35873.067    897.37053 
   27800    233.34866   -949.25256    141234.86    -31225.54    4582.4022   -35807.942    899.43837 
   27850    235.89752   -494.89679    141040.93    -31206.27    4632.4555   -35838.725     901.5567 
   27900    235.44751   -171.09971    140831.25   -31163.045    4623.6184   -35786.664    903.25013 
   27950    237.40465   -616.69683    140676.03   -31170.338    4662.0521   -35832.391    904.01764 
   28000    236.30448   -268.14446    140514.91   -31162.765    4640.4473   -35803.212    905.78581 
   28050    240.51847   -543.35659    140434.81   -31162.584       4723.2   -35885.784    906.90847 
   28100    233.91602   -300.13207    140419.76    -31137.95    4593.5438   -35731.494    908.46755 
   28150    236.23524      35.5095    140405.49   -31174.912    4639.0876       -35814    909.54144 
   28200     235.2757   -337.06641     140451.6   -31201.216    4620.2446    -35821.46    909.94671 
   28250    235.23679    -578.3096    140483.17    -31165.78    4619.4804   -35785.261    911.76708 
   28300    239.95326   -10.527997    140540.19   -31164.377    4712.1006   -35876.478    913.73198 
   28350    239.74356   -48.304484    140682.22   -31187.083    4707.9826   -35895.065    915.18297 
   28400    235.08533     -255.356    140854.86   -31189.466    4616.5062   -35805.972    916.33713 
   28450    235.30306   -457.10353    140954.74   -31177.537    4620.7819   -35798.319    918.58749 
   28500    234.79978   -598.22576     140979.1   -31144.441    4610.8986   -35755.339     919.8725 
   28550    234.48246   -416.40688    140875.71   -31109.744    4604.6673   -35714.411    921.47105 
   28600    237.03797   -62.481429    140688.13   -31087.208    4654.8512   -35742.059    921.70528 
   28650    235.32668    142.43914    140477.66   -31071.038    4621.2457   -35692.284    922.82831 
   28700    241.14702   -135.68222    140351.31   -31050.542    4735.5431   -35786.086    924.51831 
   28750    240.01245   -735.25252    140319.16   -31071.049    4713.2628   -35784.312    926.30976 
   28800    237.26735    27.457203    140300.63   -31104.867    4659.3557   -35764.223    928.27513 
   28850     239.3081    274.96871    140342.51   -31142.145    4699.4311   -35841.576    930.85602 
   28900    236.49815   -106.16156    140419.75   -31123.781    4644.2505   -35768.032    931.89005 
   28950    240.58845    -243.5002    140464.49   -31136.624    4724.5742   -35861.198    934.13076 
   29000    234.47212   -227.77207    140452.04   -31162.928    4604.4642   -35767.392    936.28529 
   29050    232.43025   -187.71449    140444.25   -31169.846    4564.3669   -35734.213     937.7655 
   29100    233.43624   -8.0931019    140473.38   -31144.167    4584.1221   -35728.289    939.44173 
   29150    238.36176   -288.48375    140551.13   -31154.265    4680.8473   -35835.112    940.55106 
   29200    233.39769   -522.43001    140568.09   -31169.308    4583.3651   -35752.673    941.35975 
   29250    234.43677   -269.91052    140483.96    -31137.53    4603.7701     -35741.3    942.61487 
   29300    235.13178   -677.19614    140329.06   -31146.864    4617.4184   -35764.283    943.30083 
   29350    237.59693   -244.99326    140150.41   -31190.993     4665.828   -35856.821    944.27178 
   29400    233.15735   -496.24296    139958.99   -31198.044    4578.6453    -35776.69    946.29146 
   29450    235.28935     -504.479    139721.57   -31206.636    4620.5126   -35827.148    947.12937 
   29500    238.42575   -35.239422    139503.69   -31224.938    4682.1038   -35907.042    947.47469 
   29550    232.87561   -415.68646    139366.32   -31184.473    4573.1125   -35757.586    949.09723 
   29600    244.31642   -157.95339    139309.74   -31166.392    4797.7825   -35964.175    950.02849 
   29650    240.76262    108.10142     139374.2   -31164.352    4727.9944   -35892.347    951.01078 
   29700    239.44292    179.26255    139528.38   -31196.587    4702.0787   -35898.666    951.79899 
   29750    237.81929    83.486938    139775.45   -31204.951    4670.1945   -35875.146    953.49578 
   29800    234.58573   -131.05594    140066.78   -31172.682    4606.6953   -35779.377    956.95028 
   29850    236.60758   -30.333933     140335.1   -31178.014    4646.3994   -35824.414    958.87149 
   29900    239.15646   -96.136309    140560.51   -31149.306    4696.4534   -35845.759    961.33754 
   29950    237.78201    -180.9144    140721.25    -31136.58    4669.4624   -35806.043    962.83333 
   30000    232.91293   -273.71489    140871.26   -31143.407    4573.8455   -35717.253    964.92727 
   30050    239.93384    260.64769     140996.6   -31173.482    4711.7192   -35885.201    966.86194 
   30100    238.11406   -183.27636    141096.28   -31144.464    4675.9831   -35820.447    968.49601 
   30150    234.81219   -9.0336325    141152.37   -31132.359    4611.1423   -35743.501      970.291 
   30200    237.21594   -311.46825    141119.88   -31151.197    4658.3463   -35809.543     971.6159 
   30250    237.87033   -43.873371    141059.77   -31125.771    4671.1969   -35796.967     973.7155 
   30300    237.75519   -37.095872    140982.49   -31128.263    4668.9358   -35797.199    975.11833 
   30350    236.70276   -118.87695    140905.98   -31151.637    4648.2686   -35799.905    976.54007 
   30400    233.09277   -349.78471    140830.41   -31178.123    4577.3772     -35755.5    978.35049 
   30450     234.8259   -38.856468    140675.96   -31210.544    4611.4116   -35821.955    979.76635 
   30500    236.21552    218.44339    140522.85   -31175.729    4638.7004   -35814.429    980.12557 
   30550    234.57071   -371.00596    140383.42   -31157.213    4606.4003   -35763.613    980.56335 
   30600    237.21632   -252.15702    140201.01   -31199.746    4658.3537   -35858.099    982.21919 
   30650    234.91431    86.076681    140110.26   -31224.659    4613.1477   -35837.806    983.14106 
   30700    237.30976   -10.272507    140119.08   -31207.256    4660.1887   -35867.445    985.45766 
   30750    237.67714    259.26178    140123.84   -31239.045    4667.4031   -35906.448    986.85383 
   30800    237.57996    188.17656    140175.43   -31260.845    4665.4948    -35926.34    988.41897 
   30850    233.94535   -95.151934     140247.5    -31281.75    4594.1197    -35875.87    990.57281 
   30900    236.45774   -189.47122    140361.16   -31273.809     4643.457   -35917.266    992.44772 
   30950     233.7229   -241.38503    140511.78    -31284.49    4589.7514   -35874.242    995.83493 
   31000    233.18212   -790.80972    140650.81   -31284.226    4579.1317   -35863.358    998.79739 
   31050    234.58538   -633.26661    140669.68   -31267.823    4606.6883   -35874.511    1000.3431 
   31100    231.93843    -282.6797    140630.99   -31250.811    4554.7087    -35805.52    1002.1163 
   31150    231.95545   -149.70745     140532.9    -31234.99    4555.0429   -35790.033    1002.5274 
   31200    231.46145     62.02352    140436.76   -31215.437    4545.3419   -35760.779    1003.9018 
   31250    235.27178   -236.81168    140375.66   -31219.986    4620.1677   -35840.154    1005.5052 
   31300    236.99494   -365.91626    140313.91   -31206.212    4654.0062   -35860.218     1006.899 
   31350    239.35431   -31.251834    140263.57   -31223.211    4700.3386    -35923.55    1008.8497 
   31400    236.18559   -156.34444    140250.32    -31246.03    4638.1127   -35884.143    1010.3464 
   31450    234.05135   -528.04795    140289.27   -31246.094    4596.2013   -35842.295    1012.4683 
   31500    234.94493   -578.45045    140331.84   -31229.377    4613.7491   -35843.126    1013.7339 
   31550    234.13622   -349.24204    140316.39   -31251.033    4597.8679   -35848.901    1015.8436 
   31600    238.42553   -223.61737     140315.3   -31262.666    4682.0995   -35944.766    1016.8407 
   31650    236.66482   -56.939981    140365.77   -31228.527    4647.5236   -35876.051    1017.0103 
   31700    235.56532    18.494961    140462.99   -31228.336    4625.9319   -35854.268    1017.3077 
   31750    236.78425   -75.683398    140520.09   -31232.921    4649.8689    -35882.79    1018.6908 
   31800     233.4846     -386.609     140553.4   -31223.707    4585.0717   -35808.779    1020.2253 
   31850    231.59163   -136.43914     140541.5   -31259.642    4547.8984    -35807.54    1020.9429 
   31900    234.21558   -72.638845     140504.2   -31274.715    4599.4265   -35874.142    1021.4673 
   31950    236.38762    123.80306     140422.1   -31261.731    4642.0801   -35903.811    1022.9876 
   32000    231.83052    39.847042    140339.48   -31273.108    4552.5896   -35825.697      1024.42 
   32050    235.13923   -115.68504    140292.73   -31285.155    4617.5646    -35902.72    1025.2054 
   32100    235.75865   -184.36914    140340.71   -31265.553    4629.7285   -35895.282    1026.9073 
   32150    232.70309   -386.34327    140452.47   -31295.766    4569.7248   -35865.491     1028.428 
   32200    234.81197   -158.66407    140543.16   -31276.069     4611.138   -35887.207    1030.0771 
   32250    233.00076   -236.40082    140607.26   -31269.365    4575.5703   -35844.935    1030.6679 
   32300    229.77984    -31.50356    140610.94    -31259.77    4512.3192    -35772.09    1031.7147 
   32350    231.45967   -527.41085    140615.39   -31252.412    4545.3069   -35797.719    1033.7727 
   32400    234.89963   -232.56984    140545.58   -31258.773    4612.8594   -35871.633    1036.0028 
   32450    231.94606    48.065031    140462.65    -31273.21    4554.8586   -35828.068    1037.0212 
   32500    234.04179   -151.30919    140400.24   -31279.537    4596.0136    -35875.55    1038.3809 
   32550    233.58765   -838.20813    140324.86   -31265.709    4587.0954   -35852.804    1040.1854 
   32600     234.9949   -528.59036    140207.95   -31227.165    4614.7304   -35841.895    1042.6031 
   32650    236.83824   -356.82087    140062.58    -31244.55    4650.9291    -35895.48    1043.2966 
   32700    233.16483   -469.68449    139973.21   -31226.628    4578.7921    -35805.42    1045.1353 
   32750    236.99327   -116.81242    139898.64   -31226.657    4653.9735    -35880.63    1047.4451 
   32800    235.82846    -150.7306     139866.5   -31226.644    4631.0995   -35857.743    1049.6976 
   32850    239.03374    -278.5106    139875.34   -31249.536    4694.0434   -35943.579    1051.7149 
   32900    235.20247    -51.94734    139883.88   -31257.768    4618.8065   -35876.574    1052.0991 
   32950     231.8501    17.904463    139882.48   -31276.998     4552.974   -35829.972    1054.2633 
   33000    236.65578   -105.71443    139896.13   -31270.835    4647.3461   -35918.181     1055.414 
   33050    234.47837   -298.16112    139966.37   -31252.378     4604.587   -35856.965    1056.9489 
   33100    231.06669   -440.81265    140065.32   -31257.875    4537.5898   -35795.464     1058.612 
   33150    235.19059   -515.33265    140166.09   -31268.204    4618.5733   -35886.778    1060.5834 
   33200    235.76427   -450.70574    140260.33   -31293.788    4629.8389   -35923.627    1062.9592 
   33250    233.39761   -413.44233    140296.08   -31295.158    4583.3633   -35878.521    1065.1011 
   33300    235.25854     -160.515    140259.74   -31288.951    4619.9076   -35908.859    1063.9258 
   33350    234.16094   -385.26423    140200.29   -31331.179    4598.3535   -35929.533    1065.7686 
   33400    231.99534   -237.55895    140150.33    -31281.75    4555.8263   -35837.577    1066.2566 
   33450    236.91955   -311.13634    140102.17   -31268.188    4652.5259   -35920.713     1067.486 
   33500    235.46759   -240.77792    140112.05   -31284.481    4624.0128   -35908.494    1068.3989 
   33550     232.6144   -143.40364    140138.26   -31271.758    4567.9831   -35839.742    1071.7643 
   33600    231.17579   -779.58102    140125.91   -31277.053    4539.7323   -35816.785    1073.2971 
   33650    228.95836   -9.6134664    139974.71   -31291.113    4496.1873     -35787.3    1073.3305 
   33700    239.03872   -191.88995    139811.79   -31273.308    4694.1412   -35967.449    1074.9974 
   33750      237.437   -53.235584    139695.76   -31264.927    4662.6872   -35927.614    1076.4495 
   33800    236.88269    157.21934    139645.96   -31251.964    4651.8019   -35903.766     1077.812 
   33850    234.50219   -79.500123    139671.98   -31250.654    4605.0547   -35855.709     1080.293 
   33900     235.5289   -122.98313    139673.74   -31265.855    4625.2169   -35891.072    1082.4419 
   33950    235.55488   -255.83101    139675.06   -31258.744     4625.727   -35884.471    1084.4918 
   34000    238.18579    61.700961    139676.96   -31270.002    4677.3916   -35947.394    1086.7682 
   34050    235.50048    344.44194    139727.93    -31254.33    4624.6588   -35878.989     1088.196 
   34100    235.94979    103.30972     139874.3   -31277.968    4633.4821    -35911.45    1090.5413 
   34150    231.20746   -417.76112    140073.06   -31284.426    4540.3542    -35824.78    1092.6152 
   34200    232.85678   -7.0430583    140220.27   -31292.749    4572.7429   -35865.492    1092.7535 
   34250    232.83841   -254.18844    140295.72   -31289.504    4572.3821   -35861.886    1094.8195 
   34300     234.8046   -183.46081    140415.14   -31276.539    4610.9934   -35887.532    1097.5913 
   34350    232.75841   -384.56178    140593.08   -31270.104     4570.811   -35840.915    1099.4581 
   34400    234.87452   -19.379861    140702.11   -31299.539    4612.3665   -35911.905    1101.4707 
   34450    233.42946   -276.78448    140798.57   -31275.393    4583.9888   -35859.382    1103.3456 
   34500    234.45768   -561.10365    140838.58   -31293.673    4604.1806   -35897.854    1105.4699 
   34550    234.65245    -600.3552    140747.91    -31317.82    4608.0055   -35925.825    1107.1683 
   34600    229.37638   -155.76916    140569.66   -31348.333    4504.3963   -35852.729    1109.7284 
   34650    233.43714    -123.4766    140395.09   -31327.645    4584.1397   -35911.784    1111.0997 
   34700    234.58967   -318.69287    140267.11   -31310.909    4606.7726   -35917.681    1111.5883 
   34750    234.39839   -614.80139    140110.65    -31319.55    4603.0163   -35922.566    1114.1334 
   34800    234.49817   -319.89483    139811.33   -31328.072    4604.9758   -35933.048     1115.168 
   34850    233.57471    389.48495    139505.67   -31320.749    4586.8413    -35907.59    1117.0541 
   34900    230.01486    528.83133    139360.92   -31324.746    4516.9345    -35841.68     1117.721 
   34950    233.96368    204.67896    139356.36   -31293.514    4594.4796   -35887.993     1118.105 
   35000    238.25505   -218.50133    139408.88   -31276.482    4678.7519   -35955.233    1119.7034 
   35050    235.59445    206.39654    139483.82   -31290.981    4626.5041   -35917.485    1122.6121 
   35100    233.16162    123.64194    139645.33   -31308.082    4578.7291   -35886.812    1125.1578 
   35150    236.45843   -181.90236    139869.79   -31331.076    4643.4706   -35974.547    1125.5717 
   35200    230.59835   -96.995366    140118.74   -31327.437    4528.3928    -35855.83    1129.1229 
   35250    233.38209   -176.34089    140325.88   -31295.127    4583.0587   -35878.186    1132.8316 
   35300    235.43234   -328.39242    140500.12   -31273.144    4623.3206   -35896.464    1134.4464 
   35350    235.04284   -234.68822    140668.92   -31247.399    4615.6717   -35863.071    1136.0122 
   35400    231.30227   -274.84064    140791.13   -31288.561    4542.2161   -35830.777    1138.8437 
   35450    235.62842   -229.42734    140843.66   -31252.999    4627.1712   -35880.171    1139.8588 
   35500     238.8693   -270.80648    140846.05     -31232.8    4690.8141   -35923.614    1141.9101 
   35550    232.18558   -412.48918    140792.18   -31251.632    4559.5622   -35811.194    1144.7553 
   35600    235.47582   -124.63238    140651.27   -31228.311    4624.1745   -35852.485    1146.2385 
   35650    238.58367    -27.74066     140467.1   -31200.094    4685.2051   -35885.299    1147.5768 
   35700     234.8928   -221.63714    140344.01   -31234.168    4612.7254   -35846.893    1148.3976 
   35750    234.31365   -302.06155    140160.27   -31249.195    4601.3522   -35850.547    1149.4535 
   35800    236.59924   -376.50621    139921.32   -31263.296    4646.2356   -35909.532    1151.3065 
   35850    239.44438    304.96198    139740.95    -31238.58    4702.1075   -35940.687     1153.031 
   35900    238.85134   -346.56772    139677.38   -31211.089    4690.4615    -35901.55    1155.8855 
   35950    235.97912    86.970888    139640.81   -31233.712    4634.0581    -35867.77    1158.6482 
   36000    234.88992   -129.90328    139649.02   -31245.822    4612.6689   -35858.491    1162.3889 
   36050    235.23691    34.016823    139674.56   -31284.132    4619.4828   -35903.615    1163.7825 
   36100    233.27709   -235.48745    139745.44   -31259.334    4580.9967    -35840.33    1164.2461 
   36150    233.65941   -353.41933    139870.31   -31251.866    4588.5046   -35840.371     1167.498 
   36200    235.37014   -72.482985    140065.18   -31267.224    4622.0991   -35889.323    1170.2264 
   36250    236.85926   -232.30623    140303.92   -31256.522    4651.3418   -35907.864     1171.219 
   36300    237.78981   -114.76112    140540.81   -31290.451    4669.6157   -35960.066    1172.7499 
   36350    230.79715    -180.4838    140782.46   -31259.645    4532.2967   -35791.942    1174.0729 
   36400    236.15171   -372.57706    140981.77   -31269.299    4637.4474   -35906.746    1177.1849 
   36450    232.43676    330.88966    141090.25    -31246.94    4564.4948   -35811.435    1179.4297 
   36500    234.89358   -117.54729    141136.84   -31248.584    4612.7406   -35861.325    1180.7646 
   36550    231.59494   -275.80419     141047.2   -31224.845    4547.9634   -35772.808    1181.7082 
   36600     231.8702   -404.14431    140879.54   -31196.296    4553.3688   -35749.665    1183.5134 
   36650    235.88895   -272.41781    140705.01   -31198.125    4632.2874   -35830.413    1184.0256 
   36700    235.67606   -442.51172    140531.52   -31198.795    4628.1066   -35826.902     1184.138 
   36750    236.64904   -161.98625    140374.12   -31222.336    4647.2137    -35869.55    1185.4569 
   36800    235.79443   -172.57488    140281.74   -31210.901    4630.4313   -35841.332     1187.035 
   36850    234.24842     256.5834    140206.28   -31204.278    4600.0713   -35804.349    1188.4632 
   36900    233.00333   -71.276996    140190.72   -31212.613    4575.6208   -35788.234    1191.3697 
   36950    231.77845   -53.179765    140237.78   -31218.037    4551.5671   -35769.604    1193.6261 
   37000     233.9583   -137.78489     140199.9   -31254.843     4594.374   -35849.217    1195.6276 
   37050    237.56026   -287.38344    140137.66   -31267.135    4665.1077   -35932.243    1197.8326 
   37100    233.33123   -164.39839    139994.59   -31245.126    4582.0599   -35827.186    1199.3032 
   37150    235.02321    99.011076    139918.84     -31249.1    4615.2862   -35864.386    1201.8489 
   37200    235.94149    -221.4744    139914.35   -31257.155     4633.319   -35890.474    1203.1659 
   37250    234.95886   -217.61485     139926.3   -31243.506    4614.0226   -35857.529    1204.4189 
   37300    231.03436    128.86367    140021.79   -31265.715     4536.955    -35802.67    1205.3151 
   37350    230.32822   -597.86935    140210.92   -31245.398    4523.0881   -35768.486    1209.1772 
   37400    232.81864   -601.39516     140405.9   -31237.173    4571.9939   -35809.167    1210.6987 
   37450    237.65995   -45.217871    140504.38   -31255.795    4667.0655    -35922.86    1212.6694 
   37500    234.74995   -102.76138    140604.58   -31248.213    4609.9201   -35858.133    1214.8952 
   37550    233.88139    -295.5176    140697.58   -31229.703    4592.8636   -35822.566    1216.4005 
   37600    238.70274   -193.48463    140707.61   -31245.544    4687.5433   -35933.087    1216.4518 
   37650     240.5539   -136.81189    140601.17   -31231.711    4723.8957   -35955.607     1217.336 
   37700     234.5126   -45.574802    140466.14   -31228.787    4605.2591   -35834.046    1218.8313 
   37750    231.60516   -457.96066    140366.97   -31238.759    4548.1641   -35786.923    1220.9802 
   37800    238.14877   -328.28502    140285.54    -31267.46    4676.6647   -35944.124    1222.6876 
   37850    231.62488    127.06235    140220.41    -31286.15    4548.5513   -35834.701    1226.1672 
[...]
   40850    232.77952   -184.60923    140069.74   -31311.512    4571.2257   -35882.738    1337.9512 
   40900    233.76029   -224.81994    140076.16   -31282.355    4590.4857   -35872.841    1338.8998 
   40950    240.01493    -112.6044    140079.73   -31248.846    4713.3116   -35962.157    1340.5349 
   41000    233.07107   -159.93729     140136.6    -31240.72     4576.951   -35817.671    1342.9274 
   41050    232.15231   -459.84993    140244.19   -31251.167    4558.9089   -35810.076    1345.1358 
   41100    234.54396   -376.76018    140316.51   -31237.876    4605.8751   -35843.751    1348.3707 
   41150    239.47036   -306.47308     140331.4   -31209.934    4702.6175   -35912.552    1351.4537 
   41200    233.05025     59.79254    140366.38   -31224.447    4576.5422   -35800.989    1352.5885 
   41250    234.54108   -368.99881    140432.55   -31216.801    4605.8185   -35822.619    1354.3689 
   41300     237.4941   -382.40779    140419.43   -31218.375    4663.8085   -35882.184      1355.25 
   41350    239.27406   -96.950162    140346.91   -31226.267    4698.7627    -35925.03    1356.2052 
   41400    231.58393    258.70777    140245.56   -31220.461    4547.7472   -35768.208    1356.7252 
   41450    232.90374   -397.33591    140151.01   -31247.063    4573.6651   -35820.728    1357.9865 
   41500    237.35888   -195.61118    140081.36   -31265.918    4661.1531   -35927.071    1361.5152 
   41550     233.6141   -472.85592    139988.48   -31279.115    4587.6147    -35866.73    1361.9499 
   41600    233.62424   -218.64757    139854.78    -31298.01    4587.8139   -35885.823    1362.1748 
   41650    230.38329    209.14227     139711.3     -31272.7    4524.1696   -35796.869    1363.1554 
   41700    232.09846    692.71347    139594.06   -31288.231    4557.8512   -35846.082    1362.3735 
   41750    230.42607   -165.09135    139589.87    -31300.35    4525.0096    -35825.36    1362.4991 
   41800     237.2694   -242.65847    139608.97   -31289.432     4659.396   -35948.828    1363.0095 
   41850    237.45234   -111.07412    139622.71   -31271.606    4662.9884   -35934.594     1364.867 
   41900    234.85588    167.52498    139692.12   -31290.462    4612.0004   -35902.462    1366.2211 
   41950    228.00989   -33.520377    139847.97   -31301.817    4477.5616   -35779.379    1368.3511 
   42000    235.81146   -266.85664    140035.52   -31290.938    4630.7656   -35921.704    1369.3995 
   42050    233.04719   -283.03848    140260.94    -31300.51    4576.4821   -35876.992    1370.2778 
   42100    232.26997    70.185999     140483.1   -31307.416    4561.2194   -35868.635    1372.7102 
   42150     233.6106   -560.44786     140585.2    -31258.81    4587.5461   -35846.356    1374.6826 
   42200     232.6205   -479.01283    140556.47   -31235.421    4568.1028   -35803.524    1374.8923 
   42250    234.81937    56.371459    140475.79   -31243.993    4611.2835   -35855.277    1374.5861 
   42300    230.35214   -173.37171    140445.09   -31260.041    4523.5578   -35783.599    1374.7638 
   42350    232.05025    33.341853    140456.67   -31255.329    4556.9046   -35812.234    1376.2145 
   42400    231.86517    -99.72817    140497.71    -31257.99      4553.27    -35811.26     1380.412 
   42450    233.42499   -233.61266    140586.33   -31234.614    4583.9011   -35818.515    1382.1041 
   42500    232.67425   -178.37396    140712.37   -31249.544    4569.1583   -35818.702    1383.6591 
   42550    240.66721    -457.7596    140796.58   -31251.337    4726.1207   -35977.457    1385.8868 
   42600    234.61093   -447.59215    140804.73   -31242.939    4607.1902   -35850.129    1388.1166 
   42650    234.02359   -539.96859    140825.78   -31252.256    4595.6562   -35847.912    1388.6336 
   42700      234.269   -310.91588     140849.6   -31234.439    4600.4754   -35834.914    1388.6269 
   42750    232.13054   -197.88085    140858.77   -31254.797    4558.4813   -35813.278    1390.4054 
   42800    234.81311   -150.73422     140780.8   -31274.296    4611.1604   -35885.456    1390.8264 
   42850    231.90064   -457.85326     140602.4   -31264.341    4553.9665   -35818.308    1391.0933 
   42900    231.88997   -393.78341    140358.11   -31289.316    4553.7571   -35843.073     1391.844 
   42950    235.31283   -18.464551    140107.93   -31270.357    4620.9737   -35891.331    1391.7446 
   43000    232.39744     295.9848    139905.55   -31289.491    4563.7226   -35853.213    1392.3121 
   43050    233.59997   -167.84576    139822.65   -31293.328    4587.3374   -35880.665    1394.7737 
   43100    234.51632   -160.42408    139789.64    -31302.04    4605.3321   -35907.373    1393.6945 
   43150    236.49713   -130.77193    139809.61   -31325.673    4644.2305   -35969.903    1393.9731 
   43200    233.70788   -169.63167    139868.55    -31339.59    4589.4565   -35929.046    1395.6892 
   43250    232.99361    477.71389    139965.04   -31316.414    4575.4299   -35891.844    1396.3521 
   43300    235.28207   -327.35096    140126.49   -31345.746    4620.3696   -35966.116    1399.5517 
   43350    232.37853   -362.95216     140280.1   -31309.768    4563.3513   -35873.119    1402.5069 
   43400    232.59276   -105.65554    140421.82   -31307.624    4567.5582   -35875.182    1404.0612 
   43450    230.86873   -489.06483    140528.82   -31286.675    4533.7025   -35820.378    1406.1344 
   43500     228.4862   -332.77722    140586.12   -31306.295    4486.9153    -35793.21    1408.2765 
   43550    233.84656   -69.512368    140555.88   -31292.493    4592.1797   -35884.673    1409.5348 
   43600    232.10916   -401.77803    140485.32   -31254.732    4558.0614   -35812.794    1410.8887 
   43650    234.49461   -170.22265    140398.14    -31262.82     4604.906   -35867.726    1411.3052 
   43700    234.62718   -294.94368    140336.93   -31257.074    4607.5093   -35864.583    1412.0073 
   43750    233.14945   -370.00932    140253.42   -31267.796    4578.4903   -35846.286    1413.0304 
   43800    234.02723    11.121319    140178.74   -31252.922    4595.7277    -35848.65    1414.2685 
   43850    238.06873   -509.46594    140171.62   -31227.591    4675.0929   -35902.684    1415.3714 
   43900    238.18583   -259.70431    140122.55   -31184.677    4677.3925   -35862.069    1416.0172 
   43950    239.06833   -394.12085    140069.55    -31196.62    4694.7226   -35891.342    1417.8847 
   44000     233.7171   -239.82774    140035.93   -31210.974    4589.6374   -35800.611    1418.8548 
   44050    233.62735    104.22547    140000.16   -31186.541    4587.8749   -35774.416    1419.9463 
   44100    239.84848    99.245774    140018.92   -31185.574     4710.043   -35895.617    1421.3092 
   44150    240.55744   -473.10783    140116.68   -31211.612    4723.9653   -35935.578    1422.5255 
   44200    236.76831   -403.12647    140244.99   -31193.122    4649.5559   -35842.678    1425.3379 
   44250    236.91069   -602.80026    140413.05   -31188.153    4652.3518   -35840.505    1427.5032 
   44300     234.5944   -81.017928    140570.62   -31182.346    4606.8655   -35789.211    1428.3211 
   44350    236.35056   -552.42232    140713.35   -31182.333    4641.3523   -35823.685    1428.3595 
   44400    230.60873   -306.79799    140748.35   -31189.908    4528.5966   -35718.504    1430.1675 
   44450    233.12319   -374.96506    140701.37    -31212.27    4577.9744   -35790.245    1431.4861 
   44500    234.54921    -127.5168    140621.96     -31205.3    4605.9781   -35811.278    1431.8367 
   44550    235.16729   -335.40139     140525.3   -31209.647    4618.1157   -35827.763    1432.2539 
   44600    241.16079   -135.11395    140403.31   -31220.673    4735.8135   -35956.486    1434.4939 
   44650    234.89386     17.92847    140323.33   -31223.705    4612.7461   -35836.451     1435.955 
   44700    236.80424   -408.33545    140353.14    -31229.34    4650.2615   -35879.601     1437.002 
   44750    235.09902    219.10678    140352.19    -31187.95     4616.775   -35804.725    1439.5599 
   44800    237.54913   -558.84706    140382.43   -31177.149    4664.8893   -35842.038      1441.68 
   44850    236.58754    59.983377    140340.15   -31167.149     4646.006   -35813.155    1442.7877 
   44900    235.92234     60.29328    140272.31   -31163.252     4632.943   -35796.195    1444.6107 
   44950    239.40392    118.95748    140218.34   -31170.151    4701.3128   -35871.463    1445.1039 
   45000    232.36583    -274.9656    140217.47   -31174.723    4563.1019   -35737.825    1446.3274 
   45050     237.2988   -431.52692    140304.62   -31173.083    4659.9734   -35833.057     1446.162 
   45100    235.43202   -598.23031    140413.32   -31162.153    4623.3144   -35785.468    1448.3991 
   45150     237.3935   -369.12769    140464.83   -31170.585     4661.833   -35832.418    1451.6098 
   45200    241.05635   -460.53396    140567.76   -31151.561    4733.7626   -35885.324    1452.8333 
   45250    233.55192     209.9661     140633.9   -31145.528    4586.3937   -35731.921    1454.7796 
   45300    239.89939   -562.45872    140633.21    -31114.72    4711.0426   -35825.763    1456.3322 
   45350    240.34971   -136.91291    140560.05   -31138.162    4719.8858   -35858.048    1457.0128 
   45400    236.36809    -420.6257    140454.79   -31121.954    4641.6965    -35763.65    1459.4321 
   45450    237.59686   -477.29246     140288.8   -31136.745    4665.8265   -35802.571    1460.8334 
   45500    239.33296   -237.41915    140097.21   -31145.435    4699.9194   -35845.354    1462.1536 
   45550    242.46442    142.14141     139969.8   -31155.166    4761.4136    -35916.58    1465.4794 
   45600     241.8121    164.16598    139875.23   -31156.013    4748.6037   -35904.616     1465.517 
   45650    238.43264    118.22396    139833.78   -31169.783    4682.2393   -35852.023    1465.3483 
   45700    238.74428   -465.36792    139856.34   -31216.594    4688.3592   -35904.953    1467.1059 
   45750    238.00966   -106.72231    139926.46   -31229.224     4673.933   -35903.157    1468.9774 
   45800    233.28678   -227.02949     140045.1   -31205.592     4581.187   -35786.779    1470.3682 
   45850    236.41404   -265.38506    140154.83   -31189.489    4642.5989   -35832.088    1472.4851 
   45900    237.68565   -263.03063    140204.38     -31179.5    4667.5703    -35847.07    1475.1521 
   45950    232.57293    114.22158    140260.49   -31200.584    4567.1687   -35767.752    1477.8947 
   46000    231.24299   -580.73323    140311.51   -31230.184    4541.0518   -35771.236    1479.5228 
   46050    231.92851   -233.29506    140355.05   -31245.177    4554.5139   -35799.691    1481.9869 
   46100    233.62757   -137.73857    140364.75   -31217.551    4587.8793    -35805.43     1483.841 
   46150    234.66661   -350.57356    140342.42   -31232.885    4608.2835   -35841.168    1485.0657 
   46200    234.40634    45.773156    140281.64   -31247.139    4603.1725   -35850.311     1486.653 
   46250    237.36964   -273.05413    140266.69   -31262.314    4661.3644   -35923.679    1488.1035 
   46300    231.88878   -325.70804    140204.46   -31268.601    4553.7336   -35822.335    1489.4355 
   46350    234.90163    316.12829    140034.56   -31288.899    4612.8987   -35901.798    1489.5867 
   46400    236.12122     23.62131    139954.36   -31293.849    4636.8485   -35930.697    1492.1545 
   46450    234.47405   -148.48663    139955.04   -31313.726    4604.5022   -35918.228    1493.8417 
   46500    235.98486   -212.46093    140052.01   -31297.899    4634.1707    -35932.07    1495.3996 
   46550    236.40103    17.128781    140215.97   -31296.523    4642.3433   -35938.867    1497.5071 
   46600    233.03765   -69.556225    140413.74   -31342.649    4576.2946   -35918.943    1499.5402 
   46650    234.22886   -686.38071     140581.9   -31320.289    4599.6871   -35919.976     1500.861 
   46700    233.28364   -109.74266    140601.17   -31299.189    4581.1254   -35880.315    1501.0871 
   46750    234.17615   -496.48294    140565.95     -31277.4    4598.6521   -35876.052     1502.666 
   46800    235.91064   -35.006463    140438.93   -31241.969    4632.7132   -35874.683    1503.0886 
   46850    232.46261   -177.04234    140332.02   -31260.498    4565.0023   -35825.501     1502.915 
   46900    233.65588   -494.59568     140274.9   -31249.347    4588.4353   -35837.783    1503.0624 
   46950    237.45404   -253.13177    140178.98   -31252.525    4663.0219   -35915.547    1504.3497 
   47000    234.04361   -31.041359    140064.82   -31271.941    4596.0493   -35867.991    1505.1021 
   47050      235.773    -588.0363    139968.57   -31255.484    4630.0104   -35885.494    1506.1072 
   47100    232.32552     411.2658    139868.04   -31289.618    4562.3101   -35851.928     1506.862 
   47150    233.34237   -137.59606    139828.99   -31260.333    4582.2787   -35842.612    1508.2433 
   47200    232.22608   -179.75817     139855.6    -31276.92    4560.3574   -35837.278    1508.8467 
   47250    233.61958    2.9054339    139971.46   -31285.585    4587.7224   -35873.307    1508.5567 
   47300    234.98379    6.1225867    140131.86   -31238.439    4614.5122   -35852.951     1508.433 
   47350    232.21947   -244.73177    140324.69   -31252.949    4560.2275   -35813.177     1510.766 
   47400     234.6886    97.341002    140506.45   -31240.792    4608.7154   -35849.507    1511.6283 
   47450     230.8687   -302.98376    140692.28   -31225.284    4533.7018   -35758.986    1511.6159 
   47500    235.10983   -347.73981    140795.88   -31218.763    4616.9873    -35835.75     1513.448 
   47550    234.50417   -584.39379    140896.39   -31187.981    4605.0936   -35793.075    1515.4477 
   47600    234.46482   -121.94743     140941.5   -31229.107    4604.3208   -35833.428    1515.4054 
   47650     236.5145   -156.14661    140963.57   -31222.148    4644.5716    -35866.72    1516.7603 
   47700     237.9699   -492.06373    141011.51   -31231.889    4673.1522   -35905.041    1517.3001 
   47750    233.68373   -526.85311    141024.01   -31235.772    4588.9822   -35824.754    1518.3913 
   47800    233.60112   -503.25119    140950.27   -31239.444      4587.36   -35826.804    1519.3144 
   47850    232.89873   -824.75944    140798.06   -31215.684    4573.5667   -35789.251    1519.2295 
   47900    234.89356   -350.11527     140622.6   -31206.155    4612.7403   -35818.895     1519.772 
   47950     233.7091    51.327577    140477.88   -31190.382    4589.4803   -35779.863    1519.8881 
   48000    233.50278   -354.11349    140312.88   -31204.888    4585.4288   -35790.317    1520.7957 
   48050    236.83079   -497.49455    140143.68   -31206.308    4650.7828   -35857.091    1521.0182 
   48100    237.16005   -13.155491    140017.32   -31179.768    4657.2486   -35837.017    1520.5857 
   48150    233.18435   -122.20445    139909.18   -31152.016    4579.1756   -35731.191    1522.4209 
   48200    234.22336    73.515947    139823.98   -31151.659    4599.5791   -35751.238    1522.3621 
   48250    238.70843   -274.92438    139756.93   -31192.683    4687.6551   -35880.338    1521.7465 
   48300    235.25713   -62.154985    139731.43   -31214.542    4619.8799   -35834.422    1521.6837 
   48350    238.47177   -45.405105    139810.75   -31237.656    4683.0076   -35920.663    1522.6682 
   48400    241.33073   -386.13744    139963.08   -31253.046    4739.1506   -35992.196    1523.3839 
   48450    235.02758   -348.56889    140144.54    -31266.95    4615.3721   -35882.322     1526.642 
   48500    235.39447    -166.5082    140300.19    -31263.72     4622.577   -35886.298    1527.2617 
   48550    232.41615   -215.65349    140422.21   -31244.899    4564.0899   -35808.989    1528.1655 
   48600    236.37015   -563.93502     140465.6   -31251.914     4641.737   -35893.651    1530.3007 
   48650     233.6437   -112.99358    140531.66   -31225.101     4588.196   -35813.297    1531.0034 
   48700    237.41335   -234.33089    140641.31   -31238.331    4662.2228   -35900.554    1533.2144 
   48750    232.32467   -141.41545    140792.05   -31236.269    4562.2935   -35798.563    1536.1882 
   48800    234.76806     58.16741    140929.64   -31213.807    4610.2757   -35824.082    1539.7042 
   48850    235.78919   -270.86817    141073.65   -31197.233    4630.3282   -35827.561    1542.4266 
   48900    235.16999   -273.35171    141196.07   -31207.714    4618.1686   -35825.883      1544.09 
   48950      234.185   0.88155396    141266.93   -31198.704    4598.8258    -35797.53    1545.5829 
   49000    233.11797   -293.99615    141262.44   -31158.163     4577.872   -35736.035    1545.9108 
   49050    237.93779   -242.14809    141108.09   -31136.868    4672.5216   -35809.389    1545.6873 
   49100    236.70241   -78.426537    140862.73    -31132.17    4648.2616   -35780.431    1544.5479 
   49150    234.23821   -324.31185    140589.46   -31109.391    4599.8708   -35709.261    1544.1934 
   49200    241.40376    94.341716    140275.19   -31107.858    4740.5849   -35848.442    1543.0712 
   49250    242.86809   -277.77984    139972.06   -31062.749    4769.3408   -35832.089    1544.1957 
   49300    238.33158   -153.02028    139747.46   -31062.014    4680.2546   -35742.269    1544.9957 
   49350    238.20233    138.37947    139661.28   -31058.842    4677.7166   -35736.559    1544.0948 
   49400    239.25017   -66.032372    139667.92   -31121.242    4698.2936   -35819.536    1544.2855 
   49450    239.36126    216.73588    139737.39   -31158.786     4700.475   -35859.261    1545.6178 
   49500    239.72573   -450.51099    139835.27   -31156.851    4707.6325   -35864.483    1547.6997 
   49550    239.65942   -52.564289    139879.28   -31184.776    4706.3301   -35891.106    1550.6873 
   49600    235.99221   -462.20043    140005.26   -31205.207    4634.3151   -35839.522    1551.0386 
   49650    236.02387   -198.24256    140186.61   -31185.214    4634.9368   -35820.151    1554.4562 
   49700    235.75052   -101.69611    140344.22    -31223.33    4629.5688   -35852.899    1557.0996 
   49750    232.75562   -456.32914    140516.73    -31235.59    4570.7562   -35806.347    1558.2176 
   49800    234.14335    192.56291    140657.96    -31233.63     4598.008   -35831.638    1559.4805 
   49850    234.82943   -589.99719     140782.2   -31229.902    4611.4809   -35841.383    1558.6515 
   49900    233.78168   -179.67074    140795.56    -31212.67    4590.9056   -35803.576    1558.9589 
   49950     237.5167    -137.4656    140770.61   -31186.147    4664.2525   -35850.399    1561.5256 
   50000    237.09826    123.18188     140819.3    -31172.79    4656.0353   -35828.825    1563.1248 
Loop time of 421.655 on 12 procs for 50000 steps with 6589 atoms

Performance: 102.453 ns/day, 0.234 hours/ns, 118.580 timesteps/s
96.1% CPU use with 12 MPI tasks x no OpenMP threads

MPI task timing breakdown:
Section |  min time  |  avg time  |  max time  |%varavg| %total
---------------------------------------------------------------
Pair    | 43.936     | 125.37     | 290.19     |1012.9 | 29.73
Neigh   | 9.4786     | 17.08      | 32.617     | 252.9 |  4.05
Comm    | 56.957     | 236.99     | 325.79     | 802.5 | 56.20
Output  | 0.36405    | 0.40283    | 0.44028    |   3.1 |  0.10
Modify  | 37.395     | 37.751     | 38.231     |   4.2 |  8.95
Other   |            | 4.065      |            |       |  0.96

Nlocal:        549.083 ave         918 max         368 min
Histogram: 8 0 0 0 0 0 0 0 0 4
Nghost:        2056.67 ave        2352 max        1917 min
Histogram: 8 0 0 0 0 0 0 0 2 2
Neighs:        0.00000 ave           0 max           0 min
Histogram: 12 0 0 0 0 0 0 0 0 0
FullNghs:      64873.8 ave      150992 max       22824 min
Histogram: 8 0 0 0 0 0 0 0 0 4

Total # of neighbors = 778486
Ave neighs/atom = 118.14934
Neighbor list builds = 8251
Dangerous builds = 0

# Create data file for import to other simulations
#
write_data data.${NAME}
write_data data.graphite_ML_1atm_e
System init for write_data ...


Total wall time: 0:07:01
