LAMMPS data file via write_data, version 16 Mar 2018, timestep = 6000000

6736 atoms
2 atom types

0.0000000000000000e+00 4.9219999999999999e+01 xlo xhi
0.0000000000000000e+00 4.9019635930410494e+01 ylo yhi
5.5754524108700210e-01 5.9504454758919451e+01 zlo zhi

Masses

1 18.015
2 12.01

Atoms # atomic

3055 1 3.5498663038229168e+00 2.8369843305376237e+00 2.6303876212789890e+00 1 2 1
3049 1 1.0415989058692801e+00 2.5702489359744844e+00 1.9278897095066909e+00 3 4 1
2998 1 5.2253907597643394e+00 8.4279757651266851e-01 1.7846187044786526e+00 -1 -1 1
374 1 7.7485569552971949e+00 1.6175532031350810e+00 2.8386123074159388e+00 -1 0 0
1481 1 8.1970456221938210e+00 3.8452395480861168e+00 1.8322645057858933e+00 -1 0 1
5616 1 1.8984526788424325e+00 6.6186722411688725e+00 2.9930819911501398e+00 2 1 1
5216 1 4.1757566729838782e+00 5.4066919506301225e+00 1.7333747763804148e+00 2 4 1
5416 1 6.5312331903969154e+00 5.8085019399708901e+00 3.1180237389219738e+00 0 1 0
3144 1 1.0740569601367191e+01 4.7320293005732097e+00 2.6889018632640131e+00 -3 3 1
6462 1 1.1612167193955251e+01 7.0066637450831868e+00 1.6856886586024742e+00 2 4 1
5442 1 2.8662317609758676e+00 8.9756580381065678e+00 2.0832175444418257e+00 -1 2 0
3322 1 7.1310038075203031e-01 1.0748589385402822e+01 2.3056550134509655e+00 1 -1 1
1931 1 7.4753443665657997e+00 7.9768711272080823e+00 1.7311928279229618e+00 -1 1 0
5058 1 5.4117811043478534e+00 9.5839156683439928e+00 2.9755502213974157e+00 3 0 1
3485 1 5.6919032856768004e+00 1.2070654713789057e+01 2.1278038852392260e+00 -1 3 0
6558 1 9.9270096813876236e+00 8.9205172239667192e+00 2.6557273585002976e+00 5 0 1
3082 1 9.9189135057497602e+00 1.1520045863324489e+01 1.6611650720161759e+00 0 -1 1
1752 1 1.3246225545432595e+00 1.2992079615327267e+01 1.4578370992677714e+00 -3 -2 0
3398 1 3.7650475598140192e+00 1.3731076023633602e+01 2.6473306238840335e+00 -1 0 1
2047 1 3.1106034614608746e+00 3.2081767620761165e-01 6.3011215914592098e+00 0 -1 0
1954 1 7.9246892421480570e+00 1.2979615842405002e+01 2.7832553218123159e+00 -3 1 0
1331 1 8.5253224236085607e+00 1.5221165339142669e+01 1.6570166950990695e+00 1 2 1
6550 1 1.1904797699553608e+01 6.7994847824095894e-01 5.3970044306143334e+00 3 0 1
3779 1 3.1520021932695461e+00 2.7765405261587168e+00 5.2448966852232441e+00 -1 0 1
5627 1 1.1678038530854648e+01 9.3589569508185626e+00 8.9250589573490036e+00 -1 -2 1
3217 1 5.9161555334732370e+00 3.4911641874777279e+00 6.5942287110320512e+00 0 4 1
284 1 7.8640296353437611e+00 1.7527207718404647e+00 5.6069671054642249e+00 -4 -1 0
5561 1 1.0276449872939860e+01 2.5093439534774178e+00 6.7856421626179477e+00 -1 2 0
469 1 1.0571643647044141e+01 1.3363383970129661e+01 9.1709509022946971e+00 0 -2 0
5455 1 1.3993113079274115e+00 4.1974199312494136e+00 6.3804964527130714e+00 1 3 0
4941 1 1.8703485078490532e+00 6.8936557393301623e+00 5.6802051418129027e+00 3 1 1
3898 1 4.2689019328245923e+00 7.2308449495010105e+00 6.7868377025397875e+00 0 -1 1
5318 1 6.3603047633798830e+00 6.1469116997886193e+00 5.6232041048658132e+00 -2 1 0
6681 1 1.0796723567931624e+01 5.0017645638463142e+00 5.3035562910482250e+00 3 1 0
3295 1 9.0280585937282662e+00 6.7653019196603124e+00 6.2306363055317417e+00 4 -1 1
3713 1 3.1011772708544649e+00 1.1197447022184638e+01 6.2232619213755296e+00 -1 -1 0
5588 1 2.9317305882472394e-01 1.0851970365247778e+01 5.0801233535873394e+00 -3 1 1
5083 1 1.4379494197504186e+00 1.5299007025776872e+01 9.2748764095743024e+00 3 1 0
1537 1 4.9332347368359857e+00 9.3311406075595897e+00 5.5392553245353211e+00 -2 -4 0
6377 1 7.3200460861593450e+00 1.0172294622477450e+01 6.3832468520955103e+00 2 0 1
3454 1 8.4862987680536701e+00 1.5169777761734027e+01 9.9188628354121473e+00 1 -2 0
6498 1 9.7857592403897975e+00 9.0630686179836335e+00 5.3504269185947999e+00 0 1 1
3819 1 1.7223002758879156e+00 1.5351625380347967e+01 6.4324911005570380e+00 3 4 0
102 1 3.5105984192162123e+00 1.3727739229053348e+01 5.2718715015063076e+00 3 0 0
378 1 5.7538308414070167e+00 1.4394302703185081e+01 6.3751478022491597e+00 0 3 0
2275 1 1.0912270632050260e+01 1.5897765361791729e+01 5.5747923156251611e+00 0 2 1
4999 1 7.8259956183906683e+00 1.2626512907224479e+01 5.6025675014863339e+00 -1 -3 1
1616 1 1.0368617630791354e+01 1.3189667252449771e+01 6.2751000056735506e+00 -1 -1 1
1510 1 1.0030561000790463e+00 2.0160453591105472e+00 1.0207056863698996e+01 0 1 1
2012 1 5.9151666892760053e+00 1.4503749834751234e+01 8.9180732915583061e+00 0 -1 0
4852 1 5.2838898933638614e+00 7.3703720701175646e-01 1.0069724797463003e+01 0 2 0
1783 1 6.0988304850796400e+00 3.3618375287237017e+00 9.2613204972663148e+00 1 0 0
1903 1 8.5909981119038381e+00 4.2171617475095440e+00 9.7265141135516995e+00 -1 0 0
2098 1 1.0655538613103863e+01 2.4282899496266790e+00 9.3313664263137532e+00 -2 2 0
5156 1 1.5693078794573736e+00 4.4532625997464992e+00 9.0677052766019468e+00 3 2 1
1686 1 3.9785678011495507e+00 4.9433487514185614e+00 1.0099151488510792e+01 2 1 0
5282 1 4.2812965313393407e+00 7.3310296499139769e+00 9.1990992002466534e+00 3 0 0
3208 1 6.5617007994594108e+00 8.0823132432974294e+00 9.8667637921567550e+00 0 -1 1
1548 1 8.9324609486130662e+00 6.6374645875487044e+00 9.0283747678085540e+00 -1 -1 1
1362 1 1.1553781705588882e+01 7.0461296538590856e+00 1.0062164023867799e+01 2 3 0
3545 1 2.3824878488873651e+00 8.7748534447370421e+00 1.0092886628879047e+01 1 2 0
5537 1 2.9012230206965057e+00 1.1360507329949359e+01 8.8598771719282343e+00 1 0 0
5522 1 1.2284838996991908e+01 1.1871887501213275e+01 5.1115159306390332e+00 0 0 1
3793 1 7.3291342677586631e+00 1.0425329986267062e+01 8.8288683218946868e+00 1 1 1
1346 1 5.2387002760909018e+00 1.1949042852970974e+01 9.7217968198465492e+00 1 1 1
3452 1 1.0771192063224360e+00 1.2513689527769825e+01 1.0077905373091225e+01 -3 1 1
1392 1 9.8579109773949884e+00 1.0886044523574812e+01 9.8137297350656389e+00 0 1 1
2057 1 1.1170007672321448e+01 1.5463765768165047e+01 2.9207522513812685e+00 -1 3 0
2299 1 1.2267868298862224e+01 9.5830020507813813e+00 6.2188381367772188e+00 2 0 1
3293 1 3.9297358321307212e+00 1.6180045033520276e+01 1.0171703162197629e+01 -2 -1 1
4823 1 4.0910021935650924e+00 1.6212609252272912e+01 1.8571102709059304e+00 0 -3 1
3660 1 1.2045796392523780e+01 8.4913233577804892e-01 2.9045594259487699e+00 -2 0 0
1489 1 1.0160318486591818e+01 6.5439507207822406e-02 9.9191252245870505e+00 -1 4 1
3516 1 1.9612352656999121e-02 8.1971329296614801e+00 9.1794658617506979e+00 2 3 0
3384 1 1.5425003559562724e+00 3.9618287513539205e+00 1.3769016967218544e+01 3 -1 1
4907 1 1.0309366536914641e+00 1.5343966026730904e+00 1.2796133408734221e+01 1 0 1
2079 1 5.9358840847119660e+00 3.5157126061573649e+00 1.3717605023780811e+01 -1 5 0
2070 1 1.1700759679205628e+01 9.3081225644721624e+00 1.6168556049788119e+01 -2 0 0
2046 1 1.0439139634708402e+01 2.4382662565701270e+00 1.3492669709513509e+01 1 1 0
5092 1 1.2254968255025688e+01 9.5624221798379772e+00 1.3406652235601726e+01 2 3 0
2968 1 1.0261066773853333e+01 2.0182179334110737e+00 1.6252188563408602e+01 -1 1 1
3848 1 1.5652536105217076e+00 3.7710513584962362e+00 1.6303906957838628e+01 3 -2 0
1721 1 8.2172722227008244e+00 4.0636976578762960e+00 1.2611041118361740e+01 1 1 0
6341 1 4.8277720099385535e+00 7.2515049263276019e+00 1.3463092607492065e+01 -3 0 1
6396 1 4.5977492050849680e+00 7.3548642673049800e+00 1.6253635864612328e+01 -1 4 1
4724 1 3.9998863673907352e+00 4.8203347420674856e+00 1.2881420001441295e+01 3 3 0
266 1 2.7716697047775379e-01 8.3347400479540870e+00 1.3546087853279868e+01 1 2 0
1399 1 8.9777463272735254e+00 6.3808477801950358e+00 1.3592488030194133e+01 0 0 1
3361 1 8.9413629586229479e+00 6.2949934282316802e+00 1.6246119884918926e+01 5 1 1
5445 1 1.1381127043355773e+01 7.0774109116762780e+00 1.2702867090274319e+01 -2 2 0
66 1 3.1542362615357491e+00 1.1374614959961661e+01 1.3713796541678628e+01 4 2 0
50 1 1.9202241159747555e-01 5.9350402767399437e+00 1.7086173249091370e+01 4 2 0
3792 1 1.3252562998869089e+00 1.2857326763666164e+01 1.2850562622544487e+01 2 -1 1
278 1 7.2770474101002391e-01 1.1141773862565582e+01 2.3926135097649563e+01 1 -1 0
1771 1 7.4062463192821264e+00 1.0323653277847527e+01 1.3343136078766998e+01 3 1 0
1936 1 7.1981876769359534e+00 1.0402378367762786e+01 1.6001538521758718e+01 0 0 0
3922 1 3.9126159689245519e+00 1.3704034860768834e+01 2.1014808022437840e+01 -4 -1 1
80 1 8.2025490396863905e+00 1.2770700470067338e+00 2.3784775309460187e+01 -5 1 1
6583 1 8.3179868300267401e+00 1.2650358055486929e+01 2.0758359878296282e+01 1 -1 0
5306 1 8.5638426738055475e+00 1.5161803561576114e+01 1.2393324687177543e+01 4 0 0
1363 1 1.6591691323196449e+00 1.5177026227184946e+01 1.3630789437941722e+01 -1 1 1
1619 1 1.8417241497273831e+00 1.5671175237493852e+01 1.6089736713737338e+01 -2 -2 1
2096 1 6.3045146136294328e+00 1.4365993392408578e+01 1.3454337462556405e+01 -1 2 0
5683 1 6.2377986129890672e+00 1.4425039332198649e+01 1.6164556121062660e+01 -1 0 1
6510 1 9.9810316442431368e+00 1.0752909445623597e+01 1.2668991282260624e+01 1 -1 1
5155 1 1.0524290918271166e+01 1.3404510260117622e+01 1.3362948706338797e+01 -1 -2 1
5303 1 1.1292493683163240e+01 1.5942115720545582e+01 2.0662019523342860e+01 1 0 1
2069 1 6.5819048700473104e-01 1.4697459432278774e+00 1.7252792920422991e+01 2 2 0
349 1 8.5233697490857374e-01 1.6702099242040167e+00 1.9844458214304339e+01 3 -2 0
4902 1 6.0189692824901355e+00 3.4140377082317026e+00 1.6486011277106385e+01 1 0 1
3753 1 5.5112203139453495e+00 7.7505599088387889e-01 1.7438121159689924e+01 0 -2 1
3281 1 8.5763094301366856e+00 3.9426388529709113e+00 2.0081143561071244e+01 0 2 1
5483 1 8.6122323190789203e+00 3.8705881664948789e+00 1.7184142593623353e+01 -2 2 0
4894 1 4.0158445199715809e+00 4.9414209165445611e+00 1.7236711104111944e+01 -2 -2 1
3474 1 3.8674382881821194e+00 5.0129405821290192e+00 2.0067736465968771e+01 1 -3 0
5141 1 7.0692433575111489e+00 7.8537219575410600e+00 1.7144096141570422e+01 1 1 0
1720 1 6.8737279439846217e+00 7.9026416891801139e+00 1.9903125082104971e+01 0 0 0
174 1 1.1376694571853152e+01 6.8424746837715009e+00 1.7553081031966631e+01 0 -1 0
2115 1 1.1316307466426901e+01 7.1172543683629765e+00 2.0199412526042558e+01 0 2 1
5070 1 3.0145505236704819e+00 1.1504825850514015e+01 1.6475288430113679e+01 0 2 0
6724 1 2.7371138799575236e+00 8.9958555978547778e+00 1.7265865515111912e+01 -1 3 0
3408 1 2.6995835323783868e+00 9.2256778147810632e+00 1.9797204990982756e+01 -1 -2 0
475 1 5.3973227973492417e+00 1.2123703327686387e+01 1.7244686065663537e+01 1 -2 1
6444 1 6.0420284856852149e+00 1.2216167426572335e+01 1.9960717936732543e+01 -2 2 0
3584 1 9.8434693818822439e+00 1.1092445792829681e+01 1.6934670181236974e+01 0 1 1
2183 1 6.6348541085799164e+00 5.8632056749506694e+00 2.3780505880769535e+01 2 1 0
5334 1 4.0202492663771222e-01 8.3010726188254456e+00 1.6244957560070723e+01 -1 3 1
93 1 1.1552713599392574e+00 1.3245847646524838e+01 1.7482835565673302e+01 1 -2 0
59 1 1.5296055770440857e+00 1.2830236725299249e+01 2.0210038167318480e+01 3 2 0
6523 1 4.3680708941130169e+00 1.6259520438103621e+01 1.7132233823779252e+01 0 -1 1
4832 1 1.0548377470212642e+01 1.3401844379660279e+01 1.6060790308694081e+01 1 -5 1
182 1 8.7985590530555005e+00 1.5044121876473675e+01 1.6992477576201985e+01 1 0 0
377 1 8.6824066647100899e+00 1.5079871595266106e+01 1.9733587719813947e+01 1 -1 0
6623 1 7.0524807210680853e+00 7.8521899832062951e+00 1.2377588145151819e+01 1 -1 0
4886 1 3.6777631469396255e+00 2.3747000157750775e+00 2.0816069974936823e+01 1 -3 1
5276 1 5.4702017692222320e+00 6.1638512912885457e-01 1.9915512000702659e+01 -3 3 0
3140 1 2.6386190906228757e+00 9.0076838770164738e+00 1.2639467763082598e+01 -2 -3 1
225 1 7.6619812478698748e+00 1.4080004810263822e+00 2.1276160736460938e+01 3 4 0
3091 1 5.5107249112231003e+00 1.2149443095589488e+01 1.2411943401348783e+01 4 0 0
6355 1 2.4505064771722913e+00 6.7584334441502483e+00 2.0894138099840362e+01 4 0 1
3511 1 2.3069771528044014e+00 6.9622441328559521e+00 2.3491517650264953e+01 0 0 0
202 1 3.7803853319701273e+00 2.2070459691178765e+00 2.3789206300893195e+01 -4 -1 1
4769 1 6.3536433232871703e+00 5.5713552736290399e+00 2.1120041037619679e+01 2 0 1
6446 1 1.1100679780686999e+01 4.8384179493812827e+00 2.3470144602301193e+01 1 3 0
309 1 1.0829782052599784e+01 4.6668787594600154e+00 2.0753050460932965e+01 0 4 0
5314 1 5.1892110496356985e+00 9.1922102185964127e-01 1.2762563006028664e+01 -2 3 0
60 1 6.6212047218671568e+00 1.5847946183345668e+01 2.3311281171012535e+01 3 1 0
5420 1 5.3864482146082437e-01 1.0477347064562961e+01 2.1380552532865405e+01 4 -2 0
1884 1 4.9827143430479026e+00 9.8967244267009438e+00 2.3730058278092386e+01 0 1 1
101 1 5.0023354416239023e+00 9.9155288006781657e+00 2.0961494834373813e+01 2 -1 0
1947 1 9.6297230966402960e+00 9.2064917986740102e+00 2.3454837934291056e+01 3 2 0
3880 1 9.2561768369640909e+00 8.9595182639966211e+00 2.0804975040213201e+01 -3 -3 1
1361 1 1.0251999211123096e+01 1.1134814332646553e+01 1.9435927165798486e+01 0 1 1
2015 1 1.0585915392120599e+01 1.4524091661206311e+01 2.3383279586202079e+01 0 0 0
3341 1 7.9830519738101762e+00 1.3560842967825200e+01 2.3585913628306933e+01 -2 0 1
1772 1 4.4394268852720264e+00 1.5782475608381342e+01 1.2724419403748543e+01 1 -4 0
48 1 4.2192290195396600e+00 1.5023184378847697e+01 2.3722378293171595e+01 0 1 1
1570 1 2.9734337819811629e+00 1.5797977864334820e-01 1.6556947058542931e+01 -2 2 1
3780 1 1.0872932985195806e+01 1.9629064196039965e+00 2.4029043958495407e+01 -1 0 0
3438 1 1.9839567805027980e+00 4.2200903286626836e+00 2.4043867956829001e+01 -2 -3 0
6721 1 4.4902871617447691e+00 1.6325974143240579e+01 1.9755941356495036e+01 1 -3 1
532 1 3.1607147001404359e+00 1.1808804914130633e-01 1.3575261252043957e+01 1 2 0
616 2 0.0000000000000000e+00 2.8417180249513345e+00 2.6782364609509990e+01 0 0 0
618 2 0.0000000000000000e+00 0.0000000000000000e+00 2.6782364609509990e+01 0 0 0
620 2 1.2305000000000001e+00 7.1042950623783474e-01 2.6782364609509990e+01 0 0 0
627 2 1.2305000000000001e+00 2.1312885187134998e+00 2.6782364609509990e+01 0 0 0
629 2 2.4610000000000003e+00 2.8417180249513345e+00 2.6782364609509990e+01 0 0 0
631 2 2.4610000000000003e+00 0.0000000000000000e+00 2.6782364609509990e+01 0 0 0
633 2 3.6915000000000004e+00 7.1042950623783474e-01 2.6782364609509990e+01 0 0 0
648 2 3.6914999999999996e+00 2.1312885187134998e+00 2.6782364609509990e+01 0 0 0
650 2 4.9220000000000006e+00 2.8417180249513332e+00 2.6782364609509990e+01 0 0 0
652 2 4.9220000000000006e+00 0.0000000000000000e+00 2.6782364609509990e+01 0 0 0
654 2 6.1524999999999999e+00 7.1042950623783407e-01 2.6782364609509990e+01 0 0 0
677 2 6.1524999999999999e+00 2.1312885187134989e+00 2.6782364609509990e+01 0 0 0
679 2 7.3829999999999991e+00 2.8417180249513345e+00 2.6782364609509990e+01 0 0 0
681 2 7.3829999999999991e+00 0.0000000000000000e+00 2.6782364609509990e+01 0 0 0
5320 1 1.1826453225156639e+01 1.0030912930341309e+01 2.4422519165351893e+01 -2 1 0
683 2 8.6134999999999984e+00 7.1042950623783407e-01 2.6782364609509990e+01 0 0 0
714 2 8.6134999999999984e+00 2.1312885187135002e+00 2.6782364609509990e+01 0 0 0
716 2 9.8440000000000012e+00 2.8417180249513332e+00 2.6782364609509990e+01 0 0 0
718 2 9.8440000000000012e+00 0.0000000000000000e+00 2.6782364609509990e+01 0 0 0
720 2 1.1074500000000002e+01 7.1042950623783330e-01 2.6782364609509990e+01 0 0 0
759 2 1.1074500000000002e+01 2.1312885187135002e+00 2.6782364609509990e+01 0 0 0
1057 2 9.8440000000000012e+00 1.2787731112280996e+01 3.3279635390480962e+01 0 0 0
621 2 0.0000000000000000e+00 7.1042950623783341e+00 2.6782364609509990e+01 0 0 0
623 2 0.0000000000000000e+00 4.2625770374269996e+00 2.6782364609509990e+01 0 0 0
625 2 1.2305000000000001e+00 4.9730065436648339e+00 2.6782364609509990e+01 0 0 0
640 2 1.2305000000000001e+00 6.3938655561404980e+00 2.6782364609509990e+01 0 0 0
642 2 2.4610000000000003e+00 7.1042950623783341e+00 2.6782364609509990e+01 0 0 0
644 2 2.4610000000000003e+00 4.2625770374269996e+00 2.6782364609509990e+01 0 0 0
646 2 3.6914999999999996e+00 4.9730065436648339e+00 2.6782364609509990e+01 0 0 0
669 2 3.6914999999999996e+00 6.3938655561404980e+00 2.6782364609509990e+01 0 0 0
1033 2 7.3829999999999991e+00 1.2787731112280996e+01 3.3279635390480962e+01 0 0 0
671 2 4.9220000000000006e+00 7.1042950623783341e+00 2.6782364609509990e+01 0 0 0
673 2 4.9220000000000006e+00 4.2625770374269978e+00 2.6782364609509990e+01 0 0 0
675 2 6.1524999999999999e+00 4.9730065436648339e+00 2.6782364609509990e+01 0 0 0
706 2 6.1524999999999999e+00 6.3938655561404980e+00 2.6782364609509990e+01 0 0 0
708 2 7.3830000000000009e+00 7.1042950623783341e+00 2.6782364609509990e+01 0 0 0
710 2 7.3829999999999991e+00 4.2625770374269996e+00 2.6782364609509990e+01 0 0 0
1058 2 1.1074500000000002e+01 1.3498160618518829e+01 3.3279635390480962e+01 0 0 0
712 2 8.6135000000000002e+00 4.9730065436648339e+00 2.6782364609509990e+01 0 0 0
751 2 8.6135000000000002e+00 6.3938655561404980e+00 2.6782364609509990e+01 0 0 0
753 2 9.8440000000000012e+00 7.1042950623783341e+00 2.6782364609509990e+01 0 0 0
755 2 9.8440000000000012e+00 4.2625770374270004e+00 2.6782364609509990e+01 0 0 0
757 2 1.1074500000000002e+01 4.9730065436648339e+00 2.6782364609509990e+01 0 0 0
798 2 1.1074500000000002e+01 6.3938655561404980e+00 2.6782364609509990e+01 0 0 0
1010 2 6.1524999999999990e+00 1.3498160618518829e+01 3.3279635390480962e+01 0 0 0
634 2 0.0000000000000000e+00 1.1366872099805333e+01 2.6782364609509990e+01 0 0 0
636 2 0.0000000000000000e+00 8.5251540748539991e+00 2.6782364609509990e+01 0 0 0
638 2 1.2305000000000001e+00 9.2355835810918343e+00 2.6782364609509990e+01 0 0 0
661 2 1.2305000000000001e+00 1.0656442593567498e+01 2.6782364609509990e+01 0 0 0
663 2 2.4610000000000003e+00 1.1366872099805333e+01 2.6782364609509990e+01 0 0 0
665 2 2.4610000000000003e+00 8.5251540748539991e+00 2.6782364609509990e+01 0 0 0
667 2 3.6915000000000004e+00 9.2355835810918343e+00 2.6782364609509990e+01 0 0 0
698 2 3.6914999999999996e+00 1.0656442593567499e+01 2.6782364609509990e+01 0 0 0
1008 2 4.9220000000000006e+00 1.5629449137232333e+01 3.3279635390480962e+01 0 0 0
700 2 4.9220000000000006e+00 1.1366872099805333e+01 2.6782364609509990e+01 0 0 0
702 2 4.9220000000000006e+00 8.5251540748539991e+00 2.6782364609509990e+01 0 0 0
704 2 6.1524999999999999e+00 9.2355835810918343e+00 2.6782364609509990e+01 0 0 0
743 2 6.1524999999999999e+00 1.0656442593567499e+01 2.6782364609509990e+01 0 0 0
745 2 7.3829999999999991e+00 1.1366872099805333e+01 2.6782364609509990e+01 0 0 0
747 2 7.3830000000000009e+00 8.5251540748539991e+00 2.6782364609509990e+01 0 0 0
1055 2 8.6135000000000002e+00 1.4919019630994494e+01 3.3279635390480962e+01 0 0 0
749 2 8.6134999999999984e+00 9.2355835810918343e+00 2.6782364609509990e+01 0 0 0
790 2 8.6134999999999984e+00 1.0656442593567498e+01 2.6782364609509990e+01 0 0 0
792 2 9.8440000000000012e+00 1.1366872099805333e+01 2.6782364609509990e+01 0 0 0
794 2 9.8440000000000012e+00 8.5251540748539956e+00 2.6782364609509990e+01 0 0 0
796 2 1.1074500000000002e+01 9.2355835810918343e+00 2.6782364609509990e+01 0 0 0
837 2 1.1074500000000002e+01 1.0656442593567498e+01 2.6782364609509990e+01 0 0 0
839 2 1.2304999999999998e+01 1.1366872099805333e+01 2.6782364609509990e+01 0 0 0
655 2 0.0000000000000000e+00 1.5629449137232333e+01 2.6782364609509990e+01 0 0 0
657 2 0.0000000000000000e+00 1.2787731112280996e+01 2.6782364609509990e+01 0 0 0
659 2 1.2305000000000001e+00 1.3498160618518829e+01 2.6782364609509990e+01 0 0 0
690 2 1.2305000000000001e+00 1.4919019630994494e+01 2.6782364609509990e+01 0 0 0
692 2 2.4610000000000003e+00 1.5629449137232328e+01 2.6782364609509990e+01 0 0 0
694 2 2.4610000000000003e+00 1.2787731112280996e+01 2.6782364609509990e+01 0 0 0
696 2 3.6915000000000004e+00 1.3498160618518829e+01 2.6782364609509990e+01 0 0 0
735 2 3.6915000000000004e+00 1.4919019630994494e+01 2.6782364609509990e+01 0 0 0
737 2 4.9220000000000006e+00 1.5629449137232333e+01 2.6782364609509990e+01 0 0 0
739 2 4.9220000000000006e+00 1.2787731112280996e+01 2.6782364609509990e+01 0 0 0
741 2 6.1524999999999990e+00 1.3498160618518829e+01 2.6782364609509990e+01 0 0 0
782 2 6.1524999999999990e+00 1.4919019630994494e+01 2.6782364609509990e+01 0 0 0
784 2 7.3829999999999991e+00 1.5629449137232333e+01 2.6782364609509990e+01 0 0 0
786 2 7.3829999999999991e+00 1.2787731112280996e+01 2.6782364609509990e+01 0 0 0
788 2 8.6135000000000002e+00 1.3498160618518835e+01 2.6782364609509990e+01 0 0 0
829 2 8.6135000000000002e+00 1.4919019630994494e+01 2.6782364609509990e+01 0 0 0
831 2 9.8440000000000012e+00 1.5629449137232328e+01 2.6782364609509990e+01 0 0 0
833 2 9.8440000000000012e+00 1.2787731112280996e+01 2.6782364609509990e+01 0 0 0
835 2 1.1074500000000002e+01 1.3498160618518829e+01 2.6782364609509990e+01 0 0 0
871 2 1.1074500000000002e+01 1.4919019630994494e+01 2.6782364609509990e+01 0 0 0
617 2 0.0000000000000000e+00 1.4208590124756650e+00 3.0031000000003413e+01 0 0 0
619 2 0.0000000000000000e+00 0.0000000000000000e+00 3.0031000000003413e+01 0 0 0
626 2 1.2305000000000001e+00 3.5521475311891644e+00 3.0031000000003413e+01 0 0 0
628 2 1.2305000000000001e+00 2.1312885187134998e+00 3.0031000000003413e+01 0 0 0
630 2 2.4610000000000003e+00 1.4208590124756650e+00 3.0031000000003413e+01 0 0 0
632 2 2.4610000000000003e+00 0.0000000000000000e+00 3.0031000000003413e+01 0 0 0
647 2 3.6914999999999996e+00 3.5521475311891644e+00 3.0031000000003413e+01 0 0 0
649 2 3.6914999999999996e+00 2.1312885187134998e+00 3.0031000000003413e+01 0 0 0
651 2 4.9220000000000006e+00 1.4208590124756650e+00 3.0031000000003413e+01 0 0 0
653 2 4.9220000000000006e+00 0.0000000000000000e+00 3.0031000000003413e+01 0 0 0
676 2 6.1524999999999999e+00 3.5521475311891644e+00 3.0031000000003413e+01 0 0 0
678 2 6.1524999999999999e+00 2.1312885187134989e+00 3.0031000000003413e+01 0 0 0
680 2 7.3829999999999991e+00 1.4208590124756659e+00 3.0031000000003413e+01 0 0 0
682 2 7.3829999999999991e+00 0.0000000000000000e+00 3.0031000000003413e+01 0 0 0
713 2 8.6134999999999984e+00 3.5521475311891657e+00 3.0031000000003413e+01 0 0 0
715 2 8.6134999999999984e+00 2.1312885187135002e+00 3.0031000000003413e+01 0 0 0
717 2 9.8440000000000012e+00 1.4208590124756659e+00 3.0031000000003413e+01 0 0 0
719 2 9.8440000000000012e+00 0.0000000000000000e+00 3.0031000000003413e+01 0 0 0
758 2 1.1074500000000002e+01 3.5521475311891644e+00 3.0031000000003413e+01 0 0 0
760 2 1.1074500000000002e+01 2.1312885187135002e+00 3.0031000000003413e+01 0 0 0
622 2 0.0000000000000000e+00 5.6834360499026637e+00 3.0031000000003413e+01 0 0 0
624 2 0.0000000000000000e+00 4.2625770374269996e+00 3.0031000000003413e+01 0 0 0
639 2 1.2305000000000001e+00 7.8147245686161639e+00 3.0031000000003413e+01 0 0 0
641 2 1.2305000000000001e+00 6.3938655561404980e+00 3.0031000000003413e+01 0 0 0
643 2 2.4610000000000003e+00 5.6834360499026637e+00 3.0031000000003413e+01 0 0 0
645 2 2.4610000000000003e+00 4.2625770374269996e+00 3.0031000000003413e+01 0 0 0
668 2 3.6914999999999996e+00 7.8147245686161639e+00 3.0031000000003413e+01 0 0 0
670 2 3.6914999999999996e+00 6.3938655561404980e+00 3.0031000000003413e+01 0 0 0
672 2 4.9220000000000006e+00 5.6834360499026637e+00 3.0031000000003413e+01 0 0 0
674 2 4.9220000000000006e+00 4.2625770374269978e+00 3.0031000000003413e+01 0 0 0
705 2 6.1524999999999999e+00 7.8147245686161639e+00 3.0031000000003413e+01 0 0 0
707 2 6.1524999999999999e+00 6.3938655561404980e+00 3.0031000000003413e+01 0 0 0
709 2 7.3829999999999991e+00 5.6834360499026637e+00 3.0031000000003413e+01 0 0 0
711 2 7.3829999999999991e+00 4.2625770374269996e+00 3.0031000000003413e+01 0 0 0
750 2 8.6135000000000002e+00 7.8147245686161639e+00 3.0031000000003413e+01 0 0 0
752 2 8.6135000000000002e+00 6.3938655561404980e+00 3.0031000000003413e+01 0 0 0
754 2 9.8440000000000012e+00 5.6834360499026637e+00 3.0031000000003413e+01 0 0 0
756 2 9.8440000000000012e+00 4.2625770374270004e+00 3.0031000000003413e+01 0 0 0
797 2 1.1074500000000002e+01 7.8147245686161639e+00 3.0031000000003413e+01 0 0 0
799 2 1.1074500000000002e+01 6.3938655561404980e+00 3.0031000000003413e+01 0 0 0
635 2 0.0000000000000000e+00 9.9460130873296642e+00 3.0031000000003413e+01 0 0 0
637 2 0.0000000000000000e+00 8.5251540748539991e+00 3.0031000000003413e+01 0 0 0
660 2 1.2305000000000001e+00 1.2077301606043163e+01 3.0031000000003413e+01 0 0 0
662 2 1.2305000000000001e+00 1.0656442593567498e+01 3.0031000000003413e+01 0 0 0
664 2 2.4610000000000003e+00 9.9460130873296642e+00 3.0031000000003413e+01 0 0 0
666 2 2.4610000000000003e+00 8.5251540748539991e+00 3.0031000000003413e+01 0 0 0
697 2 3.6914999999999996e+00 1.2077301606043163e+01 3.0031000000003413e+01 0 0 0
699 2 3.6914999999999996e+00 1.0656442593567499e+01 3.0031000000003413e+01 0 0 0
701 2 4.9220000000000006e+00 9.9460130873296642e+00 3.0031000000003413e+01 0 0 0
703 2 4.9220000000000006e+00 8.5251540748539991e+00 3.0031000000003413e+01 0 0 0
742 2 6.1524999999999999e+00 1.2077301606043163e+01 3.0031000000003413e+01 0 0 0
744 2 6.1524999999999999e+00 1.0656442593567499e+01 3.0031000000003413e+01 0 0 0
746 2 7.3830000000000009e+00 9.9460130873296642e+00 3.0031000000003413e+01 0 0 0
748 2 7.3830000000000009e+00 8.5251540748539991e+00 3.0031000000003413e+01 0 0 0
789 2 8.6135000000000002e+00 1.2077301606043163e+01 3.0031000000003413e+01 0 0 0
791 2 8.6134999999999984e+00 1.0656442593567498e+01 3.0031000000003413e+01 0 0 0
793 2 9.8440000000000012e+00 9.9460130873296642e+00 3.0031000000003413e+01 0 0 0
795 2 9.8440000000000012e+00 8.5251540748539956e+00 3.0031000000003413e+01 0 0 0
836 2 1.1074500000000002e+01 1.2077301606043163e+01 3.0031000000003413e+01 0 0 0
838 2 1.1074500000000002e+01 1.0656442593567498e+01 3.0031000000003413e+01 0 0 0
656 2 0.0000000000000000e+00 1.4208590124756663e+01 3.0031000000003413e+01 0 0 0
658 2 0.0000000000000000e+00 1.2787731112280996e+01 3.0031000000003413e+01 0 0 0
691 2 1.2305000000000001e+00 1.4919019630994494e+01 3.0031000000003413e+01 0 0 0
693 2 2.4610000000000003e+00 1.4208590124756663e+01 3.0031000000003413e+01 0 0 0
695 2 2.4610000000000003e+00 1.2787731112280996e+01 3.0031000000003413e+01 0 0 0
736 2 3.6915000000000004e+00 1.4919019630994494e+01 3.0031000000003413e+01 0 0 0
738 2 4.9220000000000006e+00 1.4208590124756663e+01 3.0031000000003413e+01 0 0 0
740 2 4.9220000000000006e+00 1.2787731112280996e+01 3.0031000000003413e+01 0 0 0
783 2 6.1524999999999990e+00 1.4919019630994494e+01 3.0031000000003413e+01 0 0 0
785 2 7.3830000000000009e+00 1.4208590124756663e+01 3.0031000000003413e+01 0 0 0
787 2 7.3829999999999991e+00 1.2787731112280996e+01 3.0031000000003413e+01 0 0 0
832 2 9.8440000000000012e+00 1.4208590124756663e+01 3.0031000000003413e+01 0 0 0
872 2 1.1074500000000002e+01 1.4919019630994494e+01 3.0031000000003413e+01 0 0 0
834 2 9.8440000000000012e+00 1.2787731112280996e+01 3.0031000000003413e+01 0 0 0
870 2 1.1074500000000002e+01 1.6339878643470161e+01 3.0031000000003413e+01 0 0 0
874 2 1.2304999999999998e+01 1.4208590124756658e+01 3.0031000000003413e+01 0 0 0
830 2 8.6135000000000002e+00 1.4919019630994494e+01 3.0031000000003413e+01 0 0 0
945 2 0.0000000000000000e+00 2.8417180249513345e+00 3.3279635390480962e+01 0 0 0
946 2 0.0000000000000000e+00 0.0000000000000000e+00 3.3279635390480962e+01 0 0 0
947 2 1.2305000000000001e+00 7.1042950623783474e-01 3.3279635390480962e+01 0 0 0
951 2 1.2305000000000001e+00 2.1312885187134998e+00 3.3279635390480962e+01 0 0 0
952 2 2.4610000000000003e+00 2.8417180249513345e+00 3.3279635390480962e+01 0 0 0
953 2 2.4610000000000003e+00 0.0000000000000000e+00 3.3279635390480962e+01 0 0 0
954 2 3.6915000000000004e+00 7.1042950623783474e-01 3.3279635390480962e+01 0 0 0
962 2 3.6914999999999996e+00 2.1312885187134998e+00 3.3279635390480962e+01 0 0 0
963 2 4.9220000000000006e+00 2.8417180249513332e+00 3.3279635390480962e+01 0 0 0
964 2 4.9220000000000006e+00 0.0000000000000000e+00 3.3279635390480962e+01 0 0 0
965 2 6.1524999999999999e+00 7.1042950623783407e-01 3.3279635390480962e+01 0 0 0
977 2 6.1524999999999999e+00 2.1312885187134989e+00 3.3279635390480962e+01 0 0 0
978 2 7.3829999999999991e+00 2.8417180249513345e+00 3.3279635390480962e+01 0 0 0
979 2 7.3829999999999991e+00 0.0000000000000000e+00 3.3279635390480962e+01 0 0 0
1056 2 9.8440000000000012e+00 1.5629449137232328e+01 3.3279635390480962e+01 0 0 0
980 2 8.6134999999999984e+00 7.1042950623783407e-01 3.3279635390480962e+01 0 0 0
996 2 8.6134999999999984e+00 2.1312885187135002e+00 3.3279635390480962e+01 0 0 0
997 2 9.8440000000000012e+00 2.8417180249513332e+00 3.3279635390480962e+01 0 0 0
998 2 9.8440000000000012e+00 0.0000000000000000e+00 3.3279635390480962e+01 0 0 0
999 2 1.1074500000000002e+01 7.1042950623783330e-01 3.3279635390480962e+01 0 0 0
1019 2 1.1074500000000002e+01 2.1312885187135002e+00 3.3279635390480962e+01 0 0 0
948 2 0.0000000000000000e+00 7.1042950623783341e+00 3.3279635390480962e+01 0 0 0
949 2 0.0000000000000000e+00 4.2625770374269996e+00 3.3279635390480962e+01 0 0 0
950 2 1.2305000000000001e+00 4.9730065436648339e+00 3.3279635390480962e+01 0 0 0
958 2 1.2305000000000001e+00 6.3938655561404980e+00 3.3279635390480962e+01 0 0 0
959 2 2.4610000000000003e+00 7.1042950623783341e+00 3.3279635390480962e+01 0 0 0
960 2 2.4610000000000003e+00 4.2625770374269996e+00 3.3279635390480962e+01 0 0 0
961 2 3.6914999999999996e+00 4.9730065436648339e+00 3.3279635390480962e+01 0 0 0
973 2 3.6914999999999996e+00 6.3938655561404980e+00 3.3279635390480962e+01 0 0 0
1076 2 1.1074500000000002e+01 1.4919019630994494e+01 3.3279635390480962e+01 0 0 0
974 2 4.9220000000000006e+00 7.1042950623783341e+00 3.3279635390480962e+01 0 0 0
975 2 4.9220000000000006e+00 4.2625770374269978e+00 3.3279635390480962e+01 0 0 0
976 2 6.1524999999999999e+00 4.9730065436648339e+00 3.3279635390480962e+01 0 0 0
992 2 6.1524999999999999e+00 6.3938655561404980e+00 3.3279635390480962e+01 0 0 0
993 2 7.3830000000000009e+00 7.1042950623783341e+00 3.3279635390480962e+01 0 0 0
994 2 7.3829999999999991e+00 4.2625770374269996e+00 3.3279635390480962e+01 0 0 0