LAMMPS data file via write_data, version 16 Mar 2018, timestep = 100000

6736 atoms
2 atom types

0.0000000000000000e+00 4.9219999999999999e+01 xlo xhi
0.0000000000000000e+00 4.9019635930410494e+01 ylo yhi
8.4602143764422166e-01 5.9215978562353001e+01 zlo zhi

Masses

1 18.015
2 12.01

Atoms # atomic

96 1 3.4063940017741046e+00 2.7742712220379722e+00 3.2758448491915275e+00 0 0 0
5277 1 6.5744032209103471e+00 3.8710717605582196e-01 1.6137101434370793e+00 2 0 0
1983 1 1.2957223932180879e+00 1.4974823351174805e+01 1.1619459073317607e+01 0 0 0
2256 1 1.1978146610431290e+01 4.9355334983826538e+00 1.1029308023904527e+01 0 0 0
2966 1 3.2526593787543598e+00 6.0704206195548611e+00 3.6236562491259749e+00 1 1 1
3484 1 4.1623377085770761e+00 2.3459746682322050e-01 2.6238387624850885e+00 1 0 0
143 1 5.6684917081270250e+00 4.7443028029441319e+00 2.8559946924047175e+00 1 0 1
3431 1 1.0593658014715349e+01 1.5342608845637393e+00 5.6178915623229635e+00 0 0 1
2161 1 8.0663670088924206e+00 1.5031540598632938e+01 1.1669555063513807e+01 0 0 0
415 1 1.0079083926537477e+01 5.9663162875865901e+00 2.8369522871314850e+00 0 0 1
3473 1 8.8820368303094863e+00 1.2705639312737040e+01 1.2822847435530154e+00 1 0 1
5097 1 3.9628953653644956e+00 8.2429821305906525e+00 2.2688901426749482e+00 1 0 1
3774 1 8.1756202929833091e+00 9.2182074747513720e+00 3.2651724295995197e+00 0 0 1
1844 1 1.0766055500769689e+01 8.7260137820773824e+00 2.1372497441364988e+00 1 0 0
3722 1 1.2273632677152159e+01 7.5378629556378414e+00 1.0385302123670103e+01 0 0 0
423 1 9.7647376126557706e-01 1.2842864311480609e+01 2.1482364201317887e+00 1 1 1
2031 1 9.9161097926641639e-01 5.2232436649329790e+00 2.2441817591374136e+00 1 1 0
195 1 1.3016124266744704e+00 1.3122382804813798e+01 5.5898304431725991e+00 0 1 0
5533 1 7.2531754774417170e+00 1.1915605466623630e+01 3.3748072019155835e+00 1 0 0
3435 1 1.1438014114837623e+01 6.4903160077884536e-01 1.0263980853026512e+01 0 0 0
3357 1 6.8347899291416176e+00 3.1135935889124927e-01 6.3834727474253912e+00 1 0 0
3734 1 9.3234396167714220e+00 5.0191070241823539e+00 1.2500787393868309e+01 1 0 0
1962 1 1.5304931897869112e+00 5.2225117554772149e+00 6.7902087974280834e+00 0 1 0
3851 1 7.8552104741672455e+00 2.3712237808802317e+00 5.0505374172131319e+00 0 0 0
3643 1 7.5468531493812572e+00 4.6518854981912234e+00 6.4876322300241185e+00 0 1 1
266 1 5.6688645171724446e+00 1.6029001587681460e+01 3.5057475082732616e+00 0 0 0
5186 1 2.5211660632492556e+00 2.5493129620020922e+00 5.9633935121513861e+00 1 1 1
5395 1 8.6618162896024753e-01 1.7177701231250637e+00 2.7749596695480832e+00 0 0 0
1789 1 3.7373341074968192e+00 6.5909813707507938e+00 6.2803692191476541e+00 1 0 0
220 1 5.5265125895753116e+00 1.5791298196231716e+01 1.0946091359320418e+01 0 0 0
6708 1 7.6079718911832321e+00 6.1370016108724919e+00 4.2752122890308986e+00 1 0 1
5331 1 5.1241582702418187e+00 4.8570662735251435e+00 7.5626904867878721e+00 0 1 0
4831 1 1.0324686230571860e+01 8.7131526748456611e+00 1.1729488182113366e+01 1 0 1
6527 1 9.1172330340536316e+00 6.5005523711536792e+00 8.0985114032376018e+00 1 0 1
3137 1 2.7677355116435960e+00 1.0146093038670024e+01 3.9443454882703106e+00 0 0 1
3405 1 1.5242944664427085e+00 1.3232502344501583e+01 8.6759549336729052e+00 1 0 0
5581 1 3.7953905611394902e+00 9.2673140954421740e+00 6.2088456300379171e+00 0 0 0
4672 1 4.4300064344706600e+00 1.2104202284393528e+01 3.2465807410951517e+00 1 0 1
1355 1 6.3597320383836280e+00 1.0002941045152294e+01 7.3111224631272655e+00 0 0 1
1548 1 8.2826679720765721e+00 8.8080021014743313e+00 6.0510265991250796e+00 1 0 1
3872 1 1.0103129150432705e+01 1.0899209397566601e+01 5.9522808038179882e+00 1 0 1
3777 1 9.5951084950365075e+00 3.6546140145913291e+00 1.5505957133269170e+00 0 1 0
2196 1 4.4754019778133474e+00 1.3227966848647835e+01 1.0183834952375561e+01 1 0 0
3380 1 6.4859648675206421e+00 1.2756599654977100e+01 7.3468814812549201e+00 0 0 0
13 1 3.6903832831454761e+00 1.4621534113392634e+01 4.7169348292657851e+00 0 -1 0
4735 1 4.1614899849302871e+00 1.4762893964029503e+01 7.4135066212424601e+00 0 0 1
5320 1 8.5136127512348150e+00 1.3975914705178853e+01 9.4034982923784742e+00 -1 1 0
38 1 1.0407623327729533e+01 1.3490167755624267e+01 5.2012622880674471e+00 0 0 0
507 1 7.5739738899730193e+00 1.4301293141787651e+01 5.2552831916639313e+00 1 1 1
1695 1 1.7850676128889020e+00 2.3852217305708829e+00 1.0216837128574202e+01 0 1 0
123 1 3.7246697908162023e+00 2.7678502131232996e+00 8.2338784797546882e+00 0 0 0
3213 1 7.3180153664409993e+00 2.0911836621330173e+00 1.0123430622390570e+01 0 1 1
5385 1 9.5008514787103806e+00 1.7832241109044180e+00 8.7801677509384017e+00 0 1 0
3692 1 1.0807698462172365e+01 4.2640089714069722e+00 8.6945567838947113e+00 1 0 0
3291 1 1.1824478863479163e+01 1.0588684676692676e+01 8.0084551556901467e+00 0 1 0
4739 1 1.0953240360383607e+01 1.5520585855113806e+01 7.3428955715360535e+00 0 0 1
176 1 1.8158929019585466e+00 1.0524774078559284e+01 7.9023342114157646e+00 0 0 0
6635 1 1.7749012009419627e+00 5.6596750572402836e+00 9.9999234083197415e+00 1 1 1
1541 1 7.8720227652091452e+00 7.0598630438596821e+00 1.0231194049296610e+01 0 0 1
2138 1 1.0190435446597258e+01 9.0225308156367567e-01 2.4435869955993401e+00 1 1 1
499 1 5.5237576976318437e+00 5.9497936789762811e+00 9.9429428610788619e+00 0 0 0
2148 1 3.6735976431628790e+00 7.3007917767634112e+00 1.1380481832401140e+01 0 0 0
3390 1 3.6544972792077166e+00 9.8629899400952414e+00 1.0232713403800952e+01 -1 0 1
463 1 6.7887851314302088e+00 3.9834926197907583e+00 1.1909013668665247e+01 0 1 0
3320 1 6.4863622250286745e+00 9.3659449510891886e+00 9.9979173275634423e+00 1 0 1
489 1 8.8434674046442243e+00 1.0830825076674889e+01 1.0894177485855732e+01 0 0 0
6558 1 2.6083191813846823e-01 9.5195568697748154e+00 3.3777845413832046e+00 1 0 1
1713 1 7.3250646545223850e+00 2.9233979178913461e+00 2.3966831317015176e+00 1 0 0
229 1 2.1413310379004251e+00 1.6319071609895456e+01 8.8796084953722314e+00 1 0 0
2077 1 1.0919012501581335e+01 1.1995100546874770e+01 1.0028468327060260e+01 1 0 0
161 1 1.0435711618329554e+01 1.4319330383752440e+01 2.8038195849382053e+00 0 0 0
478 1 1.1354146950987486e+01 7.9244383890511259e+00 8.0777761797141334e+00 0 0 0
1629 1 5.4366973411037405e+00 7.7860741541540390e-01 8.9196205523126011e+00 0 0 1
6457 1 8.6845936414209923e-01 1.6136395408185418e+01 1.4616917806190688e+00 0 1 1
6686 1 8.7859802093955519e+00 1.6298987729423082e+01 2.7859633329274454e+00 1 0 1
2199 1 2.2265117271952106e+00 4.3439522837989974e+00 1.2478278351765223e+01 1 1 0
3703 1 1.3792472052267510e+00 2.7342749601275789e+00 1.6265450257607029e+01 0 0 1
1815 1 2.9253375914567044e+00 1.4472388812468107e+00 1.7795877157770004e+01 0 0 0
2173 1 6.5084364643296482e+00 1.8535971397809097e+00 1.4371757372627540e+01 1 1 0
5101 1 1.5630423936714031e+00 7.4968134137630020e+00 2.0328613643937871e+01 1 1 0
337 1 1.1944195391730357e+01 8.1216235179948040e+00 2.3087783272856186e+01 0 0 0
1443 1 7.5068821602079394e+00 8.7222551341708832e-01 1.6689400244658522e+01 0 0 1
6428 1 1.0481510344980093e+01 2.0634842888134730e+00 1.4141039205348561e+01 0 -1 1
2195 1 7.6990248129443861e+00 7.6960018845248950e+00 2.3089443819079769e+01 0 1 0
277 1 1.1844587617999485e+01 1.0459510217115367e+01 1.3197363756817595e+01 0 0 0
2146 1 4.4126405984044235e+00 4.2224597889868987e+00 2.3969847801201439e+01 0 1 0
1887 1 4.2879352060128593e+00 4.1526136541159939e+00 1.4078675578918189e+01 1 0 0
205 1 8.0542160554574203e+00 4.5386384416355678e+00 1.7292426298722745e+01 1 0 1
5553 1 3.7311130596258830e+00 7.0822470619458029e+00 1.3959857646236312e+01 1 1 0
6665 1 1.0290528908581567e+01 4.4717456571285537e+00 1.5566111479534738e+01 0 1 0
5634 1 6.0247278511564095e-01 1.6293297923337406e+01 2.1335605854039120e+01 1 0 0
242 1 1.9861353613160955e+00 9.1062657139415002e+00 1.4851681657618732e+01 0 0 0
5642 1 1.1132821004322606e+01 8.9914246029177899e-02 1.7599188531308513e+01 0 1 0
108 1 5.8168074319517107e+00 1.1210704217928994e+01 1.4024625809619225e+01 0 1 1
5226 1 6.0505512099007150e+00 8.6140880604761687e+00 1.4071258329645762e+01 0 1 1
1670 1 1.0088122195893595e+01 7.2302518274828502e+00 1.5199571937392028e+01 0 0 0
1960 1 6.5300924573157220e+00 1.6311437513337388e+01 1.5013204101067370e+01 0 0 0
5341 1 9.1726625583661079e+00 8.4805512816506408e+00 1.7709966314043125e+01 1 0 0
1955 1 8.4393670630349487e+00 1.0301640624127652e+01 2.3431318702867699e+01 0 0 0
5251 1 3.7100594815824378e-01 1.0200899464577128e+01 1.2937874769355837e+01 -1 -1 0
1632 1 2.7231696783676647e+00 1.3877523594501053e+01 1.3491257502391626e+01 0 0 1
1954 1 4.5056311386684760e+00 1.5987293446771639e+01 1.3074218071667492e+01 0 1 0
2089 1 4.5701538914955293e+00 1.5160313834768102e+01 1.6846081950228513e+01 0 0 0
11 1 1.8137437705350608e+00 7.3746342338497617e-01 2.3960515089411462e+01 0 1 0
1818 1 8.1939911994820243e+00 1.2782331079899844e+01 1.3127179295483032e+01 0 0 0
5221 1 1.1685212779072627e+01 1.2198123060704315e+01 1.9335004063811262e+01 0 1 0
69 1 1.7679999512721010e+00 5.1964998280867167e+00 1.6060521469877660e+01 0 1 1
3583 1 8.1762436154533571e+00 1.9638099952310073e+00 2.3323403707059239e+01 0 0 0
257 1 3.7955497349765341e+00 1.0740941589914959e+01 2.3454234263483489e+01 0 0 0
4829 1 6.4179506312095436e+00 1.2925908237986082e+01 1.6480742777175614e+01 0 1 1
202 1 5.3914035287289481e+00 4.2194481967809825e+00 1.6713421862446431e+01 0 0 1
5324 1 6.6210773079801291e+00 1.5390891904390116e+00 2.0655989493575703e+01 0 0 1
5401 1 1.2023638938647744e+01 3.1750874972907783e+00 2.3751807799363629e+01 0 1 0
3922 1 4.1931195483683172e+00 6.4758317130554950e+00 1.7250047954545202e+01 0 0 1
1731 1 4.0171557084989038e+00 6.0902054934865184e+00 1.9980675963256921e+01 0 1 0
430 1 3.0822495545088174e-01 7.2794626671392670e+00 2.2952049797005447e+01 0 0 0
458 1 1.1524111221486587e+01 7.4641738689054034e+00 1.8966640476258263e+01 0 1 0
3877 1 9.6222895706448242e+00 6.2609142589797671e+00 2.2930057745820367e+01 0 0 0
2068 1 2.2069526884727257e+00 1.1003540905324225e+01 1.7003402840423139e+01 0 0 0
2066 1 6.1997065752321321e+00 8.4314396121182114e+00 1.6788965653352079e+01 1 0 0
5240 1 7.6237737891551638e-01 1.0116027629338141e+01 1.9546672490350819e+01 0 0 0
149 1 8.2107601196785254e+00 6.2694440114860113e+00 1.9208672493579805e+01 1 1 0
28 1 7.1604077088037066e+00 1.1757944622152028e+01 2.1161493827721870e+01 0 0 0
3830 1 5.0280017220343227e+00 1.0812825237610923e+01 1.7454879834376371e+01 0 0 0
5234 1 2.0548440483969470e+00 1.3776940864014755e+01 1.6334276762988921e+01 1 1 0
2018 1 3.3205090311305332e+00 1.4638870478833333e+01 2.3170614057230647e+01 1 0 0
4670 1 6.8887254269347391e+00 1.4608383894158615e+01 2.1147416941744300e+01 0 0 0
5231 1 3.0920544833014740e+00 1.1808448891207505e+01 2.0087712882679376e+01 1 0 0
5444 1 8.6044632110684329e+00 1.1077336165812120e+01 1.8667537995151179e+01 0 1 0
3627 1 9.4082112586521056e+00 1.3013693598377111e+01 1.7052464711487723e+01 0 1 0
4963 1 1.1887233161679184e+01 1.4903295903590589e+01 1.4617071227240045e+01 0 0 0
1851 1 4.9064226315425730e+00 2.6432799143570511e+00 1.8972531396670341e+01 0 1 0
502 1 4.0446694984838691e+00 5.2879497945591358e-01 1.3882949176527323e+01 0 1 0
97 1 3.5808286473419768e+00 3.5440812727802462e+00 2.1315726898171082e+01 0 0 1
119 1 1.1618851705324529e+01 1.0940812283668532e+01 2.3250786537799588e+01 0 0 0
2047 1 3.4423715232539984e+00 1.1363255671447259e+01 1.2687656610713949e+01 1 1 0
2980 1 8.2740448644304774e+00 1.5866793272998184e+01 2.3910742431638258e+01 0 1 0
2087 1 2.8228084963413149e+00 1.4459826485600372e+01 2.0731335449756216e+01 -1 0 1
5482 1 1.0915066701341273e+01 2.8683324328361626e+00 2.1227739189742771e+01 0 0 0
1857 1 6.1617698407178905e+00 7.6526313007444386e+00 2.0610426853972587e+01 1 -1 0
3044 1 1.0298857815210447e+01 1.2506955950132999e+01 1.4485601010383714e+01 0 0 1
5352 1 1.0523038828021260e+01 5.5275021736437484e+00 2.0741797079480410e+01 0 0 0
2202 1 1.1393729921918272e+00 1.6625923014440387e+00 1.3826394892720545e+01 0 1 0
5047 1 8.8629421369065078e+00 2.3676215012266542e+00 1.8861597526103917e+01 1 1 1
3620 1 1.3772482640205774e+00 2.0951181484227543e+00 2.1488446734841919e+01 0 0 0
4862 1 8.8360910327953448e+00 1.5757945474126744e+01 1.7143296178918533e+01 1 0 1
3433 1 1.0297391605298728e+01 1.5271278667401315e+01 2.2333052784813017e+01 0 0 1
1760 1 8.4113338307156731e+00 7.5977994433531144e+00 1.3396512563012264e+01 0 1 0
3438 1 5.0044948953774480e+00 1.0227359932169739e+01 2.0865617637196646e+01 0 0 0
3243 1 1.0098889590647754e+01 1.2872550287033597e+01 2.1380726391776591e+01 0 1 0
3744 1 5.9293347679831188e+00 1.4144560837818911e+01 2.3988176959578553e+01 1 0 1
193 1 5.4511986902499068e+00 1.8584151593303859e+00 2.3835419836895262e+01 0 0 0
453 1 3.0818554483038847e+00 8.1889366939497279e+00 2.3774560732150874e+01 0 0 0
137 1 1.5121544532608699e+00 1.0183446472070318e-01 1.9643648178664023e+01 0 1 0
259 1 1.9253290162452583e+00 1.2574323731949645e+01 2.4186809798613648e+01 0 1 0
5199 1 8.2729987337511002e+00 5.5438063379451730e-01 1.2559905369213695e+01 0 1 0
2072 1 5.3586414195265935e+00 6.6543083463250818e+00 2.4152482454935097e+01 0 1 0
616 2 0.0000000000000000e+00 2.8417180249513345e+00 2.6814161152839805e+01 0 0 0
618 2 0.0000000000000000e+00 0.0000000000000000e+00 2.6814161152839805e+01 0 0 0
620 2 1.2305000000000001e+00 7.1042950623783474e-01 2.6814161152839805e+01 0 0 0
627 2 1.2305000000000001e+00 2.1312885187134998e+00 2.6814161152839805e+01 0 0 0
629 2 2.4610000000000003e+00 2.8417180249513345e+00 2.6814161152839805e+01 0 0 0
631 2 2.4610000000000003e+00 0.0000000000000000e+00 2.6814161152839805e+01 0 0 0
633 2 3.6915000000000004e+00 7.1042950623783474e-01 2.6814161152839805e+01 0 0 0
648 2 3.6914999999999996e+00 2.1312885187134998e+00 2.6814161152839805e+01 0 0 0
1056 2 9.8440000000000012e+00 1.5629449137232328e+01 3.3247838847153361e+01 0 0 0
650 2 4.9220000000000006e+00 2.8417180249513332e+00 2.6814161152839805e+01 0 0 0
652 2 4.9220000000000006e+00 0.0000000000000000e+00 2.6814161152839805e+01 0 0 0
654 2 6.1524999999999999e+00 7.1042950623783407e-01 2.6814161152839805e+01 0 0 0
677 2 6.1524999999999999e+00 2.1312885187134989e+00 2.6814161152839805e+01 0 0 0
679 2 7.3829999999999991e+00 2.8417180249513345e+00 2.6814161152839805e+01 0 0 0
681 2 7.3829999999999991e+00 0.0000000000000000e+00 2.6814161152839805e+01 0 0 0
683 2 8.6134999999999984e+00 7.1042950623783407e-01 2.6814161152839805e+01 0 0 0
714 2 8.6134999999999984e+00 2.1312885187135002e+00 2.6814161152839805e+01 0 0 0
716 2 9.8440000000000012e+00 2.8417180249513332e+00 2.6814161152839805e+01 0 0 0
718 2 9.8440000000000012e+00 0.0000000000000000e+00 2.6814161152839805e+01 0 0 0
720 2 1.1074500000000002e+01 7.1042950623783330e-01 2.6814161152839805e+01 0 0 0
759 2 1.1074500000000002e+01 2.1312885187135002e+00 2.6814161152839805e+01 0 0 0
621 2 0.0000000000000000e+00 7.1042950623783341e+00 2.6814161152839805e+01 0 0 0
623 2 0.0000000000000000e+00 4.2625770374269996e+00 2.6814161152839805e+01 0 0 0
625 2 1.2305000000000001e+00 4.9730065436648339e+00 2.6814161152839805e+01 0 0 0
640 2 1.2305000000000001e+00 6.3938655561404980e+00 2.6814161152839805e+01 0 0 0
642 2 2.4610000000000003e+00 7.1042950623783341e+00 2.6814161152839805e+01 0 0 0
644 2 2.4610000000000003e+00 4.2625770374269996e+00 2.6814161152839805e+01 0 0 0
646 2 3.6914999999999996e+00 4.9730065436648339e+00 2.6814161152839805e+01 0 0 0
669 2 3.6914999999999996e+00 6.3938655561404980e+00 2.6814161152839805e+01 0 0 0
671 2 4.9220000000000006e+00 7.1042950623783341e+00 2.6814161152839805e+01 0 0 0
673 2 4.9220000000000006e+00 4.2625770374269978e+00 2.6814161152839805e+01 0 0 0
675 2 6.1524999999999999e+00 4.9730065436648339e+00 2.6814161152839805e+01 0 0 0
706 2 6.1524999999999999e+00 6.3938655561404980e+00 2.6814161152839805e+01 0 0 0
708 2 7.3830000000000009e+00 7.1042950623783341e+00 2.6814161152839805e+01 0 0 0
710 2 7.3829999999999991e+00 4.2625770374269996e+00 2.6814161152839805e+01 0 0 0
712 2 8.6135000000000002e+00 4.9730065436648339e+00 2.6814161152839805e+01 0 0 0
751 2 8.6135000000000002e+00 6.3938655561404980e+00 2.6814161152839805e+01 0 0 0
753 2 9.8440000000000012e+00 7.1042950623783341e+00 2.6814161152839805e+01 0 0 0
755 2 9.8440000000000012e+00 4.2625770374270004e+00 2.6814161152839805e+01 0 0 0
757 2 1.1074500000000002e+01 4.9730065436648339e+00 2.6814161152839805e+01 0 0 0
798 2 1.1074500000000002e+01 6.3938655561404980e+00 2.6814161152839805e+01 0 0 0
5363 1 9.7882833415422397e+00 4.3879635022310444e+00 2.4418541363538537e+01 0 0 0
634 2 0.0000000000000000e+00 1.1366872099805333e+01 2.6814161152839805e+01 0 0 0
636 2 0.0000000000000000e+00 8.5251540748539991e+00 2.6814161152839805e+01 0 0 0
638 2 1.2305000000000001e+00 9.2355835810918343e+00 2.6814161152839805e+01 0 0 0
661 2 1.2305000000000001e+00 1.0656442593567498e+01 2.6814161152839805e+01 0 0 0
663 2 2.4610000000000003e+00 1.1366872099805333e+01 2.6814161152839805e+01 0 0 0
665 2 2.4610000000000003e+00 8.5251540748539991e+00 2.6814161152839805e+01 0 0 0
667 2 3.6915000000000004e+00 9.2355835810918343e+00 2.6814161152839805e+01 0 0 0
698 2 3.6914999999999996e+00 1.0656442593567499e+01 2.6814161152839805e+01 0 0 0
700 2 4.9220000000000006e+00 1.1366872099805333e+01 2.6814161152839805e+01 0 0 0
702 2 4.9220000000000006e+00 8.5251540748539991e+00 2.6814161152839805e+01 0 0 0
704 2 6.1524999999999999e+00 9.2355835810918343e+00 2.6814161152839805e+01 0 0 0
743 2 6.1524999999999999e+00 1.0656442593567499e+01 2.6814161152839805e+01 0 0 0
745 2 7.3829999999999991e+00 1.1366872099805333e+01 2.6814161152839805e+01 0 0 0
747 2 7.3830000000000009e+00 8.5251540748539991e+00 2.6814161152839805e+01 0 0 0
514 1 4.9229748025700042e+00 1.2827794348569377e+01 3.5548542280643048e+01 1 0 0
749 2 8.6134999999999984e+00 9.2355835810918343e+00 2.6814161152839805e+01 0 0 0
790 2 8.6134999999999984e+00 1.0656442593567498e+01 2.6814161152839805e+01 0 0 0
792 2 9.8440000000000012e+00 1.1366872099805333e+01 2.6814161152839805e+01 0 0 0
794 2 9.8440000000000012e+00 8.5251540748539956e+00 2.6814161152839805e+01 0 0 0
796 2 1.1074500000000002e+01 9.2355835810918343e+00 2.6814161152839805e+01 0 0 0
837 2 1.1074500000000002e+01 1.0656442593567498e+01 2.6814161152839805e+01 0 0 0
839 2 1.2304999999999998e+01 1.1366872099805333e+01 2.6814161152839805e+01 0 0 0
655 2 0.0000000000000000e+00 1.5629449137232333e+01 2.6814161152839805e+01 0 0 0
657 2 0.0000000000000000e+00 1.2787731112280996e+01 2.6814161152839805e+01 0 0 0
659 2 1.2305000000000001e+00 1.3498160618518829e+01 2.6814161152839805e+01 0 0 0
690 2 1.2305000000000001e+00 1.4919019630994494e+01 2.6814161152839805e+01 0 0 0
692 2 2.4610000000000003e+00 1.5629449137232328e+01 2.6814161152839805e+01 0 0 0
694 2 2.4610000000000003e+00 1.2787731112280996e+01 2.6814161152839805e+01 0 0 0
696 2 3.6915000000000004e+00 1.3498160618518829e+01 2.6814161152839805e+01 0 0 0
735 2 3.6915000000000004e+00 1.4919019630994494e+01 2.6814161152839805e+01 0 0 0
737 2 4.9220000000000006e+00 1.5629449137232333e+01 2.6814161152839805e+01 0 0 0
739 2 4.9220000000000006e+00 1.2787731112280996e+01 2.6814161152839805e+01 0 0 0
741 2 6.1524999999999990e+00 1.3498160618518829e+01 2.6814161152839805e+01 0 0 0
782 2 6.1524999999999990e+00 1.4919019630994494e+01 2.6814161152839805e+01 0 0 0
784 2 7.3829999999999991e+00 1.5629449137232333e+01 2.6814161152839805e+01 0 0 0
786 2 7.3829999999999991e+00 1.2787731112280996e+01 2.6814161152839805e+01 0 0 0
788 2 8.6135000000000002e+00 1.3498160618518835e+01 2.6814161152839805e+01 0 0 0
829 2 8.6135000000000002e+00 1.4919019630994494e+01 2.6814161152839805e+01 0 0 0
831 2 9.8440000000000012e+00 1.5629449137232328e+01 2.6814161152839805e+01 0 0 0
833 2 9.8440000000000012e+00 1.2787731112280996e+01 2.6814161152839805e+01 0 0 0
835 2 1.1074500000000002e+01 1.3498160618518829e+01 2.6814161152839805e+01 0 0 0
871 2 1.1074500000000002e+01 1.4919019630994494e+01 2.6814161152839805e+01 0 0 0
617 2 0.0000000000000000e+00 1.4208590124756650e+00 3.0030999999998773e+01 0 0 0
619 2 0.0000000000000000e+00 0.0000000000000000e+00 3.0030999999998773e+01 0 0 0
626 2 1.2305000000000001e+00 3.5521475311891644e+00 3.0030999999998773e+01 0 0 0
628 2 1.2305000000000001e+00 2.1312885187134998e+00 3.0030999999998773e+01 0 0 0
630 2 2.4610000000000003e+00 1.4208590124756650e+00 3.0030999999998773e+01 0 0 0
632 2 2.4610000000000003e+00 0.0000000000000000e+00 3.0030999999998773e+01 0 0 0
647 2 3.6914999999999996e+00 3.5521475311891644e+00 3.0030999999998773e+01 0 0 0
649 2 3.6914999999999996e+00 2.1312885187134998e+00 3.0030999999998773e+01 0 0 0
651 2 4.9220000000000006e+00 1.4208590124756650e+00 3.0030999999998773e+01 0 0 0
653 2 4.9220000000000006e+00 0.0000000000000000e+00 3.0030999999998773e+01 0 0 0
676 2 6.1524999999999999e+00 3.5521475311891644e+00 3.0030999999998773e+01 0 0 0
678 2 6.1524999999999999e+00 2.1312885187134989e+00 3.0030999999998773e+01 0 0 0
680 2 7.3829999999999991e+00 1.4208590124756659e+00 3.0030999999998773e+01 0 0 0
682 2 7.3829999999999991e+00 0.0000000000000000e+00 3.0030999999998773e+01 0 0 0
713 2 8.6134999999999984e+00 3.5521475311891657e+00 3.0030999999998773e+01 0 0 0
715 2 8.6134999999999984e+00 2.1312885187135002e+00 3.0030999999998773e+01 0 0 0
717 2 9.8440000000000012e+00 1.4208590124756659e+00 3.0030999999998773e+01 0 0 0
719 2 9.8440000000000012e+00 0.0000000000000000e+00 3.0030999999998773e+01 0 0 0
758 2 1.1074500000000002e+01 3.5521475311891644e+00 3.0030999999998773e+01 0 0 0
760 2 1.1074500000000002e+01 2.1312885187135002e+00 3.0030999999998773e+01 0 0 0
622 2 0.0000000000000000e+00 5.6834360499026637e+00 3.0030999999998773e+01 0 0 0
624 2 0.0000000000000000e+00 4.2625770374269996e+00 3.0030999999998773e+01 0 0 0
639 2 1.2305000000000001e+00 7.8147245686161639e+00 3.0030999999998773e+01 0 0 0
641 2 1.2305000000000001e+00 6.3938655561404980e+00 3.0030999999998773e+01 0 0 0
643 2 2.4610000000000003e+00 5.6834360499026637e+00 3.0030999999998773e+01 0 0 0
645 2 2.4610000000000003e+00 4.2625770374269996e+00 3.0030999999998773e+01 0 0 0
668 2 3.6914999999999996e+00 7.8147245686161639e+00 3.0030999999998773e+01 0 0 0
670 2 3.6914999999999996e+00 6.3938655561404980e+00 3.0030999999998773e+01 0 0 0
672 2 4.9220000000000006e+00 5.6834360499026637e+00 3.0030999999998773e+01 0 0 0
674 2 4.9220000000000006e+00 4.2625770374269978e+00 3.0030999999998773e+01 0 0 0
705 2 6.1524999999999999e+00 7.8147245686161639e+00 3.0030999999998773e+01 0 0 0
707 2 6.1524999999999999e+00 6.3938655561404980e+00 3.0030999999998773e+01 0 0 0
709 2 7.3829999999999991e+00 5.6834360499026637e+00 3.0030999999998773e+01 0 0 0
711 2 7.3829999999999991e+00 4.2625770374269996e+00 3.0030999999998773e+01 0 0 0
750 2 8.6135000000000002e+00 7.8147245686161639e+00 3.0030999999998773e+01 0 0 0
752 2 8.6135000000000002e+00 6.3938655561404980e+00 3.0030999999998773e+01 0 0 0
754 2 9.8440000000000012e+00 5.6834360499026637e+00 3.0030999999998773e+01 0 0 0
756 2 9.8440000000000012e+00 4.2625770374270004e+00 3.0030999999998773e+01 0 0 0
797 2 1.1074500000000002e+01 7.8147245686161639e+00 3.0030999999998773e+01 0 0 0
799 2 1.1074500000000002e+01 6.3938655561404980e+00 3.0030999999998773e+01 0 0 0
635 2 0.0000000000000000e+00 9.9460130873296642e+00 3.0030999999998773e+01 0 0 0
637 2 0.0000000000000000e+00 8.5251540748539991e+00 3.0030999999998773e+01 0 0 0
660 2 1.2305000000000001e+00 1.2077301606043163e+01 3.0030999999998773e+01 0 0 0
662 2 1.2305000000000001e+00 1.0656442593567498e+01 3.0030999999998773e+01 0 0 0
664 2 2.4610000000000003e+00 9.9460130873296642e+00 3.0030999999998773e+01 0 0 0
666 2 2.4610000000000003e+00 8.5251540748539991e+00 3.0030999999998773e+01 0 0 0
697 2 3.6914999999999996e+00 1.2077301606043163e+01 3.0030999999998773e+01 0 0 0
699 2 3.6914999999999996e+00 1.0656442593567499e+01 3.0030999999998773e+01 0 0 0
701 2 4.9220000000000006e+00 9.9460130873296642e+00 3.0030999999998773e+01 0 0 0
703 2 4.9220000000000006e+00 8.5251540748539991e+00 3.0030999999998773e+01 0 0 0
742 2 6.1524999999999999e+00 1.2077301606043163e+01 3.0030999999998773e+01 0 0 0
744 2 6.1524999999999999e+00 1.0656442593567499e+01 3.0030999999998773e+01 0 0 0
746 2 7.3830000000000009e+00 9.9460130873296642e+00 3.0030999999998773e+01 0 0 0
748 2 7.3830000000000009e+00 8.5251540748539991e+00 3.0030999999998773e+01 0 0 0
789 2 8.6135000000000002e+00 1.2077301606043163e+01 3.0030999999998773e+01 0 0 0
791 2 8.6134999999999984e+00 1.0656442593567498e+01 3.0030999999998773e+01 0 0 0
793 2 9.8440000000000012e+00 9.9460130873296642e+00 3.0030999999998773e+01 0 0 0
795 2 9.8440000000000012e+00 8.5251540748539956e+00 3.0030999999998773e+01 0 0 0
836 2 1.1074500000000002e+01 1.2077301606043163e+01 3.0030999999998773e+01 0 0 0
838 2 1.1074500000000002e+01 1.0656442593567498e+01 3.0030999999998773e+01 0 0 0
656 2 0.0000000000000000e+00 1.4208590124756663e+01 3.0030999999998773e+01 0 0 0
658 2 0.0000000000000000e+00 1.2787731112280996e+01 3.0030999999998773e+01 0 0 0
691 2 1.2305000000000001e+00 1.4919019630994494e+01 3.0030999999998773e+01 0 0 0
693 2 2.4610000000000003e+00 1.4208590124756663e+01 3.0030999999998773e+01 0 0 0
695 2 2.4610000000000003e+00 1.2787731112280996e+01 3.0030999999998773e+01 0 0 0
736 2 3.6915000000000004e+00 1.4919019630994494e+01 3.0030999999998773e+01 0 0 0
738 2 4.9220000000000006e+00 1.4208590124756663e+01 3.0030999999998773e+01 0 0 0
740 2 4.9220000000000006e+00 1.2787731112280996e+01 3.0030999999998773e+01 0 0 0
783 2 6.1524999999999990e+00 1.4919019630994494e+01 3.0030999999998773e+01 0 0 0
785 2 7.3830000000000009e+00 1.4208590124756663e+01 3.0030999999998773e+01 0 0 0
787 2 7.3829999999999991e+00 1.2787731112280996e+01 3.0030999999998773e+01 0 0 0
874 2 1.2304999999999998e+01 1.4208590124756658e+01 3.0030999999998773e+01 0 0 0
834 2 9.8440000000000012e+00 1.2787731112280996e+01 3.0030999999998773e+01 0 0 0
832 2 9.8440000000000012e+00 1.4208590124756663e+01 3.0030999999998773e+01 0 0 0
872 2 1.1074500000000002e+01 1.4919019630994494e+01 3.0030999999998773e+01 0 0 0
870 2 1.1074500000000002e+01 1.6339878643470161e+01 3.0030999999998773e+01 0 0 0
830 2 8.6135000000000002e+00 1.4919019630994494e+01 3.0030999999998773e+01 0 0 0
1058 2 1.1074500000000002e+01 1.3498160618518829e+01 3.3247838847153361e+01 0 0 0
945 2 0.0000000000000000e+00 2.8417180249513345e+00 3.3247838847153361e+01 0 0 0
946 2 0.0000000000000000e+00 0.0000000000000000e+00 3.3247838847153361e+01 0 0 0
947 2 1.2305000000000001e+00 7.1042950623783474e-01 3.3247838847153361e+01 0 0 0
951 2 1.2305000000000001e+00 2.1312885187134998e+00 3.3247838847153361e+01 0 0 0
952 2 2.4610000000000003e+00 2.8417180249513345e+00 3.3247838847153361e+01 0 0 0
953 2 2.4610000000000003e+00 0.0000000000000000e+00 3.3247838847153361e+01 0 0 0
954 2 3.6915000000000004e+00 7.1042950623783474e-01 3.3247838847153361e+01 0 0 0
962 2 3.6914999999999996e+00 2.1312885187134998e+00 3.3247838847153361e+01 0 0 0
963 2 4.9220000000000006e+00 2.8417180249513332e+00 3.3247838847153361e+01 0 0 0
964 2 4.9220000000000006e+00 0.0000000000000000e+00 3.3247838847153361e+01 0 0 0
965 2 6.1524999999999999e+00 7.1042950623783407e-01 3.3247838847153361e+01 0 0 0
977 2 6.1524999999999999e+00 2.1312885187134989e+00 3.3247838847153361e+01 0 0 0
978 2 7.3829999999999991e+00 2.8417180249513345e+00 3.3247838847153361e+01 0 0 0
979 2 7.3829999999999991e+00 0.0000000000000000e+00 3.3247838847153361e+01 0 0 0
980 2 8.6134999999999984e+00 7.1042950623783407e-01 3.3247838847153361e+01 0 0 0
996 2 8.6134999999999984e+00 2.1312885187135002e+00 3.3247838847153361e+01 0 0 0
997 2 9.8440000000000012e+00 2.8417180249513332e+00 3.3247838847153361e+01 0 0 0
998 2 9.8440000000000012e+00 0.0000000000000000e+00 3.3247838847153361e+01 0 0 0
999 2 1.1074500000000002e+01 7.1042950623783330e-01 3.3247838847153361e+01 0 0 0
1019 2 1.1074500000000002e+01 2.1312885187135002e+00 3.3247838847153361e+01 0 0 0
1033 2 7.3829999999999991e+00 1.2787731112280996e+01 3.3247838847153361e+01 0 0 0
948 2 0.0000000000000000e+00 7.1042950623783341e+00 3.3247838847153361e+01 0 0 0
949 2 0.0000000000000000e+00 4.2625770374269996e+00 3.3247838847153361e+01 0 0 0
950 2 1.2305000000000001e+00 4.9730065436648339e+00 3.3247838847153361e+01 0 0 0
958 2 1.2305000000000001e+00 6.3938655561404980e+00 3.3247838847153361e+01 0 0 0
959 2 2.4610000000000003e+00 7.1042950623783341e+00 3.3247838847153361e+01 0 0 0
960 2 2.4610000000000003e+00 4.2625770374269996e+00 3.3247838847153361e+01 0 0 0
961 2 3.6914999999999996e+00 4.9730065436648339e+00 3.3247838847153361e+01 0 0 0
973 2 3.6914999999999996e+00 6.3938655561404980e+00 3.3247838847153361e+01 0 0 0
974 2 4.9220000000000006e+00 7.1042950623783341e+00 3.3247838847153361e+01 0 0 0
975 2 4.9220000000000006e+00 4.2625770374269978e+00 3.3247838847153361e+01 0 0 0
976 2 6.1524999999999999e+00 4.9730065436648339e+00 3.3247838847153361e+01 0 0 0
992 2 6.1524999999999999e+00 6.3938655561404980e+00 3.3247838847153361e+01 0 0 0
993 2 7.3830000000000009e+00 7.1042950623783341e+00 3.3247838847153361e+01 0 0 0
994 2 7.3829999999999991e+00 4.2625770374269996e+00 3.3247838847153361e+01 0 0 0
995 2 8.6135000000000002e+00 4.9730065436648339e+00 3.3247838847153361e+01 0 0 0
1015 2 8.6135000000000002e+00 6.3938655561404980e+00 3.3247838847153361e+01 0 0 0
1016 2 9.8440000000000012e+00 7.1042950623783341e+00 3.3247838847153361e+01 0 0 0
1017 2 9.8440000000000012e+00 4.2625770374270004e+00 3.3247838847153361e+01 0 0 0
1018 2 1.1074500000000002e+01 4.9730065436648339e+00 3.3247838847153361e+01 0 0 0
1039 2 1.1074500000000002e+01 6.3938655561404980e+00 3.3247838847153361e+01 0 0 0
1034 2 8.6135000000000002e+00 1.3498160618518835e+01 3.3247838847153361e+01 0 0 0
1057 2 9.8440000000000012e+00 1.2787731112280996e+01 3.3247838847153361e+01 0 0 0
955 2 0.0000000000000000e+00 1.1366872099805333e+01 3.3247838847153361e+01 0 0 0
956 2 0.0000000000000000e+00 8.5251540748539991e+00 3.3247838847153361e+01 0 0 0
957 2 1.2305000000000001e+00 9.2355835810918343e+00 3.3247838847153361e+01 0 0 0