LAMMPS data file via write_data, version 16 Mar 2018, timestep = 8000000

4063 atoms
2 atom types

0.0000000000000000e+00 4.9219999999999999e+01 xlo xhi
0.0000000000000000e+00 4.9019635930410494e+01 ylo yhi
1.0769689960998772e+00 2.6863031003897344e+01 zlo zhi

Masses

1 18.015
2 12.01

Atoms # atomic

53 2 0.0000000000000000e+00 2.8417180249513345e+00 2.6853215582740102e+00 0 0 0
55 2 0.0000000000000000e+00 0.0000000000000000e+00 2.6853215582740102e+00 0 0 0
57 2 1.2305000000000001e+00 7.1042950623783474e-01 2.6853215582740102e+00 0 0 0
64 2 1.2305000000000001e+00 2.1312885187134998e+00 2.6853215582740102e+00 0 0 0
66 2 2.4610000000000003e+00 2.8417180249513345e+00 2.6853215582740102e+00 0 0 0
68 2 2.4610000000000003e+00 0.0000000000000000e+00 2.6853215582740102e+00 0 0 0
70 2 3.6915000000000004e+00 7.1042950623783474e-01 2.6853215582740102e+00 0 0 0
85 2 3.6914999999999996e+00 2.1312885187134998e+00 2.6853215582740102e+00 0 0 0
87 2 4.9220000000000006e+00 2.8417180249513332e+00 2.6853215582740102e+00 0 0 0
89 2 4.9220000000000006e+00 0.0000000000000000e+00 2.6853215582740102e+00 0 0 0
60 2 0.0000000000000000e+00 4.2625770374269996e+00 2.6853215582740102e+00 0 0 0
81 2 2.4610000000000003e+00 4.2625770374269996e+00 2.6853215582740102e+00 0 0 0
110 2 4.9220000000000006e+00 4.2625770374269978e+00 2.6853215582740102e+00 0 0 0
62 2 1.2305000000000001e+00 4.9730065436648339e+00 2.6853215582740102e+00 0 0 0
77 2 1.2305000000000001e+00 6.3938655561404980e+00 2.6853215582740102e+00 0 0 0
83 2 3.6914999999999996e+00 4.9730065436648339e+00 2.6853215582740102e+00 0 0 0
106 2 3.6914999999999996e+00 6.3938655561404980e+00 2.6853215582740102e+00 0 0 0
58 2 0.0000000000000000e+00 7.1042950623783341e+00 2.6853215582740102e+00 0 0 0
73 2 0.0000000000000000e+00 8.5251540748539991e+00 2.6853215582740102e+00 0 0 0
75 2 1.2305000000000001e+00 9.2355835810918343e+00 2.6853215582740102e+00 0 0 0
79 2 2.4610000000000003e+00 7.1042950623783341e+00 2.6853215582740102e+00 0 0 0
102 2 2.4610000000000003e+00 8.5251540748539991e+00 2.6853215582740102e+00 0 0 0
104 2 3.6915000000000004e+00 9.2355835810918343e+00 2.6853215582740102e+00 0 0 0
108 2 4.9220000000000006e+00 7.1042950623783341e+00 2.6853215582740102e+00 0 0 0
139 2 4.9220000000000006e+00 8.5251540748539991e+00 2.6853215582740102e+00 0 0 0
54 2 0.0000000000000000e+00 1.4208590124756650e+00 5.7642129186865256e+00 0 0 0
56 2 0.0000000000000000e+00 0.0000000000000000e+00 5.7642129186865256e+00 0 0 0
65 2 1.2305000000000001e+00 2.1312885187134998e+00 5.7642129186865256e+00 0 0 0
67 2 2.4610000000000003e+00 1.4208590124756650e+00 5.7642129186865256e+00 0 0 0
69 2 2.4610000000000003e+00 0.0000000000000000e+00 5.7642129186865256e+00 0 0 0
86 2 3.6914999999999996e+00 2.1312885187134998e+00 5.7642129186865256e+00 0 0 0
382 2 0.0000000000000000e+00 2.8417180249513345e+00 8.8431042791023096e+00 0 0 0
383 2 0.0000000000000000e+00 0.0000000000000000e+00 8.8431042791023096e+00 0 0 0
384 2 1.2305000000000001e+00 7.1042950623783474e-01 8.8431042791023096e+00 0 0 0
388 2 1.2305000000000001e+00 2.1312885187134998e+00 8.8431042791023096e+00 0 0 0
389 2 2.4610000000000003e+00 2.8417180249513345e+00 8.8431042791023096e+00 0 0 0
390 2 2.4610000000000003e+00 0.0000000000000000e+00 8.8431042791023096e+00 0 0 0
391 2 3.6915000000000004e+00 7.1042950623783474e-01 8.8431042791023096e+00 0 0 0
399 2 3.6914999999999996e+00 2.1312885187134998e+00 8.8431042791023096e+00 0 0 0
88 2 4.9220000000000006e+00 1.4208590124756650e+00 5.7642129186865256e+00 0 0 0
90 2 4.9220000000000006e+00 0.0000000000000000e+00 5.7642129186865256e+00 0 0 0
400 2 4.9220000000000006e+00 2.8417180249513332e+00 8.8431042791023096e+00 0 0 0
401 2 4.9220000000000006e+00 0.0000000000000000e+00 8.8431042791023096e+00 0 0 0
61 2 0.0000000000000000e+00 4.2625770374269996e+00 5.7642129186865256e+00 0 0 0
63 2 1.2305000000000001e+00 3.5521475311891644e+00 5.7642129186865256e+00 0 0 0
82 2 2.4610000000000003e+00 4.2625770374269996e+00 5.7642129186865256e+00 0 0 0
84 2 3.6914999999999996e+00 3.5521475311891644e+00 5.7642129186865256e+00 0 0 0
386 2 0.0000000000000000e+00 4.2625770374269996e+00 8.8431042791023096e+00 0 0 0
397 2 2.4610000000000003e+00 4.2625770374269996e+00 8.8431042791023096e+00 0 0 0
111 2 4.9220000000000006e+00 4.2625770374269978e+00 5.7642129186865256e+00 0 0 0
412 2 4.9220000000000006e+00 4.2625770374269978e+00 8.8431042791023096e+00 0 0 0
59 2 0.0000000000000000e+00 5.6834360499026637e+00 5.7642129186865256e+00 0 0 0
78 2 1.2305000000000001e+00 6.3938655561404980e+00 5.7642129186865256e+00 0 0 0
80 2 2.4610000000000003e+00 5.6834360499026637e+00 5.7642129186865256e+00 0 0 0
107 2 3.6914999999999996e+00 6.3938655561404980e+00 5.7642129186865256e+00 0 0 0
387 2 1.2305000000000001e+00 4.9730065436648339e+00 8.8431042791023096e+00 0 0 0
395 2 1.2305000000000001e+00 6.3938655561404980e+00 8.8431042791023096e+00 0 0 0
398 2 3.6914999999999996e+00 4.9730065436648339e+00 8.8431042791023096e+00 0 0 0
410 2 3.6914999999999996e+00 6.3938655561404980e+00 8.8431042791023096e+00 0 0 0
109 2 4.9220000000000006e+00 5.6834360499026637e+00 5.7642129186865256e+00 0 0 0
74 2 0.0000000000000000e+00 8.5251540748539991e+00 5.7642129186865256e+00 0 0 0
76 2 1.2305000000000001e+00 7.8147245686161639e+00 5.7642129186865256e+00 0 0 0
103 2 2.4610000000000003e+00 8.5251540748539991e+00 5.7642129186865256e+00 0 0 0
105 2 3.6914999999999996e+00 7.8147245686161639e+00 5.7642129186865256e+00 0 0 0
385 2 0.0000000000000000e+00 7.1042950623783341e+00 8.8431042791023096e+00 0 0 0
393 2 0.0000000000000000e+00 8.5251540748539991e+00 8.8431042791023096e+00 0 0 0
394 2 1.2305000000000001e+00 9.2355835810918343e+00 8.8431042791023096e+00 0 0 0
396 2 2.4610000000000003e+00 7.1042950623783341e+00 8.8431042791023096e+00 0 0 0
408 2 2.4610000000000003e+00 8.5251540748539991e+00 8.8431042791023096e+00 0 0 0
409 2 3.6915000000000004e+00 9.2355835810918343e+00 8.8431042791023096e+00 0 0 0
140 2 4.9220000000000006e+00 8.5251540748539991e+00 5.7642129186865256e+00 0 0 0
411 2 4.9220000000000006e+00 7.1042950623783341e+00 8.8431042791023096e+00 0 0 0
427 2 4.9220000000000006e+00 8.5251540748539991e+00 8.8431042791023096e+00 0 0 0
2626 1 2.0234562246436218e+00 1.6665270687323057e+00 1.1177309330565194e+01 -2 0 0
574 1 4.2315661945363727e+00 3.0294942629676926e+00 1.1879646210638251e+01 1 2 0
28 1 4.6551870891486038e+00 5.7347158320640492e+00 1.1300897838779976e+01 0 -4 0
2029 1 2.5350924670390120e+00 7.2791294998155793e+00 1.1757092639891038e+01 1 -3 0
3284 1 1.9450401081920331e-02 5.8038680523787303e+00 1.1534125138674275e+01 2 2 -1
2751 1 2.3395075825396638e+00 1.4463939978938669e+00 1.5299178583736850e+01 0 2 0
2614 1 4.4660229870428241e+00 3.1492134303813053e+00 1.4467419835791695e+01 -1 1 0
1929 1 2.2671380123708542e+00 1.3352579240450373e+00 1.8208066657941892e+01 1 -3 -1
3325 1 9.9095997354482920e-02 5.7188441766807623e+00 1.5021129157716505e+01 1 1 0
2077 1 4.7052073868015691e+00 5.9415113571053739e+00 1.5084338993827421e+01 1 -2 -1
1952 1 2.1864088184952606e+00 7.1868514979349412e+00 1.4413091127497841e+01 -2 0 0
3422 1 1.9008812724986540e-01 5.4747582732909228e+00 2.2457846467793303e+01 1 2 0
1977 1 2.3195197164175210e+00 1.6234431646903551e+00 2.2766366891575586e+01 0 -4 0
1955 1 2.8095296315638896e+00 9.4243081866927803e+00 2.2819286217344981e+01 -2 -4 -1
1319 1 4.4595736877101757e+00 3.0193677127930520e+00 1.8793111776997115e+01 0 0 -1
4015 1 4.3994107942820957e+00 2.7778236928628650e+00 2.1393304655193475e+01 0 3 0
1372 1 2.7297735198667015e+00 7.0362079220207914e+00 2.6181342071064321e+01 -1 0 0
3421 1 4.7635506002943169e+00 5.5594756764799271e+00 2.5167843824659485e+01 -3 1 1
4059 1 4.8953670082714957e+00 5.6421054795661991e+00 1.7920945539597852e+01 3 -1 0
2767 1 2.5009225812983376e+00 6.9388179552305056e+00 2.1776369694517484e+01 1 -4 0
2585 1 2.6379095456391535e+00 7.2919113261183011e+00 1.8798338326445865e+01 -4 -2 -1
3251 1 4.5603493833172362e+00 5.3159995270550127e+00 2.2210664372745377e+01 -1 0 0
2618 1 2.4734338084835725e+00 1.7863956308469118e+00 2.5655519578614282e+01 -3 3 -1
1307 1 5.0743357955804038e+00 2.9523552742853023e+00 2.5917916854673372e+01 2 3 -1
2778 1 3.4199569880511443e-01 5.7232507814546176e+00 1.7865765360902643e+01 0 2 0
3896 1 3.2471232653475501e-01 3.1020718869876074e+00 1.8823863929757536e+01 3 1 0
1944 1 1.1392636560323872e-02 2.6912497678878364e+00 2.1384487588611258e+01 -3 4 0
2575 1 4.0251017698075314e-01 5.7881591235794625e+00 2.5278984532165047e+01 2 1 0
71 2 0.0000000000000000e+00 1.1366872099805333e+01 2.6853215582740102e+00 0 0 0
94 2 0.0000000000000000e+00 1.2787731112280996e+01 2.6853215582740102e+00 0 0 0
96 2 1.2305000000000001e+00 1.3498160618518829e+01 2.6853215582740102e+00 0 0 0
98 2 1.2305000000000001e+00 1.0656442593567498e+01 2.6853215582740102e+00 0 0 0
100 2 2.4610000000000003e+00 1.1366872099805333e+01 2.6853215582740102e+00 0 0 0
131 2 2.4610000000000003e+00 1.2787731112280996e+01 2.6853215582740102e+00 0 0 0
133 2 3.6915000000000004e+00 1.3498160618518829e+01 2.6853215582740102e+00 0 0 0
135 2 3.6914999999999996e+00 1.0656442593567499e+01 2.6853215582740102e+00 0 0 0
137 2 4.9220000000000006e+00 1.1366872099805333e+01 2.6853215582740102e+00 0 0 0
176 2 4.9220000000000006e+00 1.2787731112280996e+01 2.6853215582740102e+00 0 0 0
178 2 6.1524999999999990e+00 1.3498160618518829e+01 2.6853215582740102e+00 0 0 0
92 2 0.0000000000000000e+00 1.5629449137232333e+01 2.6853215582740102e+00 0 0 0
123 2 0.0000000000000000e+00 1.7050308149707998e+01 2.6853215582740102e+00 0 0 0
127 2 1.2305000000000001e+00 1.4919019630994494e+01 2.6853215582740102e+00 0 0 0
129 2 2.4610000000000003e+00 1.5629449137232328e+01 2.6853215582740102e+00 0 0 0
168 2 2.4610000000000003e+00 1.7050308149707998e+01 2.6853215582740102e+00 0 0 0
172 2 3.6915000000000004e+00 1.4919019630994494e+01 2.6853215582740102e+00 0 0 0
174 2 4.9220000000000006e+00 1.5629449137232333e+01 2.6853215582740102e+00 0 0 0
215 2 4.9220000000000006e+00 1.7050308149707998e+01 2.6853215582740102e+00 0 0 0
219 2 6.1524999999999990e+00 1.4919019630994494e+01 2.6853215582740102e+00 0 0 0
125 2 1.2305000000000001e+00 1.7760737655945832e+01 2.6853215582740102e+00 0 0 0
164 2 1.2305000000000001e+00 1.9181596668421495e+01 2.6853215582740102e+00 0 0 0
170 2 3.6914999999999996e+00 1.7760737655945832e+01 2.6853215582740102e+00 0 0 0
211 2 3.6914999999999996e+00 1.9181596668421495e+01 2.6853215582740102e+00 0 0 0
72 2 0.0000000000000000e+00 9.9460130873296642e+00 5.7642129186865256e+00 0 0 0
101 2 2.4610000000000003e+00 9.9460130873296642e+00 5.7642129186865256e+00 0 0 0
138 2 4.9220000000000006e+00 9.9460130873296642e+00 5.7642129186865256e+00 0 0 0
95 2 0.0000000000000000e+00 1.2787731112280996e+01 5.7642129186865256e+00 0 0 0
97 2 1.2305000000000001e+00 1.2077301606043163e+01 5.7642129186865256e+00 0 0 0
99 2 1.2305000000000001e+00 1.0656442593567498e+01 5.7642129186865256e+00 0 0 0
132 2 2.4610000000000003e+00 1.2787731112280996e+01 5.7642129186865256e+00 0 0 0
134 2 3.6914999999999996e+00 1.2077301606043163e+01 5.7642129186865256e+00 0 0 0
136 2 3.6914999999999996e+00 1.0656442593567499e+01 5.7642129186865256e+00 0 0 0
392 2 0.0000000000000000e+00 1.1366872099805333e+01 8.8431042791023096e+00 0 0 0
404 2 0.0000000000000000e+00 1.2787731112280996e+01 8.8431042791023096e+00 0 0 0
405 2 1.2305000000000001e+00 1.3498160618518829e+01 8.8431042791023096e+00 0 0 0
406 2 1.2305000000000001e+00 1.0656442593567498e+01 8.8431042791023096e+00 0 0 0
407 2 2.4610000000000003e+00 1.1366872099805333e+01 8.8431042791023096e+00 0 0 0
423 2 2.4610000000000003e+00 1.2787731112280996e+01 8.8431042791023096e+00 0 0 0
424 2 3.6915000000000004e+00 1.3498160618518829e+01 8.8431042791023096e+00 0 0 0
425 2 3.6914999999999996e+00 1.0656442593567499e+01 8.8431042791023096e+00 0 0 0
177 2 4.9220000000000006e+00 1.2787731112280996e+01 5.7642129186865256e+00 0 0 0
426 2 4.9220000000000006e+00 1.1366872099805333e+01 8.8431042791023096e+00 0 0 0
446 2 4.9220000000000006e+00 1.2787731112280996e+01 8.8431042791023096e+00 0 0 0
447 2 6.1524999999999990e+00 1.3498160618518829e+01 8.8431042791023096e+00 0 0 0
93 2 0.0000000000000000e+00 1.4208590124756663e+01 5.7642129186865256e+00 0 0 0
130 2 2.4610000000000003e+00 1.4208590124756663e+01 5.7642129186865256e+00 0 0 0
175 2 4.9220000000000006e+00 1.4208590124756663e+01 5.7642129186865256e+00 0 0 0
124 2 0.0000000000000000e+00 1.7050308149707998e+01 5.7642129186865256e+00 0 0 0
126 2 1.2305000000000001e+00 1.6339878643470165e+01 5.7642129186865256e+00 0 0 0
128 2 1.2305000000000001e+00 1.4919019630994494e+01 5.7642129186865256e+00 0 0 0
169 2 2.4610000000000003e+00 1.7050308149707998e+01 5.7642129186865256e+00 0 0 0
171 2 3.6915000000000004e+00 1.6339878643470165e+01 5.7642129186865256e+00 0 0 0
173 2 3.6915000000000004e+00 1.4919019630994494e+01 5.7642129186865256e+00 0 0 0
403 2 0.0000000000000000e+00 1.5629449137232333e+01 8.8431042791023096e+00 0 0 0
419 2 0.0000000000000000e+00 1.7050308149707998e+01 8.8431042791023096e+00 0 0 0
421 2 1.2305000000000001e+00 1.4919019630994494e+01 8.8431042791023096e+00 0 0 0
422 2 2.4610000000000003e+00 1.5629449137232328e+01 8.8431042791023096e+00 0 0 0
442 2 2.4610000000000003e+00 1.7050308149707998e+01 8.8431042791023096e+00 0 0 0
444 2 3.6915000000000004e+00 1.4919019630994494e+01 8.8431042791023096e+00 0 0 0
216 2 4.9220000000000006e+00 1.7050308149707998e+01 5.7642129186865256e+00 0 0 0
220 2 6.1524999999999990e+00 1.4919019630994494e+01 5.7642129186865256e+00 0 0 0
445 2 4.9220000000000006e+00 1.5629449137232333e+01 8.8431042791023096e+00 0 0 0
466 2 4.9220000000000006e+00 1.7050308149707998e+01 8.8431042791023096e+00 0 0 0
468 2 6.1524999999999990e+00 1.4919019630994494e+01 8.8431042791023096e+00 0 0 0
122 2 0.0000000000000000e+00 1.8471167162183658e+01 5.7642129186865256e+00 0 0 0
165 2 1.2305000000000001e+00 1.9181596668421495e+01 5.7642129186865256e+00 0 0 0
167 2 2.4610000000000003e+00 1.8471167162183658e+01 5.7642129186865256e+00 0 0 0
212 2 3.6914999999999996e+00 1.9181596668421495e+01 5.7642129186865256e+00 0 0 0
420 2 1.2305000000000001e+00 1.7760737655945832e+01 8.8431042791023096e+00 0 0 0
440 2 1.2305000000000001e+00 1.9181596668421495e+01 8.8431042791023096e+00 0 0 0
443 2 3.6914999999999996e+00 1.7760737655945832e+01 8.8431042791023096e+00 0 0 0
464 2 3.6914999999999996e+00 1.9181596668421495e+01 8.8431042791023096e+00 0 0 0
214 2 4.9220000000000006e+00 1.8471167162183658e+01 5.7642129186865256e+00 0 0 0
2664 1 4.6723169088021113e+00 1.1464190597467287e+01 1.2029592798488297e+01 -3 0 -1
2624 1 4.5900633494257903e+00 1.4105334528500739e+01 1.1239548856096823e+01 1 -1 1
558 1 2.4775646465431511e+00 1.5551694200213317e+01 1.2006250001374161e+01 3 0 0
3937 1 2.3689907378554489e+00 1.8314128643272060e+01 1.1357147315198844e+01 1 -2 0
3379 1 2.5242876180317597e+00 1.0041535860387244e+01 1.1108556469354076e+01 0 5 0
2715 1 3.8790168892160325e-02 1.9503936646981259e+01 1.2186729562410598e+01 1 0 0
2063 1 2.4060365056500371e-01 1.1167666144977494e+01 1.1950369769672246e+01 -1 2 -1
3286 1 2.0549286946382192e-01 1.3945489968050181e+01 1.1424020269809537e+01 1 0 -1
3354 1 4.8036815623866147e+00 1.9580626140517278e+01 1.1591645034790989e+01 1 -2 0
702 1 4.8811889119228997e+00 1.3715446148933607e+01 1.5508811205501038e+01 3 -1 -1
1344 1 4.4727928029777813e+00 1.1242799451115957e+01 1.4487760487877615e+01 -1 0 -1
2074 1 2.3138529779332169e+00 1.7783370728951457e+01 2.2662260530546355e+01 -1 1 0
1385 1 4.9889842813685696e+00 1.4028637581284375e+01 1.8232901481735759e+01 3 1 0
3341 1 4.7120534491517596e-01 1.3429895078723636e+01 2.2592690623761854e+01 0 1 -1
5 1 2.5610648981596351e+00 1.8074713603073118e+01 1.5323832485126328e+01 3 -2 0
2114 1 2.5893144762973130e+00 1.5224134217285476e+01 1.4883409505113356e+01 3 -3 1
2048 1 2.6503770729008247e+00 1.8137882791623568e+01 1.8105874693574428e+01 2 0 -1
1395 1 2.6227013252685256e+00 1.5004375653742743e+01 2.1911988929167123e+01 0 -2 -1
691 1 3.8441769134456960e-01 1.9170346378094205e+01 1.8678769229060784e+01 -1 -1 1
2560 1 4.8808782397230086e+00 1.1430617477722317e+01 2.6233107484837483e+01 -1 -1 0
2694 1 4.9670386090683429e+00 1.1493342893939815e+01 1.9310483581846810e+01 -4 -2 -1
2024 1 4.8972876875464841e+00 1.0924831594173561e+01 2.2010013567039003e+01 -3 2 -2
1445 1 2.7602631666829329e+00 1.5340201312416964e+01 1.9166045554643198e+01 2 0 -1
1908 1 4.5173937071118946e+00 1.9576402882344897e+01 1.9196589731391718e+01 0 -1 0
1240 1 3.7132807669449157e+00 1.6827430027254746e+01 2.5962754558990298e+01 1 2 1
3250 1 1.3144776385086541e+00 1.8180492009968198e+01 2.5591115006177418e+01 2 0 -1
2646 1 4.5991741929005201e+00 1.3712740135070719e+01 2.3261521086599025e+01 1 -1 0
2577 1 4.3357193704243731e+00 1.9557625788275786e+01 2.2112131224755252e+01 1 0 0
2608 1 5.2246405810476038e+00 1.4327846854011607e+01 2.5903009357055787e+01 0 0 -1
2069 1 5.1205228775431622e-01 1.3888300039718033e+01 1.8256743735838548e+01 -1 2 0
1335 1 8.5949279940445222e-01 1.3895606525543906e+01 2.5298737710396630e+01 0 3 -1
3262 1 3.3477586054506431e-01 1.1215956020273991e+01 1.8945288271747344e+01 2 0 0
2025 1 2.4218870304612869e-01 1.3855888761808627e+01 1.5624147382722256e+01 -1 -2 -1
3305 1 3.8410898824738682e-01 1.1264289350491138e+01 2.5941950724825332e+01 5 1 0
3375 1 5.5663236578202169e-01 1.0885905736252964e+01 2.1750147799406065e+01 0 3 0
2747 1 6.1057475660484535e-02 1.1288689362767295e+01 1.4657043862294332e+01 -5 1 0
3330 1 5.9632628484451224e+00 1.8644281519742528e+01 2.5637099321766023e+01 0 0 0
1331 1 4.7539730059719414e+00 1.9442155642554589e+01 1.4480806490626584e+01 0 -4 0
2713 1 4.0532973765179747e-01 1.9123615471103498e+01 2.1459968862960885e+01 2 2 -1
587 1 2.6496782077143997e+00 9.8307443231913503e+00 2.5496705733114652e+01 4 3 0
2622 1 2.7645569856095493e+00 1.0206784116477012e+01 1.8386951210314194e+01 1 0 0
46 1 2.0831772397621204e+00 9.8365070212747021e+00 1.5522067163667867e+01 0 -2 -1
121 2 0.0000000000000000e+00 1.9892026174659328e+01 2.6853215582740102e+00 0 0 0
166 2 2.4610000000000003e+00 1.9892026174659328e+01 2.6853215582740102e+00 0 0 0
213 2 4.9220000000000006e+00 1.9892026174659328e+01 2.6853215582740102e+00 0 0 0
158 2 0.0000000000000000e+00 2.4154603212086325e+01 2.6853215582740102e+00 0 0 0
160 2 0.0000000000000000e+00 2.1312885187134999e+01 2.6853215582740102e+00 0 0 0
162 2 1.2304999999999993e+00 2.2023314693372832e+01 2.6853215582740102e+00 0 0 0
203 2 1.2304999999999993e+00 2.3444173705848499e+01 2.6853215582740102e+00 0 0 0
205 2 2.4610000000000003e+00 2.4154603212086325e+01 2.6853215582740102e+00 0 0 0
207 2 2.4610000000000003e+00 2.1312885187134995e+01 2.6853215582740102e+00 0 0 0
209 2 3.6914999999999996e+00 2.2023314693372832e+01 2.6853215582740102e+00 0 0 0
250 2 3.6915000000000004e+00 2.3444173705848499e+01 2.6853215582740102e+00 0 0 0
252 2 4.9220000000000006e+00 2.4154603212086325e+01 2.6853215582740102e+00 0 0 0
254 2 4.9220000000000006e+00 2.1312885187134995e+01 2.6853215582740102e+00 0 0 0
256 2 6.1524999999999990e+00 2.2023314693372832e+01 2.6853215582740102e+00 0 0 0
777 2 0.0000000000000000e+00 2.5575462224561992e+01 2.6853215582740102e+00 0 0 0
779 2 1.2305000000000001e+00 2.6285891730799833e+01 2.6853215582740102e+00 0 0 0
787 2 1.2305000000000010e+00 2.7706750743275496e+01 2.6853215582740102e+00 0 0 0
791 2 2.4610000000000003e+00 2.5575462224561992e+01 2.6853215582740102e+00 0 0 0
793 2 3.6914999999999991e+00 2.6285891730799833e+01 2.6853215582740102e+00 0 0 0
809 2 3.6914999999999996e+00 2.7706750743275496e+01 2.6853215582740102e+00 0 0 0
813 2 4.9220000000000006e+00 2.5575462224561992e+01 2.6853215582740102e+00 0 0 0
839 2 6.1524999999999990e+00 2.7706750743275496e+01 2.6853215582740102e+00 0 0 0
775 2 0.0000000000000000e+00 2.8417180249513333e+01 2.6853215582740102e+00 0 0 0
789 2 2.4610000000000003e+00 2.8417180249513326e+01 2.6853215582740102e+00 0 0 0
811 2 4.9220000000000006e+00 2.8417180249513336e+01 2.6853215582740102e+00 0 0 0
163 2 1.2305000000000001e+00 2.0602455680897162e+01 5.7642129186865256e+00 0 0 0
210 2 3.6915000000000004e+00 2.0602455680897162e+01 5.7642129186865256e+00 0 0 0
418 2 0.0000000000000000e+00 1.9892026174659328e+01 8.8431042791023096e+00 0 0 0
441 2 2.4610000000000003e+00 1.9892026174659328e+01 8.8431042791023096e+00 0 0 0
465 2 4.9220000000000006e+00 1.9892026174659328e+01 8.8431042791023096e+00 0 0 0
159 2 0.0000000000000000e+00 2.2733744199610655e+01 5.7642129186865256e+00 0 0 0
161 2 0.0000000000000000e+00 2.1312885187134999e+01 5.7642129186865256e+00 0 0 0
204 2 1.2304999999999993e+00 2.3444173705848499e+01 5.7642129186865256e+00 0 0 0
206 2 2.4610000000000003e+00 2.2733744199610655e+01 5.7642129186865256e+00 0 0 0
208 2 2.4610000000000003e+00 2.1312885187134995e+01 5.7642129186865256e+00 0 0 0
251 2 3.6915000000000004e+00 2.3444173705848499e+01 5.7642129186865256e+00 0 0 0
437 2 0.0000000000000000e+00 2.4154603212086325e+01 8.8431042791023096e+00 0 0 0
438 2 0.0000000000000000e+00 2.1312885187134999e+01 8.8431042791023096e+00 0 0 0
439 2 1.2304999999999993e+00 2.2023314693372832e+01 8.8431042791023096e+00 0 0 0
460 2 1.2304999999999993e+00 2.3444173705848499e+01 8.8431042791023096e+00 0 0 0
461 2 2.4610000000000003e+00 2.4154603212086325e+01 8.8431042791023096e+00 0 0 0
462 2 2.4610000000000003e+00 2.1312885187134995e+01 8.8431042791023096e+00 0 0 0
463 2 3.6914999999999996e+00 2.2023314693372832e+01 8.8431042791023096e+00 0 0 0
484 2 3.6915000000000004e+00 2.3444173705848499e+01 8.8431042791023096e+00 0 0 0
253 2 4.9220000000000006e+00 2.2733744199610655e+01 5.7642129186865256e+00 0 0 0
255 2 4.9220000000000006e+00 2.1312885187134995e+01 5.7642129186865256e+00 0 0 0
485 2 4.9220000000000006e+00 2.4154603212086325e+01 8.8431042791023096e+00 0 0 0
486 2 4.9220000000000006e+00 2.1312885187134995e+01 8.8431042791023096e+00 0 0 0
487 2 6.1524999999999990e+00 2.2023314693372832e+01 8.8431042791023096e+00 0 0 0
776 2 0.0000000000000000e+00 2.6996321237037659e+01 5.7642129186865256e+00 0 0 0
778 2 0.0000000000000000e+00 2.5575462224561992e+01 5.7642129186865256e+00 0 0 0
780 2 1.2305000000000001e+00 2.4865032718324155e+01 5.7642129186865256e+00 0 0 0
788 2 1.2305000000000010e+00 2.7706750743275496e+01 5.7642129186865256e+00 0 0 0
790 2 2.4610000000000003e+00 2.6996321237037659e+01 5.7642129186865256e+00 0 0 0
792 2 2.4610000000000003e+00 2.5575462224561992e+01 5.7642129186865256e+00 0 0 0
794 2 3.6914999999999996e+00 2.4865032718324166e+01 5.7642129186865256e+00 0 0 0
810 2 3.6914999999999996e+00 2.7706750743275496e+01 5.7642129186865256e+00 0 0 0
1091 2 0.0000000000000000e+00 2.5575462224561992e+01 8.8431042791023096e+00 0 0 0
1092 2 1.2305000000000001e+00 2.6285891730799833e+01 8.8431042791023096e+00 0 0 0
1096 2 1.2305000000000010e+00 2.7706750743275496e+01 8.8431042791023096e+00 0 0 0
1098 2 2.4610000000000003e+00 2.5575462224561992e+01 8.8431042791023096e+00 0 0 0
1099 2 3.6914999999999991e+00 2.6285891730799833e+01 8.8431042791023096e+00 0 0 0
1107 2 3.6914999999999996e+00 2.7706750743275496e+01 8.8431042791023096e+00 0 0 0
812 2 4.9220000000000006e+00 2.6996321237037659e+01 5.7642129186865256e+00 0 0 0
814 2 4.9220000000000006e+00 2.5575462224561992e+01 5.7642129186865256e+00 0 0 0
816 2 6.1524999999999990e+00 2.4865032718324155e+01 5.7642129186865256e+00 0 0 0
840 2 6.1524999999999990e+00 2.7706750743275496e+01 5.7642129186865256e+00 0 0 0
1109 2 4.9220000000000006e+00 2.5575462224561992e+01 8.8431042791023096e+00 0 0 0
1122 2 6.1524999999999990e+00 2.7706750743275496e+01 8.8431042791023096e+00 0 0 0
786 2 1.2304999999999993e+00 2.9127609755751163e+01 5.7642129186865256e+00 0 0 0
808 2 3.6914999999999991e+00 2.9127609755751152e+01 5.7642129186865256e+00 0 0 0
1090 2 0.0000000000000000e+00 2.8417180249513333e+01 8.8431042791023096e+00 0 0 0
1097 2 2.4610000000000003e+00 2.8417180249513326e+01 8.8431042791023096e+00 0 0 0
838 2 6.1524999999999981e+00 2.9127609755751152e+01 5.7642129186865256e+00 0 0 0
1108 2 4.9220000000000006e+00 2.8417180249513336e+01 8.8431042791023096e+00 0 0 0
3271 1 4.7822419307596249e+00 2.2539236604046714e+01 1.1432230708719082e+01 2 -2 -1
3398 1 2.2256230544446107e+00 2.3950963115846395e+01 1.1625352999432511e+01 3 1 0
2659 1 4.6980828798480960e+00 2.7578769901707449e+01 1.2126510670583180e+01 0 -4 0
3244 1 2.4126348613122484e+00 2.6630410555468377e+01 1.1275880557857803e+01 -5 -1 -1
636 1 2.3019786470445704e-02 2.2114013655557283e+01 1.1186442459054106e+01 -1 0 -1
2088 1 2.8715792162337550e-02 2.7385861669573387e+01 1.2334786684407170e+01 0 -5 0
2606 1 4.6730994939803354e+00 2.1934970409257083e+01 1.5620264935329379e+01 0 2 0
3393 1 2.4203272256247947e+00 2.3429004135438912e+01 1.4448066601974983e+01 -1 2 0
590 1 7.0442584584060841e-01 2.3029944459821561e+01 2.5213118790879861e+01 4 0 -1
3348 1 2.3458731889188820e+00 2.6051651266698290e+01 1.5601847894598823e+01 -2 1 -1
1901 1 4.7126418860415136e+00 2.7339160410154292e+01 1.4839579374673884e+01 2 -1 -1
635 1 2.2112091116299433e+00 2.6203598010998281e+01 2.2838054718532554e+01 2 0 -2
3282 1 4.5994791165214419e+00 2.2205809526457944e+01 1.8350530393798330e+01 -2 -1 -1
3290 1 2.0864321098833227e+00 2.3535905409147681e+01 1.9063665970366166e+01 -2 1 0
708 1 2.3694347568404166e+00 2.3604039297120579e+01 2.1769109766001321e+01 -1 0 0
2588 1 3.7555793869225956e-01 2.7287352419514793e+01 2.6051514963642354e+01 -3 -3 0
3315 1 2.4592881671973035e+00 2.6291600169957789e+01 1.8560510431525408e+01 3 -3 0
52 1 4.4442713623139429e+00 2.7418586916337048e+01 2.2222924155895385e+01 2 -1 1
3265 1 4.6347508869048646e+00 2.7783910108196665e+01 1.9433326136666437e+01 -3 0 -1
2637 1 4.7431690451297266e+00 2.1367580674574622e+01 2.5531669617872140e+01 -2 -5 0
4060 1 4.3372695170292692e+00 2.7208475526732183e+01 2.6071704671583987e+01 -1 2 -1
1974 1 4.5947567567831946e+00 2.2065790375717551e+01 2.2780037564843873e+01 1 -6 0
2685 1 1.9738752047685867e-01 2.1841020861117833e+01 1.8177131069846467e+01 -1 2 0
40 1 2.0216454757079987e+00 2.5502079259380302e+01 2.5472065923126671e+01 0 0 -1
744 1 2.0989733733621772e+00 2.0761434298238150e+01 2.6027420220396060e+01 0 0 0
3289 1 6.4730839229056508e-02 2.7686738005039476e+01 1.8988303775638407e+01 1 2 -1
3264 1 1.0003847061264340e-01 2.2259717398673896e+01 1.5190103878305782e+01 1 -2 0
1903 1 7.5146830212358684e-02 2.7650131635816940e+01 2.1785459857180534e+01 1 0 -1
783 2 0.0000000000000000e+00 2.9838039261988989e+01 2.6853215582740102e+00 0 0 0
785 2 1.2304999999999993e+00 3.0548468768226829e+01 2.6853215582740102e+00 0 0 0
805 2 2.4610000000000003e+00 2.9838039261988989e+01 2.6853215582740102e+00 0 0 0
807 2 3.6915000000000004e+00 3.0548468768226829e+01 2.6853215582740102e+00 0 0 0
835 2 4.9220000000000006e+00 2.9838039261988989e+01 2.6853215582740102e+00 0 0 0
781 2 0.0000000000000000e+00 3.2679757286940330e+01 2.6853215582740102e+00 0 0 0
797 2 0.0000000000000000e+00 3.4100616299415996e+01 2.6853215582740102e+00 0 0 0
801 2 1.2304999999999993e+00 3.1969327780702493e+01 2.6853215582740102e+00 0 0 0
803 2 2.4610000000000003e+00 3.2679757286940337e+01 2.6853215582740102e+00 0 0 0
827 2 2.4609999999999985e+00 3.4100616299415996e+01 2.6853215582740102e+00 0 0 0
831 2 3.6914999999999996e+00 3.1969327780702493e+01 2.6853215582740102e+00 0 0 0
833 2 4.9220000000000015e+00 3.2679757286940337e+01 2.6853215582740102e+00 0 0 0
865 2 4.9220000000000006e+00 3.4100616299415996e+01 2.6853215582740102e+00 0 0 0
799 2 1.2305000000000010e+00 3.4811045805653833e+01 2.6853215582740102e+00 0 0 0
829 2 3.6915000000000018e+00 3.4811045805653833e+01 2.6853215582740102e+00 0 0 0
795 2 0.0000000000000000e+00 3.6942334324367337e+01 2.6853215582740102e+00 0 0 0
819 2 0.0000000000000000e+00 3.8363193336842990e+01 2.6853215582740102e+00 0 0 0
823 2 1.2304999999999993e+00 3.6231904818129486e+01 2.6853215582740102e+00 0 0 0
825 2 2.4610000000000021e+00 3.6942334324367337e+01 2.6853215582740102e+00 0 0 0
857 2 2.4610000000000003e+00 3.8363193336842990e+01 2.6853215582740102e+00 0 0 0
861 2 3.6914999999999996e+00 3.6231904818129486e+01 2.6853215582740102e+00 0 0 0
863 2 4.9220000000000006e+00 3.6942334324367316e+01 2.6853215582740102e+00 0 0 0
902 2 4.9220000000000006e+00 3.8363193336842990e+01 2.6853215582740102e+00 0 0 0
821 2 1.2305000000000010e+00 3.9073622843080841e+01 2.6853215582740102e+00 0 0 0
859 2 3.6915000000000018e+00 3.9073622843080820e+01 2.6853215582740102e+00 0 0 0
782 2 0.0000000000000000e+00 3.1258898274464656e+01 5.7642129186865256e+00 0 0 0
784 2 0.0000000000000000e+00 2.9838039261988989e+01 5.7642129186865256e+00 0 0 0
804 2 2.4609999999999985e+00 3.1258898274464656e+01 5.7642129186865256e+00 0 0 0
806 2 2.4610000000000003e+00 2.9838039261988989e+01 5.7642129186865256e+00 0 0 0
1094 2 0.0000000000000000e+00 2.9838039261988989e+01 8.8431042791023096e+00 0 0 0
1095 2 1.2304999999999993e+00 3.0548468768226829e+01 8.8431042791023096e+00 0 0 0
1105 2 2.4610000000000003e+00 2.9838039261988989e+01 8.8431042791023096e+00 0 0 0
1106 2 3.6915000000000004e+00 3.0548468768226829e+01 8.8431042791023096e+00 0 0 0
834 2 4.9219999999999979e+00 3.1258898274464656e+01 5.7642129186865256e+00 0 0 0
836 2 4.9220000000000006e+00 2.9838039261988989e+01 5.7642129186865256e+00 0 0 0
1120 2 4.9220000000000006e+00 2.9838039261988989e+01 8.8431042791023096e+00 0 0 0
798 2 0.0000000000000000e+00 3.4100616299415996e+01 5.7642129186865256e+00 0 0 0
800 2 1.2304999999999993e+00 3.3390186793178160e+01 5.7642129186865256e+00 0 0 0
802 2 1.2304999999999993e+00 3.1969327780702493e+01 5.7642129186865256e+00 0 0 0
828 2 2.4609999999999985e+00 3.4100616299415996e+01 5.7642129186865256e+00 0 0 0
830 2 3.6914999999999978e+00 3.3390186793178160e+01 5.7642129186865256e+00 0 0 0
832 2 3.6914999999999996e+00 3.1969327780702493e+01 5.7642129186865256e+00 0 0 0
1093 2 0.0000000000000000e+00 3.2679757286940330e+01 8.8431042791023096e+00 0 0 0
1101 2 0.0000000000000000e+00 3.4100616299415996e+01 8.8431042791023096e+00 0 0 0