LAMMPS data file via write_data, version 16 Mar 2018, timestep = 100000

4063 atoms
2 atom types

0.0000000000000000e+00 4.9219999999999999e+01 xlo xhi
0.0000000000000000e+00 4.9019635930410494e+01 ylo yhi
1.8130320480824835e+00 2.6126967951916704e+01 zlo zhi

Masses

1 18.015
2 12.01

Atoms # atomic

53 2 0.0000000000000000e+00 2.8417180249513345e+00 3.3295637734631480e+00 0 0 0
55 2 0.0000000000000000e+00 0.0000000000000000e+00 3.3295637734631480e+00 0 0 0
57 2 1.2305000000000001e+00 7.1042950623783474e-01 3.3295637734631480e+00 0 0 0
64 2 1.2305000000000001e+00 2.1312885187134998e+00 3.3295637734631480e+00 0 0 0
66 2 2.4610000000000003e+00 2.8417180249513345e+00 3.3295637734631480e+00 0 0 0
68 2 2.4610000000000003e+00 0.0000000000000000e+00 3.3295637734631480e+00 0 0 0
70 2 3.6915000000000004e+00 7.1042950623783474e-01 3.3295637734631480e+00 0 0 0
85 2 3.6914999999999996e+00 2.1312885187134998e+00 3.3295637734631480e+00 0 0 0
87 2 4.9220000000000006e+00 2.8417180249513332e+00 3.3295637734631480e+00 0 0 0
89 2 4.9220000000000006e+00 0.0000000000000000e+00 3.3295637734631480e+00 0 0 0
60 2 0.0000000000000000e+00 4.2625770374269996e+00 3.3295637734631480e+00 0 0 0
81 2 2.4610000000000003e+00 4.2625770374269996e+00 3.3295637734631480e+00 0 0 0
110 2 4.9220000000000006e+00 4.2625770374269978e+00 3.3295637734631480e+00 0 0 0
62 2 1.2305000000000001e+00 4.9730065436648339e+00 3.3295637734631480e+00 0 0 0
77 2 1.2305000000000001e+00 6.3938655561404980e+00 3.3295637734631480e+00 0 0 0
83 2 3.6914999999999996e+00 4.9730065436648339e+00 3.3295637734631480e+00 0 0 0
106 2 3.6914999999999996e+00 6.3938655561404980e+00 3.3295637734631480e+00 0 0 0
58 2 0.0000000000000000e+00 7.1042950623783341e+00 3.3295637734631480e+00 0 0 0
73 2 0.0000000000000000e+00 8.5251540748539991e+00 3.3295637734631480e+00 0 0 0
75 2 1.2305000000000001e+00 9.2355835810918343e+00 3.3295637734631480e+00 0 0 0
79 2 2.4610000000000003e+00 7.1042950623783341e+00 3.3295637734631480e+00 0 0 0
102 2 2.4610000000000003e+00 8.5251540748539991e+00 3.3295637734631480e+00 0 0 0
104 2 3.6915000000000004e+00 9.2355835810918343e+00 3.3295637734631480e+00 0 0 0
108 2 4.9220000000000006e+00 7.1042950623783341e+00 3.3295637734631480e+00 0 0 0
139 2 4.9220000000000006e+00 8.5251540748539991e+00 3.3295637734631480e+00 0 0 0
54 2 0.0000000000000000e+00 1.4208590124756650e+00 6.2326812471314224e+00 0 0 0
56 2 0.0000000000000000e+00 0.0000000000000000e+00 6.2326812471314224e+00 0 0 0
65 2 1.2305000000000001e+00 2.1312885187134998e+00 6.2326812471314224e+00 0 0 0
67 2 2.4610000000000003e+00 1.4208590124756650e+00 6.2326812471314224e+00 0 0 0
69 2 2.4610000000000003e+00 0.0000000000000000e+00 6.2326812471314224e+00 0 0 0
86 2 3.6914999999999996e+00 2.1312885187134998e+00 6.2326812471314224e+00 0 0 0
382 2 0.0000000000000000e+00 2.8417180249513345e+00 9.1357987207989293e+00 0 0 0
383 2 0.0000000000000000e+00 0.0000000000000000e+00 9.1357987207989293e+00 0 0 0
384 2 1.2305000000000001e+00 7.1042950623783474e-01 9.1357987207989293e+00 0 0 0
388 2 1.2305000000000001e+00 2.1312885187134998e+00 9.1357987207989293e+00 0 0 0
389 2 2.4610000000000003e+00 2.8417180249513345e+00 9.1357987207989293e+00 0 0 0
390 2 2.4610000000000003e+00 0.0000000000000000e+00 9.1357987207989293e+00 0 0 0
391 2 3.6915000000000004e+00 7.1042950623783474e-01 9.1357987207989293e+00 0 0 0
399 2 3.6914999999999996e+00 2.1312885187134998e+00 9.1357987207989293e+00 0 0 0
88 2 4.9220000000000006e+00 1.4208590124756650e+00 6.2326812471314224e+00 0 0 0
90 2 4.9220000000000006e+00 0.0000000000000000e+00 6.2326812471314224e+00 0 0 0
400 2 4.9220000000000006e+00 2.8417180249513332e+00 9.1357987207989293e+00 0 0 0
401 2 4.9220000000000006e+00 0.0000000000000000e+00 9.1357987207989293e+00 0 0 0
61 2 0.0000000000000000e+00 4.2625770374269996e+00 6.2326812471314224e+00 0 0 0
63 2 1.2305000000000001e+00 3.5521475311891644e+00 6.2326812471314224e+00 0 0 0
82 2 2.4610000000000003e+00 4.2625770374269996e+00 6.2326812471314224e+00 0 0 0
84 2 3.6914999999999996e+00 3.5521475311891644e+00 6.2326812471314224e+00 0 0 0
386 2 0.0000000000000000e+00 4.2625770374269996e+00 9.1357987207989293e+00 0 0 0
397 2 2.4610000000000003e+00 4.2625770374269996e+00 9.1357987207989293e+00 0 0 0
111 2 4.9220000000000006e+00 4.2625770374269978e+00 6.2326812471314224e+00 0 0 0
412 2 4.9220000000000006e+00 4.2625770374269978e+00 9.1357987207989293e+00 0 0 0
59 2 0.0000000000000000e+00 5.6834360499026637e+00 6.2326812471314224e+00 0 0 0
78 2 1.2305000000000001e+00 6.3938655561404980e+00 6.2326812471314224e+00 0 0 0
80 2 2.4610000000000003e+00 5.6834360499026637e+00 6.2326812471314224e+00 0 0 0
107 2 3.6914999999999996e+00 6.3938655561404980e+00 6.2326812471314224e+00 0 0 0
387 2 1.2305000000000001e+00 4.9730065436648339e+00 9.1357987207989293e+00 0 0 0
395 2 1.2305000000000001e+00 6.3938655561404980e+00 9.1357987207989293e+00 0 0 0
398 2 3.6914999999999996e+00 4.9730065436648339e+00 9.1357987207989293e+00 0 0 0
410 2 3.6914999999999996e+00 6.3938655561404980e+00 9.1357987207989293e+00 0 0 0
109 2 4.9220000000000006e+00 5.6834360499026637e+00 6.2326812471314224e+00 0 0 0
74 2 0.0000000000000000e+00 8.5251540748539991e+00 6.2326812471314224e+00 0 0 0
76 2 1.2305000000000001e+00 7.8147245686161639e+00 6.2326812471314224e+00 0 0 0
103 2 2.4610000000000003e+00 8.5251540748539991e+00 6.2326812471314224e+00 0 0 0
105 2 3.6914999999999996e+00 7.8147245686161639e+00 6.2326812471314224e+00 0 0 0
385 2 0.0000000000000000e+00 7.1042950623783341e+00 9.1357987207989293e+00 0 0 0
393 2 0.0000000000000000e+00 8.5251540748539991e+00 9.1357987207989293e+00 0 0 0
394 2 1.2305000000000001e+00 9.2355835810918343e+00 9.1357987207989293e+00 0 0 0
396 2 2.4610000000000003e+00 7.1042950623783341e+00 9.1357987207989293e+00 0 0 0
408 2 2.4610000000000003e+00 8.5251540748539991e+00 9.1357987207989293e+00 0 0 0
409 2 3.6915000000000004e+00 9.2355835810918343e+00 9.1357987207989293e+00 0 0 0
140 2 4.9220000000000006e+00 8.5251540748539991e+00 6.2326812471314224e+00 0 0 0
411 2 4.9220000000000006e+00 7.1042950623783341e+00 9.1357987207989293e+00 0 0 0
427 2 4.9220000000000006e+00 8.5251540748539991e+00 9.1357987207989293e+00 0 0 0
3916 1 2.5603089581991236e+00 3.6786035606043392e+00 1.2076285267810306e+01 0 1 0
3266 1 5.4558242435899595e+00 4.4383250477325378e+00 1.2256620950210221e+01 1 0 0
3974 1 4.7385723821491776e+00 6.9492793453115551e+00 1.1698415166839565e+01 0 0 0
1388 1 2.8743788522868661e+00 1.0814068408486539e+00 1.1482780639360895e+01 1 1 0
2597 1 1.9158509133293677e+00 7.4680715296447433e+00 1.1551512532797330e+01 1 0 1
1994 1 2.2522039791927451e-01 5.2806165089174044e+00 1.1716412816683835e+01 0 1 0
2714 1 2.2847483749003533e-01 4.9357115459429807e-01 1.1354023198200123e+01 0 1 0
3284 1 6.0903246139680238e+00 9.4337430793481634e+00 1.2527283824374125e+01 0 1 -1
2692 1 3.0088270851931038e+00 1.9085249454999660e+00 1.6730685735310786e+01 1 0 -1
2771 1 2.7919067359583929e+00 4.0967274656280335e+00 1.4956910154112421e+01 0 0 1
3325 1 4.4415611065027054e+00 8.9831115963748562e+00 1.5194890967097514e+01 1 0 0
2653 1 5.1257770368113338e+00 6.3582719546459705e+00 1.6432890491778689e+01 1 2 0
1942 1 5.3539843160126956e+00 5.9526502651525268e+00 2.5167456840943615e+01 1 0 -1
1307 1 1.9911654942609429e+00 8.3463510196718040e+00 1.8893833108800660e+01 1 1 -1
2033 1 3.9928952950943644e+00 1.7676211614251265e+00 1.9894896302795122e+01 0 2 0
2686 1 5.9605752014011051e+00 2.0142769621520711e+00 1.7903767788088505e+01 1 1 0
2691 1 8.4195704234208490e-01 3.8353129318363064e+00 1.7872302384702330e+01 1 1 0
3354 1 6.8175322888378120e-01 4.6881148245291948e+00 2.1965208204080149e+01 1 0 0
3262 1 4.9073728615835783e+00 4.9330873418594290e-01 1.5077603544953071e+01 1 0 0
3376 1 5.4947861954341919e+00 6.5652307966868264e+00 1.8929653267233515e+01 1 0 -1
656 1 1.9519538859639263e+00 9.7139922957955331e+00 2.3216571975053508e+01 2 1 0
1271 1 9.7601084626444423e-01 2.3630682064930295e+00 2.4896827985499765e+01 1 0 0
553 1 1.0167028846820514e+00 5.1597352883731675e+00 2.4666103049835257e+01 1 0 0
1323 1 3.6009383608542187e+00 5.4147936237196888e+00 2.1020103515282717e+01 1 0 -1
584 1 3.6977590582731854e+00 1.3690167946696523e+00 2.5141929184404880e+01 0 2 0
2674 1 1.9686554616352299e+00 6.3979602133857538e+00 1.6792302849517434e+01 0 1 0
2060 1 2.6893616949091887e+00 7.2467945933585680e+00 2.4676225976394196e+01 0 0 0
589 1 3.1944145077805266e+00 2.5787847520590743e+00 2.2299156793131026e+01 1 1 0
3911 1 1.8978364748091086e+00 7.9510539119253147e+00 1.4329949090560508e+01 -1 1 0
3440 1 7.7880107695075501e-02 4.8217691001983134e+00 1.4441294980479325e+01 1 1 0
2627 1 4.6971519482928068e+00 7.6713409470139924e+00 2.2394424806333269e+01 0 1 0
1335 1 6.7502987905766421e-01 3.8797154773121778e-01 1.5774521414788705e+01 1 1 -1
4039 1 1.1046700363103521e+00 2.7951881352150598e-01 2.2536579339746332e+01 1 2 0
3403 1 6.0565132424393759e+00 3.8272915075614233e+00 1.5590335216303009e+01 1 1 0
682 1 4.7815593756069980e-01 2.3161945509560820e+00 2.0425041950788906e+01 0 1 -1
551 1 6.1102789901609649e+00 3.6612998005207280e+00 2.1877672197496295e+01 2 1 0
2109 1 1.9112956218228580e-01 7.0528016513842084e+00 2.0550026170941223e+01 1 0 0
719 1 3.5480671524235414e+00 9.5863764155664359e+00 2.0645855355734959e+01 1 2 1
71 2 0.0000000000000000e+00 1.1366872099805333e+01 3.3295637734631480e+00 0 0 0
94 2 0.0000000000000000e+00 1.2787731112280996e+01 3.3295637734631480e+00 0 0 0
96 2 1.2305000000000001e+00 1.3498160618518829e+01 3.3295637734631480e+00 0 0 0
98 2 1.2305000000000001e+00 1.0656442593567498e+01 3.3295637734631480e+00 0 0 0
100 2 2.4610000000000003e+00 1.1366872099805333e+01 3.3295637734631480e+00 0 0 0
131 2 2.4610000000000003e+00 1.2787731112280996e+01 3.3295637734631480e+00 0 0 0
133 2 3.6915000000000004e+00 1.3498160618518829e+01 3.3295637734631480e+00 0 0 0
135 2 3.6914999999999996e+00 1.0656442593567499e+01 3.3295637734631480e+00 0 0 0
137 2 4.9220000000000006e+00 1.1366872099805333e+01 3.3295637734631480e+00 0 0 0
176 2 4.9220000000000006e+00 1.2787731112280996e+01 3.3295637734631480e+00 0 0 0
178 2 6.1524999999999990e+00 1.3498160618518829e+01 3.3295637734631480e+00 0 0 0
92 2 0.0000000000000000e+00 1.5629449137232333e+01 3.3295637734631480e+00 0 0 0
123 2 0.0000000000000000e+00 1.7050308149707998e+01 3.3295637734631480e+00 0 0 0
127 2 1.2305000000000001e+00 1.4919019630994494e+01 3.3295637734631480e+00 0 0 0
129 2 2.4610000000000003e+00 1.5629449137232328e+01 3.3295637734631480e+00 0 0 0
168 2 2.4610000000000003e+00 1.7050308149707998e+01 3.3295637734631480e+00 0 0 0
172 2 3.6915000000000004e+00 1.4919019630994494e+01 3.3295637734631480e+00 0 0 0
174 2 4.9220000000000006e+00 1.5629449137232333e+01 3.3295637734631480e+00 0 0 0
215 2 4.9220000000000006e+00 1.7050308149707998e+01 3.3295637734631480e+00 0 0 0
219 2 6.1524999999999990e+00 1.4919019630994494e+01 3.3295637734631480e+00 0 0 0
125 2 1.2305000000000001e+00 1.7760737655945832e+01 3.3295637734631480e+00 0 0 0
164 2 1.2305000000000001e+00 1.9181596668421495e+01 3.3295637734631480e+00 0 0 0
170 2 3.6914999999999996e+00 1.7760737655945832e+01 3.3295637734631480e+00 0 0 0
211 2 3.6914999999999996e+00 1.9181596668421495e+01 3.3295637734631480e+00 0 0 0
72 2 0.0000000000000000e+00 9.9460130873296642e+00 6.2326812471314224e+00 0 0 0
101 2 2.4610000000000003e+00 9.9460130873296642e+00 6.2326812471314224e+00 0 0 0
138 2 4.9220000000000006e+00 9.9460130873296642e+00 6.2326812471314224e+00 0 0 0
95 2 0.0000000000000000e+00 1.2787731112280996e+01 6.2326812471314224e+00 0 0 0
97 2 1.2305000000000001e+00 1.2077301606043163e+01 6.2326812471314224e+00 0 0 0
99 2 1.2305000000000001e+00 1.0656442593567498e+01 6.2326812471314224e+00 0 0 0
132 2 2.4610000000000003e+00 1.2787731112280996e+01 6.2326812471314224e+00 0 0 0
134 2 3.6914999999999996e+00 1.2077301606043163e+01 6.2326812471314224e+00 0 0 0
136 2 3.6914999999999996e+00 1.0656442593567499e+01 6.2326812471314224e+00 0 0 0
392 2 0.0000000000000000e+00 1.1366872099805333e+01 9.1357987207989293e+00 0 0 0
404 2 0.0000000000000000e+00 1.2787731112280996e+01 9.1357987207989293e+00 0 0 0
405 2 1.2305000000000001e+00 1.3498160618518829e+01 9.1357987207989293e+00 0 0 0
406 2 1.2305000000000001e+00 1.0656442593567498e+01 9.1357987207989293e+00 0 0 0
407 2 2.4610000000000003e+00 1.1366872099805333e+01 9.1357987207989293e+00 0 0 0
423 2 2.4610000000000003e+00 1.2787731112280996e+01 9.1357987207989293e+00 0 0 0
424 2 3.6915000000000004e+00 1.3498160618518829e+01 9.1357987207989293e+00 0 0 0
425 2 3.6914999999999996e+00 1.0656442593567499e+01 9.1357987207989293e+00 0 0 0
177 2 4.9220000000000006e+00 1.2787731112280996e+01 6.2326812471314224e+00 0 0 0
426 2 4.9220000000000006e+00 1.1366872099805333e+01 9.1357987207989293e+00 0 0 0
446 2 4.9220000000000006e+00 1.2787731112280996e+01 9.1357987207989293e+00 0 0 0
447 2 6.1524999999999990e+00 1.3498160618518829e+01 9.1357987207989293e+00 0 0 0
93 2 0.0000000000000000e+00 1.4208590124756663e+01 6.2326812471314224e+00 0 0 0
130 2 2.4610000000000003e+00 1.4208590124756663e+01 6.2326812471314224e+00 0 0 0
175 2 4.9220000000000006e+00 1.4208590124756663e+01 6.2326812471314224e+00 0 0 0
124 2 0.0000000000000000e+00 1.7050308149707998e+01 6.2326812471314224e+00 0 0 0
126 2 1.2305000000000001e+00 1.6339878643470165e+01 6.2326812471314224e+00 0 0 0
128 2 1.2305000000000001e+00 1.4919019630994494e+01 6.2326812471314224e+00 0 0 0
169 2 2.4610000000000003e+00 1.7050308149707998e+01 6.2326812471314224e+00 0 0 0
171 2 3.6915000000000004e+00 1.6339878643470165e+01 6.2326812471314224e+00 0 0 0
173 2 3.6915000000000004e+00 1.4919019630994494e+01 6.2326812471314224e+00 0 0 0
403 2 0.0000000000000000e+00 1.5629449137232333e+01 9.1357987207989293e+00 0 0 0
419 2 0.0000000000000000e+00 1.7050308149707998e+01 9.1357987207989293e+00 0 0 0
421 2 1.2305000000000001e+00 1.4919019630994494e+01 9.1357987207989293e+00 0 0 0
422 2 2.4610000000000003e+00 1.5629449137232328e+01 9.1357987207989293e+00 0 0 0
442 2 2.4610000000000003e+00 1.7050308149707998e+01 9.1357987207989293e+00 0 0 0
444 2 3.6915000000000004e+00 1.4919019630994494e+01 9.1357987207989293e+00 0 0 0
216 2 4.9220000000000006e+00 1.7050308149707998e+01 6.2326812471314224e+00 0 0 0
220 2 6.1524999999999990e+00 1.4919019630994494e+01 6.2326812471314224e+00 0 0 0
445 2 4.9220000000000006e+00 1.5629449137232333e+01 9.1357987207989293e+00 0 0 0
466 2 4.9220000000000006e+00 1.7050308149707998e+01 9.1357987207989293e+00 0 0 0
468 2 6.1524999999999990e+00 1.4919019630994494e+01 9.1357987207989293e+00 0 0 0
122 2 0.0000000000000000e+00 1.8471167162183658e+01 6.2326812471314224e+00 0 0 0
165 2 1.2305000000000001e+00 1.9181596668421495e+01 6.2326812471314224e+00 0 0 0
167 2 2.4610000000000003e+00 1.8471167162183658e+01 6.2326812471314224e+00 0 0 0
212 2 3.6914999999999996e+00 1.9181596668421495e+01 6.2326812471314224e+00 0 0 0
420 2 1.2305000000000001e+00 1.7760737655945832e+01 9.1357987207989293e+00 0 0 0
440 2 1.2305000000000001e+00 1.9181596668421495e+01 9.1357987207989293e+00 0 0 0
443 2 3.6914999999999996e+00 1.7760737655945832e+01 9.1357987207989293e+00 0 0 0
464 2 3.6914999999999996e+00 1.9181596668421495e+01 9.1357987207989293e+00 0 0 0
214 2 4.9220000000000006e+00 1.8471167162183658e+01 6.2326812471314224e+00 0 0 0
627 1 5.3188123039652702e+00 1.2613134153023244e+01 1.2343205099774618e+01 0 0 0
3954 1 2.4810963376389137e+00 1.1997894954432937e+01 1.1718516148535677e+01 0 -1 0
729 1 8.6359050031189066e-01 1.4819050976565720e+01 1.1768817086556618e+01 1 0 -1
1947 1 5.1531465762559192e-01 9.8419665580622340e+00 1.1848387130276146e+01 1 1 0
726 1 2.9383794786523687e+00 1.7016152981155933e+01 1.1805736036088810e+01 -1 0 0
1347 1 1.8064812119936742e+00 1.9473987936635261e+01 1.2230314191087864e+01 2 0 0
3961 1 5.8607403674878826e+00 1.7385987741471801e+01 1.1503610597877005e+01 0 0 0
1930 1 4.0898235780072403e+00 1.5194112647003411e+01 1.7159792638920557e+01 0 1 0
3308 1 3.9585748128443745e+00 1.1930699563637468e+01 1.5879077787838728e+01 1 2 0
660 1 1.9887522924690143e-01 1.5298804256658201e+01 1.6997142940233072e+01 1 0 0
2027 1 1.4976377036245212e+00 1.5218109319550726e+01 1.4480416069578066e+01 0 -1 0
3380 1 6.1096266707443929e+00 1.8884257524711757e+01 1.4308284481620708e+01 0 0 0
1242 1 4.2335448263003652e+00 1.6411037998624540e+01 1.4669102692913832e+01 0 0 0
2620 1 3.1392013831309651e+00 1.9076040361396721e+01 1.4887339994748281e+01 0 -1 0
2703 1 2.6138162433011525e+00 1.6467613882316563e+01 2.1375091760274771e+01 -1 1 -1
3397 1 1.2964469320561340e+00 1.3826887780293875e+01 2.1175904019932425e+01 0 0 -1
732 1 1.7330257911831852e+00 1.3149051586397320e+01 1.8441437034459412e+01 1 1 1
754 1 5.2598351759063160e+00 1.9252962025908293e+01 1.7918713075693521e+01 0 0 0
2088 1 6.0954571389056911e-01 1.7965165383183436e+01 1.8319168900188622e+01 0 0 0
663 1 3.2992984029328944e+00 1.7190017503884480e+01 1.8612565554042689e+01 0 1 0
2660 1 6.0265377361172856e+00 1.6325729213632240e+01 2.4807504652093023e+01 0 0 0
2001 1 3.7687445576064902e+00 1.4931120015943078e+01 2.5274757859844147e+01 0 0 0
2689 1 3.8257805855289377e+00 1.2428235378565178e+01 2.4773946168910655e+01 2 1 -1
2100 1 3.8756949745182823e-01 1.0148520880191155e+01 1.4776753191977999e+01 0 1 -1
3388 1 5.1030466421868796e+00 1.5846303263250830e+01 2.2329926819874576e+01 1 0 -1
2735 1 3.3033893615319898e+00 1.8865865335317942e+01 2.4920948197303613e+01 0 0 1
2038 1 1.5036757777362204e+00 1.2434781551060741e+01 1.4175789373787813e+01 1 0 0
2578 1 1.4661633684152340e+00 1.8490639882001343e+01 2.2518217207665497e+01 0 0 0
2607 1 3.3102987965781905e+00 1.2415049022304736e+01 2.1879993599375450e+01 2 0 -1
1996 1 4.4810252175710747e+00 1.2078664779010882e+01 1.8479938399356811e+01 1 1 -1
1442 1 5.8916922601208421e+00 1.3304283754354888e+01 2.0853382293628499e+01 1 1 0
3960 1 1.0662456925032580e+00 1.5565166522788143e+01 2.4517798605451837e+01 1 0 0
3900 1 6.7707818347628435e-01 1.0429915538360412e+01 1.7502404425196438e+01 0 0 0
2664 1 1.3791236490366217e+00 1.1352132349912244e+01 2.5504701966628751e+01 0 1 -1
121 2 0.0000000000000000e+00 1.9892026174659328e+01 3.3295637734631480e+00 0 0 0
166 2 2.4610000000000003e+00 1.9892026174659328e+01 3.3295637734631480e+00 0 0 0
213 2 4.9220000000000006e+00 1.9892026174659328e+01 3.3295637734631480e+00 0 0 0
158 2 0.0000000000000000e+00 2.4154603212086325e+01 3.3295637734631480e+00 0 0 0
160 2 0.0000000000000000e+00 2.1312885187134999e+01 3.3295637734631480e+00 0 0 0
162 2 1.2304999999999993e+00 2.2023314693372832e+01 3.3295637734631480e+00 0 0 0
203 2 1.2304999999999993e+00 2.3444173705848499e+01 3.3295637734631480e+00 0 0 0
205 2 2.4610000000000003e+00 2.4154603212086325e+01 3.3295637734631480e+00 0 0 0
207 2 2.4610000000000003e+00 2.1312885187134995e+01 3.3295637734631480e+00 0 0 0
209 2 3.6914999999999996e+00 2.2023314693372832e+01 3.3295637734631480e+00 0 0 0
250 2 3.6915000000000004e+00 2.3444173705848499e+01 3.3295637734631480e+00 0 0 0
252 2 4.9220000000000006e+00 2.4154603212086325e+01 3.3295637734631480e+00 0 0 0
254 2 4.9220000000000006e+00 2.1312885187134995e+01 3.3295637734631480e+00 0 0 0
256 2 6.1524999999999990e+00 2.2023314693372832e+01 3.3295637734631480e+00 0 0 0
777 2 0.0000000000000000e+00 2.5575462224561992e+01 3.3295637734631480e+00 0 0 0
779 2 1.2305000000000001e+00 2.6285891730799833e+01 3.3295637734631480e+00 0 0 0
787 2 1.2305000000000010e+00 2.7706750743275496e+01 3.3295637734631480e+00 0 0 0
791 2 2.4610000000000003e+00 2.5575462224561992e+01 3.3295637734631480e+00 0 0 0
793 2 3.6914999999999991e+00 2.6285891730799833e+01 3.3295637734631480e+00 0 0 0
809 2 3.6914999999999996e+00 2.7706750743275496e+01 3.3295637734631480e+00 0 0 0
813 2 4.9220000000000006e+00 2.5575462224561992e+01 3.3295637734631480e+00 0 0 0
839 2 6.1524999999999990e+00 2.7706750743275496e+01 3.3295637734631480e+00 0 0 0
775 2 0.0000000000000000e+00 2.8417180249513333e+01 3.3295637734631480e+00 0 0 0
789 2 2.4610000000000003e+00 2.8417180249513326e+01 3.3295637734631480e+00 0 0 0
811 2 4.9220000000000006e+00 2.8417180249513336e+01 3.3295637734631480e+00 0 0 0
163 2 1.2305000000000001e+00 2.0602455680897162e+01 6.2326812471314224e+00 0 0 0
210 2 3.6915000000000004e+00 2.0602455680897162e+01 6.2326812471314224e+00 0 0 0
418 2 0.0000000000000000e+00 1.9892026174659328e+01 9.1357987207989293e+00 0 0 0
441 2 2.4610000000000003e+00 1.9892026174659328e+01 9.1357987207989293e+00 0 0 0
465 2 4.9220000000000006e+00 1.9892026174659328e+01 9.1357987207989293e+00 0 0 0
159 2 0.0000000000000000e+00 2.2733744199610655e+01 6.2326812471314224e+00 0 0 0
161 2 0.0000000000000000e+00 2.1312885187134999e+01 6.2326812471314224e+00 0 0 0
204 2 1.2304999999999993e+00 2.3444173705848499e+01 6.2326812471314224e+00 0 0 0
206 2 2.4610000000000003e+00 2.2733744199610655e+01 6.2326812471314224e+00 0 0 0
208 2 2.4610000000000003e+00 2.1312885187134995e+01 6.2326812471314224e+00 0 0 0
251 2 3.6915000000000004e+00 2.3444173705848499e+01 6.2326812471314224e+00 0 0 0
437 2 0.0000000000000000e+00 2.4154603212086325e+01 9.1357987207989293e+00 0 0 0
438 2 0.0000000000000000e+00 2.1312885187134999e+01 9.1357987207989293e+00 0 0 0
439 2 1.2304999999999993e+00 2.2023314693372832e+01 9.1357987207989293e+00 0 0 0
460 2 1.2304999999999993e+00 2.3444173705848499e+01 9.1357987207989293e+00 0 0 0
461 2 2.4610000000000003e+00 2.4154603212086325e+01 9.1357987207989293e+00 0 0 0
462 2 2.4610000000000003e+00 2.1312885187134995e+01 9.1357987207989293e+00 0 0 0
463 2 3.6914999999999996e+00 2.2023314693372832e+01 9.1357987207989293e+00 0 0 0
484 2 3.6915000000000004e+00 2.3444173705848499e+01 9.1357987207989293e+00 0 0 0
253 2 4.9220000000000006e+00 2.2733744199610655e+01 6.2326812471314224e+00 0 0 0
255 2 4.9220000000000006e+00 2.1312885187134995e+01 6.2326812471314224e+00 0 0 0
485 2 4.9220000000000006e+00 2.4154603212086325e+01 9.1357987207989293e+00 0 0 0
486 2 4.9220000000000006e+00 2.1312885187134995e+01 9.1357987207989293e+00 0 0 0
487 2 6.1524999999999990e+00 2.2023314693372832e+01 9.1357987207989293e+00 0 0 0
776 2 0.0000000000000000e+00 2.6996321237037659e+01 6.2326812471314224e+00 0 0 0
778 2 0.0000000000000000e+00 2.5575462224561992e+01 6.2326812471314224e+00 0 0 0
780 2 1.2305000000000001e+00 2.4865032718324155e+01 6.2326812471314224e+00 0 0 0
788 2 1.2305000000000010e+00 2.7706750743275496e+01 6.2326812471314224e+00 0 0 0
790 2 2.4610000000000003e+00 2.6996321237037659e+01 6.2326812471314224e+00 0 0 0
792 2 2.4610000000000003e+00 2.5575462224561992e+01 6.2326812471314224e+00 0 0 0
794 2 3.6914999999999996e+00 2.4865032718324166e+01 6.2326812471314224e+00 0 0 0
810 2 3.6914999999999996e+00 2.7706750743275496e+01 6.2326812471314224e+00 0 0 0
1091 2 0.0000000000000000e+00 2.5575462224561992e+01 9.1357987207989293e+00 0 0 0
1092 2 1.2305000000000001e+00 2.6285891730799833e+01 9.1357987207989293e+00 0 0 0
1096 2 1.2305000000000010e+00 2.7706750743275496e+01 9.1357987207989293e+00 0 0 0
1098 2 2.4610000000000003e+00 2.5575462224561992e+01 9.1357987207989293e+00 0 0 0
1099 2 3.6914999999999991e+00 2.6285891730799833e+01 9.1357987207989293e+00 0 0 0
1107 2 3.6914999999999996e+00 2.7706750743275496e+01 9.1357987207989293e+00 0 0 0
812 2 4.9220000000000006e+00 2.6996321237037659e+01 6.2326812471314224e+00 0 0 0
814 2 4.9220000000000006e+00 2.5575462224561992e+01 6.2326812471314224e+00 0 0 0
816 2 6.1524999999999990e+00 2.4865032718324155e+01 6.2326812471314224e+00 0 0 0
840 2 6.1524999999999990e+00 2.7706750743275496e+01 6.2326812471314224e+00 0 0 0
1109 2 4.9220000000000006e+00 2.5575462224561992e+01 9.1357987207989293e+00 0 0 0
1122 2 6.1524999999999990e+00 2.7706750743275496e+01 9.1357987207989293e+00 0 0 0
786 2 1.2304999999999993e+00 2.9127609755751163e+01 6.2326812471314224e+00 0 0 0
808 2 3.6914999999999991e+00 2.9127609755751152e+01 6.2326812471314224e+00 0 0 0
1090 2 0.0000000000000000e+00 2.8417180249513333e+01 9.1357987207989293e+00 0 0 0
1097 2 2.4610000000000003e+00 2.8417180249513326e+01 9.1357987207989293e+00 0 0 0
838 2 6.1524999999999981e+00 2.9127609755751152e+01 6.2326812471314224e+00 0 0 0
1108 2 4.9220000000000006e+00 2.8417180249513336e+01 9.1357987207989293e+00 0 0 0
2082 1 3.3488920476424044e+00 2.8005567503744302e+01 1.2676725726667748e+01 1 0 0
548 1 1.4045422405846986e+00 2.3389364451489467e+01 1.2658732682490340e+01 0 -1 0
3265 1 3.2004263799472419e+00 2.5556643522462696e+01 1.1619374917163988e+01 1 1 -1
1281 1 3.4375282867977033e+00 2.1484747354203229e+01 1.2032603541136917e+01 0 0 2
591 1 5.8494835385836801e+00 2.4738686229839576e+01 1.1654207685293997e+01 1 0 -1
752 1 2.1081751302200852e-01 2.6204806857198548e+01 1.2001334358498093e+01 0 0 -1
3427 1 9.0217944323724275e-01 2.9209624873285971e+01 1.1701202034108782e+01 0 0 1
2700 1 6.0738300748369607e+00 2.9084078211317486e+01 1.1941651989841839e+01 2 -1 -1
2042 1 5.0561534853299781e+00 2.5203339767833459e+01 2.1380446290213523e+01 0 0 0
2770 1 5.2054275045801290e+00 2.6023549563423167e+01 1.4370480727525214e+01 1 -1 -1
549 1 4.2823290158620975e-01 2.3303115607290181e+01 2.1880856459847870e+01 1 1 0
1945 1 1.8922567093270168e+00 2.8183269849685509e+01 2.5124669544866457e+01 0 0 -1
1332 1 4.5534760571496946e+00 2.1614067810040826e+01 1.4915915531308492e+01 0 -2 -2
761 1 5.1354966256533832e+00 2.5165231676405071e+01 2.4270002703009631e+01 2 0 0
647 1 1.2038302704751105e+00 2.8491811169453690e+01 1.6608858687560414e+01 2 -1 0
1264 1 5.6127342230712989e+00 2.8766320051118804e+01 1.5066546229952261e+01 1 0 0
637 1 2.8116548759249809e+00 2.5924323789726269e+01 2.4645816346247063e+01 0 0 0
1906 1 2.3679292164184007e+00 2.0974620874277196e+01 2.1396436996369339e+01 0 0 0
36 1 7.9183345748830436e-01 2.4115474991106705e+01 2.5149382688763048e+01 1 0 0
1377 1 2.1922881114883515e+00 2.5514073296811297e+01 2.1921600148976751e+01 2 0 0
1445 1 5.6982668166540353e+00 2.3280980052671531e+01 1.9179306790791063e+01 1 0 -1
1909 1 2.8794518449109545e+00 2.4319841398425172e+01 1.7873178957026337e+01 0 0 -1
2767 1 4.9683692788003286e+00 2.1711830557027760e+01 2.2166968624564952e+01 1 -1 0
4062 1 2.7320970288888820e+00 2.7212554015077203e+01 1.8233803601125125e+01 0 -1 0
3303 1 2.0172693247079940e+00 2.7853624000424308e+01 2.0728789713827787e+01 1 -1 0
3986 1 3.5302782186003316e+00 2.1155287048156957e+01 1.8980191782535343e+01 -1 0 1
3925 1 4.8238803227986047e+00 2.2628539276340067e+01 2.4815133655910142e+01 -1 0 -1
46 1 5.4309881465129974e+00 2.7684588580786734e+01 1.7504200346915447e+01 1 0 -1
1317 1 3.2853440014946572e-01 2.3016848850358439e+01 1.7265690742512987e+01 -1 0 0
3310 1 2.1710551652859822e+00 2.1542555787097449e+01 2.4452547319951282e+01 0 1 1
623 1 3.0383635704179803e+00 2.4244332378779191e+01 1.5123183736423849e+01 0 0 1
580 1 1.4591893897136978e+00 2.0338166341595862e+01 1.6891152125084108e+01 0 0 -1
22 1 6.0484222871931266e+00 2.7457660499420637e+01 2.0562052880513193e+01 1 0 0
2742 1 4.3360098113295065e+00 2.9273013133121317e+01 2.1497442191934741e+01 -1 -1 1
2611 1 4.4632108574022400e+00 2.9292846431810894e+01 2.4445819274889320e+01 0 0 -1
783 2 0.0000000000000000e+00 2.9838039261988989e+01 3.3295637734631480e+00 0 0 0
785 2 1.2304999999999993e+00 3.0548468768226829e+01 3.3295637734631480e+00 0 0 0
805 2 2.4610000000000003e+00 2.9838039261988989e+01 3.3295637734631480e+00 0 0 0
807 2 3.6915000000000004e+00 3.0548468768226829e+01 3.3295637734631480e+00 0 0 0
835 2 4.9220000000000006e+00 2.9838039261988989e+01 3.3295637734631480e+00 0 0 0
781 2 0.0000000000000000e+00 3.2679757286940330e+01 3.3295637734631480e+00 0 0 0
797 2 0.0000000000000000e+00 3.4100616299415996e+01 3.3295637734631480e+00 0 0 0
801 2 1.2304999999999993e+00 3.1969327780702493e+01 3.3295637734631480e+00 0 0 0
803 2 2.4610000000000003e+00 3.2679757286940337e+01 3.3295637734631480e+00 0 0 0
827 2 2.4609999999999985e+00 3.4100616299415996e+01 3.3295637734631480e+00 0 0 0
831 2 3.6914999999999996e+00 3.1969327780702493e+01 3.3295637734631480e+00 0 0 0
833 2 4.9220000000000015e+00 3.2679757286940337e+01 3.3295637734631480e+00 0 0 0
865 2 4.9220000000000006e+00 3.4100616299415996e+01 3.3295637734631480e+00 0 0 0
799 2 1.2305000000000010e+00 3.4811045805653833e+01 3.3295637734631480e+00 0 0 0
829 2 3.6915000000000018e+00 3.4811045805653833e+01 3.3295637734631480e+00 0 0 0
795 2 0.0000000000000000e+00 3.6942334324367337e+01 3.3295637734631480e+00 0 0 0
819 2 0.0000000000000000e+00 3.8363193336842990e+01 3.3295637734631480e+00 0 0 0
823 2 1.2304999999999993e+00 3.6231904818129486e+01 3.3295637734631480e+00 0 0 0
825 2 2.4610000000000021e+00 3.6942334324367337e+01 3.3295637734631480e+00 0 0 0
857 2 2.4610000000000003e+00 3.8363193336842990e+01 3.3295637734631480e+00 0 0 0
861 2 3.6914999999999996e+00 3.6231904818129486e+01 3.3295637734631480e+00 0 0 0
863 2 4.9220000000000006e+00 3.6942334324367316e+01 3.3295637734631480e+00 0 0 0
902 2 4.9220000000000006e+00 3.8363193336842990e+01 3.3295637734631480e+00 0 0 0
821 2 1.2305000000000010e+00 3.9073622843080841e+01 3.3295637734631480e+00 0 0 0
859 2 3.6915000000000018e+00 3.9073622843080820e+01 3.3295637734631480e+00 0 0 0
782 2 0.0000000000000000e+00 3.1258898274464656e+01 6.2326812471314224e+00 0 0 0
784 2 0.0000000000000000e+00 2.9838039261988989e+01 6.2326812471314224e+00 0 0 0
804 2 2.4609999999999985e+00 3.1258898274464656e+01 6.2326812471314224e+00 0 0 0
806 2 2.4610000000000003e+00 2.9838039261988989e+01 6.2326812471314224e+00 0 0 0
1094 2 0.0000000000000000e+00 2.9838039261988989e+01 9.1357987207989293e+00 0 0 0
1095 2 1.2304999999999993e+00 3.0548468768226829e+01 9.1357987207989293e+00 0 0 0
1105 2 2.4610000000000003e+00 2.9838039261988989e+01 9.1357987207989293e+00 0 0 0
1106 2 3.6915000000000004e+00 3.0548468768226829e+01 9.1357987207989293e+00 0 0 0
834 2 4.9219999999999979e+00 3.1258898274464656e+01 6.2326812471314224e+00 0 0 0
836 2 4.9220000000000006e+00 2.9838039261988989e+01 6.2326812471314224e+00 0 0 0
1120 2 4.9220000000000006e+00 2.9838039261988989e+01 9.1357987207989293e+00 0 0 0