
# Create simulation box and atoms

read_data data.ML_graphite_m500atm_250K
  orthogonal box = (0 0 1.82651) to (49.22 49.0196 26.1135)
  8 by 5 by 2 MPI processor grid
  reading atoms ...
  4063 atoms
  reading velocities ...
  4063 velocities
group water type 1
1303 atoms in group water
group graphite type 2
2760 atoms in group graphite

# Define potential

pair_style sw
pair_coeff * * MLC_e.sw mW C


# Fix graphite atoms in place

fix 5 graphite setforce 0.0 0.0 0.0
velocity graphite set 0.0 0.0 0.0


# Equilibration of molecular water

# Add velocity/set timestep

velocity	    water create ${TEMP} ${SEED} rot yes dist gaussian
velocity	    water create 250 ${SEED} rot yes dist gaussian
velocity	    water create 250 21744 rot yes dist gaussian
timestep	    5.0

# Define output

compute			1 water msd
compute			3 water temp
thermo	    	50
thermo_style	custom step temp press vol etotal ke pe c_1[4] c_3

# Neighbor lists

neigh_modify    delay 0 every 1 check yes

# Set fixes

fix             1 water momentum 10 linear 1 1 1 rescale
fix             2 water nve
fix             3 water temp/csvr ${TEMP} ${TEMP} 500.0 ${SEED}
fix             3 water temp/csvr 250 ${TEMP} 500.0 ${SEED}
fix             3 water temp/csvr 250 250 500.0 ${SEED}
fix             3 water temp/csvr 250 250 500.0 21744
fix             4 water press/berendsen z ${PRES} ${PRES} 1000.0 modulus 20000
fix             4 water press/berendsen z -500 ${PRES} 1000.0 modulus 20000
fix             4 water press/berendsen z -500 -500 1000.0 modulus 20000

# Run 0.5 ns equilibration

dump		    1 all atom 2000 ${DIR}/eq.${NAME}-${TEMP}.dump
dump		    1 all atom 2000 run_11/eq.${NAME}-${TEMP}.dump
dump		    1 all atom 2000 run_11/eq.het_freeze_11-${TEMP}.dump
dump		    1 all atom 2000 run_11/eq.het_freeze_11-250.dump

reset_timestep  0

run	            100000
Neighbor list info ...
  update every 1 steps, delay 0 steps, check yes
  max neighbors/atom: 2000, page size: 100000
  master list distance cutoff = 6.67472
  ghost atom cutoff = 6.67472
  binsize = 3.33736, bins = 15 15 8
  1 neighbor lists, perpetual/occasional/extra = 1 0 0
  (1) pair sw, perpetual
      attributes: full, newton on
      pair build: full/bin/atomonly
      stencil: full/bin/3d
      bin: standard
Per MPI rank memory allocation (min/avg/max) = 4.096 | 4.284 | 4.472 Mbytes
Step Temp Press Volume TotEng KinEng PotEng c_1[4] c_3 
       0    80.132939   -1249.8493    58598.323   -12595.461    970.25367   -13565.715            0          250 
      50    79.417807   -1226.5575    58549.457   -12617.308    961.59482   -13578.903   0.54995091    247.76892 
     100    78.667884   -622.83873    58541.536   -12607.697    952.51471   -13560.211   0.95642145     245.4293 
     150    80.556145   -1144.9413    58570.844   -12612.494    975.37786   -13587.872    1.2139599    251.32032 
     200    77.683441   -905.65632    58603.938   -12598.246    940.59503   -13538.841    1.5142384    242.35802 
     250    80.628571   -1031.0629    58599.695   -12585.532     976.2548   -13561.786    1.8051578    251.54628 
     300    79.356348   -947.00495    58599.139   -12574.534    960.85066   -13535.384    2.0667441    247.57718 
     350    81.608299   -650.04493    58634.997   -12561.768     988.1174   -13549.885    2.1074379    254.60285 
     400    81.222523   -916.76881     58670.68   -12576.353    983.44641   -13559.799    2.3296132     253.3993 
     450     81.97972   -588.25668    58796.551   -12553.221    992.61458   -13545.835    2.5478963    255.76162 
     500     83.67558   -854.71981    58866.133   -12580.114    1013.1481   -13593.263     2.825024    261.05238 
     550    79.708036   -1268.8113    58891.284    -12566.21    965.10891   -13531.319    3.1331056    248.67438 
     600    83.786251   -1307.2585    58886.043   -12560.737    1014.4882   -13575.225    3.3449467    261.39766 
     650    81.548678     -1395.48    58822.857   -12590.645    987.39551   -13578.041    3.5777834    254.41684 
     700    82.264242   -1111.5528    58767.409   -12561.471    996.05959   -13557.531    3.8610918    256.64927 
     750    82.143566   -1462.5476      58735.1   -12541.361    994.59844   -13535.959    4.0167652    256.27278 
     800     81.62818   -994.44167    58691.211   -12586.587    988.35812   -13574.945    4.2145703    254.66488 
     850    82.935314   -1372.5063    58667.159   -12602.439     1004.185   -13606.624    4.3341008    258.74289 
     900    82.431499   -744.80686     58667.99   -12587.577    998.08475   -13585.662    4.4308905    257.17108 
     950     80.78574   -1305.2466    58666.253   -12590.674    978.15782   -13568.832    4.7491578    252.03662 
    1000    82.147525   -1047.4775    58612.151   -12610.537    994.64637   -13605.184    4.8899948    256.28514 
    1050    81.294893   -1137.9448    58576.877   -12605.459    984.32266   -13589.782    5.2379367    253.62508 
    1100    80.053282   -856.14787    58557.921    -12580.48    969.28917   -13549.769    5.3846968    249.75148 
    1150     80.70275   -790.67845    58496.108   -12605.578    977.15296   -13582.731    5.5435919     251.7777 
    1200    81.982931   -593.84626    58516.427    -12586.63    992.65346   -13579.284    5.7735202    255.77163 
    1250    82.702347   -1148.2026    58501.759   -12583.041    1001.3642   -13584.405    5.9952296    258.01608 
    1300    80.490267   -1093.0544    58495.486   -12581.529    974.58021   -13556.109    6.1314603     251.1148 
    1350    81.687666    -1120.306    58534.121   -12585.409    989.07838   -13574.488    6.2379656    254.85046 
    1400    80.591389   -907.00823    58538.265   -12591.547    975.80461   -13567.352    6.2499788    251.43028 
    1450    80.087571   -1495.0469     58576.78   -12618.706    969.70435    -13588.41    6.5412928    249.85846 
    1500    79.650659   -510.99995    58551.782   -12632.591     964.4142   -13597.006    6.6518698    248.49537 
    1550    80.079768   -1262.3856    58573.638   -12633.399    969.60987   -13603.008    6.7360293    249.83412 
    1600    81.823948   -757.88707    58583.864   -12630.083    990.72849   -13620.811    7.0252736    255.27563 
    1650    81.040842   -1050.2822    58625.497   -12643.384    981.24661   -13624.631    7.1965118    252.83249 
    1700    79.521715   -1075.6613    58637.179   -12653.811    962.85294   -13616.664    7.4188983    248.09309 
    1750    76.076358   -1089.4579    58672.761   -12674.646    921.13637   -13595.782    7.6744421    237.34421 
    1800    77.835509   -1044.5374    58654.017   -12681.542    942.43627   -13623.978    7.8519828    242.83244 
    1850    78.544595   -838.32848    58695.778   -12673.116    951.02192   -13624.138    8.0436761    245.04466 
    1900    78.420687   -829.46257    58693.705   -12661.462    949.52163   -13610.983    8.3443377    244.65809 
    1950    79.612026   -1238.7932    58734.126   -12673.092    963.94643   -13637.039    8.6999296    248.37485 
    2000    79.823056   -887.64922    58705.586   -12624.226    966.50159   -13590.727    8.8776297    249.03322 
    2050    78.774069   -1559.1472    58634.246   -12628.607     953.8004   -13582.408     9.172591    245.76058 
    2100    76.854599   -1031.1632    58599.885   -12658.619    930.55936   -13589.179    9.3144088    239.77218 
    2150    77.889651   -1106.2469    58585.449   -12653.268    943.09182    -13596.36    9.5827971    243.00135 
    2200    78.417609   -851.73832    58634.821   -12653.349    949.48436   -13602.833     9.617849    244.64849 
    2250    79.575716   -802.93492    58613.121   -12589.246    963.50678   -13552.753    10.058832    248.26157 
    2300    82.583452   -1235.1464    58648.183   -12576.136    999.92461    -13576.06    10.331563    257.64515 
    2350    79.392534   -686.00358     58687.07   -12593.409    961.28881   -13554.698    10.528746    247.69007 
    2400    82.796532   -934.55316    58683.518   -12576.474    1002.5046   -13578.978    10.611918    258.30992 
    2450    81.650216   -941.90541    58713.378   -12575.062    988.62494   -13563.687    10.838647    254.73362 
    2500    80.568062    -951.3397    58680.358   -12572.653    975.52216   -13548.175    10.890876     251.3575 
    2550    81.255651   -881.60374    58711.375   -12565.204    983.84752   -13549.052    11.138174    253.50265 
    2600    79.465416   -600.53709    58765.975   -12567.407    962.17127   -13529.578    11.513181    247.91745 
    2650    80.412068   -1283.1552    58785.977   -12557.735    973.63338   -13531.369    11.764803    250.87083 
    2700    77.873351   -621.91388    58768.181   -12565.448    942.89446   -13508.343    12.108503     242.9505 
    2750    79.555775   -1229.7965     58673.23   -12554.902    963.26534   -13518.167     12.35088    248.19935 
    2800    82.090639   -831.15324    58691.735   -12544.576    993.95759   -13538.534    12.531094    256.10766 
    2850    79.338997   -783.01624    58699.575   -12557.882    960.64058   -13518.523    12.894018    247.52305 
    2900    82.996511   -1107.4067    58643.996   -12548.164    1004.9259    -13553.09    13.263554    258.93382 
    2950    83.494558   -1040.9478    58604.921   -12573.694    1010.9563   -13584.651    13.672028    260.48763 
    3000    79.706286   -1102.7635    58563.863   -12580.953    965.08774   -13546.041    13.935238    248.66892 
    3050     79.57831   -1457.5753    58530.588   -12612.463    963.53819   -13576.001    14.501104    248.26966 
    3100      78.8895   -940.98723    58503.374   -12636.443    955.19804   -13591.641    14.914607     246.1207 
    3150    79.384006   -979.21248    58497.912   -12625.683    961.18555   -13586.869    15.140646    247.66347 
    3200    81.103194   -1727.9961     58526.15   -12628.396    982.00157   -13610.398    15.313979    253.02702 
    3250    76.430651   -1087.9871    58498.717   -12654.199    925.42618   -13579.626    15.582072    238.44954 
    3300    79.366232   -1035.0222    58466.585   -12627.632    960.97034   -13588.603    15.888558    247.60801 
    3350    77.487394   -695.51682    58481.605   -12641.501    938.22128   -13579.722    15.997242    241.74639 
    3400    81.538957   -975.75194    58460.046   -12635.565     987.2778   -13622.843    16.212445    254.38651 
    3450    80.928109   -972.24309    58445.403   -12612.108    979.88163   -13591.989    16.548733    252.48078 
    3500    80.897793   -787.04483    58443.003   -12587.239    979.51456   -13566.754    16.753314     252.3862 
    3550    81.700015   -897.85287    58414.859   -12597.052     989.2279    -13586.28    16.786158    254.88899 
    3600    78.477161   -1126.7183     58424.66   -12615.081    950.20543   -13565.287    17.134061    244.83428 
    3650    81.144309   -798.60651    58413.001   -12594.556    982.49938   -13577.055    17.483297    253.15529 
    3700    78.093564   -1375.3386    58458.619    -12626.23    945.56081   -13571.791    17.572522    243.63753 
    3750    80.360364    -1123.797    58453.516   -12635.049    973.00733   -13608.057    17.709106    250.70952 
    3800    80.750681   -1232.4194    58411.872   -12613.581    977.73331   -13591.314    17.923265    251.92724 
    3850    81.213358   -1126.0417    58392.137   -12585.299    983.33544   -13568.635    18.065505    253.37071 
    3900    80.968051   -1171.7128    58425.508    -12611.38    980.36524   -13591.745    18.272605    252.60539 
    3950    81.482116   -933.74701    58428.482   -12585.956    986.58956   -13572.545    18.583161    254.20918 
    4000    81.255996   -1114.5393    58455.014     -12577.5     983.8517   -13561.352    18.901201    253.50373 
    4050    82.596901   -1012.4622    58466.304   -12567.852    1000.0874    -13567.94     19.25192    257.68711 
    4100    80.963721   -593.51729    58474.268   -12561.077    980.31282    -13541.39    19.501307    252.59189 
    4150    84.915781    -1101.361    58489.373   -12551.899    1028.1646   -13580.063    20.068531    264.92158 
    4200    80.372602   -828.57092    58529.751   -12581.182    973.15552   -13554.338      20.5657     250.7477 
    4250    79.488457   -403.46356    58560.027   -12629.903    962.45025   -13592.353    20.683317    247.98933 
    4300    80.110684   -1068.4889    58574.557   -12603.902     969.9842   -13573.886    20.920075    249.93057 
    4350    80.015869   -1149.5278    58502.796   -12624.806    968.83618   -13593.642    21.016074    249.63476 
    4400    80.198726   -1212.5838    58461.661   -12624.333    971.05022   -13595.384    21.299957    250.20524 
    4450    79.794758    -420.5066    58458.996    -12595.45    966.15896   -13561.609    21.563326    248.94494 
    4500    78.063263   -883.12494    58454.327   -12638.691    945.19393   -13583.885    21.742989    243.54299 
    4550    81.025234   -839.38849     58542.73   -12619.701    981.05762   -13600.759    22.159986    252.78379 
    4600    80.744173   -1052.9055    58612.815   -12631.097    977.65451   -13608.751    22.652439    251.90694 
    4650    79.693733   -896.90428    58632.814   -12640.724    964.93574    -13605.66    22.885646    248.62976 
    4700    82.183689   -968.26754    58585.212    -12625.09    995.08425   -13620.174    23.148465    256.39796 
    4750    81.100206    -880.6874    58597.936   -12624.999    981.96539   -13606.964    23.458589    253.01769 
    4800    80.985571   -902.69199    58620.378   -12619.132    980.57738    -13599.71    23.632332    252.66005 
    4850    79.396705    -1204.253     58582.93   -12619.576    961.33931   -13580.915    23.731437    247.70308 
    4900    81.866684   -1106.1086    58528.926   -12635.006    991.24594   -13626.252    23.736097    255.40896 
    4950     81.04339   -926.59079     58514.89   -12618.912    981.27745    -13600.19     23.93529    252.84044 
    5000    81.289358   -858.27011     58524.37   -12611.617    984.25564   -13595.873    23.954453    253.60781 
    5050    80.132284   -1493.3382    58546.402   -12604.551    970.24573   -13574.796    24.019829    249.99795 
    5100    80.285079   -939.20754    58526.578   -12606.736    972.09579   -13578.832    24.120084    250.47465 
    5150    78.643651   -649.60574    58558.078   -12606.681    952.22129   -13558.902    24.627134    245.35369 
    5200    78.679831   -664.52242    58604.348   -12611.647    952.65936   -13564.307    25.018448    245.46657 
    5250    76.409079   -1166.0376    58535.285   -12626.431    925.16498   -13551.596    25.271238    238.38224 
    5300    80.637875   -1160.8459    58513.998   -12598.344    976.36746   -13574.712    25.408468    251.57531 
    5350    81.921495   -622.45957    58552.054   -12592.487     991.9096   -13584.396    25.508077    255.57996 
    5400    81.221429   -1066.3954    58629.662   -12588.489    983.43316   -13571.922    25.851447    253.39589 
    5450    80.163548   -1128.2236    58648.331   -12636.767    970.62428   -13607.391    26.397348    250.09549 
    5500     78.72365   -913.06329    58625.414   -12631.273    953.18992   -13584.463    26.805077    245.60328 
    5550    78.911985   -971.81351    58645.342   -12609.039    955.47029   -13564.509    27.145343    246.19085 
    5600    81.163979   -948.79889    58653.611   -12647.005    982.73755   -13629.743    27.317211    253.21665 
    5650    80.410283   -605.38566    58668.305   -12672.858    973.61176    -13646.47    27.417541    250.86526 
    5700    77.484652   -1191.7342    58718.949   -12690.923    938.18807   -13629.111    27.462263    241.73783 
    5750    78.143025   -813.07692    58770.847   -12657.779    946.15969   -13603.938    27.804574    243.79183 
    5800    77.975132   -1277.4779    58749.735   -12663.345    944.12682   -13607.472    28.053432    243.26804 
    5850    80.522811   -870.57989    58748.337   -12658.579    974.97426   -13633.553    28.067045    251.21633 
    5900    78.648402   -939.24824    58716.016   -12657.103    952.27882   -13609.382     28.25052    245.36852 
    5950    80.745938   -803.62647    58757.666   -12629.918    977.67589   -13607.594    28.386868    251.91244 
    6000    80.700397   -1102.3171    58718.395   -12636.337    977.12447   -13613.461    28.646411    251.77036 
    6050    79.003041   -449.59797    58753.995   -12661.282    956.57281   -13617.854    28.665634    246.47493 
    6100    81.119345   -941.32876     58808.38   -12672.644    982.19712   -13654.841    28.633108     253.0774 
    6150    80.914436   -914.55857    58831.782   -12644.767    979.71608   -13624.484    28.605962    252.43813 
    6200    78.810704   -805.74105     58865.58    -12623.37    954.24398   -13577.614    28.712996    245.87487 
    6250    78.571619    -1177.325    58848.827   -12648.572    951.34913   -13599.922     28.98203    245.12897 
    6300    80.421214   -1187.8645    58820.234   -12638.001    973.74412   -13611.745    29.102291    250.89936 
    6350    78.267329   -1092.0696    58815.928   -12677.369    947.66476   -13625.033    29.316456    244.17964 
    6400    76.944467   -1109.1754    58784.374   -12699.403    931.64749    -13631.05     29.61411    240.05255 
    6450    78.975034   -1180.1552    58749.696   -12693.663     956.2337   -13649.897    30.038611    246.38755 
    6500    82.194775   -926.26552    58748.772   -12674.433    995.21848   -13669.652    30.410778    256.43255 
    6550    82.711522   -987.27532    58738.422   -12636.975    1001.4753    -13638.45    30.160189     258.0447 
    6600    80.095411   -1056.2367    58778.905   -12637.591    969.79928    -13607.39    30.110503    249.88292 
    6650     81.21763   -1058.4576    58778.949   -12634.072    983.38716   -13617.459     30.53271    253.38403 
    6700    79.587988   -1248.8677    58716.469   -12651.722    963.65538   -13615.377    30.634755    248.29985 
    6750    76.795265   -805.14552    58686.555   -12650.297    929.84094   -13580.138    30.569111    239.58707 
    6800     80.84144   -1202.8701    58619.803   -12637.214    978.83223   -13616.047    30.816208    252.21039 
    6850    79.791941   -592.06324    58618.992    -12651.88    966.12484   -13618.004    30.991275    248.93615 
    6900    80.268902   -1581.1907    58613.841   -12690.225    971.89991   -13662.125    31.329561    250.42418 
    6950     77.45213   -877.63825    58595.601   -12687.252     937.7943   -13625.046    31.066065    241.63637 
    7000    79.028053   -813.15656    58649.273   -12704.297    956.87565   -13661.172    31.082737    246.55296 
    7050    75.639355   -690.23967    58710.558   -12711.803    915.84512   -13627.648    31.472286    235.98084 
    7100    74.779747   -1063.8932    58772.112   -12719.088    905.43695   -13624.524    31.944282    233.29903 
    7150    81.483634     -1097.46    58724.302   -12696.388    986.60795   -13682.996    32.079518    254.21392 
    7200    77.588984   -992.85318    58689.607    -12684.27    939.45133   -13623.721    32.311328    242.06333 
    7250     80.09474   -649.58936    58717.786   -12660.863    969.79115   -13630.654    32.203718    249.88082 
    7300    80.370017   -1157.3886    58704.941   -12654.325    973.12422   -13627.449    32.177202    250.73964 
    7350     80.86977   -1169.8098    58603.631   -12621.031    979.17525   -13600.206    32.418878    252.29877 
    7400    79.432286   -1078.8553    58540.349   -12650.203    961.77012   -13611.974    32.769357    247.81409 
    7450    79.900978   -1191.1352    58536.859   -12683.595    967.44507    -13651.04    32.838746    249.27632 
    7500    79.861204   -1107.0136    58490.072   -12629.224    966.96348   -13596.187    32.753398    249.15224 
    7550    79.343609   -1344.2206    58448.464   -12649.079    960.69642   -13609.775    33.026769    247.53743 
    7600    78.165517   -1290.5407    58422.571   -12669.072    946.43202   -13615.505     33.20707      243.862 
    7650    78.562597   -1057.1882    58421.571   -12691.253    951.23988   -13642.493    33.348785    245.10082 
    7700    80.419945   -1120.0502    58472.685   -12701.535    973.72875   -13675.264     33.43454     250.8954 
    7750    79.422885   -1063.8987    58422.216   -12671.551    961.65629   -13633.207    33.540909    247.78476 
    7800    81.443331   -881.55257    58443.281   -12681.045    986.11996   -13667.165    33.806706    254.08818 
    7850    79.246896   -877.84975    58399.465   -12698.484    959.52541   -13658.009    34.188679    247.23571 
    7900    78.519599   -999.29753    58432.328    -12686.83    950.71926   -13637.549    34.429235    244.96667 
    7950    77.875669   -1224.4734    58459.222   -12708.252    942.92253   -13651.175    34.947379    242.95773 
    8000    78.104961   -943.32079    58470.684   -12709.338    945.69881   -13655.037    35.178994    243.67308 
    8050    80.409455   -891.89363    58509.717   -12679.408    973.60174   -13653.009    35.430075    250.86268 
    8100    82.564006   -953.69629     58543.39   -12650.542    999.68915   -13650.231    35.746759    257.58448 
    8150    79.792364   -1002.9001    58583.959   -12657.463    966.12997   -13623.593    36.056466    248.93747 
    8200    74.912961   -1014.1113    58606.751   -12673.236    907.04991   -13580.286    36.126053    233.71463 
    8250    78.415434   -920.19865    58618.568   -12668.438    949.45802   -13617.896    36.401131     244.6417 
    8300    81.366575   -1167.5275    58621.927   -12653.396    985.19059   -13638.587    36.616196    253.84872 
    8350    75.688402   -942.65661    58626.669   -12667.454    916.43899   -13583.893    36.627554    236.13386 
    8400     79.85559   -1239.6029    58600.975   -12664.264    966.89551    -13631.16    36.594367    249.13472 
    8450    77.823085    -1088.457    58604.341   -12682.718    942.28584   -13625.004    36.608802    242.79368 
    8500    78.154081   -1114.8786    58575.771   -12654.814    946.29355   -13601.108     36.91324    243.82632 
    8550    78.919366   -680.99646    58642.887   -12666.206    955.55966   -13621.766    36.816469    246.21387 
    8600    78.600924   -1059.6442     58688.12   -12643.601    951.70395   -13595.305    36.688891    245.22039 
    8650    84.095103   -818.83725    58721.391   -12590.344    1018.2278   -13608.572    36.648573    262.36122 
    8700    85.227609   -926.18802    58742.198   -12604.174    1031.9402   -13636.114    36.799995    265.89443 
    8750    84.008115   -789.13754    58757.616   -12610.045    1017.1745   -13627.219    37.264105    262.08983 
    8800    79.137492   -1084.0576    58750.576   -12629.291    958.20074   -13587.492    37.579128    246.89439 
    8850    82.654696   -1307.5877    58747.217   -12603.601    1000.7872   -13604.388    37.486584    257.86742 
    8900    80.427946   -876.82005    58716.317   -12622.113    973.82563   -13595.939    37.648395    250.92037 
    8950    76.810427   -1144.4828    58729.146   -12604.078    930.02453   -13534.103    37.913667    239.63437 
    9000    80.100495   -821.95984    58759.358   -12644.116    969.86083   -13613.977    38.044852    249.89878 
    9050    77.572539   -1070.5085     58719.98   -12645.096    939.25221   -13584.348    38.301827    242.01202 
    9100    79.961674   -1183.4161    58755.312   -12644.774    968.17998   -13612.954    38.521368    249.46568 
    9150    81.671328   -881.49878    58781.777   -12644.583    988.88056   -13633.463    38.866305    254.79949 
    9200    80.366062   -1067.9033    58722.638   -12635.896    973.07633   -13608.972    39.040401     250.7273 
    9250    81.526229   -494.31494    58748.546   -12598.479    987.12369   -13585.603    39.370027    254.34681 
    9300    78.197944   -1189.3476    58844.294   -12578.147    946.82465   -13524.972    39.713159    243.96317 
    9350    81.947003   -1270.2489    58827.098   -12576.157    992.21845   -13568.375    39.933633    255.65954 
    9400      81.0677   -1163.9114    58779.395   -12575.099     981.5718   -13556.671    40.152111    252.91628 
    9450    80.809449   -1298.0427    58717.863   -12593.267    978.44488   -13571.712    40.325111    252.11059 
    9500    78.409961   -1267.2551    58640.769   -12594.739    949.39176   -13544.131     40.51588    244.62462 
    9550    81.646847    -1470.077     58578.35    -12589.83    988.58414   -13578.414    40.734187    254.72311 
    9600    80.389026   -1383.3042    58505.085   -12588.575    973.35438    -13561.93    40.754126    250.79894 
    9650    80.002281    -1420.561    58404.885   -12598.407    968.67165   -13567.078    40.955066    249.59237 
    9700     77.56932   -1771.6956     58303.83   -12623.967    939.21323    -13563.18    41.242464    242.00198 
    9750    82.263196   -923.08304    58288.384   -12601.591    996.04692   -13597.638    41.383876    256.64601 
    9800    83.446929   -999.03764     58301.94   -12626.212    1010.3796   -13636.592     41.64183    260.33904 
    9850    80.071359   -974.28093      58271.7    -12623.85    969.50805   -13593.358     41.56784    249.80788 
    9900    80.537891   -1438.6599    58175.967   -12630.845    975.15684   -13606.002    41.638677    251.26337 
    9950    78.329778   -802.29116    58155.754   -12647.686     948.4209   -13596.107    42.098179    244.37447 
   10000    80.023481   -1163.2671    58157.964   -12617.061    968.92834   -13585.989    42.321918    249.65851 
   10050    78.216292   -1200.6104    58172.574   -12625.783     947.0468    -13572.83    42.507679    244.02041 
   10100    78.375401   -880.37179    58141.502    -12639.21     948.9733   -13588.184    42.664426     244.5168 
   10150    78.122733   -1179.7602    58157.346   -12627.662    945.91399   -13573.576     43.08766    243.72853 
   10200    78.079014   -1028.6362    58136.835   -12621.511    945.38464   -13566.896    43.305987    243.59213 
   10250    79.661072   -726.10493    58196.033   -12601.938    964.54028   -13566.479    43.443151    248.52786 
   10300    80.019956   -1004.2132    58231.365   -12582.968    968.88566   -13551.854    43.600169    249.64751 
   10350    83.197594   -743.56316    58231.281    -12563.34    1007.3607   -13570.701    43.807217    259.56116 
   10400    79.331461   -858.13106    58222.064   -12591.307    960.54933   -13551.856    44.146636    247.49954 
   10450    81.073856   -1430.8641    58232.752   -12600.078    981.64634   -13581.724    44.153317    252.93549 
   10500    80.237908   -1124.2725    58232.544   -12615.223    971.52464   -13586.748    44.312715    250.32748 
   10550    80.294258   -1156.1992    58246.339   -12640.109    972.20692   -13612.316     44.93077    250.50328 
   10600    78.861449   -840.85057    58195.093   -12623.736     954.8584   -13578.594    45.161692    246.03318 
   10650    78.748863   -1154.0616    58183.603   -12656.324     953.4952    -13609.82    45.270732    245.68194 
   10700    77.334356   -1013.3542    58169.978   -12669.082    936.36828   -13605.451    45.565062    241.26894 
   10750    79.030305   -1066.3315     58174.26   -12671.347    956.90292    -13628.25    45.671299    246.55998 
   10800    76.789538   -805.20022    58206.364   -12680.004     929.7716   -13609.776    46.040691     239.5692 
   10850    79.408901   -833.62713    58248.659   -12675.442    961.48697   -13636.929    46.316521    247.74113 
   10900    77.923489   -951.75931    58336.449   -12684.047    943.50153   -13627.549    46.457757    243.10692 
   10950    76.761725   -1327.3275    58344.221   -12696.186    929.43484   -13625.621    46.822709    239.48243 
   11000    77.119378   -1233.1156    58275.446   -12681.564    933.76532   -13615.329    46.876959    240.59824 
   11050     75.91295   -815.85851     58211.67   -12657.514    919.15782   -13576.671    47.043182    236.83441 
   11100    79.582559   -894.56827    58224.721   -12648.341    963.58964    -13611.93    47.399001    248.28291 
   11150    78.381245   -1136.5105    58282.873   -12647.983    949.04407   -13597.027    47.342032    244.53504 
   11200    78.776643   -1028.0844    58268.441   -12656.917    953.83156   -13610.748    47.410654     245.7686 
   11250     77.53814   -1008.7541    58310.967   -12666.493    938.83571   -13605.329    47.441997     241.9047 
   11300     78.15197   -853.98483    58346.948   -12652.082    946.26799    -13598.35    47.655286    243.81974 
   11350     78.71131    -770.1276    58388.917   -12667.649    953.04051   -13620.689    47.709235    245.56478 
   11400    77.810188   -1276.6545    58419.066   -12679.509    942.12968   -13621.639    47.942002    242.75344 
   11450    78.957919   -987.94254    58415.881   -12688.463    956.02647   -13644.489    48.131215    246.33415 
   11500    77.758247   -815.42898    58433.045   -12709.866    941.50078   -13651.366    48.463384     242.5914 
   11550    76.526408   -1144.0982    58420.447   -12690.196    926.58561   -13616.781    48.320264    238.74829 
   11600    77.527549   -968.46301    58366.046   -12677.466    938.70747   -13616.173    48.360484    241.87166 
   11650     79.90995   -789.41669    58360.627   -12638.029     967.5537   -13605.583    48.647252    249.30431 
   11700    78.843655   -1079.7415    58382.716   -12605.872    954.64295   -13560.515    49.229948    245.97767 
   11750    82.304627   -966.36294    58307.974   -12575.497    996.54858   -13572.046    49.374077    256.77527 
   11800    77.708653   -1099.2415    58287.178   -12602.589    940.90029   -13543.489    49.257088    242.43667 
   11850    80.563743   -802.23617    58283.028   -12598.585    975.46986   -13574.055    49.255023    251.34403 
   11900    81.967996   -711.31183    58265.883   -12563.729    992.47262   -13556.202    49.833884    255.72504 
   11950    79.433308   -1089.1526    58310.647   -12566.184     961.7825   -13527.966    50.083411    247.81728 
   12000    80.355095   -1056.5062    58324.088   -12560.091    972.94355   -13533.035     50.41633    250.69309 
   12050    83.023874   -962.99889    58296.991   -12549.249    1005.2573   -13554.506    50.515192    259.01918 
   12100    82.469426   -1137.4037    58274.029   -12556.319    998.54397   -13554.863    50.565062    257.28941 
   12150    82.534793   -1394.5692    58235.143   -12550.952    999.33543   -13550.288    50.689102    257.49334 
   12200    79.930874   -1130.3961     58246.49   -12585.821    967.80706   -13553.628    51.320383    249.36959 
   12250    79.624725   -342.55041    58271.435   -12586.228    964.10019   -13550.328    51.705364    248.41447 
   12300     78.73253   -952.19079    58279.122   -12593.549    953.29744   -13546.846    51.999815    245.63098 
   12350    79.761336   -859.29829    58306.128   -12594.754    965.75428   -13560.509    51.950006    248.84067 
   12400    79.333256   -881.80025    58332.739   -12625.099    960.57107    -13585.67    52.245655    247.50514 
   12450    80.521326   -960.90385     58369.15   -12587.336    974.95627   -13562.292    52.514748    251.21169 
   12500     79.89459   -1002.8735    58435.652   -12602.653    967.36772   -13570.021    52.710186    249.25639 
   12550    80.528058   -373.67045    58490.516   -12588.342    975.03778    -13563.38    53.117479     251.2327 
   12600    80.666168   -1259.0071    58542.952    -12574.78    976.71003    -13551.49    53.314197    251.66358 
   12650    80.992431   -627.74172    58557.468   -12600.056    980.66043   -13580.716    53.926709    252.68145 
   12700    80.727733   -934.97769     58563.48   -12621.932    977.45546   -13599.387    54.367457    251.85565 
   12750    78.377245   -1267.8961    58575.758    -12638.78    948.99564   -13587.776    54.458707    244.52256 
   12800    80.963879   -955.14036    58642.843   -12603.975    980.31473    -13584.29    55.072032    252.59238 
   12850    80.166719   -871.30631    58646.906    -12570.81    970.66268   -13541.473    55.208205    250.10539 
   12900    81.052772   -1049.5462    58723.455     -12565.3    981.39105   -13546.691     55.25566    252.86971 
   12950    81.289782   -702.60388    58758.333   -12571.203    984.26078   -13555.464    55.800378    253.60913 
   13000    80.687785   -869.50239    58786.635   -12565.241    976.97177   -13542.213    55.985306    251.73102 
   13050    81.939335   -700.90835    58798.133   -12564.121     992.1256   -13556.246     56.07208    255.63562 
   13100    80.024443   -940.20139    58864.399   -12544.696    968.93999   -13513.636    56.504246    249.66151 
   13150    82.860102   -884.07292    58924.481   -12569.954    1003.2743   -13573.228    56.939185    258.50825 
   13200    80.748828   -910.34823    58928.004   -12547.492    977.71088   -13525.202    57.363605    251.92146 
   13250    80.351657   -924.98597    58930.307   -12560.475    972.90191   -13533.377    57.553491    250.68236 
   13300    81.402337    -835.4824    58942.179   -12532.973     985.6236   -13518.597    57.726383    253.96029 
   13350    81.409845   -1270.0615    58904.867   -12548.783    985.71451   -13534.498    57.969206    253.98371 
   13400    80.938698   -934.93752    58858.401   -12530.784    980.00984   -13510.794    58.174742    252.51382 
   13450    81.199765   -1006.4361    58854.605   -12541.499    983.17085    -13524.67    58.540455     253.3283 
   13500    78.396441   -823.18163    58836.216   -12565.193    949.22806   -13514.421    58.762967    244.58245 
   13550     78.15139   -1204.5999    58822.107   -12613.173    946.26097   -13559.434    58.971299    243.81793 
   13600    78.152815    -1063.462    58843.527   -12587.879    946.27822   -13534.157    59.062263    243.82238 
   13650    79.170672   -988.90967    58809.396   -12592.806    958.60249   -13551.408    59.081151     246.9979 
   13700    81.885728   -1037.7742    58759.311   -12554.372    991.47652   -13545.849     58.93528    255.46838 
   13750     79.69984   -945.16194    58808.474   -12587.978    965.00968   -13552.987    59.413098    248.64881 
   13800    79.521989   -642.35405    58827.819   -12608.365    962.85625   -13571.222     59.44044    248.09395 
   13850    80.799423   -701.42602    58816.961   -12601.588    978.32348   -13579.911    59.561575     252.0793 
   13900    78.068009   -937.50652    58824.886   -12615.735    945.25139   -13560.986    59.781325     243.5578 
   13950    79.481318   -1004.1587    58819.623   -12613.239    962.36381   -13575.603    59.983605    247.96706 
   14000     76.90148   -976.86273     58834.38   -12612.073      931.127     -13543.2     61.06375    239.91844 
   14050    80.093205   -1192.5322    58830.704    -12630.65    969.77256   -13600.423    61.465922    249.87604 
   14100    76.440683   -1094.5133    58804.599   -12617.532    925.54764    -13543.08    61.678845    238.48084 
   14150    77.068081    -1262.436    58810.765   -12634.252    933.14421   -13567.397    61.943995    240.43821 
   14200    81.409343   -1284.1705    58772.356   -12617.731    985.70843   -13603.439    62.529306    253.98214 
   14250    79.044194   -1365.5029    58774.899   -12606.833    957.07109   -13563.904    63.130227    246.60332 
   14300    80.053239    -1329.593    58759.057   -12592.452    969.28865   -13561.741    63.595455    249.75135 
   14350    82.026646   -1279.6512    58725.506   -12577.246    993.18276   -13570.429    64.367362    255.90801 
   14400    80.008512   -1242.9649    58694.664   -12593.659     968.7471   -13562.406    64.633485    249.61181 
   14450    83.389606   -1274.7906    58693.019   -12618.458    1009.6856   -13628.144    64.900687     260.1602 
   14500    80.033279   -856.21848    58672.013   -12618.772    969.04698   -13587.818    65.186508    249.68908 
   14550    78.640534   -1014.4038    58660.741   -12632.342    952.18355   -13584.525    65.159326    245.34397 
   14600    77.006425   -1114.4677    58647.682   -12650.692    932.39768    -13583.09    65.057681    240.24585 
   14650    80.261893   -1264.0868    58576.733    -12663.24    971.81505   -13635.055    64.805442    250.40231 
   14700     80.29061    -1060.296    58573.895   -12669.755    972.16275   -13641.917    65.151221     250.4919 
   14750    79.526219   -1165.6941    58611.734   -12654.114    962.90747   -13617.021    65.438831    248.10714 
   14800    77.721285   -909.78817    58662.365   -12648.976    941.05323   -13590.029     65.24948    242.47608 
   14850    77.864387   -1068.8239    58684.179   -12678.817    942.78593   -13621.603    65.366436    242.92253 
   14900    79.202721   -1194.2765    58700.641   -12669.281    958.99054   -13628.271    65.715646    247.09789 
   14950    80.036094   -1361.5208    58668.296   -12653.478    969.08106    -13622.56    65.903209    249.69786 
   15000    78.048615   -438.98319    58698.609   -12653.301    945.01656   -13598.318    65.929923    243.49729 
   15050    78.572963    -974.7044    58766.812   -12630.285     951.3654   -13581.651    66.092057    245.13316 
   15100    82.359823   -954.43679    58801.093   -12563.576    997.21689   -13560.793    66.344323    256.94747 
   15150     84.04921   -897.14206    58812.689   -12532.493    1017.6721   -13550.165    66.658292    262.21804 
   15200    85.854059   -835.22328    58851.857   -12551.346    1039.5253   -13590.871    67.222625    267.84884 
   15250    84.517464   -883.60825    58870.731   -12557.873    1023.3417   -13581.214    67.626953    263.67891 
   15300    81.154853    -1010.054    58916.492    -12585.01    982.62705   -13567.637    67.791367    253.18818 
   15350    80.862738    -961.9621    58940.408   -12605.793     979.0901   -13584.883    67.935302    252.27684 
   15400    78.769612    -1509.451    58857.632   -12632.518    953.74643   -13586.264    67.774711    245.74667 
   15450    79.254207   -768.44607    58821.261   -12653.124    959.61393   -13612.738    67.660725    247.25852 
   15500    79.383083   -696.49325    58892.146   -12651.412    961.17437   -13612.586    67.993769    247.66058 
   15550    81.148259   -517.36016     58945.61   -12621.436    982.54721   -13603.983    68.080071    253.16761 
   15600    78.882585   -907.90846    58965.245    -12614.98    955.11432   -13570.094    68.532079    246.09912 
   15650     82.76372    -1093.835    58916.344   -12589.542    1002.1073    -13591.65    68.803324    258.20755 
   15700    80.728935   -1031.0356    58896.875   -12589.612    977.47002   -13567.082    69.221172     251.8594 
   15750    82.426357   -1024.2575    58927.507   -12586.227    998.02249   -13584.249    68.891672    257.15504 
   15800    81.894157   -1136.9051    58945.724   -12603.537    991.57858   -13595.116    68.962012    255.49467 
   15850    81.525063   -1250.1198    58974.144   -12610.138    987.10957   -13597.247    69.001219    254.34317 
   15900    80.962316   -634.94375    58980.924    -12633.62     980.2958   -13613.916    68.691898     252.5875 
   15950    80.069088   -752.02034    59034.081   -12649.013    969.48056   -13618.493    68.813434     249.8008 
   16000    80.805397   -782.11859    59081.166   -12657.951    978.39582   -13636.347    69.179204    252.09794 
   16050    80.563978   -905.50721    59125.092   -12635.418    975.47271    -13610.89    69.257142    251.34476 
   16100    79.695439   -842.59636    59120.128   -12647.269    964.95639   -13612.225    69.530161    248.63508 
   16150    78.705141   -862.44783    59102.464   -12656.167    952.96582   -13609.133    69.923949    245.54553 
   16200    82.259512   -1000.0052    59067.427   -12628.298    996.00231     -13624.3    70.139863    256.63451 
   16250    79.119105   -1003.1912    59072.178   -12630.118    957.97811   -13588.096    70.604747    246.83702 
   16300    78.573949   -1143.8972    59019.557   -12613.684    951.37733   -13565.061    71.001521    245.13624 
   16350    81.203708   -956.74324    59060.768   -12591.789    983.21859   -13575.007    71.142427     253.3406 
   16400    80.502861   -1185.4166    59126.503    -12599.98     974.7327   -13574.712    71.075504    251.15409 
   16450    81.254099   -1141.0702      59106.6   -12618.948    983.82872   -13602.777    71.283418    253.49781 
   16500    76.734142   -1198.7653    59062.537   -12680.561    929.10086   -13609.662    71.374674    239.39638 
   16550    76.251755   -1407.4882     58964.61   -12700.147     923.2601   -13623.407    71.600601    237.89142 
   16600    80.351235   -1041.3873    58864.644    -12662.22     972.8968   -13635.116    71.720972    250.68104 
   16650     77.36543   -1242.8961    58815.781   -12676.105    936.74453   -13612.849     72.21132    241.36588 
   16700    79.665344   -1386.9992    58763.924   -12677.422    964.59201   -13642.014    72.450547    248.54119 
   16750    76.721142   -1251.4051    58689.698   -12686.144    928.94346   -13615.087     72.66682    239.35582 
   16800    81.375145   -1444.6415    58653.739   -12659.895    985.29436   -13645.189    72.976403    253.87545 
   16850     78.61117   -1499.8857    58658.988   -12655.099      951.828   -13606.927    73.485181    245.25236 
   16900    81.278958   -1150.9703     58589.21   -12643.252    984.12972   -13627.382    73.338884    253.57537 
   16950     77.92611   -965.43455    58644.104   -12640.744    943.53327   -13584.277    73.359723     243.1151 
   17000    80.731144   -1185.5607    58674.368    -12628.71    977.49677   -13606.207    73.347863    251.86629 
   17050    79.625945   -1102.1358    58664.275   -12638.981    964.11495   -13603.096    73.177465    248.41827 
   17100    78.989198   -993.02017    58680.999   -12642.933    956.40519   -13599.339     73.19996    246.43174 
   17150    81.110624   -988.43093    58726.124   -12639.988    982.09152   -13622.079    73.336328     253.0502 
   17200    80.707155   -677.69135    58772.177   -12613.512     977.2063   -13590.718    73.145251    251.79145 
   17250    79.365761   -862.06781    58754.176   -12647.065    960.96463    -13608.03    73.284262    247.60654 
   17300     81.49968   -838.89251    58735.794   -12639.194    986.80223   -13625.996    73.420564    254.26398 
   17350    79.675674   -1219.8487    58737.119     -12645.6    964.71708   -13610.317     73.48469    248.57342 
   17400    78.778064   -1051.7708    58786.766   -12636.027    953.84877   -13589.876    73.744531    245.77304 
   17450    77.856718   -930.79277    58821.282   -12642.734    942.69307   -13585.427    73.748936    242.89861 
   17500    81.857778   -809.18019    58837.178   -12625.187     991.1381   -13616.326    74.268018    255.38118 
   17550    77.975052   -1287.4751    58804.246   -12648.972    944.12586   -13593.098    74.386926    243.26779 
   17600    77.342573   -683.74318    58765.794   -12654.636    936.46777   -13591.104    74.801326    241.29457 
   17650    77.109289     -1197.24    58757.629   -12664.799    933.64316   -13598.442    74.776377    240.56677 
   17700    80.155915   -1014.1384    58787.357   -12656.557    970.53186   -13627.089     74.54463    250.07168 
   17750    78.386351   -1276.7982    58752.866   -12658.147    949.10589   -13607.253    74.921688    244.55096 
   17800      78.3894   -1103.8723    58676.579   -12641.128    949.14281   -13590.271    74.904456    244.56048 
   17850    79.267708   -1035.6776    58655.852   -12619.127    959.77741   -13578.904    75.246797    247.30064 
   17900    83.292727   -635.53147    58729.411    -12595.31    1008.5125   -13603.822    75.250755    259.85796 
   17950    80.302056   -1074.9788    58736.475   -12646.343    972.30134   -13618.644    75.068908    250.52761 
   18000    80.167271   -921.54093    58727.142   -12637.832    970.66936   -13608.501    75.165131    250.10711 
   18050    77.595128   -1278.3226    58669.665   -12645.573    939.52573   -13585.098     75.59574     242.0825 
   18100    82.024733   -977.62837    58604.005   -12629.227     993.1596   -13622.387    75.483613    255.90205 
   18150    82.045201    -849.8174    58635.067   -12608.511    993.40743   -13601.918    75.730655     255.9659 
   18200     82.13666   -853.73869    58653.163   -12598.254    994.51482   -13592.769    76.012277    256.25124 
   18250    82.765746   -1450.1696    58604.093   -12583.629    1002.1318   -13585.761    76.339803    258.21387 
   18300    81.197599   -884.46871    58520.551   -12586.566    983.14462   -13569.711    76.658266    253.32154 
   18350    79.979167    -1056.831     58508.02    -12614.47    968.39179   -13582.862    76.718397    249.52026 
   18400    79.036799   -862.62121    58485.303   -12620.031    956.98155   -13577.013    76.710356    246.58024 
   18450     80.38234    -1705.537    58468.938   -12593.373    973.27343   -13566.647    77.046801    250.77808 
   18500    78.382014   -818.38469    58378.154    -12622.93    949.05337   -13571.984      77.2838    244.53743 
   18550    80.962544   -1252.3449    58365.884       -12636    980.29857   -13616.298    77.153286    252.58821 
   18600    79.232047   -1047.1801    58358.607   -12617.678    959.34562   -13577.023    77.130434    247.18938 
   18650    80.234966   -1343.4453    58358.518   -12638.915    971.48902   -13610.404    77.187447    250.31831 
   18700    76.748784   -984.83038    58369.569   -12666.481    929.27814   -13595.759    77.564656    239.44206 
   18750    79.761415    -962.0177    58394.105   -12673.355    965.75524   -13639.111    77.689601    248.84091 
   18800    79.793184   -396.92346    58419.572   -12669.864    966.13989   -13636.003    77.770689    248.94003 
   18850     75.71031   -1197.8078    58430.808   -12654.401    916.70425   -13571.106     77.91254    236.20221 
   18900    79.424435   -837.10659    58468.651   -12651.661    961.67506   -13613.336    77.878488     247.7896 
   18950    78.005512   -1235.0902    58456.313   -12661.525    944.49467    -13606.02    78.438638    243.36282 
   19000    79.797947   -1482.3438    58406.731   -12678.582    966.19757    -13644.78    78.649245    248.95489 
   19050    82.226394   -440.74133    58390.543   -12654.091    995.60132   -13649.692    78.471731    256.53119 
   19100    80.724141   -946.36981    58389.741   -12609.855    977.41197   -13587.267    78.751865    251.84444 
   19150     83.27707   -607.50394    58492.388   -12603.735     1008.323   -13612.058    78.918739    259.80911 
   19200     81.07895   -815.91489    58594.762   -12597.125    981.70801   -13578.833    78.529549    252.95138 
   19250    81.524903   -1176.7241    58673.008   -12625.875    987.10763   -13612.983    78.479121    254.34267 
   19300    82.802018   -1130.9462    58710.726   -12605.239     1002.571    -13607.81    78.232836    258.32703 
   19350    79.808942   -1106.6241    58697.821   -12606.517    966.33069   -13572.848    78.890718    248.98919 
   19400    80.779274   -1355.5783    58716.187   -12600.341    978.07952   -13578.421    78.852295    252.01644 
   19450    81.487182   -1044.0202    58677.498   -12600.571    986.65091   -13587.222    78.821697    254.22499 
   19500    77.310835   -906.52056    58728.924   -12604.337    936.08349   -13540.421    78.956892    241.19555 
   19550    79.660232   -1108.2871    58726.163   -12603.365     964.5301   -13567.895    78.780463    248.52524 
   19600    79.397178   -937.75443    58746.342   -12607.273    961.34504   -13568.618    78.631674    247.70456 
   19650    79.603234   -902.45605    58728.594   -12615.616    963.83997   -13579.456    78.737683    248.34742 
   19700    80.702894   -1110.0355    58735.448    -12635.07    977.15471   -13612.225    78.879074    251.77815 
   19750    79.053249   -1289.6151    58719.535   -12628.549    957.18073    -13585.73    78.999054    246.63157 
   19800    79.581419   -921.61691    58659.144   -12607.317    963.57583   -13570.892    78.729327    248.27936 
   19850    77.466658   -988.57615    58664.281    -12611.07     937.9702    -13549.04    79.100467    241.68169 
   19900       80.744   -948.70157    58708.328   -12589.387    977.65242   -13567.039    79.352613     251.9064 
   19950    82.340058   -1101.7172    58700.816   -12579.776    996.97757   -13576.753    79.548952     256.8858 
   20000    82.974234   -1322.0379    58694.343   -12574.784    1004.6562    -13579.44    79.712414    258.86431 
   20050    80.749179   -1016.8145    58674.186   -12597.735    977.71514    -13575.45     79.64799    251.92255 
   20100    83.768986   -735.10543    58676.946   -12590.848    1014.2791   -13605.127    80.191691    261.34379 
   20150    83.073545   -889.09324    58708.468   -12561.136    1005.8587   -13566.994     80.28759    259.17415 
   20200    82.231785    -838.4784    58751.659   -12549.137     995.6666   -13544.803    79.936241    256.54801 
   20250    79.788423   -662.36535    58794.388   -12554.368    966.08224    -13520.45    80.124792    248.92517 
   20300    83.948423   -1033.0443    58794.982    -12541.12    1016.4517   -13557.572    80.175181    261.90361 
   20350    85.744023    -920.4569    58838.294   -12561.891     1038.193   -13600.084    80.456135    267.50555 
   20400    83.031657   -1209.1523    58856.886   -12561.221    1005.3515   -13566.572     80.82584    259.04346 
   20450    82.126148   -1406.0065    58785.701   -12587.762    994.38754    -13582.15    81.263951    256.21844 
   20500    80.468696   -921.95938    58720.087   -12605.137    974.31903   -13579.456    81.876668     251.0475 
   20550    82.542766   -1278.0979    58700.222   -12590.613    999.43198   -13590.045    82.282125    257.51822 
   20600    80.959574   -1238.0965    58598.186   -12611.014     980.2626   -13591.277     82.89021    252.57895 
   20650    79.889668   -1173.3084    58542.756   -12613.653    967.30813   -13580.961    83.160414    249.24104 
   20700    81.930323   -965.27623    58526.242    -12601.79    992.01648   -13593.807     83.01746    255.60751 
   20750    83.212139   -732.94216    58535.783    -12571.53    1007.5368   -13579.067    82.950028    259.60654 
   20800     78.96542   -1016.8753     58541.02   -12618.049    956.11729   -13574.167    83.061035    246.35756 
   20850    78.420311   -1031.3555    58550.645   -12631.175    949.51708   -13580.693    83.495576    244.65692 
   20900    82.088943   -1193.5509    58582.148   -12639.549    993.93706   -13633.486    84.105456    256.10237 
   20950    78.488576   -1019.1527    58598.734   -12630.015    950.34363   -13580.359    84.077937    244.86989 
   21000    78.373882   -1010.8429    58597.422   -12650.429    948.95491   -13599.384    83.976889    244.51206 
   21050     77.61798   -676.81839    58643.685   -12624.575    939.80242   -13564.377    84.218474    242.15379 
   21100    80.870176   -824.29149    58715.165   -12621.492    979.18017   -13600.672    84.460592    252.30004 
   21150    79.859918   -937.77339    58749.191   -12638.413    966.94791   -13605.361    84.308433    249.14822 
   21200    78.723209   -1104.0428    58698.039   -12673.973    953.18459   -13627.157    84.268684     245.6019 
   21250    79.453939   -996.29348    58716.145   -12669.534     962.0323   -13631.567    84.278026    247.88164 
   21300    79.376654   -1230.0265    58733.893   -12670.214    961.09653   -13631.311    83.966385    247.64053 
   21350    76.657903   -1170.0274    58725.146   -12704.435    928.17776   -13632.613    83.939629    239.15853 
   21400    78.387511   -1211.4343    58667.663   -12699.534    949.11993   -13648.654    84.235529    244.55458 
   21450     77.45563   -759.38175    58649.342   -12687.499    937.83667   -13625.336    84.609077    241.64729 
   21500    78.608505   -722.56175    58684.378   -12652.553    951.79575   -13604.348    84.883117    245.24405 
   21550    79.621372   -922.97123    58690.778   -12645.611    964.05959   -13609.671    85.074585      248.404 
   21600    78.033832   -1043.6913    58667.918   -12647.559    944.83757   -13592.397    85.356296    243.45117 
   21650    80.343027   -1508.7519    58657.055   -12632.857    972.79743   -13605.654    85.474897    250.65544 
   21700    77.500848   -1133.3863    58684.055   -12618.568    938.38418   -13556.952    85.833884    241.78836 
   21750    79.943488    -1019.399    58653.055   -12604.018    967.95979   -13571.977    85.779203    249.40895 
   21800    81.997629   -1235.8136    58584.531   -12614.597    992.83142   -13607.428    85.863246    255.81749 
   21850    82.581479   -1081.9575    58558.114   -12623.375    999.90071   -13623.275    85.815283    257.63899 
   21900    80.774313   -930.84017      58529.3   -12619.541    978.01945   -13597.561    85.645012    252.00097 
   21950    81.926312   -1051.1069    58573.447   -12622.653    991.96791   -13614.621    85.545353    255.59499 
   22000    78.545475   -856.68947    58570.988   -12612.323    951.03257   -13563.356    85.664579     245.0474 
   22050    80.705641   -1209.1722    58554.734   -12592.242    977.18797    -13569.43    85.890331    251.78672 
   22100    80.046155   -1212.2095     58481.68   -12589.571    969.20288   -13558.774    85.652697    249.72925 
   22150    79.421272   -1304.9054    58432.366   -12586.469    961.63677   -13548.106    85.827793    247.77973 
   22200    83.129335   -1216.9275     58386.24   -12586.749    1006.5342   -13593.283      86.4384     259.3482 
   22250    75.274996   -1028.9703    58423.136    -12592.55    911.43344   -13503.983    86.859115    234.84411 
   22300    80.250473   -974.47601    58441.158   -12611.121    971.67677   -13582.797    87.097361    250.36668 
   22350    79.270565   -1078.7411     58440.33   -12615.334      959.812   -13575.146    87.617555    247.30955 
   22400    80.775527   -780.97474    58468.631   -12621.408    978.03415   -13599.442    87.626247    252.00475 
   22450    80.277026   -1403.7131    58445.693   -12627.072    971.99827    -13599.07    87.794964    250.44952 
   22500    80.517256   -807.78086    58393.817   -12621.023    974.90699    -13595.93    87.979006      251.199 
   22550    80.904932   -686.47572    58363.509   -12626.773    979.60099   -13606.374    88.294351    252.40847 
   22600    78.925061   -557.97247    58360.025   -12626.244    955.62862   -13581.873    88.561684    246.23164 
   22650    79.393362   -907.36967    58413.752   -12624.129    961.29883   -13585.428    88.607969    247.69266 
   22700     79.72845    -1462.094     58423.11   -12640.409    965.35609   -13605.765    88.591632    248.73807 
   22750    75.272784   -799.84689    58414.251    -12637.36    911.40667   -13548.766    88.813465    234.83721 
   22800     80.41397   -901.47322    58479.766   -12639.459    973.65641   -13613.116    88.948667    250.87676 
   22850    81.731884   -1225.1411    58484.439   -12611.211    989.61377   -13600.824    89.073107    254.98841 
   22900    76.729313   -1253.6512    58465.708   -12649.224    929.04239   -13578.266    89.645811    239.38131 
   22950    82.450572   -1583.0405    58474.492   -12612.512    998.31568   -13610.828    89.819866    257.23059 
   23000    76.605233   -1213.5981     58387.26       -12632    927.54002    -13559.54    89.570446    238.99421 
   23050    79.181238   -1047.7015    58334.449   -12642.319    958.73042   -13601.049    89.915135    247.03087 
   23100    81.017892     -992.491    58358.799   -12618.635    980.96872   -13599.603    89.939834    252.76089 
   23150    78.218802   -1225.6289    58348.357   -12601.526     947.0772   -13548.604    89.932576    244.02824 
   23200    76.986946    -1017.297    58307.266   -12613.713    932.16182   -13545.875     90.12307    240.18508 
   23250    80.135175   -847.72614    58283.349    -12585.54    970.28074   -13555.821     90.46959    250.00697 
   23300    81.732043   -823.28408    58307.701     -12537.9     989.6157   -13527.515    90.271849    254.98891 
   23350    80.615597   -841.02649    58336.657   -12547.817    976.09771   -13523.914    90.728065     251.5058 
   23400    83.271807   -1254.9386    58348.765   -12568.707    1008.2592   -13576.967    90.855681    259.79269 
   23450     80.11816   -1125.1019    58354.557   -12594.896    970.07472   -13564.971    91.121044    249.95389 
   23500    79.664827    -1016.983    58337.669   -12576.642    964.58574   -13541.228     91.32801    248.53957 
   23550    79.840946   -1062.5378    58294.596   -12600.012     966.7182    -13566.73     91.58216    249.08903 
   23600    76.260545   -1127.3542    58246.007   -12627.841    923.36652   -13551.207    91.768801    237.91884 
   23650    78.676656   -1084.0433    58265.158   -12643.769    952.62092    -13596.39    92.207671    245.45667 
   23700    79.225682    -1305.421    58236.091   -12605.068    959.26855   -13564.336    92.304255    247.16952 
   23750    80.831597   -1259.8199    58207.376   -12585.246    978.71305   -13563.959    92.726786    252.17968 
   23800    81.153731   -833.99123    58235.273   -12606.243    982.61347   -13588.856    92.672354    253.18468 
   23850    78.388289    -1092.842    58244.837    -12622.03    949.12935   -13571.159    92.323159    244.55701 
   23900    78.552462   -1273.3299    58215.452   -12604.991    951.11718   -13556.108    92.388278     245.0692 
   23950    81.933487   -581.03393    58201.819   -12592.636     992.0548   -13584.691    92.125133    255.61738 
   24000    82.735065   -1554.4318    58178.218   -12586.178    1001.7603   -13587.939    92.394623    258.11815 
   24050    81.532595   -1388.1394    58143.328   -12585.078    987.20077   -13572.278    92.537229    254.36667 
   24100    82.870734   -1119.9827    58186.056    -12570.77     1003.403   -13574.173    92.606066    258.54142 
   24150    79.115586   -1421.6129    58266.766   -12595.363    957.93551   -13553.298    92.900371    246.82605 
   24200    81.116079   -1115.3354    58273.146   -12630.779    982.15757   -13612.936    93.135628    253.06721 
   24250    81.632876   -1054.3816    58297.888    -12625.52    988.41498   -13613.935    93.327349    254.67953 
   24300    80.114518   -913.19768    58326.273    -12606.01    970.03062   -13576.041    93.560393    249.94253 
   24350    79.250406   -1071.8151    58322.211   -12632.876    959.56791   -13592.444    93.702082    247.24666 
   24400    80.281367   -1489.1504    58354.436   -12637.159    972.05084    -13609.21    93.628359    250.46307 
   24450    81.849591   -982.74833    58358.097   -12632.532    991.03897   -13623.571    94.084685    255.35563 
   24500    80.561933   -733.32095    58392.848   -12618.135    975.44795   -13593.583    94.353773    251.33838 
   24550    82.606038   -1017.3547    58430.282   -12603.042    1000.1981    -13603.24    94.896972    257.71561 
   24600    81.281505    -622.3272    58471.072   -12613.876    984.16056   -13598.037    95.045057    253.58331 
   24650     80.58497    -1509.198    58482.263   -12594.634    975.72688    -13570.36    95.630604    251.41025 
   24700    78.726791   -1189.3284    58444.556   -12599.464    953.22796   -13552.692    95.690219    245.61308 
   24750    79.803777   -914.40161    58485.212   -12596.043    966.26816   -13562.311    96.141857    248.97307 
   24800    81.257333   -755.61528    58487.875   -12568.369    983.86788   -13552.237    95.734373     253.5079 
   24850    79.914698   -1189.8573     58454.78   -12578.134    967.61119   -13545.745    96.002333    249.31913 
   24900    80.025029   -510.52389     58401.51   -12552.227    968.94708   -13521.174    96.522551    249.66334 
   24950    78.566383   -1076.4352    58421.142   -12577.674    951.28572    -13528.96    96.400776    245.11263 
   25000    76.828734   -1236.7251    58411.723   -12584.343    930.24618   -13514.589    95.887415    239.69149 
   25050    81.025864   -1013.0541    58392.862   -12581.498    981.06524   -13562.563     96.15488    252.78576 
   25100    79.823321   -1036.4256    58402.795   -12568.882    966.50479   -13535.387    96.497076    249.03405 
   25150    81.590327   -1181.0559    58455.045   -12552.904    987.89979   -13540.804    96.370165    254.54678 
   25200     81.61421   -793.30428    58483.299   -12585.873    988.18898   -13574.062    96.495392    254.62129 
   25250     79.27922   -960.77794    58507.258   -12558.427     959.9168   -13518.344    97.161478    247.33655 
   25300    81.477631   -988.42712    58540.598    -12554.43    986.53527   -13540.965     97.03974    254.19519 
   25350    83.716058   -1061.1055     58551.61   -12545.467    1013.6382   -13559.105    97.139849    261.17867 
   25400    80.581139   -827.31293    58609.959    -12549.39     975.6805   -13525.071     97.73982     251.3983 
   25450    80.600176   -775.55126    58628.284   -12601.316    975.91099   -13577.227    97.930137    251.45769 
   25500     78.04714   -983.12028    58657.598   -12610.939    944.99871   -13555.938    98.537877    243.49269 
   25550    81.638937   -714.07644    58679.398   -12596.346    988.48837   -13584.834    98.803341    254.69843 
   25600    82.066743   -1186.1964    58658.539   -12558.791    993.66827   -13552.459     99.13719    256.03311 
   25650    84.429478   -1066.7065    58641.008   -12536.277    1022.2764   -13558.553    99.534313    263.40441 
   25700    80.469353    -1404.812    58587.179   -12550.361    974.32698   -13524.688    100.15496    251.04955 
   25750    83.857284   -1301.2128    58544.529   -12567.121    1015.3482   -13582.469    100.51905    261.61927 
   25800    80.974758   -1275.3907    58515.066   -12586.766    980.44645   -13567.213    100.85381    252.62632 
   25850    77.956657    -813.2508    58503.744   -12617.505    943.90313   -13561.408    100.88042     243.2104 
   25900    79.041671   -1065.2329    58476.764   -12622.483    957.04054   -13579.523    101.11938    246.59544 
   25950    80.781821   -1159.2437     58494.06   -12629.226    978.11036   -13607.336     101.2678    252.02439 
   26000    81.034308   -1169.6272    58471.801   -12649.846    981.16749   -13631.013    101.81224     252.8121 
   26050    77.868631   -1197.9591    58484.856   -12622.105    942.83731   -13564.942    101.93484    242.93577 
   26100     81.79592   -648.11045    58502.583    -12599.04    990.38912   -13589.429    101.96168    255.18819 
   26150    81.906021   -920.40058    58510.483   -12630.317    991.72223   -13622.039     101.7803    255.53169 
   26200    80.876404   -659.90034    58591.474   -12611.172    979.25558   -13590.427    101.99454    252.31947 
   26250     82.14695   -502.93074    58645.783   -12603.249    994.63942   -13597.888    102.32953    256.28334 
   26300    78.054079    -745.3529    58716.314    -12617.14    945.08273   -13562.223    102.31204    243.51434 
   26350    81.789187   -708.92784    58745.114   -12640.834    990.30759   -13631.142     102.6216    255.16719 
   26400    81.507881   -959.57164     58749.41   -12634.417    986.90154   -13621.319    102.81028    254.28957 
   26450     79.88766   -1051.6147    58728.939   -12652.263    967.28382   -13619.547     103.1048    249.23477 
   26500    78.676833   -1260.1651    58772.684    -12691.42    952.62306   -13644.043    103.21843    245.45722 
   26550    78.214731   -1087.0271    58713.607   -12707.154     947.0279   -13654.182    103.30189    244.01554 
   26600    76.799069   -1714.9338    58661.169   -12720.737      929.887   -13650.624    103.88636    239.59894 
   26650    76.459431   -1295.1605    58540.636   -12705.053    925.77464   -13630.827     104.3752    238.53933 
   26700    79.544649   -1291.1045    58493.108   -12678.315    963.13062   -13641.446    104.44444    248.16464 
   26750    78.044943   -1225.7507    58455.547   -12659.168    944.97211    -13604.14      104.663    243.48584 
   26800    81.671193   -1190.6653    58455.933   -12600.641    988.87893    -13589.52    104.61497    254.79907 
   26850    82.743019   -898.47848    58460.604    -12604.89    1001.8566   -13606.747    104.87174    258.14297 
   26900    80.091493   -1046.3816    58451.036   -12612.648    969.75184   -13582.399    105.42821    249.87069 
   26950    80.063108   -881.41407    58434.455   -12631.041    969.40815   -13600.449    105.13809    249.78214 
   27000    79.951897   -757.03595    58459.154   -12620.464     968.0616   -13588.526    104.87223    249.43518 
   27050    78.041801   -1220.3893     58461.68   -12639.283    944.93406   -13584.217    104.90764    243.47603 
   27100    79.037998   -864.73354    58462.112    -12648.41    956.99606   -13605.406    105.14118    246.58398 
   27150    78.589744   -1402.7279     58464.49   -12663.448    951.56858   -13615.017    105.41232    245.18551 
   27200    79.824742   -1027.8729    58413.623   -12626.922      966.522   -13593.444    105.49286    249.03848 
   27250    80.768624   -735.41454     58404.11   -12604.001    977.95057   -13581.952    105.88704    251.98322 
   27300    83.200134   -1033.6065     58434.47   -12565.665    1007.3914   -13573.057    106.27847    259.56908 
   27350    83.030765   -961.63826    58443.463    -12538.16    1005.3407   -13543.501    106.52681    259.04068 
   27400    83.297166   -1343.3136    58438.876   -12528.726    1008.5663   -13537.293      107.427     259.8718 
   27450    82.939273   -1269.0762    58411.521   -12536.541    1004.2329   -13540.773    107.31614    258.75524 
   27500     80.31013   -1492.0634    58393.946   -12575.561     972.3991    -13547.96    107.63529     250.5528 
   27550    82.057351   -1171.8077    58351.901    -12601.46    993.55454   -13595.015    108.06899    256.00381 
   27600    81.027423   -1234.2871    58329.937   -12579.417    981.08412   -13560.501    108.53506    252.79062 
   27650    82.536865   -1154.8811    58275.622   -12564.905    999.36053   -13564.266    108.92146    257.49981 
   27700    81.294423   -994.31913    58254.701   -12576.076    984.31698   -13560.393    108.92332    253.62362 
   27750    79.564684   -985.52152    58244.488   -12580.728     963.3732   -13544.101    109.07427    248.22715 
   27800    81.243168   -1083.5507    58328.614    -12582.79    983.69638   -13566.486     109.1699    253.46371 
   27850    81.891351   -1048.3273    58367.589   -12562.565     991.5446   -13554.109     109.2548    255.48592 
   27900    81.292051   -1189.2443    58379.777   -12573.862    984.28825    -13558.15    108.86026    253.61621 
   27950    81.917712   -1168.7557    58365.699   -12583.473    991.86379   -13575.337    109.03246    255.56816 
   28000    79.069182   -1175.2254    58307.001   -12583.321    957.37364   -13540.695    109.21285    246.68127 
   28050    82.210167   -1091.1077    58293.015   -12557.321    995.40485   -13552.725    109.93133    256.48057 
   28100    83.008344   -1141.2251    58343.966   -12553.017    1005.0692   -13558.086      110.262    258.97073 
   28150    80.201226   -691.21939    58360.465   -12569.359    971.08049    -13540.44    110.62189    250.21304 
   28200    79.420087   -743.03352    58386.412   -12605.865    961.62242   -13567.487    111.13066    247.77603 
   28250    77.453364   -1080.7066    58434.614   -12625.692    937.80924   -13563.501    111.82232    241.64022 
   28300    78.037424    -660.2706    58443.102   -12654.157    944.88107   -13599.038    112.48575    243.46238 
   28350    80.913153   -1168.8826    58479.291   -12622.205    979.70053   -13601.906    113.27636    252.43412 
   28400    77.614512   -693.28434     58529.95   -12618.265    939.76043   -13558.025    113.39857    242.14297 
   28450    80.024974   -991.02714    58529.906   -12587.571    968.94642   -13556.517    113.37223    249.66317 
   28500    79.811919   -797.20238    58486.258   -12612.233    966.36674     -13578.6    113.87664    248.99848 
   28550    80.613347    -1199.266    58494.456   -12626.961    976.07047   -13603.031    114.20977    251.49878 
   28600    83.593104   -1253.8871    58462.428   -12622.917    1012.1495   -13635.067    114.46441    260.79507 
   28650     79.88934   -547.93448    58398.729    -12611.85    967.30415   -13579.155    114.31222    249.24001 
   28700    83.305477   -806.51807     58442.17   -12588.258    1008.6669   -13596.925    114.27737    259.89773 
   28750    79.233782   -1068.1796    58435.275   -12602.579    959.36663   -13561.946    114.31578     247.1948 
   28800    80.684449   -1122.9635    58425.491   -12616.113    976.93138   -13593.045    114.63006    251.72061 
   28850    80.491125   -1265.5689    58390.949     -12615.1     974.5906    -13589.69    114.96116    251.11747 
   28900    80.413851   -1039.1449    58413.763   -12658.903    973.65496   -13632.558    115.00344    250.87639 
   28950    78.360411   -1433.6317    58380.786     -12650.4    948.79181   -13599.191    115.60196    244.47004 
   29000    81.162499   -1295.2176    58349.708   -12613.665    982.71964   -13596.384    115.75851    253.21204 
   29050    82.001395   -965.79449    58328.332   -12593.938    992.87703   -13586.815    116.45321    255.82924 
   29100    82.683052   -1154.0524    58368.974   -12615.694    1001.1306   -13616.824    116.64953    257.95588 
   29150    80.726719   -1129.5076     58398.05   -12615.828    977.44318   -13593.271    117.07865    251.85248 
   29200    77.590666   -852.85798    58418.157   -12640.209     939.4717   -13579.681    117.26559    242.06858 
   29250    79.396668   -1082.1553    58470.308   -12631.548    961.33886   -13592.887    117.12555    247.70297 
   29300    78.491823   -1123.9217    58470.341   -12629.807    950.38295    -13580.19    117.64793    244.88002 
   29350    81.578356   -1026.7603    58466.376   -12630.401    987.75484   -13618.155    117.57093    254.50943 
   29400     81.27959   -980.79558    58483.656   -12634.694    984.13738   -13618.831    117.64066    253.57734 
   29450    79.162955   -931.72456    58506.303   -12671.936    958.50905   -13630.445    117.80286    246.97383 
   29500    77.556173   -1230.5064    58552.455   -12661.114    939.05406   -13600.168    118.28021    241.96097 
   29550    79.334245   -1032.9262    58565.442   -12634.225    960.58304   -13594.809    118.16801    247.50822 
   29600    80.840105   -1327.3688     58558.81   -12621.724    978.81606    -13600.54    118.61779    252.20623 
   29650     81.17971   -1152.9286    58531.425   -12608.272    982.92802     -13591.2    119.30539    253.26573 
   29700     79.05026   -1392.5885    58465.486   -12588.814    957.14453   -13545.958    120.05584    246.62224 
   29750    83.268525   -1041.9135    58487.968   -12593.545    1008.2195   -13601.765    120.95642    259.78245 
   29800    78.270667    -1034.993    58527.432   -12596.494    947.70518   -13544.199    121.36799    244.19005 
   29850    76.869703    -1006.084     58473.38    -12597.32    930.74225   -13528.062    121.55205    239.81931 
   29900    79.130583   -875.54537    58442.085   -12597.593    958.11709    -13555.71    121.91577    246.87283 
   29950    80.513329   -1274.8216    58398.885   -12568.744    974.85945   -13543.604    121.79799    251.18675 
   30000    80.861109   -1154.2838    58400.694   -12580.213    979.07038   -13559.283    122.16288    252.27175 
   30050     81.96236   -760.47226    58448.432   -12596.614    992.40438   -13589.019     121.9292    255.70745 
   30100    80.907727   -1245.7071    58535.131   -12588.147    979.63484   -13567.782    121.75598     252.4172 
   30150    81.526318   -896.50946    58579.471   -12591.473    987.12477   -13578.598    121.80702    254.34709 
   30200    78.389822   -949.70519    58672.565   -12593.658    949.14791   -13542.806    121.81761    244.56179 
   30250    79.663038   -761.00568    58688.902   -12620.187    964.56408   -13584.751    121.58218    248.53399 
   30300    79.961129   -839.12334    58712.301   -12610.189    968.17339   -13578.362    121.55121    249.46398 
   30350    79.438514   -522.93773    58749.137   -12639.001    961.84553   -13600.846    121.30084    247.83352 
   30400    80.297735   -1172.7224    58742.664   -12626.928    972.24902   -13599.177    121.41634    250.51413 
   30450     80.52192   -1507.0152     58736.25   -12591.758    974.96347   -13566.722    121.77283    251.21355 
   30500    76.997969    -1129.162    58707.074   -12593.967    932.29529   -13526.262    122.13737    240.21947 
   30550    80.298825   -795.94778    58685.887   -12578.461    972.26223   -13550.723    122.81778    250.51753 
   30600    79.216364   -1056.4222      58643.5   -12572.354    959.15573   -13531.509    122.74986    247.14045 
   30650    80.550062   -1274.0344    58571.318     -12568.1    975.30421   -13543.404    122.67814    251.30134 
   30700    79.413936   -1032.6784    58531.478   -12592.249    961.54794   -13553.797    123.62247    247.75684 
   30750    81.642522   -1291.5017    58511.273   -12561.122    988.53178   -13549.653    123.57137    254.70962 
   30800    77.422193   -1081.2486    58451.484    -12575.66    937.43181   -13513.091    123.56289    241.54297 
   30850    80.524255   -998.81661    58407.021    -12609.12    974.99175   -13584.111     123.7724    251.22083 
   30900    79.438813   -1053.4602    58450.041   -12607.111    961.84916    -13568.96    124.05615    247.83445 
   30950    81.113547   -931.98081     58441.16   -12583.761    982.12691   -13565.888    124.14786    253.05931 
   31000    81.245699   -856.17975    58419.852   -12595.634    983.72702   -13579.361    124.82225     253.4716 
   31050    78.540185   -982.18168    58377.516   -12603.981    950.96852   -13554.949    125.16876     245.0309 
   31100    78.309853   -850.70349    58309.205   -12618.633    948.17965   -13566.813    125.44089    244.31231 
   31150    79.673165   -1069.8302    58261.204   -12560.244     964.6867   -13524.931    126.09786    248.56559 
   31200    80.292125   -1021.3142    58254.967   -12578.048    972.18109   -13550.229    126.26995    250.49663 
   31250    80.934163   -684.36463    58231.084   -12561.431    979.95493   -13541.386    126.65764    252.49967 
   31300    80.826412   -1194.6588    58255.904   -12536.543    978.65028   -13515.193    127.02652    252.16351 
   31350    79.052924   -604.20218    58282.119    -12562.43    957.17679   -13519.607    127.52367    246.63055 
   31400     80.46641   -1193.4456    58322.759   -12572.607    974.29135   -13546.899    127.95541    251.04037 
   31450    80.393016    -963.2716     58372.03   -12547.451     973.4027   -13520.853    128.84038    250.81139 
   31500    81.684083   -977.25999    58360.045   -12545.973      989.035   -13535.008    128.62317    254.83928 
   31550    79.974838   -987.95779     58341.74    -12531.69    968.33937   -13500.029    127.93835    249.50675 
   31600    80.820648   -1004.5835    58347.594   -12535.958    978.58048   -13514.538    127.88889    252.14552 
   31650    81.049645   -686.14618    58370.857   -12553.677    981.35319    -13535.03    127.83111    252.85995 
   31700    79.741057   -982.12646    58346.198   -12528.046    965.50873   -13493.555     127.8657     248.7774 
   31750    79.974906   -793.73371    58355.292    -12529.82     968.3402   -13498.161    128.09257    249.50697 
   31800    78.197896   -1368.9214    58361.962   -12529.075    946.82407   -13475.899    128.29197    243.96302 
   31850    80.038691   -947.32386    58378.311   -12574.093    969.11251   -13543.205    128.21059    249.70596 
   31900    80.444424   -1025.7095    58335.035   -12581.567    974.02514   -13555.592    128.58873    250.97177 
   31950    80.173484   -724.70769    58299.218   -12591.215    970.74458    -13561.96    128.74071    250.12649 
   32000    78.769277   -952.43644    58336.413   -12604.796    953.74238   -13558.538    128.82204    245.74562 
   32050    82.549442   -1013.1492    58365.692    -12577.83     999.5128   -13577.342     129.2305    257.53904 
   32100    78.401223   -941.24707    58381.088   -12582.257    949.28596   -13531.543    129.19209    244.59736 
   32150     79.41884   -882.80429     58382.85   -12608.655    961.60732   -13570.263    129.22299    247.77214 
   32200    79.070445   -1524.5592    58363.718   -12592.767    957.38894   -13550.156    129.49907    246.68521 
   32250    80.165173   -902.90685    58365.992    -12588.76    970.64395   -13559.404    129.75786    250.10056 
   32300    77.768477    -966.0982    58375.444   -12605.563    941.62464   -13547.187    130.00149    242.62331 
   32350    80.465998    -1175.861    58405.834   -12611.413    974.28636     -13585.7    130.11505    251.03908 
   32400    80.670422    -1101.506    58459.348   -12596.335    976.76154   -13573.097    129.93045    251.67685 
   32450    78.384214   -995.09538    58456.847   -12608.597    949.08002   -13557.677    130.16174     244.5443 
   32500    78.485303   -1316.1808    58424.085   -12628.623    950.30401   -13578.927    130.57447    244.85968 
   32550    77.880265   -823.62471    58357.103   -12631.036    942.97817   -13574.015    130.52681    242.97207 
   32600    78.794683    -1294.525     58377.57   -12622.885       954.05   -13576.935    130.57742    245.82489 
   32650     80.71035   -736.93048     58428.39   -12633.475    977.24499    -13610.72    130.79899    251.80141 
   32700    78.149161    -1446.113    58426.935   -12638.589    946.23399   -13584.823    131.52119    243.81098 
   32750    79.602712   -825.62198    58416.446   -12671.286    963.83365   -13635.119       131.05    248.34579 
   32800    79.853606   -1168.6774    58414.469   -12653.587    966.87149   -13620.458    131.05876    249.12853 
   32850    78.540003     -1160.49    58442.984   -12655.853    950.96631   -13606.819     130.9787    245.03033 
   32900    81.159335   -727.32685    58432.286    -12655.18    982.68132   -13637.861    130.80356    253.20217 
   32950    78.313849   -1059.6062    58426.294   -12680.014    948.22803   -13628.242    130.74441    244.32477 
   33000    78.206013   -936.17514    58464.456   -12610.838    946.92235    -13557.76    130.90151    243.98835 
   33050    78.692313   -1107.1901    58443.139   -12608.178    952.81049   -13560.988    131.33246    245.50551 
   33100    82.710622   -1224.2851    58471.568   -12560.241    1001.4644   -13561.705      131.658    258.04189 
   33150    79.058738   -959.14868    58501.083   -12603.652    957.24719   -13560.899    132.42455    246.64869 
   33200    79.408079   -1137.0217    58536.709   -12600.114    961.47702   -13561.591     132.7776    247.73857 
   33250    79.756348   -1102.2578    58541.463   -12621.361    965.69388   -13587.055    133.36449     248.8251 
   33300    80.179656   -1135.2174    58573.479    -12610.36    970.81932    -13581.18    133.45593    250.14575 
   33350     80.71722   -764.87505    58564.665   -12602.714    977.32817   -13580.042    132.81659    251.82285 
   33400    77.530282   -1053.0959    58555.039   -12616.994    938.74057   -13555.734    133.03838    241.88019 
   33450     76.80845    -807.0159    58593.287    -12629.69    930.00059   -13559.691    133.20575    239.62821 
   33500    79.908212   -802.79331    58601.463   -12634.177    967.53266    -13601.71     133.5753    249.29889 
   33550    79.243567   -794.02514    58587.287   -12621.748    959.48511   -13581.233    134.34064    247.22532 
   33600    81.042854   -1107.4835     58579.56   -12591.121    981.27096   -13572.392      134.945    252.83877 
   33650     80.37703   -1104.9018    58565.842   -12580.948    973.20913   -13554.157    135.79065    250.76152 
   33700    81.572069   -1503.0188    58573.119   -12608.873    987.67872   -13596.551    136.68932    254.48982 
   33750     78.95071   -1045.3597    58531.739   -12635.052    955.93918   -13590.991    137.47411    246.31166 
   33800    78.006648   -931.97559    58533.736   -12659.495    944.50842   -13604.003    137.36614    243.36636 
   33850    80.628881   -835.78716     58585.09   -12640.275    976.25855   -13616.534    137.23977    251.54724 
   33900    80.434252   -695.31392    58585.197   -12625.976    973.90197   -13599.878    136.59667    250.94004 
   33950    81.034531    -1121.469    58644.034   -12630.777    981.17019   -13611.947    136.30126     252.8128 
[...]
   92000    78.094578   -1197.5182    58461.468   -12643.565    945.57309   -13589.138    350.77472    243.64069 
   92050    78.993607   -1358.6749    58393.703   -12623.199    956.45858   -13579.657    351.24932    246.44549 
   92100    76.813352    -709.7431    58410.437   -12637.894    930.05994   -13567.954    350.51941     239.6435 
   92150    77.103381   -886.18912    58412.913   -12631.942    933.57163   -13565.513    351.20444    240.54834 
   92200    75.041037   -809.72539    58439.596   -12628.436    908.60067   -13537.037    350.98182     234.1142 
   92250    78.490333   -1089.6285    58455.897   -12621.417    950.36491   -13571.782    351.99614    244.87537 
   92300    79.234731   -1206.7602    58427.121   -12626.078    959.37811   -13585.456    351.82701    247.19775 
   92350    80.317199   -706.80149     58486.43   -12603.173    972.48469   -13575.658    351.64204    250.57485 
   92400    82.932517   -934.48092    58500.151   -12598.056    1004.1511   -13602.207    352.69792    258.73417 
   92450    80.736827   -898.29963    58489.982    -12602.35    977.56557   -13579.915    353.23429    251.88402 
   92500    77.139046   -908.38854    58459.404   -12610.232    934.00345   -13544.235    352.99948     240.6596 
   92550    79.257631   -1088.0469    58432.826   -12614.822    959.65539   -13574.477    353.34406     247.2692 
   92600    77.572042   -766.48826    58433.504    -12658.45     939.2462   -13597.696    353.30733    242.01047 
   92650     78.27822    -1112.468    58429.683   -12664.553    947.79663   -13612.349    353.40638    244.21362 
   92700    79.227655   -911.34301     58388.65   -12660.789    959.29245   -13620.081    354.58771    247.17568 
   92750    81.672934   -861.25197    58452.784   -12609.424    988.90001   -13598.324    355.40146     254.8045 
   92800    82.635875   -1090.6046    58515.978    -12604.15    1000.5593   -13604.709    355.21759     257.8087 
   92850    81.442894    -781.3002    58541.561   -12592.276    986.11467   -13578.391    356.17091    254.08682 
   92900    82.801023   -977.05092    58625.563     -12580.7     1002.559   -13583.259    355.64056    258.32393 
   92950    81.246905   -886.21658    58654.708   -12575.323    983.74162   -13559.065     355.8499    253.47537 
   93000    80.324283   -495.73459    58662.253   -12554.389    972.57047   -13526.959    355.59213    250.59696 
   93050    81.997838   -1193.6081    58722.752   -12554.716    992.83396    -13547.55    356.03408    255.81814 
   93100    82.669412   -947.75378    58749.408   -12538.295    1000.9654    -13539.26    355.80543    257.91333 
   93150     81.48402   -694.72761    58793.512   -12560.533    986.61263   -13547.146    354.84065    254.21512 
   93200    80.997301   -1069.9111    58803.156   -12542.522     980.7194   -13523.241    354.34528    252.69665 
   93250    81.153831   -1176.7148    58855.814   -12541.367    982.61468   -13523.981     354.1978    253.18499 
   93300    81.848825    -1388.276    58842.782   -12555.105     991.0297   -13546.135    355.01456    255.35325 
   93350    81.679306   -1326.7071    58822.631   -12613.719    988.97716   -13602.697    354.47418    254.82438 
   93400    79.489922   -1379.6601    58830.904   -12602.089    962.46799   -13564.557    354.95702     247.9939 
   93450    80.602847   -1178.0696    58841.176   -12565.398    975.94334   -13541.342    354.95725    251.46603 
   93500     81.59709   -917.58232    58868.429    -12560.98    987.98168   -13548.961    355.96547    254.56788 
   93550     81.57713   -910.78504    58908.563     -12544.4    987.74001    -13532.14    355.95494    254.50561 
   93600    80.455567   -1074.4636    58876.926   -12557.397    974.16007   -13531.558    356.70087    251.00654 
   93650    79.593705   -975.28311    58859.249   -12572.518    963.72459   -13536.243    356.44305    248.31769 
   93700    80.166938   -923.89296    58860.092   -12568.431    970.66533   -13539.096    356.35109    250.10607 
   93750    81.002059   -1104.9641    58872.237    -12563.56    980.77702   -13544.337    356.11277    252.71149 
   93800    79.452974   -1329.8958     58866.34   -12591.215    962.02061   -13553.235    355.86745    247.87863 
   93850    81.983705   -1284.6341    58816.803   -12614.657    992.66283    -13607.32    356.05688    255.77405 
   93900    83.065455   -1214.4127    58829.543   -12573.878    1005.7607   -13579.639    356.60811    259.14891 
   93950    80.714783   -1621.2223    58800.483   -12539.606    977.29867   -13516.904    356.25975    251.81525 
   94000    86.810277   -806.64519    58731.508   -12539.145    1051.1032   -13590.248    356.72084    270.83206 
   94050    80.671846   -861.40873    58751.259   -12575.385    976.77878   -13552.164    357.82668    251.68129 
   94100    81.051981    -1181.419    58763.374   -12561.393    981.38147   -13542.775    357.63618    252.86724 
   94150    77.636789   -1193.1358    58728.655   -12612.466    940.03015   -13552.497    358.39827    242.21247 
   94200    79.802501    -1128.115    58733.027   -12604.654    966.25271   -13570.906    357.83539    248.96909 
   94250    79.428576   -991.94971    58732.194   -12630.003    961.72521   -13591.728    357.19415    247.80252 
   94300    79.927379   -1170.0521    58744.889   -12603.669    967.76473   -13571.433    357.02691    249.35869 
   94350    80.963368   -1288.5016    58750.955   -12573.895    980.30854   -13554.204    357.19544    252.59078 
   94400    80.645651   -1200.9416    58733.348    -12593.24    976.46161   -13569.702    358.13321    251.59957 
   94450    80.575188   -939.63802     58783.94   -12593.959    975.60844   -13569.568     357.0742    251.37973 
   94500    84.236565    -1293.761    58769.154   -12594.138    1019.9406   -13614.078    357.96227    262.80256 
   94550    80.214183   -770.85884    58771.449   -12647.018    971.23737   -13618.255    358.29553    250.25346 
   94600    81.717385   -1101.0165    58783.139   -12647.241    989.43822   -13636.679    357.78666    254.94318 
   94650    77.722772   -768.05409     58802.55   -12636.673    941.07125   -13577.744    357.12328    242.48072 
   94700    77.712637   -764.11679    58797.198   -12661.662    940.94852    -13602.61    357.64355     242.4491 
   94750    78.611191   -817.51374    58778.985   -12647.589    951.82827   -13599.417    357.45143    245.25243 
   94800    80.179602   -1213.5726    58773.674   -12613.274    970.81866   -13584.093     357.0699    250.14558 
   94850    81.059176   -812.17757    58782.722   -12618.252    981.46859    -13599.72    357.37903    252.88969 
   94900    81.613264   -1206.1682    58744.689   -12598.894    988.17751   -13587.071    357.65051    254.61834 
   94950    80.210648    -961.7654    58780.189   -12607.297    971.19457   -13578.491     358.0645    250.24244 
   95000    81.921036   -1011.6448    58778.651   -12600.493    991.90403   -13592.397    357.85737    255.57853 
   95050     80.12301   -784.17835    58745.772   -12580.467    970.13345   -13550.601     357.9793    249.96902 
   95100     82.04766   -792.08482    58792.124   -12569.637     993.4372   -13563.074    358.58416    255.97357 
   95150    84.046885   -950.61965    58777.493   -12554.006    1017.6439    -13571.65    358.45093    262.21079 
   95200    81.725524   -706.15193    58788.656   -12574.539    989.53677   -13564.075    357.98877    254.96857 
   95250    78.926862   -925.70327    58839.303   -12578.885    955.65042   -13534.535     358.7263    246.23726 
   95300    81.444969   -1121.9237     58865.13   -12551.623    986.13979   -13537.763    359.12652    254.09329 
   95350    82.881902   -1286.4884    58840.938   -12546.303    1003.5382   -13549.841    359.87614    258.57626 
   95400    81.632678   -946.13596    58846.385   -12534.978    988.41258   -13523.391    360.37792    254.67891 
   95450    82.525999   -1134.4887    58844.642   -12552.627    999.22895   -13551.856    360.02954     257.4659 
   95500    83.395278   -1152.6935    58855.258   -12517.463    1009.7542   -13527.217    360.55393    260.17789 
   95550    81.323748   -986.67639    58810.106   -12574.755    984.67204   -13559.427    360.45522     253.7151 
   95600    83.297643   -1435.5805    58804.595   -12544.445    1008.5721   -13553.017    360.66409    259.87329 
   95650    81.026284   -918.12968    58746.042   -12573.881    981.07033   -13554.951    360.91892    252.78707 
   95700     78.86049   -990.42108    58705.564   -12573.715    954.84679   -13528.562    361.36021    246.03019 
   95750    78.230643   -807.06515    58706.172   -12590.244    947.22057   -13537.464    361.84675    244.06519 
   95800    83.578001   -530.08687    58813.451   -12563.153    1011.9667    -13575.12    362.34377    260.74796 
   95850    80.228448   -733.69296    58872.979   -12604.298     971.4101   -13575.708    361.94713    250.29797 
   95900      79.3584   -813.91022    58905.572   -12602.346    960.87551   -13563.221     362.1264    247.58358 
   95950    80.675499   -771.49806    58914.181   -12564.284    976.82301   -13541.107    362.55779    251.69269 
   96000    81.803767   -876.73645    58906.378   -12573.147    990.48414   -13563.631    362.68856    255.21268 
   96050    81.178869    -1353.517    58891.369   -12576.036    982.91784   -13558.954    363.16757    253.26311 
   96100    83.258756    -1091.337    58859.305   -12547.318    1008.1012   -13555.419    362.95535    259.75197 
   96150    79.495761   -1033.4634    58808.563   -12588.576    962.53868   -13551.114     362.9045    248.01212 
   96200    78.953352   -905.76069    58818.544   -12592.358    955.97116    -13548.33    362.40053     246.3199 
   96250    78.597918   -1020.1174     58777.12    -12565.03    951.66755   -13516.697     361.9017    245.21102 
   96300    81.653202   -1031.0371    58818.612   -12548.982    988.66109   -13537.643    362.57329    254.74294 
   96350    79.948333   -1088.7839    58857.677   -12588.823    968.01845   -13556.841    362.90158    249.42406 
   96400    82.615913   -1129.4268    58825.235   -12613.133    1000.3176   -13613.451    362.50967    257.74642 
   96450    79.104287   -968.99568    58824.979   -12620.152     957.7987    -13577.95    363.56372    246.79079 
   96500    81.573385   -872.17235    58815.465   -12603.877    987.69466   -13591.572    363.38341    254.49392 
   96550    81.259563   -1069.9483    58843.966   -12634.043    983.89489   -13617.938    363.96575    253.51486 
   96600    82.135258   -881.03322    58836.386    -12610.51    994.49785   -13605.008    363.24919    256.24687 
   96650     77.33737   -949.33344    58854.131   -12608.835    936.40478    -13545.24    363.33331    241.27834 
   96700    83.017963   -1083.8148    58889.367   -12599.169    1005.1857   -13604.355    363.98961    259.00074 
   96750    81.147128   -1062.4859    58883.124   -12586.594    982.53352   -13569.128    363.91712    253.16408 
   96800    83.650436    -1134.364    58903.699   -12582.641    1012.8437   -13595.484    363.40903    260.97394 
   96850     82.12312   -1507.2011    58889.039   -12597.533    994.35087   -13591.884    363.49694      256.209 
   96900    83.166823   -1372.1814    58853.298    -12582.69    1006.9881   -13589.678     363.0482    259.46516 
   96950    84.667967   -1158.0656    58839.831   -12563.213     1025.164   -13588.377    362.45444    264.14845 
   97000    79.693824   -1303.3616     58840.55   -12603.218    964.93684   -13568.155    361.99479    248.63004 
   97050     81.03684   -1298.2831    58757.062   -12591.107    981.19814   -13572.305    361.56685       252.82 
   97100    78.745587   -1079.4882    58743.242   -12597.262    953.45554   -13550.718     361.7995    245.67172 
   97150     80.24543   -1393.7994    58736.019   -12603.959    971.61572   -13575.575    362.10059    250.35095 
   97200    82.300531   -807.30541    58696.959   -12583.108    996.49899   -13579.607    362.14962    256.76249 
   97250    81.008821   -1012.1168    58686.994   -12614.258    980.85889   -13595.117    362.54639    252.73259 
   97300    79.304951   -1060.7085    58699.716   -12621.097    960.22835   -13581.326    363.04911    247.41683 
   97350    79.056766   -858.94124    58651.963   -12631.304    957.22331   -13588.527    362.34078    246.64254 
   97400    77.874344   -1164.8517    58656.458   -12631.926    942.90648   -13574.832     363.1394     242.9536 
   97450     78.22382   -823.10683    58666.129    -12663.02    947.13795   -13610.158    363.37154     244.0439 
   97500    82.539842   -1033.3511    58624.352   -12630.603    999.39657       -13630    363.35614    257.50909 
   97550    80.166151   -816.45067    58591.874   -12619.796     970.6558   -13590.452    363.19195    250.10361 
   97600     80.60923   -558.03954    58595.281   -12612.481    976.02062   -13588.502    362.74249    251.48594 
   97650    80.641351   -731.99124    58694.967   -12624.119    976.40954   -13600.529    362.98226    251.58615 
   97700    78.181282   -1065.5969    58747.156   -12618.087     946.6229    -13564.71    363.05643    243.91119 
   97750    79.993356   -1053.8867    58768.926   -12601.889    968.56359   -13570.453    363.58201    249.56453 
   97800    79.547211   -784.57136    58751.503   -12621.613    963.16164   -13584.775    363.47405    248.17264 
   97850    78.041722   -861.20863    58682.163   -12632.533     944.9331   -13577.466    363.91883    243.47579 
   97900    79.015479   -1298.9464    58624.678   -12646.436     956.7234    -13603.16    363.91412    246.51373 
   97950    80.234037   -1164.9476    58634.165   -12635.756    971.47777   -13607.233    365.30208    250.31541 
   98000    79.551982   -775.95785    58660.871   -12651.716     963.2194   -13614.936    365.37653    248.18752 
   98050    79.530746    -1082.469    58633.061   -12632.695    962.96228   -13595.658    365.86252    248.12127 
   98100    79.012081   -742.82803      58681.6   -12635.604    956.68226   -13592.286    365.59762    246.50313 
   98150    83.485445   -838.65718    58666.885   -12593.681     1010.846   -13604.527    366.00002     260.4592 
   98200    83.797821   -878.29394    58608.725   -12568.171    1014.6282   -13582.799    366.12857    261.43375 
   98250    80.314024   -1101.1966    58599.632   -12608.746    972.44625   -13581.192    367.23102    250.56495 
   98300    78.156682   -643.54485    58673.252   -12608.851    946.32505   -13555.176    367.33894    243.83444 
   98350    80.314443   -1205.9625    58688.015   -12566.863    972.45133   -13539.314    367.13374    250.56626 
   98400    82.279485   -846.21864    58686.468   -12549.547    996.24416   -13545.791    367.03346    256.69683 
   98450    82.528209   -1319.9538    58660.268   -12551.299    999.25571   -13550.555     366.6954     257.4728 
   98500    79.287807   -1117.7999    58606.144   -12574.116    960.02077   -13534.137    367.01208    247.36334 
   98550    80.005926   -1212.8253     58574.52   -12569.658    968.71578   -13538.374    366.82281    249.60374 
   98600     82.85615   -1040.6009    58523.038   -12546.263    1003.2264    -13549.49    367.48119    258.49592 
   98650    81.592436   -730.15673    58519.333   -12566.737    987.92533   -13554.662    367.63026    254.55336 
   98700    78.075489   -883.37384    58498.452   -12622.038    945.34196    -13567.38    367.65754    243.58113 
   98750    81.464072   -1018.5556    58523.718   -12613.646    986.37109   -13600.018    367.57945    254.15289 
   98800    78.541197   -1152.9207    58507.616   -12630.251    950.98077   -13581.232    367.84969    245.03406 
   98850    78.913669   -1109.6176    58550.856   -12606.724    955.49068   -13562.214    367.40356     246.1961 
   98900    78.453735   -604.59557    58534.487   -12624.705    949.92178   -13574.627    367.58832    244.76119 
   98950    79.178899   -701.87194    58566.812   -12610.425     958.7021   -13569.127    367.48488    247.02357 
   99000    81.668658   -763.67727    58622.526   -12606.166    988.84823   -13595.015    367.83742    254.79116 
   99050    79.763275   -1136.1015    58665.795   -12599.384    965.77776   -13565.162    368.32304    248.84672 
   99100    77.838131   -706.88164    58659.798   -12604.659    942.46802   -13547.127    369.05764    242.84062 
   99150    78.018678   -831.41435    58745.831   -12609.723    944.65408   -13554.377    368.92979    243.40389 
   99200    78.527376   -1470.1559    58675.433   -12635.062    950.81342   -13585.876    369.82205    244.99094 
   99250    78.263233    -1074.711    58577.393   -12653.891    947.61517   -13601.506    370.51871    244.16686 
   99300    77.295097   -708.33047    58543.577    -12663.89    935.89293   -13599.783    370.98351    241.14645 
   99350    80.565849   -855.90673    58530.743    -12606.84    975.49536   -13582.335    371.48547     251.3506 
   99400    82.442946   -945.27202    58507.453   -12568.282    998.22334   -13566.505    371.61281    257.20679 
   99450    80.815108   -879.57066    58435.566   -12578.265    978.51341   -13556.778    371.58254    252.12824 
   99500    81.079777   -874.47999     58468.84   -12596.914    981.71803   -13578.632     371.9176    252.95396 
   99550    82.012747   -853.56705    58473.325   -12586.313    993.01447   -13579.327    371.56387    255.86465 
   99600    80.721692   -1356.8357    58493.695   -12579.639    977.38231   -13557.021     372.5802     251.8368 
   99650    83.097018    -874.1984    58541.509   -12592.911    1006.1429   -13599.054    373.22555    259.24738 
   99700    79.844226   -1243.4827    58568.715   -12586.608    966.75791   -13553.366    373.36352    249.09927 
   99750    79.607596   -1386.9826    58588.006    -12590.67    963.89278   -13554.562    375.01392    248.36102 
   99800    78.147757   -933.44842    58630.201   -12613.534    946.21699   -13559.751    375.09953     243.8066 
   99850    77.693052   -1199.1464    58618.924   -12636.607    940.71139   -13577.319    375.62401      242.388 
   99900    81.745292   -1032.0229    58660.336    -12649.43    989.77611   -13639.206    375.64886    255.03024 
   99950    79.147307   -745.14482     58648.95   -12641.688    958.31959   -13600.008    375.39258    246.92501 
  100000    80.575289   -1037.2726    58663.363   -12589.621    975.60966    -13565.23    375.93665    251.38005 
Loop time of 82.0372 on 80 procs for 100000 steps with 4063 atoms

Performance: 526.591 ns/day, 0.046 hours/ns, 1218.960 timesteps/s
99.5% CPU use with 80 MPI tasks x no OpenMP threads

MPI task timing breakdown:
Section |  min time  |  avg time  |  max time  |%varavg| %total
---------------------------------------------------------------
Pair    | 48.881     | 51.617     | 56.667     |  28.4 | 62.92
Neigh   | 0.46757    | 1.0974     | 1.9963     |  59.6 |  1.34
Comm    | 15.171     | 20.99      | 24.143     |  54.8 | 25.59
Output  | 0.13318    | 0.13663    | 0.26532    |   3.9 |  0.17
Modify  | 6.4162     | 7.2393     | 8.1292     |  14.3 |  8.82
Other   |            | 0.957      |            |       |  1.17

Nlocal:    50.7875 ave 87 max 21 min
Histogram: 33 7 0 0 0 0 3 13 15 9
Nghost:    717.175 ave 752 max 671 min
Histogram: 3 5 10 7 6 10 10 8 9 12
Neighs:    0 ave 0 max 0 min
Histogram: 80 0 0 0 0 0 0 0 0 0
FullNghs:  5588.75 ave 11228 max 1102 min
Histogram: 40 0 0 0 0 0 1 8 21 10

Total # of neighbors = 447100
Ave neighs/atom = 110.042
Neighbor list builds = 5703
Dangerous builds = 0

write_data		${DIR}/data.eq-${NAME}-${TEMP}
write_data		run_11/data.eq-${NAME}-${TEMP}
write_data		run_11/data.eq-het_freeze_11-${TEMP}
write_data		run_11/data.eq-het_freeze_11-250
undump          1

reset_timestep  0

unfix           2
unfix           3
unfix           4


################################################
#######         Run Simulation         #########
################################################

log				${DIR}/log.run_${NAME}
log				run_11/log.run_${NAME}
log				run_11/log.run_het_freeze_11
