LAMMPS data file via write_data, version 16 Mar 2018, timestep = 8000000

4545 atoms
2 atom types

0.0000000000000000e+00 4.9219999999999999e+01 xlo xhi
0.0000000000000000e+00 4.9019635930410494e+01 ylo yhi
5.1409355203758622e-01 3.3121246234481951e+01 zlo zhi

Masses

1 18.015
2 12.01

Atoms # atomic

91 2 0.0000000000000000e+00 2.8417180249513345e+00 2.1398299172856357e+00 0 0 0
93 2 0.0000000000000000e+00 0.0000000000000000e+00 2.1398299172856357e+00 0 0 0
95 2 1.2305000000000001e+00 7.1042950623783474e-01 2.1398299172856357e+00 0 0 0
102 2 1.2305000000000001e+00 2.1312885187134998e+00 2.1398299172856357e+00 0 0 0
104 2 2.4610000000000003e+00 2.8417180249513345e+00 2.1398299172856357e+00 0 0 0
106 2 2.4610000000000003e+00 0.0000000000000000e+00 2.1398299172856357e+00 0 0 0
108 2 3.6915000000000004e+00 7.1042950623783474e-01 2.1398299172856357e+00 0 0 0
123 2 3.6914999999999996e+00 2.1312885187134998e+00 2.1398299172856357e+00 0 0 0
125 2 4.9220000000000006e+00 2.8417180249513332e+00 2.1398299172856357e+00 0 0 0
127 2 4.9220000000000006e+00 0.0000000000000000e+00 2.1398299172856357e+00 0 0 0
129 2 6.1524999999999999e+00 7.1042950623783407e-01 2.1398299172856357e+00 0 0 0
152 2 6.1524999999999999e+00 2.1312885187134989e+00 2.1398299172856357e+00 0 0 0
154 2 7.3829999999999991e+00 2.8417180249513345e+00 2.1398299172856357e+00 0 0 0
156 2 7.3829999999999991e+00 0.0000000000000000e+00 2.1398299172856357e+00 0 0 0
158 2 8.6134999999999984e+00 7.1042950623783407e-01 2.1398299172856357e+00 0 0 0
189 2 8.6134999999999984e+00 2.1312885187135002e+00 2.1398299172856357e+00 0 0 0
191 2 9.8440000000000012e+00 2.8417180249513332e+00 2.1398299172856357e+00 0 0 0
193 2 9.8440000000000012e+00 0.0000000000000000e+00 2.1398299172856357e+00 0 0 0
195 2 1.1074500000000002e+01 7.1042950623783330e-01 2.1398299172856357e+00 0 0 0
234 2 1.1074500000000002e+01 2.1312885187135002e+00 2.1398299172856357e+00 0 0 0
98 2 0.0000000000000000e+00 4.2625770374269996e+00 2.1398299172856357e+00 0 0 0
100 2 1.2305000000000001e+00 4.9730065436648339e+00 2.1398299172856357e+00 0 0 0
115 2 1.2305000000000001e+00 6.3938655561404980e+00 2.1398299172856357e+00 0 0 0
119 2 2.4610000000000003e+00 4.2625770374269996e+00 2.1398299172856357e+00 0 0 0
121 2 3.6914999999999996e+00 4.9730065436648339e+00 2.1398299172856357e+00 0 0 0
144 2 3.6914999999999996e+00 6.3938655561404980e+00 2.1398299172856357e+00 0 0 0
96 2 0.0000000000000000e+00 7.1042950623783341e+00 2.1398299172856357e+00 0 0 0
117 2 2.4610000000000003e+00 7.1042950623783341e+00 2.1398299172856357e+00 0 0 0
148 2 4.9220000000000006e+00 4.2625770374269978e+00 2.1398299172856357e+00 0 0 0
150 2 6.1524999999999999e+00 4.9730065436648339e+00 2.1398299172856357e+00 0 0 0
181 2 6.1524999999999999e+00 6.3938655561404980e+00 2.1398299172856357e+00 0 0 0
185 2 7.3829999999999991e+00 4.2625770374269996e+00 2.1398299172856357e+00 0 0 0
146 2 4.9220000000000006e+00 7.1042950623783341e+00 2.1398299172856357e+00 0 0 0
183 2 7.3830000000000009e+00 7.1042950623783341e+00 2.1398299172856357e+00 0 0 0
187 2 8.6135000000000002e+00 4.9730065436648339e+00 2.1398299172856357e+00 0 0 0
226 2 8.6135000000000002e+00 6.3938655561404980e+00 2.1398299172856357e+00 0 0 0
230 2 9.8440000000000012e+00 4.2625770374270004e+00 2.1398299172856357e+00 0 0 0
232 2 1.1074500000000002e+01 4.9730065436648339e+00 2.1398299172856357e+00 0 0 0
273 2 1.1074500000000002e+01 6.3938655561404980e+00 2.1398299172856357e+00 0 0 0
228 2 9.8440000000000012e+00 7.1042950623783341e+00 2.1398299172856357e+00 0 0 0
111 2 0.0000000000000000e+00 8.5251540748539991e+00 2.1398299172856357e+00 0 0 0
113 2 1.2305000000000001e+00 9.2355835810918343e+00 2.1398299172856357e+00 0 0 0
140 2 2.4610000000000003e+00 8.5251540748539991e+00 2.1398299172856357e+00 0 0 0
142 2 3.6915000000000004e+00 9.2355835810918343e+00 2.1398299172856357e+00 0 0 0
109 2 0.0000000000000000e+00 1.1366872099805333e+01 2.1398299172856357e+00 0 0 0
136 2 1.2305000000000001e+00 1.0656442593567498e+01 2.1398299172856357e+00 0 0 0
138 2 2.4610000000000003e+00 1.1366872099805333e+01 2.1398299172856357e+00 0 0 0
173 2 3.6914999999999996e+00 1.0656442593567499e+01 2.1398299172856357e+00 0 0 0
177 2 4.9220000000000006e+00 8.5251540748539991e+00 2.1398299172856357e+00 0 0 0
179 2 6.1524999999999999e+00 9.2355835810918343e+00 2.1398299172856357e+00 0 0 0
222 2 7.3830000000000009e+00 8.5251540748539991e+00 2.1398299172856357e+00 0 0 0
175 2 4.9220000000000006e+00 1.1366872099805333e+01 2.1398299172856357e+00 0 0 0
218 2 6.1524999999999999e+00 1.0656442593567499e+01 2.1398299172856357e+00 0 0 0
220 2 7.3829999999999991e+00 1.1366872099805333e+01 2.1398299172856357e+00 0 0 0
224 2 8.6134999999999984e+00 9.2355835810918343e+00 2.1398299172856357e+00 0 0 0
269 2 9.8440000000000012e+00 8.5251540748539956e+00 2.1398299172856357e+00 0 0 0
271 2 1.1074500000000002e+01 9.2355835810918343e+00 2.1398299172856357e+00 0 0 0
265 2 8.6134999999999984e+00 1.0656442593567498e+01 2.1398299172856357e+00 0 0 0
267 2 9.8440000000000012e+00 1.1366872099805333e+01 2.1398299172856357e+00 0 0 0
312 2 1.1074500000000002e+01 1.0656442593567498e+01 2.1398299172856357e+00 0 0 0
314 2 1.2304999999999998e+01 1.1366872099805333e+01 2.1398299172856357e+00 0 0 0
92 2 0.0000000000000000e+00 1.4208590124756650e+00 5.3913026477833617e+00 0 0 0
94 2 0.0000000000000000e+00 0.0000000000000000e+00 5.3913026477833617e+00 0 0 0
103 2 1.2305000000000001e+00 2.1312885187134998e+00 5.3913026477833617e+00 0 0 0
105 2 2.4610000000000003e+00 1.4208590124756650e+00 5.3913026477833617e+00 0 0 0
107 2 2.4610000000000003e+00 0.0000000000000000e+00 5.3913026477833617e+00 0 0 0
124 2 3.6914999999999996e+00 2.1312885187134998e+00 5.3913026477833617e+00 0 0 0
420 2 0.0000000000000000e+00 2.8417180249513345e+00 8.6427753782741963e+00 0 0 0
421 2 0.0000000000000000e+00 0.0000000000000000e+00 8.6427753782741963e+00 0 0 0
422 2 1.2305000000000001e+00 7.1042950623783474e-01 8.6427753782741963e+00 0 0 0
426 2 1.2305000000000001e+00 2.1312885187134998e+00 8.6427753782741963e+00 0 0 0
427 2 2.4610000000000003e+00 2.8417180249513345e+00 8.6427753782741963e+00 0 0 0
428 2 2.4610000000000003e+00 0.0000000000000000e+00 8.6427753782741963e+00 0 0 0
429 2 3.6915000000000004e+00 7.1042950623783474e-01 8.6427753782741963e+00 0 0 0
437 2 3.6914999999999996e+00 2.1312885187134998e+00 8.6427753782741963e+00 0 0 0
101 2 1.2305000000000001e+00 3.5521475311891644e+00 5.3913026477833617e+00 0 0 0
122 2 3.6914999999999996e+00 3.5521475311891644e+00 5.3913026477833617e+00 0 0 0
126 2 4.9220000000000006e+00 1.4208590124756650e+00 5.3913026477833617e+00 0 0 0
128 2 4.9220000000000006e+00 0.0000000000000000e+00 5.3913026477833617e+00 0 0 0
153 2 6.1524999999999999e+00 2.1312885187134989e+00 5.3913026477833617e+00 0 0 0
155 2 7.3829999999999991e+00 1.4208590124756659e+00 5.3913026477833617e+00 0 0 0
157 2 7.3829999999999991e+00 0.0000000000000000e+00 5.3913026477833617e+00 0 0 0
438 2 4.9220000000000006e+00 2.8417180249513332e+00 8.6427753782741963e+00 0 0 0
439 2 4.9220000000000006e+00 0.0000000000000000e+00 8.6427753782741963e+00 0 0 0
440 2 6.1524999999999999e+00 7.1042950623783407e-01 8.6427753782741963e+00 0 0 0
452 2 6.1524999999999999e+00 2.1312885187134989e+00 8.6427753782741963e+00 0 0 0
453 2 7.3829999999999991e+00 2.8417180249513345e+00 8.6427753782741963e+00 0 0 0
454 2 7.3829999999999991e+00 0.0000000000000000e+00 8.6427753782741963e+00 0 0 0
151 2 6.1524999999999999e+00 3.5521475311891644e+00 5.3913026477833617e+00 0 0 0
190 2 8.6134999999999984e+00 2.1312885187135002e+00 5.3913026477833617e+00 0 0 0
192 2 9.8440000000000012e+00 1.4208590124756659e+00 5.3913026477833617e+00 0 0 0
194 2 9.8440000000000012e+00 0.0000000000000000e+00 5.3913026477833617e+00 0 0 0
235 2 1.1074500000000002e+01 2.1312885187135002e+00 5.3913026477833617e+00 0 0 0
455 2 8.6134999999999984e+00 7.1042950623783407e-01 8.6427753782741963e+00 0 0 0
471 2 8.6134999999999984e+00 2.1312885187135002e+00 8.6427753782741963e+00 0 0 0
472 2 9.8440000000000012e+00 2.8417180249513332e+00 8.6427753782741963e+00 0 0 0
473 2 9.8440000000000012e+00 0.0000000000000000e+00 8.6427753782741963e+00 0 0 0
474 2 1.1074500000000002e+01 7.1042950623783330e-01 8.6427753782741963e+00 0 0 0
494 2 1.1074500000000002e+01 2.1312885187135002e+00 8.6427753782741963e+00 0 0 0
188 2 8.6134999999999984e+00 3.5521475311891657e+00 5.3913026477833617e+00 0 0 0
233 2 1.1074500000000002e+01 3.5521475311891644e+00 5.3913026477833617e+00 0 0 0
97 2 0.0000000000000000e+00 5.6834360499026637e+00 5.3913026477833617e+00 0 0 0
99 2 0.0000000000000000e+00 4.2625770374269996e+00 5.3913026477833617e+00 0 0 0
116 2 1.2305000000000001e+00 6.3938655561404980e+00 5.3913026477833617e+00 0 0 0
118 2 2.4610000000000003e+00 5.6834360499026637e+00 5.3913026477833617e+00 0 0 0
120 2 2.4610000000000003e+00 4.2625770374269996e+00 5.3913026477833617e+00 0 0 0
145 2 3.6914999999999996e+00 6.3938655561404980e+00 5.3913026477833617e+00 0 0 0
424 2 0.0000000000000000e+00 4.2625770374269996e+00 8.6427753782741963e+00 0 0 0
425 2 1.2305000000000001e+00 4.9730065436648339e+00 8.6427753782741963e+00 0 0 0
433 2 1.2305000000000001e+00 6.3938655561404980e+00 8.6427753782741963e+00 0 0 0
435 2 2.4610000000000003e+00 4.2625770374269996e+00 8.6427753782741963e+00 0 0 0
436 2 3.6914999999999996e+00 4.9730065436648339e+00 8.6427753782741963e+00 0 0 0
448 2 3.6914999999999996e+00 6.3938655561404980e+00 8.6427753782741963e+00 0 0 0
114 2 1.2305000000000001e+00 7.8147245686161639e+00 5.3913026477833617e+00 0 0 0
143 2 3.6914999999999996e+00 7.8147245686161639e+00 5.3913026477833617e+00 0 0 0
423 2 0.0000000000000000e+00 7.1042950623783341e+00 8.6427753782741963e+00 0 0 0
434 2 2.4610000000000003e+00 7.1042950623783341e+00 8.6427753782741963e+00 0 0 0
147 2 4.9220000000000006e+00 5.6834360499026637e+00 5.3913026477833617e+00 0 0 0
149 2 4.9220000000000006e+00 4.2625770374269978e+00 5.3913026477833617e+00 0 0 0
182 2 6.1524999999999999e+00 6.3938655561404980e+00 5.3913026477833617e+00 0 0 0
184 2 7.3829999999999991e+00 5.6834360499026637e+00 5.3913026477833617e+00 0 0 0
186 2 7.3829999999999991e+00 4.2625770374269996e+00 5.3913026477833617e+00 0 0 0
450 2 4.9220000000000006e+00 4.2625770374269978e+00 8.6427753782741963e+00 0 0 0
451 2 6.1524999999999999e+00 4.9730065436648339e+00 8.6427753782741963e+00 0 0 0
467 2 6.1524999999999999e+00 6.3938655561404980e+00 8.6427753782741963e+00 0 0 0
469 2 7.3829999999999991e+00 4.2625770374269996e+00 8.6427753782741963e+00 0 0 0
180 2 6.1524999999999999e+00 7.8147245686161639e+00 5.3913026477833617e+00 0 0 0
449 2 4.9220000000000006e+00 7.1042950623783341e+00 8.6427753782741963e+00 0 0 0
468 2 7.3830000000000009e+00 7.1042950623783341e+00 8.6427753782741963e+00 0 0 0
227 2 8.6135000000000002e+00 6.3938655561404980e+00 5.3913026477833617e+00 0 0 0
229 2 9.8440000000000012e+00 5.6834360499026637e+00 5.3913026477833617e+00 0 0 0
231 2 9.8440000000000012e+00 4.2625770374270004e+00 5.3913026477833617e+00 0 0 0
274 2 1.1074500000000002e+01 6.3938655561404980e+00 5.3913026477833617e+00 0 0 0
470 2 8.6135000000000002e+00 4.9730065436648339e+00 8.6427753782741963e+00 0 0 0
490 2 8.6135000000000002e+00 6.3938655561404980e+00 8.6427753782741963e+00 0 0 0
492 2 9.8440000000000012e+00 4.2625770374270004e+00 8.6427753782741963e+00 0 0 0
493 2 1.1074500000000002e+01 4.9730065436648339e+00 8.6427753782741963e+00 0 0 0
514 2 1.1074500000000002e+01 6.3938655561404980e+00 8.6427753782741963e+00 0 0 0
225 2 8.6135000000000002e+00 7.8147245686161639e+00 5.3913026477833617e+00 0 0 0
272 2 1.1074500000000002e+01 7.8147245686161639e+00 5.3913026477833617e+00 0 0 0
491 2 9.8440000000000012e+00 7.1042950623783341e+00 8.6427753782741963e+00 0 0 0
110 2 0.0000000000000000e+00 9.9460130873296642e+00 5.3913026477833617e+00 0 0 0
112 2 0.0000000000000000e+00 8.5251540748539991e+00 5.3913026477833617e+00 0 0 0
139 2 2.4610000000000003e+00 9.9460130873296642e+00 5.3913026477833617e+00 0 0 0
141 2 2.4610000000000003e+00 8.5251540748539991e+00 5.3913026477833617e+00 0 0 0
431 2 0.0000000000000000e+00 8.5251540748539991e+00 8.6427753782741963e+00 0 0 0
432 2 1.2305000000000001e+00 9.2355835810918343e+00 8.6427753782741963e+00 0 0 0
446 2 2.4610000000000003e+00 8.5251540748539991e+00 8.6427753782741963e+00 0 0 0
447 2 3.6915000000000004e+00 9.2355835810918343e+00 8.6427753782741963e+00 0 0 0
135 2 1.2305000000000001e+00 1.2077301606043163e+01 5.3913026477833617e+00 0 0 0
137 2 1.2305000000000001e+00 1.0656442593567498e+01 5.3913026477833617e+00 0 0 0
172 2 3.6914999999999996e+00 1.2077301606043163e+01 5.3913026477833617e+00 0 0 0
174 2 3.6914999999999996e+00 1.0656442593567499e+01 5.3913026477833617e+00 0 0 0
430 2 0.0000000000000000e+00 1.1366872099805333e+01 8.6427753782741963e+00 0 0 0
444 2 1.2305000000000001e+00 1.0656442593567498e+01 8.6427753782741963e+00 0 0 0
445 2 2.4610000000000003e+00 1.1366872099805333e+01 8.6427753782741963e+00 0 0 0
463 2 3.6914999999999996e+00 1.0656442593567499e+01 8.6427753782741963e+00 0 0 0
176 2 4.9220000000000006e+00 9.9460130873296642e+00 5.3913026477833617e+00 0 0 0
178 2 4.9220000000000006e+00 8.5251540748539991e+00 5.3913026477833617e+00 0 0 0
221 2 7.3830000000000009e+00 9.9460130873296642e+00 5.3913026477833617e+00 0 0 0
223 2 7.3830000000000009e+00 8.5251540748539991e+00 5.3913026477833617e+00 0 0 0
465 2 4.9220000000000006e+00 8.5251540748539991e+00 8.6427753782741963e+00 0 0 0
466 2 6.1524999999999999e+00 9.2355835810918343e+00 8.6427753782741963e+00 0 0 0
488 2 7.3830000000000009e+00 8.5251540748539991e+00 8.6427753782741963e+00 0 0 0
217 2 6.1524999999999999e+00 1.2077301606043163e+01 5.3913026477833617e+00 0 0 0
219 2 6.1524999999999999e+00 1.0656442593567499e+01 5.3913026477833617e+00 0 0 0
464 2 4.9220000000000006e+00 1.1366872099805333e+01 8.6427753782741963e+00 0 0 0
486 2 6.1524999999999999e+00 1.0656442593567499e+01 8.6427753782741963e+00 0 0 0
487 2 7.3829999999999991e+00 1.1366872099805333e+01 8.6427753782741963e+00 0 0 0
268 2 9.8440000000000012e+00 9.9460130873296642e+00 5.3913026477833617e+00 0 0 0
270 2 9.8440000000000012e+00 8.5251540748539956e+00 5.3913026477833617e+00 0 0 0
489 2 8.6134999999999984e+00 9.2355835810918343e+00 8.6427753782741963e+00 0 0 0
512 2 9.8440000000000012e+00 8.5251540748539956e+00 8.6427753782741963e+00 0 0 0
513 2 1.1074500000000002e+01 9.2355835810918343e+00 8.6427753782741963e+00 0 0 0
264 2 8.6135000000000002e+00 1.2077301606043163e+01 5.3913026477833617e+00 0 0 0
266 2 8.6134999999999984e+00 1.0656442593567498e+01 5.3913026477833617e+00 0 0 0
311 2 1.1074500000000002e+01 1.2077301606043163e+01 5.3913026477833617e+00 0 0 0
313 2 1.1074500000000002e+01 1.0656442593567498e+01 5.3913026477833617e+00 0 0 0
510 2 8.6134999999999984e+00 1.0656442593567498e+01 8.6427753782741963e+00 0 0 0
511 2 9.8440000000000012e+00 1.1366872099805333e+01 8.6427753782741963e+00 0 0 0
534 2 1.1074500000000002e+01 1.0656442593567498e+01 8.6427753782741963e+00 0 0 0
535 2 1.2304999999999998e+01 1.1366872099805333e+01 8.6427753782741963e+00 0 0 0
783 1 1.2408278731210971e+00 1.0653199655882752e+00 1.1341263967378813e+01 0 1 -2
2941 1 3.5574862986606153e+00 2.7756181817315504e+00 1.1132927979336946e+01 0 0 0
1484 1 6.0437997921136573e+00 1.3312238985586320e+00 1.1138903633137193e+01 -1 -3 0
2331 1 8.1596046920739465e+00 2.7247352108075624e+00 1.1927362389358041e+01 -1 -1 -1
2974 1 1.0491629700129906e+01 1.8819591628851844e+00 1.0702900410696705e+01 -2 0 -1
4364 1 3.1593318884948403e+00 5.8731209863392273e+00 1.0862397519701904e+01 1 -3 0
2337 1 3.1062828183431029e-01 9.1151948101018583e+00 1.1144166732335057e+01 1 -3 0
1387 1 5.5980966667113536e+00 6.7613479640744236e+00 1.1494003345929009e+01 1 -1 0
2920 1 7.9776894425864118e+00 5.4680925255556971e+00 1.1082543169773876e+01 -3 1 0
2206 1 1.0085020150970838e+01 7.1388888827679482e+00 1.1333419522053021e+01 -3 -1 0
4412 1 2.4013141361282289e+00 1.0732636151401104e+01 1.1377754228050454e+01 0 2 -1
3037 1 9.5875024234342590e+00 9.7477516384777960e+00 1.4769201142466098e+01 4 -2 -1
759 1 4.9247169528011625e+00 9.4585076561868622e+00 1.0859450599163992e+01 1 3 -2
3111 1 7.0418998697682724e+00 1.1137492585148767e+01 1.1534150683515673e+01 -1 2 -1
12 1 9.7092553094005343e+00 9.9388026351603003e+00 1.1473896122827595e+01 1 0 0
3870 1 3.4536753516191658e+00 2.7009127016785803e+00 1.4014503343616441e+01 2 3 0
1454 1 1.2049250680314352e+00 1.3434851508359371e+00 1.4969423572548834e+01 7 0 0
1440 1 5.7942338756732470e+00 1.2610246394943669e+00 1.4912557338876811e+01 -5 1 0
3072 1 8.0460619443040589e+00 2.7841541111912291e+00 1.4671451359071989e+01 3 4 0
4502 1 1.0629606346406293e+01 1.8389032744172940e+00 1.5207983410951128e+01 -1 2 -1
4490 1 3.4736876787900117e+00 5.3673197803479580e+00 1.4846907136748708e+01 0 -1 -1
1501 1 6.2042123211494116e-01 6.6366472434837043e+00 1.4358932002579126e+01 5 -1 -1
2197 1 5.5347988123526966e+00 7.0093572732924452e+00 1.4171501193115960e+01 -1 1 -1
4386 1 7.9086047788127525e+00 5.7128369171015363e+00 1.4774094468869459e+01 4 2 0
1647 1 1.0101356388936990e+01 7.1058203930945636e+00 1.4160515816831621e+01 0 2 0
2914 1 1.1765254576029813e+01 1.1378473841028027e+01 1.4221196569272474e+01 3 -5 -1
2132 1 2.2389080394953695e+00 1.0642178027130869e+01 1.4492451086469741e+01 1 1 0
4486 1 4.8688555314378572e+00 9.3515366140474150e+00 1.5240764805651166e+01 0 2 1
841 1 6.9692511852309362e+00 1.0876810301869520e+01 1.4264056214166033e+01 -1 1 0
2402 1 1.2013859665309758e+01 1.1371320950107462e+01 1.1524420842985760e+01 1 2 0
701 1 3.3898865884766027e-01 6.4983701587548452e+00 1.1527209234221298e+01 0 -2 0
2991 1 1.7025345876636350e-01 9.1289894638795293e+00 1.5303074838193590e+01 -1 0 -1
3830 1 3.4234447423459313e+00 2.4856273952653356e+00 1.8125462279827524e+01 6 0 -1
3151 1 1.2046494568317601e+00 1.0380728933313741e+00 1.7872917676329287e+01 4 1 0
3892 1 5.8020509342222093e+00 1.4466495175539524e+00 1.7605737738244610e+01 0 1 0
3688 1 7.9827990518229370e+00 3.1419046383313152e+00 1.8400006874125800e+01 0 -1 0
3839 1 1.0403497686127006e+01 1.9776926856207384e+00 1.7868383808865968e+01 -2 -1 0
3638 1 3.1581921168946208e+00 5.2684368856746771e+00 1.7619555145974090e+01 1 -1 -1
2130 1 6.0927899390850904e-01 6.2542844701162297e+00 1.8519335723081038e+01 3 1 0
3709 1 5.4719093890073207e+00 6.6272357151023922e+00 1.8675332491302672e+01 -4 -1 1
3673 1 7.7610078267925626e+00 5.8358331544025335e+00 1.7750060627294463e+01 1 1 0
2927 1 1.0162142530865289e+01 7.3634059068033624e+00 1.8335394376599822e+01 0 2 0
3790 1 2.7899402643976545e+00 1.0127165202626736e+01 1.8691248454337860e+01 -1 0 -1
3778 1 1.1906403631200870e+01 1.1583046239197365e+01 1.8168463659741668e+01 -7 2 -1
2236 1 7.2665587221010384e+00 1.0761960552300547e+01 1.8280715348249789e+01 -3 4 0
2901 1 5.1918979090493371e+00 9.3200330215385918e+00 1.7905661807448190e+01 2 -1 1
2390 1 9.8195850041104880e+00 9.9993287671820195e+00 1.7669147966712902e+01 -1 2 1
2258 1 4.9592976618160431e+00 1.2014905431356137e+01 2.5066272255047213e+01 6 1 0
3624 1 3.4149754093845726e+00 2.7430399144182305e+00 2.0763761401203329e+01 1 0 -1
3789 1 9.1758807469733705e-01 3.4034799587430582e+00 2.1957983903460882e+01 -1 -2 0
3859 1 9.3804644285321293e-01 3.7870964630218413e+00 2.4683047638506270e+01 3 -4 0
595 1 5.5831704172321714e+00 4.1408217870290986e+00 2.1694271655578238e+01 2 0 1
3843 1 7.9861061644756477e+00 3.0113817852205917e+00 2.0958139219052939e+01 1 2 0
1377 1 5.4690246990596556e+00 3.8885270913687200e+00 2.4462106283622433e+01 -1 -1 0
4493 1 1.2251990665018797e+01 1.1457061990969155e+01 2.0927604114303556e+01 0 1 0
2220 1 1.2754171049488633e-01 1.2077207095807614e+01 2.4502845902102731e+01 1 2 -1
3108 1 7.1772879764068720e-01 6.3094588572088810e+00 2.1234251364774885e+01 -1 2 0
1374 1 2.6592072820858501e+00 7.7676138465551521e+00 2.2107980005445302e+01 3 2 0
1622 1 2.8922339479735482e+00 8.1786054171058371e+00 2.4816799118711725e+01 2 0 1
2131 1 5.2991456654643416e+00 6.8432594540090639e+00 2.1364850711488447e+01 -4 1 0
4340 1 7.6542336415697179e+00 8.1098777029129661e+00 2.1924414870023266e+01 -2 1 0
1572 1 1.0014675272278414e+01 4.5160821707200967e+00 2.1919882662164177e+01 -1 -3 1
587 1 1.0201940735048208e+01 7.2402684710290091e+00 2.1289975844433673e+01 1 -1 -1
1362 1 7.9076385238081990e+00 3.9647257887813668e-02 2.4567210805527807e+01 -1 -2 0
750 1 2.5509006096643150e+00 1.0547471412670081e+01 2.1335175312190355e+01 3 -2 0
3148 1 1.2127279697268980e+01 1.1667901124873270e+01 2.5869197752945649e+01 3 1 -1
3695 1 7.4363512761977377e+00 1.0641884317730364e+01 2.1238950093748350e+01 -1 0 1
2883 1 8.8127111064979669e-02 1.1696245702169708e+01 2.9280527175433331e+01 1 0 -1
790 1 7.5967905612780173e+00 1.0897215787053955e+01 3.2572809673156783e+01 5 1 0
788 1 1.2198419619190540e+01 8.4376320132815863e+00 2.8953387603923627e+01 0 0 0
3615 1 2.7583041028572035e+00 1.0533927571667906e+01 3.2163051912881940e+01 4 1 -1
1354 1 3.3555502665488510e+00 2.4427214665968515e+00 2.5640605445391710e+01 5 -2 0
667 1 3.3005896038550686e+00 2.7952517862674569e+00 2.8384135185562847e+01 3 5 1
2385 1 1.0389648173317496e+00 3.8363105172851282e+00 2.9500838284383690e+01 2 0 0
1364 1 8.1977549007806143e+00 3.6401857809779892e-01 2.1766961974787641e+01 1 -2 1
817 1 8.1400072830663639e+00 2.6199106722895902e+00 2.7987335669141242e+01 7 1 0
662 1 7.8330833196656826e+00 2.6730108554100238e+00 2.5420740119995550e+01 -4 -1 0
2873 1 7.7196970190664738e-01 6.3340028878034946e+00 2.5743323015245853e+01 1 -5 0
3785 1 6.6176701159985851e-01 6.4214028060733339e+00 2.8295632618080525e+01 3 0 0
1479 1 5.3908190237248466e+00 6.6403437496918061e+00 2.5276172055725795e+01 -3 1 0
1616 1 5.2081521295345166e+00 6.5289062205183317e+00 2.8071072724273726e+01 1 2 0
728 1 1.0173977105782882e+01 4.4531113482736258e+00 2.4744083847550062e+01 1 -1 0
3815 1 1.0090041682358153e+01 7.3098858329226077e+00 2.5266589894307110e+01 3 5 0
659 1 2.4786270454194193e+00 1.0842184690919920e+01 2.5632276632327805e+01 3 -1 0
2280 1 2.5011233509447801e+00 1.0649126023274473e+01 2.8311852145078593e+01 -1 -1 0
792 1 7.6862097193526546e+00 8.2581756850458277e+00 2.4729739948329996e+01 -1 3 0
4522 1 7.4147153804578068e+00 1.0626073705242359e+01 2.8265887968147712e+01 3 0 0
857 1 7.5246917345449340e+00 1.0972221912721331e+01 2.5616618654932022e+01 1 -4 0
3131 1 2.1462011842277620e-01 1.1713963712298687e+01 3.1935944217488395e+01 2 -1 0
1405 1 1.1876438261462800e+01 1.1310131092718246e+01 2.8649652169593800e+01 -2 -2 0
3052 1 7.7890736647802621e+00 8.2886361003602467e+00 3.1748912294709644e+01 0 3 -1
2931 1 3.7851265581279430e+00 2.3130730307559215e+00 3.2607908538193072e+01 2 -1 -1
605 1 1.2653062497707386e+00 3.6114314764659188e+00 3.2232324797489625e+01 8 -2 0
1543 1 5.7930446898175392e+00 3.7900802608938622e+00 3.1614921659694719e+01 -3 -1 -1
1383 1 2.4748110843646540e-01 8.9013472979415447e+00 1.7893783301173446e+01 -2 0 0
4426 1 8.2055348581534613e+00 2.5258457189032169e+00 3.2258126273552065e+01 0 1 0
2293 1 7.6594124521634255e+00 7.8006109788206706e+00 2.8943054407537975e+01 1 -1 0
689 1 2.9500427987065847e+00 7.8254482399598739e+00 3.1799524952225472e+01 2 -1 0
56 1 7.7528388601510390e-01 6.3719993745251093e+00 3.2390658238802231e+01 4 -1 0
3646 1 2.7101587067174702e+00 8.0090588916768741e+00 2.9010585548694831e+01 0 1 1
3819 1 5.6583332063939284e+00 4.0184043603165280e+00 2.8835069244123218e+01 5 -3 0
814 1 5.4193513396542681e+00 6.5629168554207462e+00 3.2258432376000734e+01 1 3 -1
4384 1 1.0433358382768633e+01 4.2376902304679058e+00 3.1641626719411065e+01 2 4 0
2915 1 9.9595184407483526e+00 6.9649037441175539e+00 2.7850576177475112e+01 0 0 -1
3067 1 1.0147126115948153e+01 4.2493014246715139e+00 2.8761182238346709e+01 1 -1 0
2307 1 1.0384446294997330e+01 7.0378413241057221e+00 3.2421556831696165e+01 0 -3 1
1407 1 1.2074860816485264e+01 1.1401609266445220e+01 3.2379230534680715e+01 1 -3 -1
2245 1 5.1651220034924661e+00 1.1769411959738887e+01 3.1366302519519749e+01 2 1 -1
2238 1 4.8991599427813046e+00 1.1592246976235430e+01 2.2275962644980051e+01 -4 7 -1
3031 1 3.7247091941981374e+00 2.7406065522858081e-01 2.1666719652320850e+01 -3 2 0
3727 1 9.7164901764853493e+00 1.2233152395292887e+01 2.1798856283672951e+01 0 2 0
132 2 0.0000000000000000e+00 1.2787731112280996e+01 2.1398299172856357e+00 0 0 0
134 2 1.2305000000000001e+00 1.3498160618518829e+01 2.1398299172856357e+00 0 0 0
169 2 2.4610000000000003e+00 1.2787731112280996e+01 2.1398299172856357e+00 0 0 0
171 2 3.6915000000000004e+00 1.3498160618518829e+01 2.1398299172856357e+00 0 0 0
130 2 0.0000000000000000e+00 1.5629449137232333e+01 2.1398299172856357e+00 0 0 0
165 2 1.2305000000000001e+00 1.4919019630994494e+01 2.1398299172856357e+00 0 0 0
167 2 2.4610000000000003e+00 1.5629449137232328e+01 2.1398299172856357e+00 0 0 0
210 2 3.6915000000000004e+00 1.4919019630994494e+01 2.1398299172856357e+00 0 0 0
214 2 4.9220000000000006e+00 1.2787731112280996e+01 2.1398299172856357e+00 0 0 0
216 2 6.1524999999999990e+00 1.3498160618518829e+01 2.1398299172856357e+00 0 0 0
261 2 7.3829999999999991e+00 1.2787731112280996e+01 2.1398299172856357e+00 0 0 0
212 2 4.9220000000000006e+00 1.5629449137232333e+01 2.1398299172856357e+00 0 0 0
257 2 6.1524999999999990e+00 1.4919019630994494e+01 2.1398299172856357e+00 0 0 0
259 2 7.3829999999999991e+00 1.5629449137232333e+01 2.1398299172856357e+00 0 0 0
263 2 8.6135000000000002e+00 1.3498160618518835e+01 2.1398299172856357e+00 0 0 0
308 2 9.8440000000000012e+00 1.2787731112280996e+01 2.1398299172856357e+00 0 0 0
310 2 1.1074500000000002e+01 1.3498160618518829e+01 2.1398299172856357e+00 0 0 0
304 2 8.6135000000000002e+00 1.4919019630994494e+01 2.1398299172856357e+00 0 0 0
306 2 9.8440000000000012e+00 1.5629449137232328e+01 2.1398299172856357e+00 0 0 0
346 2 1.1074500000000002e+01 1.4919019630994494e+01 2.1398299172856357e+00 0 0 0
161 2 0.0000000000000000e+00 1.7050308149707998e+01 2.1398299172856357e+00 0 0 0
206 2 2.4610000000000003e+00 1.7050308149707998e+01 2.1398299172856357e+00 0 0 0
159 2 0.0000000000000000e+00 1.9892026174659328e+01 2.1398299172856357e+00 0 0 0
163 2 1.2305000000000001e+00 1.7760737655945832e+01 2.1398299172856357e+00 0 0 0
202 2 1.2305000000000001e+00 1.9181596668421495e+01 2.1398299172856357e+00 0 0 0
204 2 2.4610000000000003e+00 1.9892026174659328e+01 2.1398299172856357e+00 0 0 0
208 2 3.6914999999999996e+00 1.7760737655945832e+01 2.1398299172856357e+00 0 0 0
249 2 3.6914999999999996e+00 1.9181596668421495e+01 2.1398299172856357e+00 0 0 0
253 2 4.9220000000000006e+00 1.7050308149707998e+01 2.1398299172856357e+00 0 0 0
300 2 7.3830000000000009e+00 1.7050308149707998e+01 2.1398299172856357e+00 0 0 0
251 2 4.9220000000000006e+00 1.9892026174659328e+01 2.1398299172856357e+00 0 0 0
255 2 6.1524999999999999e+00 1.7760737655945832e+01 2.1398299172856357e+00 0 0 0
296 2 6.1524999999999999e+00 1.9181596668421495e+01 2.1398299172856357e+00 0 0 0
298 2 7.3829999999999991e+00 1.9892026174659328e+01 2.1398299172856357e+00 0 0 0
342 2 9.8440000000000012e+00 1.7050308149707998e+01 2.1398299172856357e+00 0 0 0
376 2 1.2304999999999998e+01 1.7050308149707998e+01 2.1398299172856357e+00 0 0 0
302 2 8.6134999999999984e+00 1.7760737655945832e+01 2.1398299172856357e+00 0 0 0
338 2 8.6135000000000002e+00 1.9181596668421495e+01 2.1398299172856357e+00 0 0 0
340 2 9.8440000000000012e+00 1.9892026174659335e+01 2.1398299172856357e+00 0 0 0
344 2 1.1074500000000002e+01 1.7760737655945835e+01 2.1398299172856357e+00 0 0 0
372 2 1.1074500000000002e+01 1.9181596668421495e+01 2.1398299172856357e+00 0 0 0
196 2 0.0000000000000000e+00 2.4154603212086325e+01 2.1398299172856357e+00 0 0 0
198 2 0.0000000000000000e+00 2.1312885187134999e+01 2.1398299172856357e+00 0 0 0
200 2 1.2304999999999993e+00 2.2023314693372832e+01 2.1398299172856357e+00 0 0 0
241 2 1.2304999999999993e+00 2.3444173705848499e+01 2.1398299172856357e+00 0 0 0
243 2 2.4610000000000003e+00 2.4154603212086325e+01 2.1398299172856357e+00 0 0 0
245 2 2.4610000000000003e+00 2.1312885187134995e+01 2.1398299172856357e+00 0 0 0
247 2 3.6914999999999996e+00 2.2023314693372832e+01 2.1398299172856357e+00 0 0 0
288 2 3.6915000000000004e+00 2.3444173705848499e+01 2.1398299172856357e+00 0 0 0
290 2 4.9220000000000006e+00 2.4154603212086325e+01 2.1398299172856357e+00 0 0 0
292 2 4.9220000000000006e+00 2.1312885187134995e+01 2.1398299172856357e+00 0 0 0
294 2 6.1524999999999990e+00 2.2023314693372832e+01 2.1398299172856357e+00 0 0 0
330 2 6.1524999999999999e+00 2.3444173705848499e+01 2.1398299172856357e+00 0 0 0
332 2 7.3830000000000009e+00 2.4154603212086336e+01 2.1398299172856357e+00 0 0 0
334 2 7.3829999999999991e+00 2.1312885187134999e+01 2.1398299172856357e+00 0 0 0
336 2 8.6135000000000002e+00 2.2023314693372832e+01 2.1398299172856357e+00 0 0 0
364 2 8.6134999999999984e+00 2.3444173705848499e+01 2.1398299172856357e+00 0 0 0
366 2 9.8440000000000012e+00 2.4154603212086336e+01 2.1398299172856357e+00 0 0 0
368 2 9.8440000000000012e+00 2.1312885187134999e+01 2.1398299172856357e+00 0 0 0
370 2 1.1074500000000002e+01 2.2023314693372832e+01 2.1398299172856357e+00 0 0 0
390 2 1.1074500000000002e+01 2.3444173705848499e+01 2.1398299172856357e+00 0 0 0
133 2 0.0000000000000000e+00 1.2787731112280996e+01 5.3913026477833617e+00 0 0 0
170 2 2.4610000000000003e+00 1.2787731112280996e+01 5.3913026477833617e+00 0 0 0
442 2 0.0000000000000000e+00 1.2787731112280996e+01 8.6427753782741963e+00 0 0 0
443 2 1.2305000000000001e+00 1.3498160618518829e+01 8.6427753782741963e+00 0 0 0
461 2 2.4610000000000003e+00 1.2787731112280996e+01 8.6427753782741963e+00 0 0 0
462 2 3.6915000000000004e+00 1.3498160618518829e+01 8.6427753782741963e+00 0 0 0
131 2 0.0000000000000000e+00 1.4208590124756663e+01 5.3913026477833617e+00 0 0 0
166 2 1.2305000000000001e+00 1.4919019630994494e+01 5.3913026477833617e+00 0 0 0
168 2 2.4610000000000003e+00 1.4208590124756663e+01 5.3913026477833617e+00 0 0 0
211 2 3.6915000000000004e+00 1.4919019630994494e+01 5.3913026477833617e+00 0 0 0