LAMMPS data file via write_data, version 16 Mar 2018, timestep = 100000

4545 atoms
2 atom types

0.0000000000000000e+00 4.9219999999999999e+01 xlo xhi
0.0000000000000000e+00 4.9019635930410494e+01 ylo yhi
1.7241357120110958e+00 3.1911204074511708e+01 zlo zhi

Masses

1 18.015
2 12.01

Atoms # atomic

91 2 0.0000000000000000e+00 2.8417180249513345e+00 3.2292108492096361e+00 0 0 0
93 2 0.0000000000000000e+00 0.0000000000000000e+00 3.2292108492096361e+00 0 0 0
95 2 1.2305000000000001e+00 7.1042950623783474e-01 3.2292108492096361e+00 0 0 0
102 2 1.2305000000000001e+00 2.1312885187134998e+00 3.2292108492096361e+00 0 0 0
104 2 2.4610000000000003e+00 2.8417180249513345e+00 3.2292108492096361e+00 0 0 0
106 2 2.4610000000000003e+00 0.0000000000000000e+00 3.2292108492096361e+00 0 0 0
108 2 3.6915000000000004e+00 7.1042950623783474e-01 3.2292108492096361e+00 0 0 0
123 2 3.6914999999999996e+00 2.1312885187134998e+00 3.2292108492096361e+00 0 0 0
125 2 4.9220000000000006e+00 2.8417180249513332e+00 3.2292108492096361e+00 0 0 0
127 2 4.9220000000000006e+00 0.0000000000000000e+00 3.2292108492096361e+00 0 0 0
129 2 6.1524999999999999e+00 7.1042950623783407e-01 3.2292108492096361e+00 0 0 0
152 2 6.1524999999999999e+00 2.1312885187134989e+00 3.2292108492096361e+00 0 0 0
154 2 7.3829999999999991e+00 2.8417180249513345e+00 3.2292108492096361e+00 0 0 0
156 2 7.3829999999999991e+00 0.0000000000000000e+00 3.2292108492096361e+00 0 0 0
158 2 8.6134999999999984e+00 7.1042950623783407e-01 3.2292108492096361e+00 0 0 0
189 2 8.6134999999999984e+00 2.1312885187135002e+00 3.2292108492096361e+00 0 0 0
191 2 9.8440000000000012e+00 2.8417180249513332e+00 3.2292108492096361e+00 0 0 0
193 2 9.8440000000000012e+00 0.0000000000000000e+00 3.2292108492096361e+00 0 0 0
195 2 1.1074500000000002e+01 7.1042950623783330e-01 3.2292108492096361e+00 0 0 0
234 2 1.1074500000000002e+01 2.1312885187135002e+00 3.2292108492096361e+00 0 0 0
98 2 0.0000000000000000e+00 4.2625770374269996e+00 3.2292108492096361e+00 0 0 0
100 2 1.2305000000000001e+00 4.9730065436648339e+00 3.2292108492096361e+00 0 0 0
115 2 1.2305000000000001e+00 6.3938655561404980e+00 3.2292108492096361e+00 0 0 0
119 2 2.4610000000000003e+00 4.2625770374269996e+00 3.2292108492096361e+00 0 0 0
121 2 3.6914999999999996e+00 4.9730065436648339e+00 3.2292108492096361e+00 0 0 0
144 2 3.6914999999999996e+00 6.3938655561404980e+00 3.2292108492096361e+00 0 0 0
96 2 0.0000000000000000e+00 7.1042950623783341e+00 3.2292108492096361e+00 0 0 0
117 2 2.4610000000000003e+00 7.1042950623783341e+00 3.2292108492096361e+00 0 0 0
148 2 4.9220000000000006e+00 4.2625770374269978e+00 3.2292108492096361e+00 0 0 0
150 2 6.1524999999999999e+00 4.9730065436648339e+00 3.2292108492096361e+00 0 0 0
181 2 6.1524999999999999e+00 6.3938655561404980e+00 3.2292108492096361e+00 0 0 0
185 2 7.3829999999999991e+00 4.2625770374269996e+00 3.2292108492096361e+00 0 0 0
146 2 4.9220000000000006e+00 7.1042950623783341e+00 3.2292108492096361e+00 0 0 0
183 2 7.3830000000000009e+00 7.1042950623783341e+00 3.2292108492096361e+00 0 0 0
187 2 8.6135000000000002e+00 4.9730065436648339e+00 3.2292108492096361e+00 0 0 0
226 2 8.6135000000000002e+00 6.3938655561404980e+00 3.2292108492096361e+00 0 0 0
230 2 9.8440000000000012e+00 4.2625770374270004e+00 3.2292108492096361e+00 0 0 0
232 2 1.1074500000000002e+01 4.9730065436648339e+00 3.2292108492096361e+00 0 0 0
273 2 1.1074500000000002e+01 6.3938655561404980e+00 3.2292108492096361e+00 0 0 0
228 2 9.8440000000000012e+00 7.1042950623783341e+00 3.2292108492096361e+00 0 0 0
111 2 0.0000000000000000e+00 8.5251540748539991e+00 3.2292108492096361e+00 0 0 0
113 2 1.2305000000000001e+00 9.2355835810918343e+00 3.2292108492096361e+00 0 0 0
140 2 2.4610000000000003e+00 8.5251540748539991e+00 3.2292108492096361e+00 0 0 0
142 2 3.6915000000000004e+00 9.2355835810918343e+00 3.2292108492096361e+00 0 0 0
109 2 0.0000000000000000e+00 1.1366872099805333e+01 3.2292108492096361e+00 0 0 0
136 2 1.2305000000000001e+00 1.0656442593567498e+01 3.2292108492096361e+00 0 0 0
138 2 2.4610000000000003e+00 1.1366872099805333e+01 3.2292108492096361e+00 0 0 0
173 2 3.6914999999999996e+00 1.0656442593567499e+01 3.2292108492096361e+00 0 0 0
177 2 4.9220000000000006e+00 8.5251540748539991e+00 3.2292108492096361e+00 0 0 0
179 2 6.1524999999999999e+00 9.2355835810918343e+00 3.2292108492096361e+00 0 0 0
222 2 7.3830000000000009e+00 8.5251540748539991e+00 3.2292108492096361e+00 0 0 0
175 2 4.9220000000000006e+00 1.1366872099805333e+01 3.2292108492096361e+00 0 0 0
218 2 6.1524999999999999e+00 1.0656442593567499e+01 3.2292108492096361e+00 0 0 0
220 2 7.3829999999999991e+00 1.1366872099805333e+01 3.2292108492096361e+00 0 0 0
224 2 8.6134999999999984e+00 9.2355835810918343e+00 3.2292108492096361e+00 0 0 0
269 2 9.8440000000000012e+00 8.5251540748539956e+00 3.2292108492096361e+00 0 0 0
271 2 1.1074500000000002e+01 9.2355835810918343e+00 3.2292108492096361e+00 0 0 0
265 2 8.6134999999999984e+00 1.0656442593567498e+01 3.2292108492096361e+00 0 0 0
267 2 9.8440000000000012e+00 1.1366872099805333e+01 3.2292108492096361e+00 0 0 0
312 2 1.1074500000000002e+01 1.0656442593567498e+01 3.2292108492096361e+00 0 0 0
314 2 1.2304999999999998e+01 1.1366872099805333e+01 3.2292108492096361e+00 0 0 0
92 2 0.0000000000000000e+00 1.4208590124756650e+00 6.2393611236062982e+00 0 0 0
94 2 0.0000000000000000e+00 0.0000000000000000e+00 6.2393611236062982e+00 0 0 0
103 2 1.2305000000000001e+00 2.1312885187134998e+00 6.2393611236062982e+00 0 0 0
105 2 2.4610000000000003e+00 1.4208590124756650e+00 6.2393611236062982e+00 0 0 0
107 2 2.4610000000000003e+00 0.0000000000000000e+00 6.2393611236062982e+00 0 0 0
124 2 3.6914999999999996e+00 2.1312885187134998e+00 6.2393611236062982e+00 0 0 0
420 2 0.0000000000000000e+00 2.8417180249513345e+00 9.2495113980029195e+00 0 0 0
421 2 0.0000000000000000e+00 0.0000000000000000e+00 9.2495113980029195e+00 0 0 0
422 2 1.2305000000000001e+00 7.1042950623783474e-01 9.2495113980029195e+00 0 0 0
426 2 1.2305000000000001e+00 2.1312885187134998e+00 9.2495113980029195e+00 0 0 0
427 2 2.4610000000000003e+00 2.8417180249513345e+00 9.2495113980029195e+00 0 0 0
428 2 2.4610000000000003e+00 0.0000000000000000e+00 9.2495113980029195e+00 0 0 0
429 2 3.6915000000000004e+00 7.1042950623783474e-01 9.2495113980029195e+00 0 0 0
437 2 3.6914999999999996e+00 2.1312885187134998e+00 9.2495113980029195e+00 0 0 0
101 2 1.2305000000000001e+00 3.5521475311891644e+00 6.2393611236062982e+00 0 0 0
122 2 3.6914999999999996e+00 3.5521475311891644e+00 6.2393611236062982e+00 0 0 0
126 2 4.9220000000000006e+00 1.4208590124756650e+00 6.2393611236062982e+00 0 0 0
128 2 4.9220000000000006e+00 0.0000000000000000e+00 6.2393611236062982e+00 0 0 0
153 2 6.1524999999999999e+00 2.1312885187134989e+00 6.2393611236062982e+00 0 0 0
155 2 7.3829999999999991e+00 1.4208590124756659e+00 6.2393611236062982e+00 0 0 0
157 2 7.3829999999999991e+00 0.0000000000000000e+00 6.2393611236062982e+00 0 0 0
438 2 4.9220000000000006e+00 2.8417180249513332e+00 9.2495113980029195e+00 0 0 0
439 2 4.9220000000000006e+00 0.0000000000000000e+00 9.2495113980029195e+00 0 0 0
440 2 6.1524999999999999e+00 7.1042950623783407e-01 9.2495113980029195e+00 0 0 0
452 2 6.1524999999999999e+00 2.1312885187134989e+00 9.2495113980029195e+00 0 0 0
453 2 7.3829999999999991e+00 2.8417180249513345e+00 9.2495113980029195e+00 0 0 0
454 2 7.3829999999999991e+00 0.0000000000000000e+00 9.2495113980029195e+00 0 0 0
151 2 6.1524999999999999e+00 3.5521475311891644e+00 6.2393611236062982e+00 0 0 0
190 2 8.6134999999999984e+00 2.1312885187135002e+00 6.2393611236062982e+00 0 0 0
192 2 9.8440000000000012e+00 1.4208590124756659e+00 6.2393611236062982e+00 0 0 0
194 2 9.8440000000000012e+00 0.0000000000000000e+00 6.2393611236062982e+00 0 0 0
235 2 1.1074500000000002e+01 2.1312885187135002e+00 6.2393611236062982e+00 0 0 0
455 2 8.6134999999999984e+00 7.1042950623783407e-01 9.2495113980029195e+00 0 0 0
471 2 8.6134999999999984e+00 2.1312885187135002e+00 9.2495113980029195e+00 0 0 0
472 2 9.8440000000000012e+00 2.8417180249513332e+00 9.2495113980029195e+00 0 0 0
473 2 9.8440000000000012e+00 0.0000000000000000e+00 9.2495113980029195e+00 0 0 0
474 2 1.1074500000000002e+01 7.1042950623783330e-01 9.2495113980029195e+00 0 0 0
494 2 1.1074500000000002e+01 2.1312885187135002e+00 9.2495113980029195e+00 0 0 0
188 2 8.6134999999999984e+00 3.5521475311891657e+00 6.2393611236062982e+00 0 0 0
233 2 1.1074500000000002e+01 3.5521475311891644e+00 6.2393611236062982e+00 0 0 0
97 2 0.0000000000000000e+00 5.6834360499026637e+00 6.2393611236062982e+00 0 0 0
99 2 0.0000000000000000e+00 4.2625770374269996e+00 6.2393611236062982e+00 0 0 0
116 2 1.2305000000000001e+00 6.3938655561404980e+00 6.2393611236062982e+00 0 0 0
118 2 2.4610000000000003e+00 5.6834360499026637e+00 6.2393611236062982e+00 0 0 0
120 2 2.4610000000000003e+00 4.2625770374269996e+00 6.2393611236062982e+00 0 0 0
145 2 3.6914999999999996e+00 6.3938655561404980e+00 6.2393611236062982e+00 0 0 0
424 2 0.0000000000000000e+00 4.2625770374269996e+00 9.2495113980029195e+00 0 0 0
425 2 1.2305000000000001e+00 4.9730065436648339e+00 9.2495113980029195e+00 0 0 0
433 2 1.2305000000000001e+00 6.3938655561404980e+00 9.2495113980029195e+00 0 0 0
435 2 2.4610000000000003e+00 4.2625770374269996e+00 9.2495113980029195e+00 0 0 0
436 2 3.6914999999999996e+00 4.9730065436648339e+00 9.2495113980029195e+00 0 0 0
448 2 3.6914999999999996e+00 6.3938655561404980e+00 9.2495113980029195e+00 0 0 0
114 2 1.2305000000000001e+00 7.8147245686161639e+00 6.2393611236062982e+00 0 0 0
143 2 3.6914999999999996e+00 7.8147245686161639e+00 6.2393611236062982e+00 0 0 0
423 2 0.0000000000000000e+00 7.1042950623783341e+00 9.2495113980029195e+00 0 0 0
434 2 2.4610000000000003e+00 7.1042950623783341e+00 9.2495113980029195e+00 0 0 0
147 2 4.9220000000000006e+00 5.6834360499026637e+00 6.2393611236062982e+00 0 0 0
149 2 4.9220000000000006e+00 4.2625770374269978e+00 6.2393611236062982e+00 0 0 0
182 2 6.1524999999999999e+00 6.3938655561404980e+00 6.2393611236062982e+00 0 0 0
184 2 7.3829999999999991e+00 5.6834360499026637e+00 6.2393611236062982e+00 0 0 0
186 2 7.3829999999999991e+00 4.2625770374269996e+00 6.2393611236062982e+00 0 0 0
450 2 4.9220000000000006e+00 4.2625770374269978e+00 9.2495113980029195e+00 0 0 0
451 2 6.1524999999999999e+00 4.9730065436648339e+00 9.2495113980029195e+00 0 0 0
467 2 6.1524999999999999e+00 6.3938655561404980e+00 9.2495113980029195e+00 0 0 0
469 2 7.3829999999999991e+00 4.2625770374269996e+00 9.2495113980029195e+00 0 0 0
180 2 6.1524999999999999e+00 7.8147245686161639e+00 6.2393611236062982e+00 0 0 0
449 2 4.9220000000000006e+00 7.1042950623783341e+00 9.2495113980029195e+00 0 0 0
468 2 7.3830000000000009e+00 7.1042950623783341e+00 9.2495113980029195e+00 0 0 0
227 2 8.6135000000000002e+00 6.3938655561404980e+00 6.2393611236062982e+00 0 0 0
229 2 9.8440000000000012e+00 5.6834360499026637e+00 6.2393611236062982e+00 0 0 0
231 2 9.8440000000000012e+00 4.2625770374270004e+00 6.2393611236062982e+00 0 0 0
274 2 1.1074500000000002e+01 6.3938655561404980e+00 6.2393611236062982e+00 0 0 0
470 2 8.6135000000000002e+00 4.9730065436648339e+00 9.2495113980029195e+00 0 0 0
490 2 8.6135000000000002e+00 6.3938655561404980e+00 9.2495113980029195e+00 0 0 0
492 2 9.8440000000000012e+00 4.2625770374270004e+00 9.2495113980029195e+00 0 0 0
493 2 1.1074500000000002e+01 4.9730065436648339e+00 9.2495113980029195e+00 0 0 0
514 2 1.1074500000000002e+01 6.3938655561404980e+00 9.2495113980029195e+00 0 0 0
225 2 8.6135000000000002e+00 7.8147245686161639e+00 6.2393611236062982e+00 0 0 0
272 2 1.1074500000000002e+01 7.8147245686161639e+00 6.2393611236062982e+00 0 0 0
491 2 9.8440000000000012e+00 7.1042950623783341e+00 9.2495113980029195e+00 0 0 0
110 2 0.0000000000000000e+00 9.9460130873296642e+00 6.2393611236062982e+00 0 0 0
112 2 0.0000000000000000e+00 8.5251540748539991e+00 6.2393611236062982e+00 0 0 0
139 2 2.4610000000000003e+00 9.9460130873296642e+00 6.2393611236062982e+00 0 0 0
141 2 2.4610000000000003e+00 8.5251540748539991e+00 6.2393611236062982e+00 0 0 0
431 2 0.0000000000000000e+00 8.5251540748539991e+00 9.2495113980029195e+00 0 0 0
432 2 1.2305000000000001e+00 9.2355835810918343e+00 9.2495113980029195e+00 0 0 0
446 2 2.4610000000000003e+00 8.5251540748539991e+00 9.2495113980029195e+00 0 0 0
447 2 3.6915000000000004e+00 9.2355835810918343e+00 9.2495113980029195e+00 0 0 0
135 2 1.2305000000000001e+00 1.2077301606043163e+01 6.2393611236062982e+00 0 0 0
137 2 1.2305000000000001e+00 1.0656442593567498e+01 6.2393611236062982e+00 0 0 0
172 2 3.6914999999999996e+00 1.2077301606043163e+01 6.2393611236062982e+00 0 0 0
174 2 3.6914999999999996e+00 1.0656442593567499e+01 6.2393611236062982e+00 0 0 0
430 2 0.0000000000000000e+00 1.1366872099805333e+01 9.2495113980029195e+00 0 0 0
444 2 1.2305000000000001e+00 1.0656442593567498e+01 9.2495113980029195e+00 0 0 0
445 2 2.4610000000000003e+00 1.1366872099805333e+01 9.2495113980029195e+00 0 0 0
463 2 3.6914999999999996e+00 1.0656442593567499e+01 9.2495113980029195e+00 0 0 0
176 2 4.9220000000000006e+00 9.9460130873296642e+00 6.2393611236062982e+00 0 0 0
178 2 4.9220000000000006e+00 8.5251540748539991e+00 6.2393611236062982e+00 0 0 0
221 2 7.3830000000000009e+00 9.9460130873296642e+00 6.2393611236062982e+00 0 0 0
223 2 7.3830000000000009e+00 8.5251540748539991e+00 6.2393611236062982e+00 0 0 0
465 2 4.9220000000000006e+00 8.5251540748539991e+00 9.2495113980029195e+00 0 0 0
466 2 6.1524999999999999e+00 9.2355835810918343e+00 9.2495113980029195e+00 0 0 0
488 2 7.3830000000000009e+00 8.5251540748539991e+00 9.2495113980029195e+00 0 0 0
217 2 6.1524999999999999e+00 1.2077301606043163e+01 6.2393611236062982e+00 0 0 0
219 2 6.1524999999999999e+00 1.0656442593567499e+01 6.2393611236062982e+00 0 0 0
464 2 4.9220000000000006e+00 1.1366872099805333e+01 9.2495113980029195e+00 0 0 0
486 2 6.1524999999999999e+00 1.0656442593567499e+01 9.2495113980029195e+00 0 0 0
487 2 7.3829999999999991e+00 1.1366872099805333e+01 9.2495113980029195e+00 0 0 0
268 2 9.8440000000000012e+00 9.9460130873296642e+00 6.2393611236062982e+00 0 0 0
270 2 9.8440000000000012e+00 8.5251540748539956e+00 6.2393611236062982e+00 0 0 0
489 2 8.6134999999999984e+00 9.2355835810918343e+00 9.2495113980029195e+00 0 0 0
512 2 9.8440000000000012e+00 8.5251540748539956e+00 9.2495113980029195e+00 0 0 0
513 2 1.1074500000000002e+01 9.2355835810918343e+00 9.2495113980029195e+00 0 0 0
264 2 8.6135000000000002e+00 1.2077301606043163e+01 6.2393611236062982e+00 0 0 0
266 2 8.6134999999999984e+00 1.0656442593567498e+01 6.2393611236062982e+00 0 0 0
311 2 1.1074500000000002e+01 1.2077301606043163e+01 6.2393611236062982e+00 0 0 0
313 2 1.1074500000000002e+01 1.0656442593567498e+01 6.2393611236062982e+00 0 0 0
510 2 8.6134999999999984e+00 1.0656442593567498e+01 9.2495113980029195e+00 0 0 0
511 2 9.8440000000000012e+00 1.1366872099805333e+01 9.2495113980029195e+00 0 0 0
534 2 1.1074500000000002e+01 1.0656442593567498e+01 9.2495113980029195e+00 0 0 0
535 2 1.2304999999999998e+01 1.1366872099805333e+01 9.2495113980029195e+00 0 0 0
707 1 1.0606859560470423e+00 8.3855864841474084e+00 1.6264212074839584e+01 0 0 0
3848 1 6.3294925783529266e+00 1.0514110485718009e+01 1.4647348230415799e+01 0 1 0
3154 1 4.0851973296528472e+00 2.6986893185581748e+00 1.2264202367288146e+01 0 0 1
697 1 2.0544355123055111e+00 5.0177590663868479e+00 1.1618618042198964e+01 0 0 0
859 1 1.0450708608437154e+01 2.9872856364763130e+00 1.1640710474840935e+01 1 1 0
1619 1 1.1408560623709699e+01 9.4208381196779811e+00 1.4726913371746447e+01 0 0 -1
2381 1 5.3326554484779889e+00 8.3755620034277776e+00 1.6196937198127813e+01 1 1 1
22 1 1.0193973266769165e+01 4.5464891846376130e+00 1.4047327430307607e+01 0 1 0
1488 1 6.9765071856546070e+00 3.0919801145448442e+00 1.1813499000665331e+01 2 0 0
1569 1 1.0897492801489024e+01 6.4364356504568470e+00 1.1666302993814003e+01 0 0 0
3643 1 3.6606904794088178e+00 8.6712897536442561e+00 1.2129833273260958e+01 0 0 -1
3837 1 5.7852862516478814e+00 1.0614989818393067e+01 1.1999307914994604e+01 0 1 -1
3003 1 9.0338676813986556e+00 7.0986338862320841e-01 1.1935176489623478e+01 0 0 0
2966 1 9.6152528007793558e-01 2.8744859694156637e+00 1.3043799447880065e+01 0 1 1
2396 1 1.1022486187693492e+01 9.2223519229916420e+00 1.1924359719918293e+01 0 0 0
748 1 2.1858266409294127e+00 7.0686561119262414e+00 1.4051604940603420e+01 -1 0 0
2977 1 9.3980655397276767e+00 1.1276090382290072e+01 1.4933065420278725e+01 0 0 0
673 1 4.7782376475720394e+00 2.5791728104614249e+00 1.5159397441856335e+01 1 0 0
1375 1 7.3650788991417642e+00 3.9992536445231934e+00 1.4737201401676355e+01 0 1 0
1432 1 9.8173034040250080e+00 1.1356019008633660e+00 1.4759628855600434e+01 0 2 -1
1455 1 1.8084775843683725e+00 4.4412491537990837e+00 1.5257092058778445e+01 0 1 0
737 1 8.0455879716703365e+00 5.9484594612484045e+00 1.1607383745417813e+01 -1 0 0
4365 1 5.1102987408376466e+00 6.1793456187554785e+00 1.4805962422242981e+01 -1 0 0
2128 1 4.6407500906606804e+00 5.7490026836627139e+00 1.1977398395520467e+01 1 0 0
2974 1 3.1900880961914830e+00 1.0393622998501986e+01 1.6488624612167527e+01 0 1 -1
2352 1 7.5320441045251680e+00 1.5629830285619684e+00 1.6156203962834724e+01 0 1 0
2978 1 7.5887698084671369e+00 7.3887346245125931e+00 1.3895991142009061e+01 0 1 0
1451 1 8.2140517590339464e+00 9.3080172080686250e+00 1.1770313379623618e+01 -1 0 0
604 1 1.8940748094540372e+00 1.0698853341803682e+01 1.1899981131365504e+01 2 0 0
1590 1 6.1439868485438751e+00 2.5770782470079900e-01 1.2400975580086033e+01 0 0 0
666 1 1.0069639107670017e+01 7.0213176696828254e+00 1.5436840949879283e+01 0 1 1
2208 1 4.5674337375641604e-02 7.0486436516812363e+00 1.1810633611738886e+01 -1 0 0
3099 1 8.4701082299176456e+00 1.2098573461316375e+01 1.2249560832503580e+01 0 0 0
2897 1 2.2146685696797048e+00 1.2239829361977916e+01 1.4461176883998025e+01 0 -1 -1
2303 1 2.7436722078199036e+00 1.1772790850963924e-01 1.2164030551453781e+01 0 1 -1
3007 1 1.1446764122837248e-01 1.3365675254856768e-01 1.5111022663271010e+01 0 2 -1
2987 1 5.0647622008157112e-01 1.0180821523829907e+01 2.4683641704120518e+01 0 1 0
1524 1 1.1768232065116786e+01 6.1965220302839406e+00 2.5598810248431683e+01 0 0 0
84 1 3.6918173785827380e+00 2.3395884351683480e+00 2.0832718027637988e+01 0 0 0
3052 1 1.2375999146895036e+00 5.1068593437114336e+00 2.7483424629403210e+01 0 0 -1
4335 1 8.8601965385946038e+00 1.0556070023492965e+00 2.8195058406675251e+01 -1 1 1
1576 1 6.6068189350406525e+00 9.7302255404799389e+00 3.0872647190437633e+01 0 1 0
2179 1 2.2807830392131421e+00 5.3572149875514086e+00 3.0477634466485775e+01 1 1 0
4431 1 3.9173008591863581e+00 6.6920299997655315e+00 2.0031617575299251e+01 0 0 1
3721 1 1.0240857357174948e+00 7.0597059125907409e+00 1.9031054834526259e+01 0 0 -1
1441 1 7.8772038526109622e-01 4.3001770186260044e+00 1.8304362773283934e+01 1 1 1
3098 1 6.2648283733182524e+00 7.7035737557710302e+00 1.8613690190146457e+01 1 0 0
695 1 1.0078727809421292e+01 7.9148387669160014e+00 1.7891390821498121e+01 0 0 -1
597 1 1.0887484926134226e+01 5.4910428714369752e+00 1.9406948204286309e+01 0 1 0
2346 1 5.5679376203288147e+00 4.6611263231018496e+00 1.9029978238473895e+01 1 1 0
3034 1 3.3167378988160565e+00 3.0631893747934180e+00 1.7836095013083877e+01 0 0 -1
2345 1 3.9601952647466074e+00 9.9497494431090132e+00 1.9717065866684671e+01 0 1 -1
2243 1 8.3584639232381246e+00 9.5036472285780604e+00 1.9563357134756664e+01 1 0 0
1480 1 6.7960805857097784e+00 4.7259274095920578e-01 1.9674131429983454e+01 0 2 -1
1547 1 1.2744499903483386e+00 1.1055836459341412e+01 3.0458584214270388e+01 0 1 -1
2142 1 9.9122210434898612e+00 1.1689443854931973e+01 1.8179653674741481e+01 -1 0 0
1502 1 3.2481703507740676e+00 1.2194922620709237e+01 2.7599152674594734e+01 0 1 0
742 1 1.0769902252610930e+00 7.1193532513507503e+00 2.2168822179515843e+01 0 0 0
2247 1 1.2775504240187272e+00 1.7556455657692760e+00 2.2082845334245839e+01 1 0 1
3645 1 6.4813073168469879e+00 4.4497003983607835e+00 2.1652402626055398e+01 2 1 0
1587 1 9.1119956759006797e+00 3.9683580228397615e+00 2.1110989896566565e+01 0 2 1
3145 1 1.4046640930496328e+00 9.9192128105460842e-01 2.9958332398186819e+01 2 0 0
2235 1 8.0429683900537707e+00 2.7807678119271895e+00 1.9065915309891800e+01 0 1 1
613 1 1.1608101348581080e+01 4.5280510396899922e+00 2.3148164353281061e+01 0 1 0
1623 1 1.3157082460216512e+00 4.7186432816640111e-01 2.7333749754294544e+01 1 1 1
2124 1 3.1914916407861895e+00 4.8753130654530406e+00 2.2063102861471442e+01 0 1 0
2321 1 3.4858991833334079e+00 8.9660422716845680e+00 2.2548087397737163e+01 0 0 -1
2156 1 1.0245899237492234e+01 9.1192778350208510e+00 2.1487779427751875e+01 0 0 -1
875 1 7.6773956161441292e+00 5.7738549968641086e+00 1.7442177993053647e+01 2 1 0
2146 1 9.3904912373914637e+00 6.6668911930996151e+00 2.2885584641386650e+01 1 1 0
675 1 1.0549968729669292e+01 1.8829450276085904e-01 2.5783221301315905e+01 0 1 -1
37 1 2.6546659612558852e+00 1.1541577489773770e+01 2.3379119781858023e+01 0 0 1
2133 1 8.9713298964545729e-01 8.1590634586869566e+00 3.1054846195033043e+01 0 -1 0
3716 1 1.0492284495758634e+01 1.1724375594436230e+01 2.2550982551099281e+01 0 1 -1
4528 1 4.8638845374046200e+00 7.2936420367591666e+00 2.4539896398424226e+01 -1 1 -1
4358 1 1.1493818462332277e+01 4.3499328449755801e+00 2.7517000953589140e+01 1 1 0
704 1 6.9300802730231315e+00 1.1403254317100975e+01 2.4034505032291250e+01 1 1 -1
834 1 5.9725400393627703e+00 1.8728767057400759e+00 2.2778760619259408e+01 0 0 0
66 1 8.6355905263432217e-02 2.8341401870272529e+00 2.6207994249617123e+01 1 -1 0
805 1 2.6984794599570212e+00 1.7710878024930636e+00 2.4589414344117657e+01 0 0 0
2245 1 3.5253149069985299e+00 3.0525679228681049e+00 2.7879924575129472e+01 -1 0 -1
804 1 5.3288562414393477e+00 2.1917530093457160e+00 2.5745267464728407e+01 0 -1 0
4484 1 9.7912367006616083e+00 2.2110489002838913e+00 2.3726893439156051e+01 -1 1 0
4458 1 1.0156566462526065e+01 1.1963161045541160e+01 3.0890260154596930e+01 0 1 0
16 1 1.0299741623952707e-01 7.5189535585950589e+00 2.5122444966099096e+01 2 0 -1
3894 1 5.0469812173293391e+00 5.3238089659133827e+00 2.8301270201482815e+01 0 -1 0
864 1 7.0796586104057084e+00 5.9139993721672610e+00 2.3758968945873548e+01 1 -1 1
1478 1 9.2397475268859051e+00 7.6683458808799552e+00 2.5704754442154908e+01 0 0 -1
3047 1 1.7451956743202302e-01 4.3473401953426238e+00 2.1100458318272516e+01 0 0 -1
3724 1 1.0671790892712274e+01 9.8505525751990746e+00 2.7600444047852520e+01 1 0 0
2383 1 3.3204686587992671e+00 7.0300315412818399e+00 2.6666345819490843e+01 0 -1 0
4397 1 4.0524898245705057e+00 1.1884601699589403e+01 3.0276119174556200e+01 1 -1 -1
2331 1 6.8560219773959599e+00 9.0289511142979695e+00 2.5575705722968614e+01 0 1 -1
2912 1 7.5065123326984429e+00 9.6411222399992198e+00 2.8313313453018871e+01 0 0 0
3120 1 2.0364413444583191e+00 1.1971452221519902e+01 1.8626313407599149e+01 1 0 -1
2976 1 3.7186331086645463e+00 2.3500552310773792e+00 3.0821333233427907e+01 0 1 0
2132 1 7.7745246701719024e+00 3.6318650363705411e+00 2.5416924230853311e+01 1 0 0
4391 1 7.8680865726850513e+00 3.5485712836556051e+00 3.0724152413266545e+01 1 1 0
2840 1 2.7892584716909576e+00 9.3122140406914973e+00 2.7828897310330454e+01 0 0 0
767 1 8.8222640123620835e+00 3.7395709430669060e+00 2.7855940434849202e+01 1 1 0
2193 1 6.4016947911717690e+00 1.1665225702316746e+01 1.9631010687435200e+01 1 2 1
669 1 8.0513715084065431e+00 1.6015804449736909e-01 2.2235298282438585e+01 0 1 1
3854 1 5.1030706192696051e+00 4.8116710851084834e+00 3.0978567665561215e+01 1 -1 0
2282 1 7.8199467948700576e+00 6.4202251905194103e+00 2.8275312496038119e+01 0 1 0
3798 1 3.7494331167781332e+00 8.9538339614935101e+00 3.0507298857053414e+01 0 0 -1
4382 1 8.2840351253289324e+00 7.7321441466317502e+00 3.1219379927996840e+01 1 1 0
1515 1 9.9650968530631765e+00 5.3963550617762888e+00 3.0893542403726300e+01 1 2 0
4374 1 1.0534262300418785e+01 9.2689812696169849e+00 3.0345589044119379e+01 1 0 0
1399 1 7.9913694422922763e+00 1.0394175424376033e+00 3.1238009201193698e+01 0 1 0
2401 1 1.0895767763703782e+01 1.5494973349887118e+00 1.9125491344380336e+01 1 1 0
3641 1 2.2171743159048107e+00 4.7059079075554755e-01 1.7081065110795855e+01 0 0 0
4490 1 5.6798977813340157e+00 2.1299615836466021e-01 3.0374143153829998e+01 0 0 -1
2911 1 1.9933858362366408e-01 1.2510524517775323e+00 1.9048003391846386e+01 1 -1 -1
647 1 2.8564099566771972e-02 1.0009901718645152e+01 2.7677645540542329e+01 0 0 0
831 1 8.6536743323779497e+00 1.2170981254566172e+01 2.6268096928406742e+01 1 0 1
2217 1 1.0903794422490762e+01 4.0064764939955921e-02 2.1584744030328764e+01 1 0 0
132 2 0.0000000000000000e+00 1.2787731112280996e+01 3.2292108492096361e+00 0 0 0
134 2 1.2305000000000001e+00 1.3498160618518829e+01 3.2292108492096361e+00 0 0 0
169 2 2.4610000000000003e+00 1.2787731112280996e+01 3.2292108492096361e+00 0 0 0
171 2 3.6915000000000004e+00 1.3498160618518829e+01 3.2292108492096361e+00 0 0 0
130 2 0.0000000000000000e+00 1.5629449137232333e+01 3.2292108492096361e+00 0 0 0
165 2 1.2305000000000001e+00 1.4919019630994494e+01 3.2292108492096361e+00 0 0 0
167 2 2.4610000000000003e+00 1.5629449137232328e+01 3.2292108492096361e+00 0 0 0
210 2 3.6915000000000004e+00 1.4919019630994494e+01 3.2292108492096361e+00 0 0 0
214 2 4.9220000000000006e+00 1.2787731112280996e+01 3.2292108492096361e+00 0 0 0
216 2 6.1524999999999990e+00 1.3498160618518829e+01 3.2292108492096361e+00 0 0 0
261 2 7.3829999999999991e+00 1.2787731112280996e+01 3.2292108492096361e+00 0 0 0
212 2 4.9220000000000006e+00 1.5629449137232333e+01 3.2292108492096361e+00 0 0 0
257 2 6.1524999999999990e+00 1.4919019630994494e+01 3.2292108492096361e+00 0 0 0
259 2 7.3829999999999991e+00 1.5629449137232333e+01 3.2292108492096361e+00 0 0 0
263 2 8.6135000000000002e+00 1.3498160618518835e+01 3.2292108492096361e+00 0 0 0
308 2 9.8440000000000012e+00 1.2787731112280996e+01 3.2292108492096361e+00 0 0 0
310 2 1.1074500000000002e+01 1.3498160618518829e+01 3.2292108492096361e+00 0 0 0
304 2 8.6135000000000002e+00 1.4919019630994494e+01 3.2292108492096361e+00 0 0 0
306 2 9.8440000000000012e+00 1.5629449137232328e+01 3.2292108492096361e+00 0 0 0
346 2 1.1074500000000002e+01 1.4919019630994494e+01 3.2292108492096361e+00 0 0 0
161 2 0.0000000000000000e+00 1.7050308149707998e+01 3.2292108492096361e+00 0 0 0
206 2 2.4610000000000003e+00 1.7050308149707998e+01 3.2292108492096361e+00 0 0 0
159 2 0.0000000000000000e+00 1.9892026174659328e+01 3.2292108492096361e+00 0 0 0
163 2 1.2305000000000001e+00 1.7760737655945832e+01 3.2292108492096361e+00 0 0 0
202 2 1.2305000000000001e+00 1.9181596668421495e+01 3.2292108492096361e+00 0 0 0
204 2 2.4610000000000003e+00 1.9892026174659328e+01 3.2292108492096361e+00 0 0 0
208 2 3.6914999999999996e+00 1.7760737655945832e+01 3.2292108492096361e+00 0 0 0
249 2 3.6914999999999996e+00 1.9181596668421495e+01 3.2292108492096361e+00 0 0 0
253 2 4.9220000000000006e+00 1.7050308149707998e+01 3.2292108492096361e+00 0 0 0
300 2 7.3830000000000009e+00 1.7050308149707998e+01 3.2292108492096361e+00 0 0 0
251 2 4.9220000000000006e+00 1.9892026174659328e+01 3.2292108492096361e+00 0 0 0
255 2 6.1524999999999999e+00 1.7760737655945832e+01 3.2292108492096361e+00 0 0 0
296 2 6.1524999999999999e+00 1.9181596668421495e+01 3.2292108492096361e+00 0 0 0
298 2 7.3829999999999991e+00 1.9892026174659328e+01 3.2292108492096361e+00 0 0 0
342 2 9.8440000000000012e+00 1.7050308149707998e+01 3.2292108492096361e+00 0 0 0
376 2 1.2304999999999998e+01 1.7050308149707998e+01 3.2292108492096361e+00 0 0 0
302 2 8.6134999999999984e+00 1.7760737655945832e+01 3.2292108492096361e+00 0 0 0
338 2 8.6135000000000002e+00 1.9181596668421495e+01 3.2292108492096361e+00 0 0 0
340 2 9.8440000000000012e+00 1.9892026174659335e+01 3.2292108492096361e+00 0 0 0
344 2 1.1074500000000002e+01 1.7760737655945835e+01 3.2292108492096361e+00 0 0 0
372 2 1.1074500000000002e+01 1.9181596668421495e+01 3.2292108492096361e+00 0 0 0
196 2 0.0000000000000000e+00 2.4154603212086325e+01 3.2292108492096361e+00 0 0 0
198 2 0.0000000000000000e+00 2.1312885187134999e+01 3.2292108492096361e+00 0 0 0
200 2 1.2304999999999993e+00 2.2023314693372832e+01 3.2292108492096361e+00 0 0 0
241 2 1.2304999999999993e+00 2.3444173705848499e+01 3.2292108492096361e+00 0 0 0
243 2 2.4610000000000003e+00 2.4154603212086325e+01 3.2292108492096361e+00 0 0 0
245 2 2.4610000000000003e+00 2.1312885187134995e+01 3.2292108492096361e+00 0 0 0
247 2 3.6914999999999996e+00 2.2023314693372832e+01 3.2292108492096361e+00 0 0 0
288 2 3.6915000000000004e+00 2.3444173705848499e+01 3.2292108492096361e+00 0 0 0
290 2 4.9220000000000006e+00 2.4154603212086325e+01 3.2292108492096361e+00 0 0 0
292 2 4.9220000000000006e+00 2.1312885187134995e+01 3.2292108492096361e+00 0 0 0
294 2 6.1524999999999990e+00 2.2023314693372832e+01 3.2292108492096361e+00 0 0 0
330 2 6.1524999999999999e+00 2.3444173705848499e+01 3.2292108492096361e+00 0 0 0
332 2 7.3830000000000009e+00 2.4154603212086336e+01 3.2292108492096361e+00 0 0 0
334 2 7.3829999999999991e+00 2.1312885187134999e+01 3.2292108492096361e+00 0 0 0
336 2 8.6135000000000002e+00 2.2023314693372832e+01 3.2292108492096361e+00 0 0 0
364 2 8.6134999999999984e+00 2.3444173705848499e+01 3.2292108492096361e+00 0 0 0
366 2 9.8440000000000012e+00 2.4154603212086336e+01 3.2292108492096361e+00 0 0 0
368 2 9.8440000000000012e+00 2.1312885187134999e+01 3.2292108492096361e+00 0 0 0
370 2 1.1074500000000002e+01 2.2023314693372832e+01 3.2292108492096361e+00 0 0 0
390 2 1.1074500000000002e+01 2.3444173705848499e+01 3.2292108492096361e+00 0 0 0
133 2 0.0000000000000000e+00 1.2787731112280996e+01 6.2393611236062982e+00 0 0 0
170 2 2.4610000000000003e+00 1.2787731112280996e+01 6.2393611236062982e+00 0 0 0
442 2 0.0000000000000000e+00 1.2787731112280996e+01 9.2495113980029195e+00 0 0 0
443 2 1.2305000000000001e+00 1.3498160618518829e+01 9.2495113980029195e+00 0 0 0
461 2 2.4610000000000003e+00 1.2787731112280996e+01 9.2495113980029195e+00 0 0 0
462 2 3.6915000000000004e+00 1.3498160618518829e+01 9.2495113980029195e+00 0 0 0