
# Create simulation box and atoms

read_data data.ML_graphite_1atm_240K
  orthogonal box = (0 0 1.76685) to (49.22 49.0196 31.8685)
  4 by 4 by 2 MPI processor grid
  reading atoms ...
  4545 atoms
  reading velocities ...
  4545 velocities
group water type 1
1785 atoms in group water
group graphite type 2
2760 atoms in group graphite

# Define potential

pair_style sw
pair_coeff * * MLC_e.sw mW C


# Fix graphite atoms in place

fix 5 graphite setforce 0.0 0.0 0.0
velocity graphite set 0.0 0.0 0.0


# Equilibration of molecular water

# Add velocity/set timestep

velocity	    water create ${TEMP} ${SEED} rot yes dist gaussian
velocity	    water create 240 ${SEED} rot yes dist gaussian
velocity	    water create 240 1783 rot yes dist gaussian
timestep	    5.0

# Define output

compute			1 water msd
compute			3 water temp
thermo	    	50
thermo_style	custom step temp press vol etotal ke pe c_1[4] c_3

# Neighbor lists

neigh_modify    delay 0 every 1 check yes

# Set fixes

fix             1 water momentum 10 linear 1 1 1 rescale
fix             2 water nve
fix             3 water temp/csvr ${TEMP} ${TEMP} 500.0 ${SEED}
fix             3 water temp/csvr 240 ${TEMP} 500.0 ${SEED}
fix             3 water temp/csvr 240 240 500.0 ${SEED}
fix             3 water temp/csvr 240 240 500.0 1783
fix             4 water press/berendsen z ${PRES} ${PRES} 1000.0 modulus 20000
fix             4 water press/berendsen z 1 ${PRES} 1000.0 modulus 20000
fix             4 water press/berendsen z 1 1 1000.0 modulus 20000

# Run 0.5 ns equilibration

dump		    1 all atom 2000 ${DIR}/eq.${NAME}-${TEMP}.dump
dump		    1 all atom 2000 run_4/eq.${NAME}-${TEMP}.dump
dump		    1 all atom 2000 run_4/eq.het_freeze_4-${TEMP}.dump
dump		    1 all atom 2000 run_4/eq.het_freeze_4-240.dump

reset_timestep  0

run	            100000
Neighbor list info ...
  update every 1 steps, delay 0 steps, check yes
  max neighbors/atom: 2000, page size: 100000
  master list distance cutoff = 6.67472
  ghost atom cutoff = 6.67472
  binsize = 3.33736, bins = 15 15 10
  1 neighbor lists, perpetual/occasional/extra = 1 0 0
  (1) pair sw, perpetual
      attributes: full, newton on
      pair build: full/bin/atomonly
      stencil: full/bin/3d
      bin: standard
Per MPI rank memory allocation (min/avg/max) = 4.115 | 4.302 | 4.489 Mbytes
Step Temp Press Volume TotEng KinEng PotEng c_1[4] c_3 
       0    94.225352   -657.89738    72627.636   -17236.286    1276.2636    -18512.55            0          240 
      50    92.280025   -347.83403    72672.082   -17276.777    1249.9146   -18526.692   0.47589802    235.04509 
     100     92.82391   -607.10634    72600.279   -17295.109    1257.2814   -18552.391    0.8454626    236.43041 
     150    92.778402   -802.26724    72603.304   -17299.987     1256.665   -18556.652    1.1010019     236.3145 
     200    93.926887   -211.06756    72626.745   -17283.965     1272.221   -18556.186    1.3906165    239.23978 
     250    92.801705   -768.28596    72582.309   -17272.157    1256.9806   -18529.138    1.6427152    236.37385 
     300    94.978814   -784.95688     72525.18   -17258.174    1286.4691   -18544.644    1.8355466    241.91913 
     350     93.92773   -842.40722    72513.401   -17254.867    1272.2324     -18527.1    2.0321694    239.24193 
     400    92.954609   -204.81351    72504.088   -17231.708    1259.0517   -18490.759    2.2534859    236.76331 
     450    93.480827   -415.23751    72545.489   -17245.271    1266.1792    -18511.45    2.3823412    238.10363 
     500    91.914027   -467.37655    72561.811   -17243.911    1244.9572   -18488.868    2.5801501    234.11286 
     550    96.206059   -376.93064    72600.587   -17185.363    1303.0919   -18488.455    2.8301023    245.04503 
     600     96.52449   -1135.1336    72585.626   -17185.214     1307.405   -18492.619    3.0123138     245.8561 
     650    97.222242   -956.20464    72530.886   -17189.502    1316.8559   -18506.358    3.2237233    247.63333 
     700    97.090172   -408.49951     72476.42   -17170.226     1315.067   -18485.293    3.4874221    247.29694 
     750    95.650589   -400.90632    72494.635   -17171.324    1295.5682   -18466.893    3.7345866     243.6302 
     800    94.108637   -253.49104    72549.938    -17195.86    1274.6827   -18470.543    3.9306974    239.70272 
     850    93.291562   -760.07758    72595.782   -17221.563    1263.6156   -18485.179    4.0855064    237.62156 
     900    95.697528   -814.49813    72568.141   -17217.171     1296.204   -18513.375      4.16719    243.74976 
     950    93.780412   -779.60959    72536.256   -17211.802     1270.237   -18482.039    4.4372819     238.8667 
    1000    92.385023   -605.91494    72431.432   -17220.068    1251.3367   -18471.405    4.7979738    235.31252 
    1050    93.940005   -385.21068     72493.02   -17241.582    1272.3987   -18513.981    4.9853028     239.2732 
    1100    90.269807   -844.33801    72445.611     -17269.2    1222.6866   -18491.887    5.2677813    229.92489 
    1150    92.966478   -387.98784     72466.32   -17253.482    1259.2124   -18512.695    5.4680186    236.79354 
    1200     93.60234    -353.1661    72506.256   -17253.292    1267.8251   -18521.117    5.6959441    238.41314 
    1250    93.619355   -420.71514     72532.14   -17243.038    1268.0555   -18511.094    6.0138478    238.45647 
    1300    93.300994    -260.3621     72546.27   -17228.631    1263.7434   -18492.375     6.276076    237.64558 
    1350    93.849613   -321.08875    72549.153   -17228.478    1271.1743   -18499.652    6.4796143    239.04296 
    1400     91.12249   -200.24527    72510.529   -17215.258     1234.236   -18449.494    6.7950844    232.09674 
    1450    94.960039   -672.38308     72446.82   -17230.055    1286.2148   -18516.269    6.9898324    241.87131 
    1500    96.446726   -693.59118    72452.483   -17213.052    1306.3517   -18519.403    7.2254614    245.65803 
    1550    95.238008   -157.40268    72420.641    -17226.19    1289.9799    -18516.17    7.4169509    242.57932 
    1600    92.578147     -112.173    72488.527   -17270.543    1253.9526   -18524.496    7.5275735    235.80443 
    1650    94.611795   -638.95714    72523.357   -17250.056    1281.4979   -18531.554    7.7483755     240.9843 
    1700    97.823244   -501.50903    72566.349   -17200.779    1324.9964   -18525.775    8.0403249    249.16414 
    1750    97.446211   -662.03687    72551.129   -17165.899    1319.8895   -18485.788    8.3124537     248.2038 
    1800    94.995796   -450.25084    72553.579   -17175.801    1286.6991     -18462.5     8.554738    241.96239 
    1850    96.428584    -617.7492    72551.314   -17169.612     1306.106   -18475.718    8.8883209    245.61182 
    1900    96.637033   -189.61749    72523.629   -17148.781    1308.9294   -18457.711    9.0535346    246.14276 
    1950    97.294263   -569.10619    72538.218     -17120.5    1317.8314   -18438.331    9.0910808    247.81678 
    2000    95.836308    -895.1857    72544.752   -17172.356    1298.0837    -18470.44    9.3168865    244.10324 
    2050     91.89496   -452.03686    72494.615   -17210.461    1244.6989    -18455.16    9.5732567    234.06429 
    2100    92.159925   -164.23281    72457.176   -17230.319    1248.2878   -18478.607    9.7338077    234.73918 
    2150    94.950053    88.313539    72510.454    -17221.67    1286.0796    -18507.75    9.7914125    241.84587 
    2200    93.411408   -349.99849    72499.374   -17188.283    1265.2389   -18453.522    9.7975692    237.92681 
    2250    93.274401   -242.69325    72481.833   -17250.392    1263.3832   -18513.775    9.9175013    237.57785 
    2300    93.463285   -233.03976    72488.766   -17225.956    1265.9416   -18491.897    10.071802    238.05895 
    2350      95.8968   -216.88546    72501.096   -17244.659    1298.9031   -18543.562     10.22712    244.25732 
    2400    93.490029   -339.47492    72509.571   -17248.211    1266.3038   -18514.515    10.472632    238.12707 
    2450    94.406827   -470.55102    72498.028   -17239.267    1278.7217   -18517.989    10.652709    240.46223 
    2500    95.657679   -340.48442    72533.745   -17213.503    1295.6642   -18509.168    10.868038    243.64826 
    2550    92.610393   -802.40151    72496.632   -17253.288    1254.3893   -18507.678    11.115482    235.88656 
    2600    94.929499   -359.34438    72483.326    -17245.92    1285.8012   -18531.721    11.278799    241.79352 
    2650    95.939181    -251.9426    72498.869   -17232.313    1299.4771    -18531.79    11.523538    244.36527 
    2700    94.437125    -457.6355    72489.892     -17242.2     1279.132   -18521.332    11.701651     240.5394 
    2750     95.81664   -289.91826    72461.735   -17290.045    1297.8173   -18587.863    11.953271    244.05315 
    2800    94.654921   -611.76636    72533.468   -17241.053    1282.0821   -18523.135    12.121657    241.09415 
    2850    96.027785   -184.81869     72580.56   -17243.536    1300.6772   -18544.213    12.266551    244.59095 
    2900    95.091704   -545.84588     72583.29   -17221.141    1287.9982   -18509.139    12.462089    242.20667 
    2950    97.820212    -400.9249    72585.936   -17216.846    1324.9553   -18541.801    12.585582    249.15642 
    3000    95.288675   -480.28212    72674.139   -17219.483    1290.6661   -18510.149    12.730121    242.70837 
    3050    95.566002   -642.19197    72720.378   -17203.973    1294.4225   -18498.395    12.956549    243.41475 
    3100    94.951061   -488.87512    72759.668   -17194.573    1286.0932   -18480.667    13.054448    241.84844 
    3150    94.578344   -701.03433    72798.172   -17225.625    1281.0448    -18506.67     13.25823     240.8991 
    3200     94.06732   -865.70622    72750.699   -17234.799    1274.1231   -18508.922    13.540525    239.59748 
    3250    96.232812   -411.55955    72681.944   -17234.761    1303.4543   -18538.215    13.897958    245.11317 
    3300    95.530114     -580.531     72633.73   -17234.653    1293.9364   -18528.589    14.083654    243.32334 
    3350    95.656026   -496.80702    72628.414   -17221.336    1295.6418   -18516.978    14.221928    243.64405 
    3400    91.858932   -532.35843     72650.92   -17244.891    1244.2109   -18489.102    14.618838    233.97253 
    3450    92.310544    -1000.579    72622.201   -17265.678    1250.3279   -18516.006     14.82305    235.12282 
    3500    94.538821   -451.26202    72577.702   -17284.711    1280.5095    -18565.22    14.909919    240.79843 
    3550    94.341564   -403.85576    72661.145   -17316.049    1277.8377   -18593.887    15.014839      240.296 
    3600     93.21799    -448.7247     72681.04   -17332.023    1262.6191   -18594.643    15.216027    237.43416 
    3650    93.183857   -357.25336    72704.188   -17293.865    1262.1568   -18556.022    15.431836    237.34722 
    3700    97.610154   -378.00085    72712.734   -17262.767    1322.1101   -18584.877    15.516093    248.62138 
    3750    97.782918    -459.3968    72699.607   -17269.769    1324.4502   -18594.219    15.706361    249.06142 
    3800    91.143399   -411.34868    72712.191   -17322.689    1234.5192   -18557.208    15.917579       232.15 
    3850    88.351141   -389.03036    72778.722    -17340.73    1196.6986   -18537.429    16.089191    225.03788 
    3900    91.955775   -524.26333    72840.599   -17309.179    1245.5227   -18554.702    16.397472    234.21919 
    3950    93.883818   -602.97087     72863.09   -17309.392    1271.6376    -18581.03    16.667313    239.13008 
    4000    94.395062   -238.34874    72868.896   -17294.862    1278.5623   -18573.424    16.876044    240.43227 
    4050    94.269575   -431.75849    72879.433   -17291.408    1276.8626    -18568.27     17.06817    240.11264 
    4100    91.399171   -643.05998    72834.624   -17324.034    1237.9836   -18562.018    17.360583    232.80147 
    4150    91.927079   -236.35601    72820.452   -17333.185     1245.134   -18578.319    17.289772     234.1461 
    4200    93.003286   -769.86741    72819.078   -17310.389     1259.711     -18570.1     17.40294    236.88729 
    4250     95.35817   -536.87132     72834.46   -17291.704    1291.6074   -18583.312    17.355839    242.88538 
    4300    94.785325   -403.91786    72853.067   -17316.854    1283.8484   -18600.702    17.476958     241.4263 
    4350    96.601281   -609.24356    72865.403   -17285.723    1308.4451   -18594.168    17.591328    246.05169 
    4400    94.873189   -594.51319    72825.914   -17254.437    1285.0385   -18539.476    17.778148     241.6501 
    4450    93.080184   -552.24088    72810.574   -17242.152    1260.7526   -18502.905    17.878294    237.08316 
    4500    96.157794   -666.45468    72819.149   -17235.281    1302.4382    -18537.72    18.105444    244.92209 
    4550    97.397132    -559.5133    72766.521   -17233.357    1319.2248   -18552.582    18.124595    248.07879 
    4600    94.259744   -829.65113     72804.89   -17263.979    1276.7295   -18540.708     18.23516     240.0876 
    4650    93.254716   -616.32838    72786.746   -17297.349    1263.1166   -18560.465    18.382819    237.52771 
    4700    92.199822   -837.30243    72762.803    -17349.67    1248.8282   -18598.498    18.592208     234.8408 
    4750    91.967079   -647.21044    72637.419   -17338.223    1245.6758   -18583.899    18.634896    234.24799 
    4800    94.802688   -271.64022    72621.954   -17321.563    1284.0835   -18605.647    18.694523    241.47052 
    4850    92.486061    -180.2132    72673.149   -17302.919    1252.7053   -18555.625    18.852329    235.56988 
    4900    92.497702   -369.57673    72735.517   -17302.525     1252.863   -18555.388    18.923468    235.59953 
    4950    93.340278    -657.9947    72762.774   -17301.948    1264.2755   -18566.224    19.037103    237.74564 
    5000    93.704648   -695.41846    72752.642   -17273.043    1269.2108   -18542.254    19.469382    238.67372 
    5050     95.53262   -363.42796    72785.632   -17271.807    1293.9703   -18565.777    19.670163    243.32972 
    5100    93.487858   -516.60376    72762.887   -17313.929    1266.2744   -18580.203    19.837935    238.12154 
    5150    92.901642   -182.98267    72718.105   -17297.588    1258.3342   -18555.922    20.016486     236.6284 
    5200    93.486664    -490.0205    72665.865   -17320.205    1266.2582   -18586.463    20.207727     238.1185 
    5250    95.147557   -530.44153    72599.445   -17309.378    1288.7547   -18598.132    20.173436    242.34893 
    5300    88.944252   -728.95175    72519.341   -17315.872    1204.7322   -18520.604    20.362831    226.54859 
    5350    94.128413   -343.55935    72476.792   -17311.322    1274.9506   -18586.273    20.497765    239.75309 
    5400     94.79654   -326.04835     72486.62   -17291.714    1284.0003   -18575.714    20.531418    241.45486 
    5450    92.725616    -403.4665    72498.937   -17279.016      1255.95   -18534.966    20.887248    236.18005 
    5500    95.059026   -695.03042    72510.189    -17268.39    1287.5556   -18555.946    21.283777    242.12344 
    5550    94.483222   -322.58186    72578.042   -17299.784    1279.7564    -18579.54    21.315795    240.65682 
    5600    91.379443   -579.15046    72568.197   -17271.392    1237.7164   -18509.108    21.560737    232.75123 
    5650    93.035222   -451.95833    72648.511   -17246.703    1260.1436   -18506.846    21.769315    236.96864 
    5700     96.18101   -483.02032     72643.32   -17237.945    1302.7526   -18540.697    21.928401    244.98123 
    5750    92.077315   -399.48189    72721.201    -17255.28    1247.1689   -18502.449    22.291932    234.52877 
    5800     94.32358   -429.52047    72778.184   -17244.299    1277.5941   -18521.893    22.650035    240.25019 
    5850    95.567772   -896.50144    72757.944   -17196.114    1294.4464    -18490.56    22.753759    243.41926 
    5900    95.109281   -414.48118    72806.532    -17201.74    1288.2363   -18489.976    22.894247    242.25144 
    5950    97.519448   -797.38674    72836.514    -17197.77    1320.8815   -18518.652    23.194327    248.39034 
    6000    95.652432   -579.54418    72858.395   -17198.057    1295.5931    -18493.65    23.399357    243.63489 
    6050    95.231813   -974.04574    72788.121   -17206.032    1289.8959   -18495.928    23.409022    242.56354 
    6100    93.275278   -641.18606    72803.895   -17249.833    1263.3951   -18513.228    23.635204    237.58008 
    6150    93.350456   -494.54966    72792.477   -17285.442    1264.4133   -18549.856    23.803005    237.77156 
    6200    96.232135   -670.57959    72729.241   -17273.658    1303.4451   -18577.103     23.97396    245.11145 
    6250    93.723236   -474.32105    72730.215     -17241.4    1269.4626   -18510.863    24.185208    238.72107 
    6300    92.702616   -125.56091    72843.228   -17223.613    1255.6385   -18479.251    24.527942    236.12146 
    6350    92.577419   -270.21732    72884.523   -17256.661    1253.9427   -18510.603    24.525123    235.80257 
    6400    94.221039   -275.25398    72948.204   -17283.071    1276.2052   -18559.276    24.504223    239.98901 
    6450    93.604552   -196.04451     72943.13   -17311.551     1267.855   -18579.406    24.890055    238.41877 
    6500    90.319586   -201.12097    73024.464   -17322.797    1223.3608   -18546.158     25.10415    230.05168 
    6550    94.654061   -653.23569    73058.486   -17288.715    1282.0704   -18570.786    25.007007    241.09196 
    6600    94.804941   -950.67307    73017.677   -17308.195    1284.1141   -18592.309    25.153165    241.47626 
    6650    96.185726   -57.130902     73053.76   -17292.727    1302.8165   -18595.543    25.355042    244.99324 
    6700     91.54722   -735.20445    72977.346   -17315.931    1239.9889    -18555.92    25.606836    233.17857 
    6750    93.923814   -342.33812    72973.145   -17293.183    1272.1794   -18565.362    25.843001    239.23196 
    6800    94.457367   -760.00854    72926.209   -17301.567    1279.4062   -18580.973    26.188101    240.59096 
    6850    92.056693   -459.00718    72866.247    -17301.89    1246.8896   -18548.779    26.449604    234.47624 
    6900    93.925103   -958.40045    72867.058   -17297.426    1272.1968   -18569.623    26.743783    239.23524 
    6950    95.403914   -351.67483    72901.446   -17236.638     1292.227   -18528.865    27.014415     243.0019 
    7000    95.777373   -451.29569    72980.149   -17253.467    1297.2854   -18550.752    27.371303    243.95313 
    7050    95.432455   -455.29299    73001.371   -17225.414    1292.6136   -18518.027    27.808266    243.07459 
    7100    95.029413   -511.49444    72949.082   -17238.084    1287.1545   -18525.239    28.215078    242.04801 
    7150    95.135834   -511.96119    72981.059   -17244.368    1288.5959   -18532.964    28.259718    242.31907 
    7200    95.244324   -777.68132    72988.761   -17226.733    1290.0654   -18516.798    28.411776    242.59541 
    7250    95.441207   -498.80393    72937.929   -17231.707    1292.7321    -18524.44    28.474175    243.09689 
    7300    95.357853   -564.15954    72864.045   -17245.534    1291.6031   -18537.137    28.508749    242.88458 
    7350    95.757872   -434.13163    72850.157    -17284.82    1297.0213   -18581.842    28.698812    243.90346 
    7400    90.322855   -466.12504    72844.611   -17300.167    1223.4051   -18523.572    28.931979    230.06001 
    7450     96.93974   -496.38683    72839.058   -17288.379    1313.0295   -18601.408    29.235573    246.91378 
    7500    93.845688   -442.74056    72836.499   -17291.946    1271.1212   -18563.067    29.550673    239.03296 
    7550    94.395544    29.288599    72836.693   -17275.039    1278.5688   -18553.608    29.724025    240.43349 
    7600    92.369127   -603.89935    72856.239   -17272.444    1251.1214   -18523.565     29.74696    235.27204 
    7650    95.518136   -345.85764    72819.712   -17270.122    1293.7741   -18563.896    30.087075    243.29283 
    7700    94.219265   -440.05388    72875.848   -17296.009    1276.1812    -18572.19    30.333099     239.9845 
    7750    90.370768   -317.38977    72887.976   -17299.552    1224.0541   -18523.606    30.389446    230.18205 
    7800     92.26269   -437.00773    72847.848   -17274.721    1249.6798   -18524.401    30.725555    235.00093 
    7850    94.267177   -408.80552      72792.7   -17308.157    1276.8301   -18584.987    31.171772    240.10653 
    7900    93.437581   -164.99075    72846.448   -17304.727    1265.5934    -18570.32    31.581625    237.99348 
    7950    92.053192   -407.64863    72866.356   -17318.214    1246.8422   -18565.056    31.961528    234.46732 
    8000    92.923705   -501.41404    72890.588   -17310.506    1258.6331   -18569.139    32.326615    236.68459 
    8050    90.747204   -81.160051    72947.411   -17309.629    1229.1528   -18538.782    32.584601    231.14086 
    8100    94.474795   -353.28136    72962.655   -17290.265    1279.6423   -18569.907    32.770846    240.63535 
    8150    92.340601   -197.86695    72952.299    -17296.45    1250.7351   -18547.185    32.770292    235.19938 
    8200    91.658649   -506.28089    72991.019   -17301.311    1241.4981    -18542.81    32.871192    233.46239 
    8250    94.192283   -462.60705    73039.972   -17318.086    1275.8157   -18593.902     33.17305    239.91577 
    8300    93.144897   -652.62776    73059.587   -17320.043    1261.6291   -18581.672    33.296311    237.24799 
    8350    92.718173   -670.14064    73003.936   -17331.501    1255.8492    -18587.35    33.318667    236.16109 
    8400    95.285999   -669.60439    73038.692   -17315.219    1290.6299   -18605.849    33.479667    242.70156 
    8450    92.310781   -383.79442     73051.29   -17319.593    1250.3311   -18569.924    33.758847    235.12342 
    8500    92.603005    -569.9372    73026.861    -17312.92    1254.2893   -18567.209    34.149983    235.86774 
    8550    95.570717   -432.44417    72994.655   -17293.702    1294.4863   -18588.189    34.544379    243.42676 
    8600    92.246339   -436.82802    73037.617   -17276.809    1249.4583   -18526.267    34.792424    234.95928 
    8650    94.724418   -497.11742    73073.284   -17273.061    1283.0234   -18556.084    35.058774    241.27116 
    8700    94.526453   -768.45872    73060.643   -17290.445     1280.342   -18570.787    35.209799    240.76693 
    8750    93.668022   -863.90056    73025.076   -17321.075    1268.7147    -18589.79    35.597571    238.58043 
    8800    93.336584   -756.04272    73025.135   -17316.854    1264.2254   -18581.079    35.474918    237.73623 
    8850    91.388243   -484.43359    72982.699   -17319.283    1237.8356   -18557.119    35.540271    232.77364 
    8900    94.672738   -869.85211    73008.448   -17293.759    1282.3234   -18576.083    35.733263    241.13953 
    8950    94.213384   -584.27655    72965.532   -17297.365    1276.1015   -18573.467    35.707519    239.96952 
    9000    92.978936   -367.49575     72976.02    -17282.53    1259.3812   -18541.911    35.890929    236.82527 
    9050     90.68241   -478.38535    72994.805   -17278.453    1228.2752   -18506.728    36.284147    230.97582 
    9100     93.50531   -72.016348    73029.187   -17257.998    1266.5108   -18524.509    36.389263    238.16599 
    9150    91.891467   -427.04021    73094.289   -17272.472    1244.6516   -18517.124    36.515339     234.0554 
    9200    91.012665   -486.67493    73118.592   -17273.115    1232.7484   -18505.864    36.737821    231.81701 
    9250    95.029725   -434.57363    73081.854   -17231.377    1287.1587   -18518.536    36.695321    242.04881 
    9300    93.261368   -89.794233    73059.576   -17253.331    1263.2067   -18516.537     36.83749    237.54465 
    9350    93.591396   -279.27492    73088.429   -17252.322    1267.6768   -18519.999     36.99944    238.38526 
    9400    95.206864   -502.69552     73118.29   -17216.807     1289.558   -18506.365    37.383776    242.49999 
    9450    97.423932     -500.284    73160.978   -17189.795    1319.5878   -18509.382    37.630191    248.14706 
    9500    95.365126   -166.59891    73169.134    -17147.53    1291.7016   -18439.231    37.712795     242.9031 
    9550    97.859975   -426.36365    73194.361   -17175.255    1325.4939   -18500.749    37.765227     249.2577 
    9600    93.884769   -318.79627    73229.037   -17193.691    1271.6505   -18465.341    37.954721    239.13251 
    9650    95.044108   -364.16005    73182.419   -17216.351    1287.3535   -18503.705    38.080079    242.08544 
    9700     95.31247   -480.38107    73089.605   -17253.155    1290.9884   -18544.143    38.445718    242.76898 
    9750    92.361066    -558.6195    73070.694   -17280.923    1251.0123   -18531.935    38.480279    235.25151 
    9800    93.509815   -431.23604     73031.07   -17304.063    1266.5718   -18570.634    38.659803    238.17747 
    9850    92.813748   -708.97884    73015.861   -17311.303    1257.1437   -18568.447    38.971449    236.40453 
    9900    92.850266   -792.40645    72933.888   -17312.148    1257.6384   -18569.787    39.095774    236.49754 
    9950    96.272439   -900.80454    72855.279   -17338.307     1303.991   -18642.298    39.405333     245.2141 
   10000    95.417018    -610.8719     72893.21   -17320.373    1292.4045   -18612.778    39.590687    243.03527 
   10050    90.304744   -432.06904    72863.009   -17313.003    1223.1598   -18536.163     39.82124    230.01388 
   10100    90.671405    -308.3666    72840.397   -17322.513    1228.1261   -18550.639    39.834043    230.94779 
   10150    93.396503   -546.38648    72785.361   -17317.732     1265.037   -18582.769    40.086641    237.88885 
   10200    94.041573   -711.31515    72786.553   -17300.775    1273.7744    -18574.55    40.440662     239.5319 
   10250     92.70792   -398.20852    72734.881   -17311.925    1255.7103   -18567.635    40.617822    236.13497 
   10300    93.497534   -614.29769    72681.566   -17306.629    1266.4055   -18573.035    40.798503    238.14619 
   10350     93.67781   -479.36137    72656.112   -17340.976    1268.8473   -18609.823    41.155258    238.60536 
   10400    93.181239   -750.33317    72666.749   -17348.374    1262.1213   -18610.496    41.152641    237.34055 
   10450    93.868592   -274.80869    72666.623   -17371.191    1271.4314   -18642.622    41.166971     239.0913 
   10500    90.237042   -429.18604    72681.832   -17358.429    1222.2428   -18580.672    41.097936    229.84144 
   10550    92.231122   -419.31413    72674.065   -17317.536    1249.2522   -18566.788    41.412765    234.92053 
   10600    94.897271    -627.5423    72705.338   -17335.075    1285.3646    -18620.44    41.561616    241.71143 
   10650    92.654636   -298.70585    72744.113    -17286.59    1254.9886   -18541.579    41.828723    235.99925 
   10700    91.435142   -504.98142     72751.07   -17267.571    1238.4708   -18506.042    41.879714     232.8931 
   10750    92.820024    -338.4986    72735.607   -17286.354    1257.2287   -18543.582    41.955001    236.42051 
   10800    94.334989   -802.98949    72703.677   -17314.667    1277.7486   -18592.415    41.818149    240.27926 
   10850    93.923524   -502.08758    72683.146   -17297.817    1272.1754   -18569.993     41.91265    239.23122 
   10900    94.091831   -322.93735    72692.757   -17275.088    1274.4551   -18549.543    42.193286    239.65991 
   10950    91.690896   -188.28388    72675.433   -17271.417    1241.9349   -18513.352     42.46699    233.54452 
   11000    93.069461   -306.82824    72598.692   -17268.479    1260.6073   -18529.086    42.719875    237.05585 
   11050    92.309338   -520.29109    72556.779   -17287.563    1250.3116   -18537.875    42.747129    235.11975 
   11100    91.362503   -291.47628    72525.424   -17309.911    1237.4869   -18547.398    43.153751    232.70808 
   11150    93.093188   -399.49357    72536.489    -17265.12    1260.9287   -18526.049    43.346239    237.11628 
   11200    95.691096   -13.236412    72576.059    -17268.72    1296.1168   -18564.837    43.577293    243.73337 
   11250    93.408646   -514.75316    72610.056   -17211.078    1265.2015    -18476.28    43.944331    237.91978 
   11300    99.566022    34.678469    72638.666   -17150.244    1348.6019   -18498.846    44.169482    253.60314 
   11350    92.625731   -384.52858     72723.74   -17193.642    1254.5971   -18448.239    44.561805    235.92563 
   11400    94.613639   -566.96914    72731.728   -17201.166    1281.5229   -18482.689    44.924042      240.989 
   11450    89.967649   -769.31999    72732.854   -17198.891    1218.5939   -18417.485    44.823692    229.15527 
   11500    97.269732   -281.95756     72723.17   -17177.892    1317.4991   -18495.391    45.078842    247.75429 
   11550    93.655266   -785.62858    72742.295   -17170.829    1268.5419   -18439.371    45.379272    238.54794 
   11600    97.501735   -646.62284    72784.383   -17169.746    1320.6416   -18490.388    45.732369    248.34523 
   11650    95.728856   -183.33343     72786.18   -17182.196    1296.6283   -18478.824     46.07595    243.82955 
   11700    94.600681   -395.31857     72781.43   -17224.872    1281.3474    -18506.22     46.22938    240.95599 
   11750    95.523979   -368.42512    72777.956   -17215.735    1293.8533   -18509.588     46.59944    243.30771 
   11800    93.832074    87.249687    72816.523   -17227.611    1270.9368   -18498.548    46.946619    238.99829 
   11850    95.666199   -349.48519    72882.689   -17204.533    1295.7796   -18500.313    47.271046    243.66996 
   11900    91.597155   -591.60952    72897.263    -17232.05    1240.6652   -18472.715    47.491699    233.30576 
   11950     95.24648   -555.66378    72944.314   -17232.866    1290.0946    -18522.96    47.500939     242.6009 
   12000    96.287064   -787.10917    72898.308    -17280.72    1304.1891   -18584.909    47.667061    245.25136 
   12050    95.909752   -610.14717    72899.682    -17255.66    1299.0785   -18554.738    47.825909    244.29031 
   12100    92.831806   -792.77545    72864.664   -17276.795    1257.3883   -18534.183    47.974939    236.45052 
   12150    93.503195    -766.1508    72823.084   -17318.014    1266.4822   -18584.496    48.042969     238.1606 
   12200    94.571288   -525.51413    72814.282   -17314.773    1280.9493   -18595.722    48.297277    240.88113 
   12250     93.59671   -577.28434    72831.442   -17318.514    1267.7488   -18586.263    48.417574     238.3988 
   12300    93.815054    -357.3139    72838.055   -17346.348    1270.7062   -18617.055    48.581584    238.95494 
   12350    93.843143   -651.68879    72815.808   -17326.441    1271.0867   -18597.527    48.710847    239.02648 
   12400    93.823007   -574.38251    72795.874   -17318.241    1270.8139   -18589.055    48.972521    238.97519 
   12450     95.11166   -313.01834    72728.134   -17327.521    1288.2685   -18615.789    49.211764     242.2575 
   12500    97.264737   -300.33899    72733.654   -17274.414    1317.4315   -18591.845    49.464867    247.74157 
   12550    96.612648   -390.66722    72854.001   -17257.721    1308.5991    -18566.32    49.829333    246.08065 
   12600    94.745496   -676.74365    72882.762   -17272.926    1283.3089   -18556.235    49.902044    241.32485 
   12650    91.812045   -213.83544    72849.135    -17301.28    1243.5759   -18544.856    50.017011     233.8531 
   12700    93.780595   -406.29777    72889.082   -17285.548    1270.2395   -18555.787    50.356177    238.86717 
   12750    94.410227   -155.69928    72955.904   -17335.936    1278.7677   -18614.703    50.744864    240.47089 
   12800    92.546838   -517.71196    73024.392   -17332.869    1253.5285   -18586.397    50.997659    235.72468 
   12850    91.665565   -665.77094    73068.818   -17330.861    1241.5918   -18572.453    50.979838       233.48 
   12900     93.33306    -771.8932    72995.233   -17324.564    1264.1777   -18588.741    51.025317    237.72726 
   12950     95.80363    -637.9543    72975.348   -17273.547    1297.6411   -18571.188    51.172513    244.02001 
   13000    95.887581   -608.18447    73092.259   -17258.722    1298.7782   -18557.501    51.520599    244.23384 
   13050    92.959488    -574.3214    73160.716   -17266.523    1259.1178   -18525.641    51.423593    236.77574 
   13100    95.163875   -408.27425    73119.713   -17245.093    1288.9757   -18534.069    51.488757     242.3905 
   13150    96.924048   -251.23454    73128.314   -17268.654    1312.8169   -18581.471    51.493247    246.87381 
   13200    97.206967   -342.21546    73163.793    -17253.92     1316.649   -18570.569    51.661293    247.59443 
   13250     91.90825   -513.56387    73188.548   -17261.947    1244.8789   -18506.826    51.822917    234.09814 
   13300    92.967851   -391.89809    73150.712    -17283.47     1259.231   -18542.701    51.981299    236.79704 
   13350    92.690161   -479.17502    73113.862   -17276.322    1255.4698   -18531.791    51.922762    236.08974 
   13400    96.727773   -544.06939    73040.497   -17237.143    1310.1584   -18547.302    52.225276    246.37388 
   13450    94.452386   -423.10226    72974.975    -17248.98    1279.3388   -18528.319    52.024559    240.57827 
   13500    95.031413   -646.61773    72976.907   -17249.896    1287.1816   -18537.078    52.110372    242.05311 
   13550    94.265566   -110.55547    72891.581   -17271.578    1276.8083   -18548.386    52.053796    240.10243 
   13600    94.195595   -317.53452    72856.228   -17273.795    1275.8606   -18549.655    52.134772    239.92421 
   13650    91.688168   -764.49321    72859.194     -17304.7     1241.898   -18546.598    52.244186    233.53758 
   13700    93.987567   -382.00487    72918.865   -17274.092    1273.0429   -18547.135    52.350054    239.39434 
   13750    92.283769   -279.50102     72910.66   -17288.183    1249.9653   -18538.148    52.851057    235.05462 
   13800    93.039107   -128.82054    72901.743   -17275.764    1260.1962    -18535.96    53.066809    236.97853 
   13850    93.628123   -385.59586    72847.611   -17286.395    1268.1743   -18554.569    53.261499    238.47881 
   13900    95.656058   -92.752928    72895.691   -17261.295    1295.6423   -18556.937    53.619516    243.64413 
   13950     92.66785   -796.33112    72969.463   -17266.572    1255.1676    -18521.74    54.195161    236.03291 
   14000    93.513381    16.035564    73008.239    -17284.97    1266.6201    -18551.59    54.266778    238.18655 
   14050    94.651591   -230.62338    73047.428   -17231.044     1282.037   -18513.081    54.445666    241.08567 
   14100    94.963205   -501.00975    73029.194   -17234.333    1286.2577   -18520.591    54.698844    241.87937 
   14150    97.218245   -654.95271     73038.91   -17235.163    1316.8018   -18551.964    54.990137    247.62315 
   14200    93.758685   -508.10596     73014.52   -17247.544    1269.9427   -18517.487    55.274413    238.81136 
   14250    93.611849   -505.93829    73009.895   -17256.228    1267.9538   -18524.182    55.309541    238.43735 
   14300    95.692808   -804.64854    73000.971   -17242.544      1296.14   -18538.684    55.541659    243.73774 
   14350    93.772713    -677.4797     72981.16   -17236.912    1270.1327   -18507.044    55.554418    238.84709 
   14400    92.789777   -235.27444    73046.364   -17236.992    1256.8191   -18493.812    56.146524    236.34347 
   14450    92.000667   -775.30169    73077.515   -17246.971    1246.1307   -18493.101    56.303509    234.33354 
   14500    95.803155   -392.80456    73041.815   -17235.982    1297.6347   -18533.616    56.330332     244.0188 
   14550    91.665351    -399.7803    73114.356   -17247.093    1241.5889   -18488.682    56.593015    233.47946 
   14600    93.088397   -358.31469    73119.617   -17244.152    1260.8638   -18505.016    56.422817    237.10408 
   14650    92.947554   -523.24277    73123.276   -17259.229    1258.9561   -18518.185    56.801262    236.74534 
   14700    97.562425   -558.00968    73092.057   -17222.833    1321.4636   -18544.297    56.980926    248.49981 
   14750    96.816372   -657.93081     73044.65   -17245.467    1311.3585   -18556.826     56.94214    246.59955 
   14800    95.762509   -473.13431    72998.797   -17204.344    1297.0841   -18501.429    56.881389    243.91527 
   14850    97.668787    -449.3243    73025.422   -17229.416    1322.9043   -18552.321    56.916524    248.77072 
   14900    95.203955    -406.1013    73060.921   -17216.789    1289.5186   -18506.307    57.070601    242.49259 
   14950    93.942818   -560.84429    73006.262    -17221.24    1272.4368   -18493.677    57.449023    239.28036 
   15000    95.294632   -372.32224    72991.631   -17224.507    1290.7468   -18515.254    57.685987    242.72355 
   15050    93.429076    -396.6575    73003.996   -17259.302    1265.4782    -18524.78    57.606164    237.97182 
   15100    93.408401   -475.18115    73009.767   -17241.741    1265.1982   -18506.939    57.667159    237.91916 
   15150    92.561137   -414.12955    72965.584   -17221.741    1253.7222   -18475.463    57.804244     235.7611 
   15200    95.159964   -428.22903    72958.071   -17210.835    1288.9228   -18499.757    57.970287    242.38054 
   15250     95.37274   -133.81334    72987.363    -17193.35    1291.8048   -18485.155    58.481437     242.9225 
   15300    96.351114   -648.09504    73017.151   -17210.759    1305.0567   -18515.816     59.01552     245.4145 
   15350    96.244797   -908.34833    72988.295   -17210.878    1303.6166   -18514.495    59.144285     245.1437 
   15400    92.219401   -654.45037    72928.501   -17261.408    1249.0934   -18510.502    59.620003    234.89067 
   15450    91.153187    -441.7601    72879.616    -17280.82    1234.6518   -18515.472    60.039262    232.17493 
   15500    93.491602    -748.9357    72848.354   -17262.423    1266.3251   -18528.748    60.402877    238.13108 
   15550    90.325864   -190.85355    72889.328   -17282.269    1223.4458   -18505.715    60.471059    230.06767 
   15600    95.018665   -607.70701    72891.715   -17264.701    1287.0089    -18551.71    60.737717    242.02064 
   15650    92.652006   -784.02086    72861.145    -17284.65     1254.953   -18539.603    60.810948    235.99255 
   15700    91.985719   -643.16798     72786.41   -17285.327    1245.9283   -18531.255    60.931325    234.29546 
   15750    98.400648   -552.74887    72775.697   -17271.751    1332.8172   -18604.568    60.920545    250.63483 
   15800    90.337505   -531.83711     72754.05   -17337.883    1223.6035   -18561.486    61.300876    230.09732 
   15850    95.713789   -402.42785    72781.146   -17281.896    1296.4242    -18578.32    61.103361    243.79118 
   15900    93.338158   -463.38152    72771.303   -17300.473    1264.2468    -18564.72    60.931942    237.74024 
   15950    92.420878   -394.82352     72769.31    -17306.56    1251.8224   -18558.383    61.181314    235.40385 
   16000    94.508515   -211.36629    72817.918   -17279.687     1280.099   -18559.786    61.155401    240.72124 
   16050    94.299915   -441.57832    72869.669    -17259.81    1277.2736   -18537.084    61.101716    240.18992 
   16100    95.475832   -379.50076    72845.223   -17253.097    1293.2011   -18546.298    61.172096    243.18508 
   16150    94.855014   -546.31649    72797.593   -17261.973    1284.7923   -18546.765    61.394687     241.6038 
   16200    93.364132   -374.72598    72783.248    -17254.61    1264.5986   -18519.208    61.584104     237.8064 
   16250    92.111565    -546.8758    72794.662   -17296.844    1247.6328   -18544.476    61.788862      234.616 
   16300    94.173836   -311.03279    72787.002    -17265.48    1275.5659   -18541.046    61.950785    239.86878 
   16350    89.959009   -451.38022    72847.131   -17292.975    1218.4769   -18511.452    62.208733    229.13326 
   16400     95.95197    -270.5382    72895.478   -17268.895    1299.6503   -18568.545    62.320199    244.39784 
   16450    94.266917   -364.49283     72958.93   -17246.432    1276.8266   -18523.259     62.63276    240.10587 
   16500     92.49681   -359.43874    72984.294   -17263.183    1252.8509   -18516.034    62.817045    235.59726 
   16550    95.872807   -568.91878    72984.273   -17238.572    1298.5781    -18537.15    63.003384    244.19621 
   16600    94.473772   -659.29194    72931.924    -17235.59    1279.6284   -18515.218    63.051811    240.63275 
   16650    93.848144   -510.41632    72946.175   -17223.816    1271.1544    -18494.97    63.230864    239.03922 
   16700     97.07884   -560.82317    72935.212   -17239.543    1314.9136   -18554.457      63.3144    247.26808 
   16750    94.488602   -589.59837    72895.856   -17277.834    1279.8293   -18557.663    63.427666    240.67052 
   16800     95.20816    -785.7438    72853.658   -17257.466    1289.5756   -18547.042    63.606127     242.5033 
   16850    93.746525   -880.97913    72778.594   -17245.629     1269.778   -18515.407    63.722303    238.78039 
   16900    94.067173   -821.47177    72715.033   -17239.365    1274.1211   -18513.486    63.915882     239.5971 
   16950    96.986979   -560.83428    72691.432   -17239.289    1313.6693   -18552.959      64.1317     247.0341 
   17000    95.608904   -662.34441    72690.473   -17289.432    1295.0036   -18584.435    64.489438    243.52403 
   17050    93.122362   -874.70471    72666.431   -17273.562    1261.3238   -18534.886    64.812422    237.19059 
   17100    94.899483   -553.69796    72643.427   -17251.361    1285.3946   -18536.756    65.017683    241.71707 
   17150    94.379839   -97.970371    72607.684   -17249.147    1278.3561   -18527.503    65.141342    240.39349 
   17200    96.987011   -374.75228    72604.124   -17222.289    1313.6698   -18535.959    65.530307    247.03418 
   17250    91.944223   -337.82667    72630.957   -17219.452    1245.3662   -18464.818    65.669771    234.18977 
   17300    94.176538   -250.82596    72602.164    -17230.76    1275.6024   -18506.362    65.689787    239.87567 
   17350     96.99605    152.03164    72672.962   -17210.512    1313.7922   -18524.304    65.754566     247.0572 
   17400    95.523854   -223.67093    72741.622   -17200.704    1293.8516   -18494.555    66.115018     243.3074 
   17450    96.218754   -318.30749    72768.425   -17242.056    1303.2639    -18545.32    66.207938    245.07736 
   17500    95.792449   -688.16411    72740.097   -17208.383    1297.4896   -18505.872    66.509711    243.99153 
   17550    95.131412   -523.96459    72664.015   -17238.129     1288.536   -18526.665    66.739006    242.30781 
   17600    96.364344   -320.31347    72660.697   -17247.699    1305.2359   -18552.935    66.782796     245.4482 
   17650    95.229103   -522.21462    72606.761   -17252.528    1289.8592   -18542.387    66.704141    242.55664 
   17700    95.950485   -367.39675    72623.871   -17266.802    1299.6302   -18566.432    66.808253    244.39406 
   17750    96.211019   -648.52307    72613.681   -17234.314    1303.1591   -18537.473    66.872896    245.05766 
   17800    93.334227   -115.84143     72593.17   -17235.957    1264.1935    -18500.15    66.994439    237.73023 
   17850    93.359381   -426.10081    72611.365   -17256.191    1264.5342   -18520.725    67.031024     237.7943 
   17900    95.917625   -634.23542     72559.75   -17254.465    1299.1851    -18553.65    67.142482    244.31036 
   17950    97.053011   -487.03169    72556.991   -17208.321    1314.5637   -18522.884    67.318433    247.20229 
   18000    96.590669   -775.96488     72519.31   -17213.444    1308.3014   -18521.745    67.750524    246.02466 
   18050    95.146342   -231.79519    72538.883   -17218.174    1288.7383   -18506.912    68.065177    242.34584 
   18100    95.136814   -203.97496    72540.063   -17208.141    1288.6092    -18496.75    68.643033    242.32157 
   18150    95.518951   -499.65085    72524.735   -17175.089    1293.7852   -18468.874    68.804345    243.29491 
   18200    99.597112   -362.93681    72460.184   -17179.907    1349.0231    -18528.93    68.604143    253.68233 
   18250    96.813262   -471.63127    72510.306   -17149.318    1311.3164   -18460.634    68.797472    246.59163 
   18300    96.221158   -321.09888    72567.119   -17162.131    1303.2964   -18465.427    69.052039    245.08349 
   18350    93.453003   -446.77412    72598.128   -17169.641    1265.8023   -18435.444    69.286643    238.03276 
   18400    93.874773   -208.44931    72654.018   -17196.954    1271.5151   -18468.469    69.144714    239.10704 
   18450    93.623573   -489.25345    72706.713    -17192.72    1268.1126   -18460.832    69.240716    238.46722 
   18500    94.623116    -233.9158    72755.939   -17196.296    1281.6513   -18477.947    69.605485    241.01314 
   18550    91.454223   -456.40031    72759.618   -17210.756    1238.7292   -18449.485    69.617516     232.9417 
   18600    97.631263   -385.86081     72735.25   -17173.816     1322.396   -18496.212    69.708788    248.67514 
   18650    93.537308   -309.93016    72805.972   -17163.339    1266.9442   -18430.283     70.05616    238.24749 
   18700    94.716869   -354.16237    72802.715   -17177.106    1282.9211   -18460.028    70.284069    241.25194 
   18750     95.81939   -446.58692    72825.931   -17172.909    1297.8546   -18470.764    70.530916    244.06015 
   18800    95.192688   -608.41836    72843.745   -17190.468     1289.366   -18479.834    70.563644    242.46389 
   18850    96.601322   -694.41542    72793.229   -17152.889    1308.4457   -18461.335     70.47387     246.0518 
   18900    97.350658    -494.3095    72735.687   -17155.638    1318.5953   -18474.234    70.845811    247.96042 
   18950    97.037283   -602.22547    72669.526    -17182.31    1314.3507    -18496.66    70.973205    247.16223 
   19000    94.111217   -582.05192    72670.748   -17206.057    1274.7177   -18480.775    71.170163    239.70929 
   19050    93.892298   -623.45341    72676.994   -17204.827    1271.7525   -18476.579    71.476812    239.15168 
   19100    98.055147    109.34681    72675.708   -17195.291    1328.1374   -18523.428    71.800334    249.75481 
   19150    94.527079   -217.47958    72746.035   -17180.179    1280.3505   -18460.529    72.156295    240.76852 
   19200     94.56363   -288.41044    72775.394   -17189.955    1280.8455   -18470.801    72.477873    240.86162 
   19250    96.893149   -129.79611    72795.035   -17161.707    1312.3984   -18474.105     72.55706    246.79511 
   19300    95.732451   -521.95557    72775.363    -17195.67     1296.677   -18492.347    72.737641    243.83871 
   19350    95.822213   -491.35831    72797.122   -17213.337    1297.8928   -18511.229    72.727079    244.06734 
   19400    95.937301   -487.42284    72803.406   -17186.587    1299.4516   -18486.039    72.686626    244.36048 
   19450    96.296785   -699.71718    72783.075   -17206.103    1304.3208   -18510.424    72.554988    245.27612 
   19500    94.336734   -569.07056    72800.197   -17227.649    1277.7723   -18505.421     72.53344     240.2837 
   19550    96.081495   -741.70689    72726.748   -17225.138    1301.4047   -18526.543    72.820132    244.72775 
   19600    94.002397   -38.646944    72740.191   -17280.472    1273.2437   -18553.716    72.845843    239.43211 
   19650    93.294176    -322.5649    72746.753   -17297.717     1263.651   -18561.368    73.106421    237.62821 
   19700    92.957507   -262.21019    72795.453   -17337.754    1259.0909   -18596.845    73.302323    236.77069 
   19750    93.050673   -221.94464    72852.706   -17326.084    1260.3528   -18586.437    73.425017    237.00799 
   19800     95.14335   -563.70378    72855.666   -17273.173    1288.6977    -18561.87    73.449001    242.33822 
   19850    96.205553   -283.72829    72844.697   -17292.816    1303.0851   -18595.901    73.317836    245.04374 
   19900      95.7371   -561.40753    72795.306   -17303.172      1296.74   -18599.912    73.616458    243.85055 
   19950    94.975078   -399.69079    72776.345   -17277.117    1286.4185   -18563.536    74.243452    241.90962 
   20000    94.279955    -205.0119    72865.309   -17256.199    1277.0032   -18533.202    74.552393    240.13908 
   20050    93.501663   -300.67651    72915.031   -17263.415    1266.4614   -18529.876    74.440739     238.1567 
   20100    95.986098   -576.08033    72860.283   -17251.569    1300.1126   -18551.682    74.759864    244.48477 
   20150    94.056362   -737.76284    72795.658   -17233.706    1273.9747   -18507.681    74.829147    239.56957 
   20200    92.134067   -303.58238    72787.564   -17213.626    1247.9376   -18461.564    75.030845    234.67332 
   20250    95.034621    -36.24497    72761.047   -17217.804     1287.225   -18505.029    75.337332    242.06128 
   20300    98.039868   -398.62848    72740.619   -17212.701    1327.9305   -18540.631    75.543664     249.7159 
   20350    94.051289   -265.64016    72727.261   -17255.466     1273.906   -18529.372     75.69801    239.55665 
   20400    93.779089   -378.16072    72722.151    -17247.91    1270.2191   -18518.129    75.784356    238.86333 
   20450     94.79986   -608.88858    72763.742   -17263.824    1284.0452   -18547.869    76.032247    241.46332 
   20500    94.065016   -167.46339    72719.438   -17269.176    1274.0919   -18543.268    76.153492    239.59161 
   20550    92.797089    -403.2005    72725.294   -17243.664    1256.9181   -18500.582    76.254703    236.36209 
   20600    96.632914   -97.495784    72738.415   -17224.422    1308.8736   -18533.296    76.444795    246.13226 
   20650     94.32019   -393.57612    72817.236   -17218.781    1277.5482   -18496.329     76.72744    240.24156 
   20700    96.855392   -763.20213    72801.738   -17190.428     1311.887   -18502.315    76.857951    246.69894 
   20750    97.292727   -356.09864    72807.084    -17182.49    1317.8106   -18500.301    76.603973    247.81287 
   20800    93.564144   -203.69013    72831.294   -17182.882    1267.3077    -18450.19    76.934057    238.31585 
   20850    96.800295   -335.67025    72890.008   -17166.631    1311.1407   -18477.771    77.284992     246.5586 
   20900    98.217845   -333.47519     72839.83   -17197.229    1330.3412    -18527.57    77.374074    250.16922 
   20950    93.887837   -392.10786    72837.708   -17209.495    1271.6921   -18481.187    77.847577    239.14032 
   21000    94.631297   -658.52923     72901.59    -17212.31    1281.7621   -18494.072    78.638298    241.03398 
   21050    94.773284   -447.76193    72934.112   -17203.753    1283.6853   -18487.438    79.270052    241.39563 
   21100    96.950458   -602.42365    72873.596   -17220.818    1313.1746   -18533.993    79.662617    246.94108 
   21150    94.167886   -691.85978    72931.845   -17258.462    1275.4853   -18533.947    79.522786    239.85363 
   21200    93.579819   -916.30805    72870.114   -17274.363      1267.52   -18541.883    79.350282    238.35577 
   21250     90.59241   -792.02337    72795.612   -17306.094    1227.0562    -18533.15    79.562623    230.74659 
   21300     92.75909   -259.06992     72776.89   -17287.171    1256.4034   -18543.575    79.714369    236.26531 
   21350    93.210863   -428.00974    72872.085   -17269.151    1262.5226   -18531.673     79.72005    237.41601 
   21400    93.687553   -255.58925    72872.484   -17246.154    1268.9792   -18515.133     79.73776    238.63018 
   21450    93.536993    -505.4969    72889.717   -17245.743    1266.9399   -18512.683    79.951021    238.24669 
   21500    96.487318   -283.27835    72831.187   -17236.671    1306.9015   -18543.573    80.276674    245.76142 
   21550    96.498842   -625.20323    72857.585   -17265.019    1307.0576   -18572.076    80.326258    245.79077 
   21600    93.470173   -406.76191    72869.053   -17238.788    1266.0349   -18504.823    80.228567    238.07649 
   21650    95.225271   -434.67917    72860.482   -17237.756    1289.8073   -18527.563    80.325448    242.54688 
   21700    94.672599   -689.33549    72826.605   -17238.503    1282.3215   -18520.825    80.562115    241.13918 
   21750     96.06698   -392.40728    72797.623    -17171.14    1301.2081   -18472.348    80.766187    244.69078 
   21800    93.724947   -506.62024    72754.774   -17215.467    1269.4857   -18484.953    80.860956    238.72543 
   21850    95.609766   -973.64247    72708.917     -17199.7    1295.0152   -18494.715    81.113621    243.52622 
   21900    92.735226   -407.31046    72683.503   -17229.416    1256.0802   -18485.496    81.443174    236.20452 
   21950    94.016861   -575.79914      72635.5   -17208.073    1273.4397   -18481.513    81.664316    239.46895 
   22000    94.829341   -49.330963    72600.886   -17226.122    1284.4445   -18510.566    81.727121    241.53841 
   22050    93.486728   -756.18053    72616.079   -17249.853    1266.2591   -18516.113    81.928779    238.11866 
   22100    91.347317   -307.14243    72623.007   -17255.524    1237.2812   -18492.805    82.319329     232.6694 
   22150    94.969017   -398.04772    72612.021   -17238.441    1286.3364   -18524.778     82.46171    241.89418 
   22200    95.462498   -661.85479     72568.47   -17255.071    1293.0205   -18548.092    82.671862    243.15112 
   22250    93.770257   -351.33659    72538.951   -17255.983    1270.0995   -18526.083    82.863718    238.84083 
   22300    93.336921   -576.91156    72551.427   -17288.454      1264.23   -18552.684    83.187089    237.73709 
   22350     92.72637   -533.30975    72492.909   -17294.487    1255.9602   -18550.447     83.29463    236.18197 
   22400    90.846041    -175.5323    72445.254   -17288.276    1230.4915   -18518.768    83.396423    231.39261 
   22450    92.153021   -523.97917    72450.568    -17270.23    1248.1943   -18518.424    83.754151     234.7216 
   22500    93.439746   -507.94003    72455.176   -17278.613    1265.6228   -18544.236    83.831721    237.99899 
   22550    93.067229   -341.75497    72471.115   -17258.652    1260.5771   -18519.229    83.914102    237.05016 
   22600    92.010616   -272.93532    72472.991   -17289.792    1246.2655   -18536.057    84.187941    234.35888 
   22650    94.665803   -465.33203    72499.128   -17270.521    1282.2294    -18552.75    84.454861    241.12187 
   22700    91.678363   -732.40862     72522.63   -17328.298    1241.7652   -18570.063    84.875102     233.5126 
   22750    91.198564   -217.24842    72520.056   -17321.816    1235.2664   -18557.083    84.874298    232.29051 
   22800    90.240153   -352.89679    72519.871   -17295.192    1222.2849   -18517.476    85.530391    229.84936 
   22850    91.573942   -362.19481    72577.855   -17289.955    1240.3508   -18530.305    85.721118    233.24663 
   22900    94.316775    -503.7727    72656.879   -17265.116    1277.5019   -18542.618    86.015106    240.23286 
   22950    91.672289   -756.38101    72748.054    -17282.28    1241.6829   -18523.963    86.170634    233.49713 
   23000    92.321652   -599.52188    72735.586   -17282.967    1250.4784   -18533.446    86.085552    235.15111 
   23050    94.501062   -632.26728    72716.563   -17257.406    1279.9981   -18537.404    86.350372    240.70226 
   23100    92.871559   -1001.5814    72724.311   -17282.218    1257.9268   -18540.145    86.491808    236.55177 
   23150    92.943812   -501.23775    72773.097    -17292.45    1258.9054   -18551.355    86.837749    236.73581 
   23200    95.521369   -779.22307    72705.922   -17322.426    1293.8179   -18616.244    87.057227    243.30107 
   23250    90.663568   -490.94577    72733.121   -17331.747      1228.02   -18559.767    87.195831    230.92783 
   23300    89.862975   -578.43983    72769.222   -17349.957    1217.1761   -18567.134    87.141992    228.88865 
   23350    91.332949     -623.584    72771.639   -17349.203    1237.0866   -18586.289    87.833972     232.6328 
   23400    90.191101   -268.71573    72794.176   -17355.079    1221.6205     -18576.7    87.966772    229.72442 
   23450    94.088929   -432.68415    72890.443   -17317.672    1274.4158   -18592.088    87.995559    239.65252 
   23500     92.76603   -735.55782    72920.569   -17280.998    1256.4974   -18537.495    88.366042    236.28298 
   23550    92.416971   -497.94486    72907.671   -17302.142    1251.7695   -18553.911    88.225097     235.3939 
   23600    93.929947   -542.39442    72873.846   -17279.302    1272.2624   -18551.565    88.461682    239.24758 
   23650    90.478707   -362.74326    72867.074   -17284.853    1225.5161   -18510.369       88.431    230.45698 
   23700    91.180005   -386.71778     72918.15   -17295.365     1235.015    -18530.38    88.541231    232.24324 
   23750    92.177564   -550.72839    72995.757   -17313.944    1248.5267    -18562.47    88.399026    234.78411 
   23800    95.065889   -864.22451    72997.188   -17292.723    1287.6485   -18580.371    88.413811    242.14092 
   23850    93.351298   -343.29788    72951.326   -17323.046    1264.4247   -18587.471    88.498908    237.77371 
   23900    91.150032   -778.02287    73016.896   -17298.448     1234.609   -18533.057    88.739355     232.1669 
   23950    92.916388   -766.80528    72972.888   -17313.862     1258.534   -18572.396    89.355933    236.66596 
   24000    93.426534    -910.4437    72935.329   -17326.659    1265.4438   -18592.103    89.564634    237.96534 
   24050     92.96579   -615.49097    72909.831   -17326.975    1259.2031   -18586.178    89.331391    236.79179 
   24100    93.890854   -313.00838    72833.674   -17291.302    1271.7329   -18563.035    89.537681    239.14801 
   24150    93.905868   -451.80934    72789.071   -17318.295    1271.9363   -18590.231    89.616861    239.18625 
   24200    93.006178   -699.99199    72654.518   -17304.802    1259.7502   -18564.552    89.826965    236.89466 
   24250    92.376281   -514.22349    72583.683    -17287.58    1251.2183   -18538.799    90.310126    235.29026 
   24300    96.223608   -315.23971    72540.166   -17284.981    1303.3296   -18588.311       90.482    245.08973 
   24350    96.034859   -217.40675    72541.597   -17258.046     1300.773   -18558.819      90.9412    244.60897 
   24400    96.630673   -371.85824    72577.029   -17257.914    1308.8432   -18566.757    91.072674    246.12656 
   24450    95.693894   -153.85066    72643.246   -17244.554    1296.1547   -18540.708    91.154859     243.7405 
   24500    91.868465   -61.499773    72706.111   -17240.015    1244.3401   -18484.355    91.525975    233.99681 
   24550    93.739606   -208.26453    72768.363   -17273.502    1269.6843   -18543.187    91.672208    238.76276 
   24600    94.415244    -221.3196    72820.159   -17275.314    1278.8357    -18554.15    91.860077    240.48367 
   24650    91.812262   -106.00733    72831.363     -17244.9    1243.5788   -18488.479    91.909266    233.85365 
   24700    92.985341   -507.17825    72936.488   -17246.522    1259.4679    -18505.99    92.164808    236.84159 
   24750    94.656091   -517.37065    72928.795   -17225.388    1282.0979   -18507.486    92.150951    241.09713 
   24800    95.481912   -130.72467    73028.294    -17237.78    1293.2835   -18531.064    92.273881    243.20057 
   24850    95.542597   -551.07554    73033.507   -17272.928    1294.1054   -18567.033    92.429393    243.35513 
   24900    93.665292   -195.46672    73072.585    -17279.26    1268.6777   -18547.938    92.654541    238.57348 
   24950     94.77704   -590.57223    73129.796   -17256.027    1283.7361   -18539.764    93.040594    241.40519 
   25000    95.511361   -615.44111    73159.723   -17211.723    1293.6824   -18505.405    93.191421    243.27557 
   25050       92.659   -288.66915      73156.2   -17215.663    1255.0477   -18470.711    93.291925    236.01037 
   25100    93.718359   -530.86132    73130.918   -17229.977    1269.3965   -18499.373      93.7806    238.70864 
   25150    92.617564   -416.74189    73093.566   -17244.108    1254.4865   -18498.595     93.88107    235.90483 
   25200    95.572276   -702.68047    73073.973   -17273.679    1294.5074   -18568.187    93.934767    243.43073 
   25250    98.022819   -1008.0697    73019.581   -17217.345    1327.6996   -18545.044    93.698919    249.67247 
   25300    94.739587   -733.80751    73020.875   -17200.738    1283.2288   -18483.967     93.72089     241.3098 
   25350    95.085426   -429.65297    72937.392   -17218.591    1287.9132   -18506.504    93.496302    242.19068 
   25400    95.564557   -808.59458    72879.352   -17257.649    1294.4029   -18552.052    93.449301    243.41107 
   25450    96.309898   -310.77544    72845.792   -17201.037    1304.4984   -18505.536    93.796574    245.30952 
   25500    95.566607    -495.7001    72804.589   -17210.243    1294.4307   -18504.674    94.099255    243.41629 
   25550    98.308881   -500.57177    72785.451   -17230.323    1331.5742   -18561.897    94.427528     250.4011 
   25600    94.687255   -536.08024    72828.568   -17245.767      1282.52   -18528.287    94.509007     241.1765 
   25650    96.616487   -383.63883    72899.145   -17243.849    1308.6511     -18552.5    94.587158    246.09043 
   25700    95.875542   -428.49773     72917.15   -17262.236    1298.6151   -18560.851    95.086543    244.20317 
   25750    94.209756   -676.73666    72908.198    -17267.87    1276.0524   -18543.922    95.588814    239.96027 
   25800    96.895903   -432.67682    72903.446   -17226.783    1312.4357   -18539.219    95.716633    246.80212 
   25850    98.354353   -586.51533    72910.332   -17198.611    1332.1901   -18530.801    95.926871    250.51692 
   25900    94.485868   -453.55162    72899.372   -17246.433    1279.7923   -18526.225    95.681255    240.66355 
   25950     95.72097   -292.81065    72866.255   -17219.504    1296.5215   -18516.025    95.883781    243.80947 
   26000    94.209354   -755.37694    72844.175   -17229.081    1276.0469   -18505.128    95.987638    239.95925 
   26050    96.645008   -617.43066    72902.597   -17233.306    1309.0374   -18542.344    95.915151    246.16307 
   26100    94.588318   -611.40017    72935.587   -17261.373    1281.1799   -18542.553     96.34724    240.92451 
   26150    91.398761   -332.77597    72939.483    -17253.84     1237.978   -18491.818      96.6867    232.80043 
   26200    92.647048   -497.31348    72937.522   -17256.346    1254.8858   -18511.231     97.08732    235.97993 
   26250    96.085215   -147.58818    72957.362   -17242.054    1301.4551    -18543.51    97.292288    244.73723 
   26300     94.68032   -419.10522    73038.738   -17258.891    1282.4261   -18541.317    97.559267    241.15884 
   26350     93.22063     -539.306    73007.392   -17267.556    1262.6549    -18530.21    97.987086    237.44089 
   26400    92.221689   -268.70492    72901.604    -17296.99    1249.1244   -18546.114    97.977507     234.8965 
   26450    95.565969   -406.26674    72893.876   -17270.553     1294.422   -18564.975    98.077343    243.41467 
   26500    93.493202   -421.69324    72922.246   -17298.703    1266.3468    -18565.05    98.607892    238.13515 
   26550    90.920317   -189.56458    72996.317   -17312.711    1231.4976   -18544.208    98.594205    231.58179 
   26600     94.46015   -429.64121    72960.541   -17285.016    1279.4439    -18564.46    98.741568    240.59805 
   26650    96.039586    -320.3572    72989.998   -17266.501    1300.8371   -18567.338    99.436634    244.62101 
   26700    95.089721    -66.80784    73075.562   -17225.581    1287.9713   -18513.552    99.963187    242.20162 
   26750    96.815624    -429.9717    73148.303   -17257.851    1311.3483   -18569.199    100.22624    246.59764 
   26800    93.144703   -606.46462    73185.032   -17253.988    1261.6265   -18515.615    100.48197    237.24749 
   26850     94.50014   -147.25455    73211.649   -17247.322    1279.9856   -18527.308    100.38731    240.69991 
   26900    94.704165   -446.67211    73200.388   -17267.792    1282.7491   -18550.541    100.65151    241.21958 
   26950    92.422344   -697.12616    73162.724   -17260.556    1251.8422   -18512.398    100.86528    235.40758 
   27000    97.138224   -303.15221    73142.601   -17260.602    1315.7179    -18576.32     101.0264    247.41933 
   27050    97.345191   -408.73811    73163.798   -17265.977    1318.5212   -18584.498     101.4889     247.9465 
   27100    95.102784   -724.64271    73138.265   -17259.717    1288.1483   -18547.865    101.83876    242.23489 
   27150    92.877955   -479.32523    73085.563   -17258.575    1258.0134   -18516.589    102.02427    236.56807 
   27200    91.915154   -341.12686    73107.395   -17307.208    1244.9725   -18552.181    102.33098    234.11573 
   27250    91.936571   -422.71801    73050.406   -17339.225    1245.2625   -18584.488    102.32555    234.17028 
   27300    92.079684   -542.86117    73001.958   -17327.941     1247.201   -18575.142    102.27408     234.5348 
   27350    94.022757   -98.780292    73070.034   -17306.577    1273.5195   -18580.096     102.5142    239.48397 
   27400    95.565766    -315.4127    73075.875   -17273.661    1294.4193    -18568.08    102.89401    243.41415 
   27450    95.159968   -462.13112     73045.93   -17266.581    1288.9228   -18555.504    102.77481    242.38055 
   27500    94.063477   -608.53384    72994.616   -17273.877    1274.0711   -18547.948    102.95232    239.58769 
   27550    96.535221   -446.30989    72974.498    -17239.26    1307.5503    -18546.81    102.76911    245.88343 
   27600    98.154124   -673.86798    73002.911   -17236.612    1329.4781    -18566.09    103.06166    250.00692 
   27650    96.369117   -241.73911    72978.955   -17238.295    1305.3005   -18543.595    102.96968    245.46035 
   27700    93.481312   -382.47375    73050.868   -17270.804    1266.1858    -18536.99    103.07849    238.10487 
   27750    94.501768   -318.28785    73055.826   -17254.594    1280.0076   -18534.601    103.56075    240.70406 
   27800     95.87088   -440.25135    73111.467   -17265.787     1298.552   -18564.338    103.76085     244.1913 
   27850    93.142134   -873.20349    73047.828   -17294.885    1261.5917   -18556.477    104.54351    237.24095 
   27900    94.152721   -347.22882    73022.746   -17290.862    1275.2799   -18566.142    104.36706      239.815 
   27950    95.934802   -402.59031     73020.48   -17261.419    1299.4178   -18560.837    104.33431    244.35411 
   28000    93.584538   -348.94078    72978.637   -17272.875    1267.5839   -18540.459    104.31497    238.36779 
   28050    95.962574   -364.66318    72985.713   -17293.552     1299.794   -18593.346    103.92374    244.42485 
   28100    94.551993   -620.93133    72952.514   -17290.865    1280.6879   -18571.553    103.88429    240.83198 
   28150    91.637234   -158.77169    72911.997    -17249.09    1241.2081   -18490.298    104.00656    233.40784 
   28200    92.931541   -579.49153    72917.664   -17287.221    1258.7392   -18545.961    104.14873    236.70455 
   28250    95.944476   -262.47814    72931.159    -17273.95    1299.5488   -18573.499    104.65809    244.37875 
   28300    94.692703   -466.99168    72976.133   -17269.654    1282.5938   -18552.248    104.73811    241.19038 
   28350    94.100922   -244.43898    73006.407   -17244.282    1274.5783    -18518.86    104.65802    239.68307 
   28400    95.602677   -518.84695    72991.191    -17261.72    1294.9192    -18556.64    104.59936    243.50816 
   28450    95.983503   -295.07229    72999.831   -17252.171    1300.0774   -18552.249    104.66308    244.47816 
   28500    95.872669   -208.71789    73011.937   -17226.881    1298.5762   -18525.457    105.15958    244.19586 
   28550    96.971963   -156.02357    72983.819   -17191.061    1313.4659   -18504.527    105.08987    246.99585 
   28600    91.199777   -776.72664    72954.318   -17256.956    1235.2828   -18492.239    105.19825     232.2936 
   28650    94.780375    -330.3685    72921.501   -17246.417    1283.7813   -18530.198       105.19    241.41369 
   28700    94.427298   -672.22306    72909.445   -17229.433    1278.9989   -18508.432    105.53812    240.51437 
   28750     96.37432   -438.37846    72907.335   -17237.372     1305.371   -18542.743     105.7508     245.4736 
   28800    95.715954   -284.59229    72854.991    -17230.76    1296.4535   -18527.213     106.2209    243.79669 
   28850    94.607559   -473.92896    72816.651    -17281.21    1281.4406    -18562.65    106.18876    240.97351 
   28900    92.867813   -471.60476    72830.923   -17282.484     1257.876    -18540.36    106.54586    236.54223 
   28950    92.444932   -451.88286    72782.004   -17308.369    1252.1482   -18560.517    106.26512    235.46512 
   29000    92.576933   -465.21459    72686.494   -17300.847    1253.9361   -18554.783    106.33772    235.80134 
   29050    97.707365   -174.51751    72715.557   -17231.213    1323.4268    -18554.64    106.34824    248.86898 
   29100    93.696857     -240.413    72707.586   -17220.791    1269.1053   -18489.896    106.87791    238.65388 
   29150    93.675853   -485.86063    72722.524   -17203.326    1268.8208   -18472.147    107.28094    238.60038 
   29200    94.476201   -263.53113    72716.719   -17197.699    1279.6613   -18477.361    107.54893    240.63893 
   29250    94.793067   -187.51373    72744.359   -17211.235    1283.9532   -18495.188    107.80824    241.44602 
   29300    97.108987   -681.49356    72772.392   -17238.975    1315.3219   -18554.297    108.09247    247.34486 
   29350    90.404434   -617.15259     72772.42    -17277.89    1224.5101     -18502.4    108.10379     230.2678 
   29400    94.341647    -782.9475    72694.323   -17292.842    1277.8388   -18570.681    108.31154    240.29621 
   29450    91.681812   -470.79822    72642.205    -17305.72    1241.8119   -18547.532    108.08789    233.52139 
   29500    94.407439     -331.608    72608.924   -17299.075      1278.73   -18577.805    108.08902    240.46379 
   29550    95.194961    -489.2318    72591.425   -17289.522    1289.3968   -18578.919    107.89024    242.46968 
   29600    95.218469   -320.72393     72571.15   -17255.972    1289.7152   -18545.687    107.97213    242.52955 
   29650    94.122594   -376.84418    72550.285   -17320.809    1274.8718   -18595.681    108.00838    239.73827 
   29700    93.823313   -491.87727    72542.066   -17295.506    1270.8181   -18566.324    108.27904    238.97597 
   29750    92.588578   -463.72703    72560.108   -17332.215    1254.0939   -18586.308    108.32102      235.831 
   29800     91.57847   -102.56567        72617   -17354.033    1240.4121   -18594.445    108.14311    233.25817 
   29850    93.627298   -250.08001    72644.933   -17324.775    1268.1631   -18592.938    108.52214    238.47671 
   29900    96.244646   -367.37725    72732.645   -17316.697    1303.6146   -18620.311    108.91041    245.14331 
   29950    93.412445   -76.485977    72808.388   -17322.204     1265.253   -18587.457    109.08505    237.92946 
   30000    96.025914   -151.75427    72823.755    -17306.66    1300.6519   -18607.312     109.1289    244.58618 
   30050    95.804498    -45.29518    72885.407   -17303.698    1297.6528   -18601.351    109.15523    244.02222 
   30100    92.824139   -355.86767    72955.294   -17324.512    1257.2845   -18581.796    109.36565    236.43099 
   30150    92.434797   -288.10483    73007.425   -17356.302    1252.0109   -18608.313    109.54811     235.4393 
   30200    94.948896   -315.33064    72947.483   -17306.176    1286.0639    -18592.24    109.82368    241.84293 
   30250    93.122813   -324.09056    72872.291   -17297.026      1261.33   -18558.356    109.92328    237.19174 
   30300    94.024406   -624.50652    72812.752   -17275.844    1273.5419   -18549.386    110.31785    239.48817 
   30350    94.231257   -239.02579    72818.681   -17296.416    1276.3436    -18572.76    110.50786    240.01504 
   30400    93.829909   -736.76349    72785.307   -17293.299    1270.9074   -18564.206    110.83846    238.99277 
   30450    92.968642   -750.22317    72743.405   -17281.457    1259.2417   -18540.698     110.8846    236.79905 
   30500    91.368229   -483.95162    72726.193   -17306.643    1237.5645   -18544.207    111.02445    232.72266 
   30550    92.845578   -894.68765    72756.119   -17305.216    1257.5749   -18562.791    111.10374     236.4856 
   30600    92.079875   -171.66949    72679.544   -17285.398    1247.2036   -18532.602    111.09789    234.53529 
   30650    95.392692   -548.61869    72660.329   -17258.705     1292.075    -18550.78    111.38955    242.97331 
   30700    94.249581   -775.56702    72596.534   -17233.682    1276.5918   -18510.274    111.50802    240.06171 
   30750     91.50835   -275.98113    72602.089    -17269.74    1239.4624   -18509.203    111.64283    233.07956 
   30800    92.943809   -427.04362    72570.063   -17260.106    1258.9054   -18519.012    111.74304     236.7358 
   30850    93.187357   -240.54159    72549.687   -17289.176    1262.2042    -18551.38    111.72853    237.35614 
   30900    96.545673   -353.46359    72505.543   -17249.179    1307.6919    -18556.87    111.84428    245.91005 
   30950    93.598158   -671.57765    72531.249   -17297.539    1267.7684   -18565.307    112.27067    238.40248 
   31000    90.273469    -345.2788     72491.34   -17325.394    1222.7362    -18548.13     112.6373    229.93422 
   31050    90.771542   -592.07246    72467.227   -17346.187    1229.4825    -18575.67    112.51375    231.20285 
   31100    93.864466   -561.48925    72400.571   -17316.938    1271.3755   -18588.314    112.56709    239.08079 
   31150    94.466103   -536.50737    72340.262   -17297.943    1279.5246   -18577.467    112.49008    240.61321 
   31200    95.852405   -289.73582    72377.416   -17283.635    1298.3017   -18581.937     113.0091    244.14424 
   31250    93.067701   -279.89522    72391.827    -17259.43    1260.5835   -18520.014    113.28743    237.05137 
   31300    91.638322   -392.15967    72373.826   -17260.295    1241.2228   -18501.518    113.48253    233.41061 
   31350    95.206817    -610.3404    72323.811   -17247.101    1289.5574   -18536.658    113.19956    242.49987 
   31400    93.592678   -328.19647    72337.517   -17267.085    1267.6942    -18534.78    113.86025    238.38853 
   31450    94.084858   -103.54765    72390.457   -17250.882    1274.3607   -18525.243    114.02604    239.64215 
   31500     93.29237   -370.26586    72423.467    -17271.28    1263.6266   -18534.907     114.1743    237.62361 
   31550    92.259032   -508.14275    72420.058   -17283.046    1249.6302   -18532.677    114.24474    234.99161 
   31600    94.674345   -74.330367     72407.86   -17236.376    1282.3452   -18518.721    114.43094    241.14362 
   31650    95.736753   -345.36941    72394.933   -17237.887    1296.7353   -18534.622    114.84413    243.84967 
   31700    94.928252   -480.01489    72390.085   -17229.657    1285.7843   -18515.441    115.26318    241.79035 
   31750    96.672725   -354.09107    72387.994   -17210.561    1309.4128   -18519.974    115.54367    246.23367 
   31800    95.533116   -647.74231    72366.814   -17235.438     1293.977   -18529.415    115.67844    243.33099 
   31850    93.396529   -346.08907     72233.71   -17247.835    1265.0374   -18512.873    115.92202    237.88892 
   31900    93.141984   -386.78152    72228.584   -17247.844    1261.5896   -18509.434    116.05598    237.24057 
   31950    92.736131   -219.51796    72275.977    -17264.81    1256.0924   -18520.903     116.2742    236.20683 
   32000    93.701723   -426.15305    72295.064   -17268.801    1269.1712   -18537.972    116.42744    238.66627 
   32050    95.095819   -475.22661    72338.475   -17242.039    1288.0539   -18530.093    116.44335    242.21715 
   32100    92.207443    -252.6888    72427.781   -17304.098    1248.9315    -18553.03    116.60638    234.86021 
   32150    95.966174   -350.79201    72523.919   -17287.299    1299.8427   -18587.142    117.15423    244.43402 
   32200    94.333106   -237.64779    72542.631   -17276.984    1277.7231   -18554.707    117.23496    240.27446 
   32250    92.819767   -395.73085    72586.782   -17258.757    1257.2253   -18515.982    117.13162    236.41986 
   32300    94.364531   -388.42197    72634.289   -17250.519    1278.1488   -18528.667    117.31593     240.3545 
   32350    92.708657   -477.05357    72651.237   -17277.788    1255.7203   -18533.508    117.50882    236.13685 
   32400    96.783741   -514.75754    72649.283    -17252.18    1310.9165   -18563.097    117.67616    246.51643 
   32450    94.704629   -316.92235     72648.96   -17263.713    1282.7553   -18546.469    117.67609    241.22076 
   32500    94.881232     -235.861    72695.867   -17232.598    1285.1474   -18517.745    117.98803    241.67058 
   32550    94.665419   -699.14533    72635.265   -17213.184    1282.2243   -18495.408    117.96722    241.12089 
   32600    93.676217   -344.72387    72641.003   -17245.317    1268.8257   -18514.143    117.82469    238.60131 
   32650    93.295138   -586.38365    72663.929   -17266.084    1263.6641   -18529.749    118.35581    237.63067 
   32700    93.546157   -382.57111    72688.173   -17249.222    1267.0641   -18516.287    118.95138    238.27003 
   32750    96.104579   -396.24377     72642.12   -17240.157    1301.7174   -18541.874    119.05286    244.78655 
   32800    94.752991   -475.71094    72605.285   -17223.185    1283.4104   -18506.595    119.05882    241.34394 
   32850    94.083469   -188.83442    72611.634   -17219.812    1274.3419   -18494.154    119.31495    239.63861 
   32900    93.435404    -281.9953    72598.213   -17251.759    1265.5639   -18517.323    119.27047    237.98793 
   32950    97.515276   -57.596641    72636.987   -17214.585     1320.825    -18535.41    119.52302    248.37972 
   33000    91.997317   -398.75385     72694.17   -17254.273    1246.0853   -18500.359    119.69041      234.325 
   33050    91.719348   -538.08795    72655.149   -17276.566    1242.3203   -18518.887    119.74736    233.61699 
   33100    93.515673   -352.37292    72707.222   -17265.641    1266.6512   -18532.293    119.94191    238.19239 
   33150    91.623405   -449.16469    72793.892   -17298.085    1241.0208   -18539.106    120.32424    233.37262 
   33200    93.212011   -346.10408    72844.792   -17293.795    1262.5381   -18556.334    120.47275    237.41893 
   33250    92.898712   -113.38739    72827.729   -17291.333    1258.2945   -18549.627     120.6615    236.62093 
   33300    94.965421   -789.62482    72874.863   -17256.287    1286.2877   -18542.574    120.82047    241.88502 
   33350    95.060311   -430.90119    72797.999   -17244.686     1287.573   -18532.259    120.68551    242.12671 
   33400    95.780255   -386.88584    72805.133   -17236.226    1297.3245   -18533.551    120.70376    243.96047 
   33450    94.418416   -653.32575    72769.658    -17263.08    1278.8786   -18541.959    120.83009    240.49175 
   33500      93.2562   -527.97524    72755.696    -17306.72    1263.1367   -18569.857    120.83097    237.53149 
   33550     92.07545   -1070.3934    72692.458   -17285.301    1247.1436   -18532.444    121.25472    234.52402 
   33600    92.171182   -568.95273    72650.777   -17311.194    1248.4403   -18559.635    121.25037    234.76785 
   33650     92.92069   -725.10449    72600.994   -17301.499    1258.5922   -18560.091    121.86032    236.67691 
   33700    94.079433    -434.7542    72571.646   -17297.287    1274.2872   -18571.575    122.04251    239.62833 
   33750    91.978456   -304.46912     72583.85   -17338.021    1245.8299   -18583.851    121.93085    234.27697 
   33800    90.865917   -405.58899    72662.581   -17331.344    1230.7607   -18562.105     122.1736    231.44323 
   33850    90.381844   -660.05305    72681.311   -17318.828    1224.2041   -18543.032    122.17003    230.21026 
   33900    94.340274   -354.04318    72591.195   -17316.215    1277.8202   -18594.035     122.4498    240.29272 
   33950    92.495126   -730.42511    72558.753   -17321.007    1252.8281   -18573.835    123.17399    235.59297 
[...]
   92000    98.110619   -556.27093     72872.08   -17292.832    1328.8888   -18621.721    333.23009    249.89611 
   92050    95.188434   -153.57875    72890.339   -17262.498    1289.3084   -18551.806    332.97228    242.45305 
   92100     95.57918   -260.52376    72921.379   -17264.207     1294.601   -18558.808    332.79275    243.44831 
   92150    96.887001   -20.175536     72962.17   -17257.606    1312.3151   -18569.921    332.71117    246.77945 
   92200    89.769744   -396.12865    72963.771   -17334.646    1215.9133   -18550.559    332.68904    228.65119 
   92250    89.868328   -702.32815    72930.883   -17322.019    1217.2486   -18539.267    332.44948    228.90229 
   92300    91.368609   -389.61216    72896.843   -17344.001    1237.5696   -18581.571    333.28212    232.72363 
   92350    90.415882   -665.09508    72854.062   -17340.122    1224.6651   -18564.787    334.32118    230.29695 
   92400    93.534401   -536.71518    72780.142   -17345.462    1266.9048   -18612.367    334.00485    238.24009 
   92450    92.857218    -294.4186    72776.027    -17315.62    1257.7325   -18573.353    334.11924    236.51524 
   92500    91.838725   -396.14786    72748.488   -17325.861    1243.9372   -18569.798    334.35079    233.92106 
   92550    93.102878   -446.64791    72719.541   -17321.069    1261.0599   -18582.128    333.80435    237.14096 
   92600    93.285663   -248.62753    72801.247   -17288.766    1263.5357   -18552.302     334.2486    237.60653 
   92650    94.245254   -607.44467    72831.415   -17284.668    1276.5332   -18561.201    334.00735    240.05069 
   92700    94.357472   -899.52756     72829.42   -17270.675    1278.0532   -18548.728    335.13916    240.33652 
   92750    94.293392   -525.19853     72835.94   -17221.495    1277.1852    -18498.68    334.75285     240.1733 
   92800    94.086435   -192.86212    72885.728   -17223.852     1274.382   -18498.234     334.3551    239.64617 
   92850    95.226159    59.559595     72930.32    -17261.98    1289.8194   -18551.799    334.58894    242.54914 
   92900    97.922213   -795.80474    73028.358   -17218.435    1326.3369   -18544.772    335.26326    249.41622 
   92950    98.307718   -529.50553    73073.184   -17211.359    1331.5585   -18542.917    335.60043    250.39813 
   93000    96.453851   -229.69275    73089.774   -17232.532    1306.4482   -18538.981    335.57882    245.67618 
   93050    94.867169   -330.57873    73135.068   -17242.984    1284.9569   -18527.941    335.60065    241.63476 
   93100    93.885909   -554.30584    73177.366   -17216.299    1271.6659   -18487.965    335.68682    239.13541 
   93150    94.748583   -786.60979    73182.551   -17220.205    1283.3507   -18503.556     335.9493    241.33271 
   93200    94.906106   -449.25182    73131.578    -17223.13    1285.4843   -18508.614    336.95158    241.73394 
   93250    91.397602   -359.92177    73072.182   -17259.624    1237.9623   -18497.586    337.15253    232.79748 
   93300    93.392357   -625.50915      73075.4   -17238.861    1264.9809   -18503.842    337.27094    237.87829 
   93350    93.964887   -717.45988    72959.053     -17233.5    1272.7357   -18506.236    337.56733    239.33657 
   93400    96.672184   -229.41092    72913.273   -17234.565    1309.4055    -18543.97    336.43357    246.23229 
   93450    94.765029   -588.81377    72882.703   -17275.337    1283.5735   -18558.911    336.28058     241.3746 
   93500    92.287029   -715.18039    72868.032   -17257.022    1250.0094   -18507.031    335.96323    235.06293 
   93550    96.654655   -575.43665    72863.678   -17224.381    1309.1681   -18533.549    336.58602    246.18764 
   93600    95.055076   -767.61535    72774.805   -17226.931    1287.5021   -18514.433    337.08258    242.11338 
   93650    96.397088   -432.66962    72729.541   -17232.604    1305.6794   -18538.283    337.26095     245.5316 
   93700    95.789549   -480.72086    72759.705   -17200.138    1297.4504   -18497.589    337.24704    243.98414 
   93750    96.080558    -635.6288    72743.074   -17220.555     1301.392   -18521.947    336.82788    244.72537 
   93800    95.889235   -575.14294    72667.568   -17221.955    1298.8006   -18520.756    337.53839    244.23805 
   93850    92.392313   -445.61539    72550.042   -17231.233    1251.4355   -18482.669    338.09963    235.33109 
   93900    94.729407   -70.388462     72557.33    -17228.45     1283.091   -18511.541    338.08098    241.28387 
   93950    96.267089   -487.95422    72555.764    -17187.04    1303.9185   -18490.959    338.47609    245.20048 
   94000     95.15412   -222.77382    72553.526   -17182.048    1288.8436   -18470.892    338.69434    242.36565 
   94050    94.094036   -474.22909     72518.77   -17193.307     1274.485   -18467.792    338.89245    239.66553 
   94100    94.722299   -298.80136    72525.343   -17200.078    1282.9947   -18483.072    338.73118    241.26577 
   94150    97.844666    -451.1707    72606.193   -17165.601    1325.2865   -18490.888    338.82677     249.2187 
   94200    91.587345   -524.19668     72644.37   -17216.853    1240.5324   -18457.385    339.55028    233.28077 
   94250    93.717006   -407.63592    72640.709   -17196.009    1269.3782   -18465.387    340.68113     238.7052 
   94300    95.079614   -656.29047     72645.32   -17242.269    1287.8344   -18530.104    341.65336    242.17588 
   94350     91.48362   -489.49066    72657.416   -17246.755    1239.1274   -18485.883    342.09754    233.01657 
   94400    93.314605   -602.48896    72604.267    -17262.32    1263.9277   -18526.248    341.65434    237.68025 
   94450    91.623043   -697.90758    72626.209   -17257.324    1241.0159    -18498.34    341.38567     233.3717 
   94500    91.668547   -422.33561    72555.663   -17233.121    1241.6322   -18474.753    341.20003     233.4876 
   94550    94.033874   -827.25035    72513.914   -17242.469    1273.6701   -18516.139    341.31328    239.51229 
   94600    93.972447   -152.68972     72558.63   -17220.598    1272.8381   -18493.437    341.40228    239.35583 
   94650     91.44936    12.163021    72639.773   -17224.641    1238.6634   -18463.304    342.07666    232.92931 
   94700    95.563434   -474.19361    72669.757   -17240.306    1294.3877   -18534.694    341.88363    243.40821 
   94750    95.561584   -642.87804    72652.231   -17210.201    1294.3626   -18504.564      341.905     243.4035 
   94800    94.446569   -525.42377      72649.6   -17253.519      1279.26   -18532.779    342.62585    240.56346 
   94850    92.120272   -339.64908    72676.744   -17261.077    1247.7507   -18508.828    342.59518    234.63818 
   94900    95.096913   -695.19368    72730.597    -17272.62    1288.0687   -18560.689    342.22768    242.21994 
   94950    95.313192    -484.8681     72733.55   -17278.333    1290.9982   -18569.331    342.51343    242.77082 
   95000    93.401389   -403.36298    72709.185   -17250.696    1265.1032     -18515.8    342.85144    237.90129 
   95050    93.808635    -816.2438    72644.118   -17275.739    1270.6193   -18546.358     343.1985    238.93859 
   95100    91.055636   -562.95904     72579.72    -17287.85    1233.3305    -18521.18    343.23642    231.92646 
   95150    94.097832   -433.47818    72535.029   -17261.319    1274.5364   -18535.856    343.49662    239.67519 
   95200    94.630718   -641.03232    72578.264   -17245.668    1281.7542   -18527.423    343.69192     241.0325 
   95250    95.910822     -471.964    72603.154   -17238.611     1299.093   -18537.704    344.68509    244.29304 
   95300    95.066861   -570.04533    72642.497   -17244.786    1287.6617   -18532.447    345.37927     242.1434 
   95350    93.862915   -625.94639    72637.734    -17245.57    1271.3545   -18516.924     344.9881    239.07684 
   95400    95.111382   -439.76759    72550.698   -17236.981    1288.2647   -18525.245    344.86964    242.25679 
   95450    96.027117    -557.7334    72481.849   -17241.414    1300.6682   -18542.082    344.61157    244.58925 
   95500    93.433806   -373.07586    72467.977   -17238.662    1265.5423   -18504.204    345.29774    237.98386 
   95550    95.408424   -650.13161    72514.257   -17242.618    1292.2881   -18534.906    345.37176    243.01339 
   95600    94.565983   -70.662659    72570.499   -17270.423    1280.8774   -18551.301    345.44534    240.86762 
   95650    91.428692   -37.735532    72593.557    -17307.43    1238.3834   -18545.814    345.59504    232.87667 
   95700     91.93978   -296.37684    72615.639   -17327.561     1245.306   -18572.867    345.35058    234.17845 
   95750    91.507233   -773.50436    72613.192   -17308.619    1239.4472   -18548.066    346.07496    233.07672 
   95800    92.626956   -432.89812     72647.53   -17303.183    1254.6137   -18557.797    346.64954    235.92875 
   95850    92.625308   -696.89148    72661.554   -17289.709    1254.5914   -18544.301    347.14164    235.92455 
   95900    93.724808   -330.21917    72702.838   -17294.845    1269.4839   -18564.329    346.94027    238.72507 
   95950    93.390365   -504.22954    72747.752   -17278.918    1264.9539   -18543.872    347.17871    237.87322 
   96000    93.599092   -476.82114    72791.672   -17277.936    1267.7811   -18545.717    346.33657    238.40486 
   96050    95.440268   -676.95811    72728.551   -17273.692    1292.7194   -18566.411    346.65397    243.09449 
   96100    92.399471   -826.77955    72656.149   -17292.415    1251.5324   -18543.948    346.51952    235.34933 
   96150    92.280909   -477.55879    72589.999   -17302.128    1249.9265   -18552.055    346.84939    235.04734 
   96200     93.70502   -552.92307    72479.039   -17302.087    1269.2158   -18571.303    346.64964    238.67467 
   96250    90.834549   -539.50971    72448.248   -17326.533    1230.3359   -18556.869    346.66595    231.36334 
   96300    95.979979   -408.48947    72498.424   -17307.489    1300.0297   -18607.519     347.6095    244.46918 
   96350    94.641959   -283.02887    72493.212   -17293.825    1281.9065   -18575.731    348.20173    241.06113 
   96400    94.211623    41.995444     72518.19   -17286.446    1276.0777   -18562.524    348.33501    239.96503 
   96450    92.627964   -388.13484    72590.108   -17321.227    1254.6273   -18575.855    349.18369    235.93132 
   96500    93.499995   -625.07367    72564.588   -17293.958    1266.4388   -18560.397     348.6581    238.15245 
   96550     92.46139   -526.20219    72553.573   -17290.467    1252.3711   -18542.838    348.45866    235.50704 
   96600    93.325116   -725.56142    72539.408   -17281.156    1264.0701   -18545.226    348.94305    237.70702 
   96650    91.004139    -415.5578    72557.702   -17277.861    1232.6329   -18510.494    349.14416     231.7953 
   96700    95.220461   -707.24751    72515.077   -17285.561    1289.7422   -18575.304    349.92093    242.53463 
   96750    94.133078   -498.54037    72533.554   -17236.885    1275.0138   -18511.899    350.18608    239.76497 
   96800    96.004144    -376.5372    72558.128   -17246.998     1300.357   -18547.355    350.33156    244.53073 
   96850    95.736723   -292.33256    72529.677   -17247.027    1296.7349   -18543.762     350.6002    243.84959 
   96900    94.457353   -553.79826    72576.579   -17234.349     1279.406   -18513.755    350.58845    240.59093 
   96950    93.351913   -336.90347    72601.569   -17240.319    1264.4331   -18504.752    351.36371    237.77528 
   97000    93.968197   -538.84669    72645.038   -17252.003    1272.7805   -18524.783    352.25134      239.345 
   97050    92.848018    -550.4693    72633.439   -17280.276    1257.6079   -18537.884    351.80392    236.49181 
   97100    91.680018   -675.74031    72666.661   -17259.149    1241.7876   -18500.937    351.79336    233.51682 
   97150    92.346448   -163.48878    72665.984   -17229.389    1250.8143   -18480.204    352.24239    235.21427 
   97200    96.154282    12.439896     72693.27   -17192.455    1302.3906   -18494.845    352.61822    244.91315 
   97250    93.966498   -212.22641     72708.12   -17223.649    1272.7575   -18496.407    352.22355    239.34068 
   97300    94.735292   -551.46799    72760.453   -17244.269    1283.1707   -18527.439    352.42659    241.29886 
   97350    92.894978   -219.13356    72777.394   -17264.644     1258.244   -18522.888    352.95047    236.61142 
   97400    95.902359   -667.96283    72742.175   -17259.986    1298.9784   -18558.965    353.07382    244.27148 
   97450    91.635416   -321.78029     72756.32   -17304.462    1241.1835   -18545.645    353.23672    233.40321 
   97500    90.285108   -380.33732    72815.863   -17331.474    1222.8938   -18554.368    353.59858    229.96386 
   97550    93.064788    32.684145    72751.582   -17325.817     1260.544   -18586.361     352.9833    237.04394 
   97600    95.108526   -358.63273    72812.637   -17315.897     1288.226   -18604.123    353.57946    242.24952 
   97650    96.568413   -363.87921    72862.083    -17270.18    1307.9999    -18578.18    353.22139    245.96798 
   97700    93.746702   -725.34328    72869.975    -17270.41    1269.7804    -18540.19    354.15247    238.78084 
   97750     94.73201   -499.53772    72810.418   -17287.666    1283.1262   -18570.793     354.0932     241.2905 
   97800    95.193499   -515.12362    72849.608   -17271.442     1289.377   -18560.819    354.53603    242.46595 
   97850    97.229032   -431.49902    72862.474   -17250.569    1316.9479   -18567.517    354.56315    247.65063 
   97900     93.18236   -483.84813    72880.317   -17282.589    1262.1365   -18544.726    353.97956    237.34341 
   97950    96.943087   -583.86222    72862.286   -17261.637    1313.0748   -18574.711    354.48361     246.9223 
   98000    95.691543   -482.98674     72856.56   -17247.265    1296.1229   -18543.388    354.60612    243.73451 
   98050     93.81954   -367.48784     72894.26   -17279.315     1270.767   -18550.082    354.57717    238.96636 
   98100    95.798054   -285.70818    72951.627     -17264.5    1297.5656   -18562.066    354.62597    244.00581 
   98150    93.909042   -378.11114     72994.49   -17250.048    1271.9793   -18522.027    354.76943    239.19433 
   98200    94.842515   -502.06297    73024.874    -17248.64     1284.623   -18533.263    355.94995    241.57197 
   98250    94.922867    -480.4141    73015.224   -17224.173    1285.7113   -18509.884    356.81004    241.77663 
   98300    94.249793   -342.17012    72989.759   -17198.983    1276.5947   -18475.578    357.09828    240.06225 
   98350      96.8798   -478.19053    73019.037    -17180.14    1312.2176   -18492.358    357.46445    246.76111 
   98400    97.051886   -181.79268     73036.64   -17193.018    1314.5485   -18507.567    357.87375    247.19942 
   98450    93.548869   -422.31546    73085.454   -17198.219    1267.1008    -18465.32    358.46538    238.27694 
   98500    91.731301   -208.70574    73097.063   -17226.449    1242.4822   -18468.931    358.50379    233.64744 
   98550    95.045414   -259.87327    73086.936   -17200.884    1287.3712   -18488.256    358.92649    242.08877 
   98600    96.567011   -315.76475    73074.204   -17180.589    1307.9809    -18488.57    358.86927    245.96441 
   98650    97.469715   -220.34567    73090.002   -17178.062    1320.2079    -18498.27    358.31088    248.26367 
   98700    96.778706   -168.61215    73099.783   -17214.834    1310.8483   -18525.682    358.33643    246.50361 
   98750    96.459081   -477.36468    73118.827   -17241.856     1306.519   -18548.376    359.27839     245.6895 
   98800    93.542986    -412.5068    73119.773   -17233.015    1267.0211   -18500.037    359.09048    238.26196 
   98850    90.999906   -978.25401    73056.847   -17245.341    1232.5756   -18477.917    359.23235    231.78451 
   98900    94.081391    -630.4423    73028.469   -17226.822    1274.3137   -18501.136    358.69416    239.63332 
   98950    96.023496   -359.91008    73044.745    -17243.68    1300.6191   -18544.299    358.73453    244.58003 
   99000    95.007297   -542.98778    73029.784   -17285.926    1286.8549   -18572.781     359.0434    241.99168 
   99050    93.900442   -227.47978    72955.131   -17273.752    1271.8628   -18545.615    359.59614    239.17243 
   99100     94.80863    -431.7303    73005.941   -17242.708     1284.164   -18526.872    360.52231    241.48566 
   99150    92.546297   -381.60651    72991.868    -17249.91    1253.5212   -18503.431    360.94294     235.7233 
   99200    96.480729   -231.91207     73011.27   -17237.912    1306.8123   -18544.725    360.96079    245.74464 
   99250    93.745772   -590.18624    72973.946   -17228.884    1269.7678   -18498.652    361.52195    238.77847 
   99300    95.624235   -77.231973      72920.3    -17234.25    1295.2112   -18529.461    361.66361    243.56307 
   99350    93.881806    -313.2819    72919.643   -17225.357    1271.6104   -18496.968    361.59264    239.12496 
   99400    96.259597   -764.94922    72879.434   -17202.987    1303.8171   -18506.804    362.52854    245.18139 
   99450    96.026125   -477.20703    72806.479   -17211.712    1300.6547   -18512.366    362.31992    244.58672 
   99500    94.084602   -707.76587     72757.25   -17208.377    1274.3572   -18482.734    362.79771     239.6415 
   99550    95.802309   -303.51634    72783.719   -17231.384    1297.6232   -18529.007    362.31784    244.01664 
   99600    97.612654   -379.28187    72791.138   -17252.188     1322.144   -18574.332    362.94311    248.62775 
   99650    95.844788   -354.39878    72807.625   -17274.026    1298.1986   -18572.225    363.44416    244.12484 
   99700    92.705386   -352.27142    72828.094   -17271.368     1255.676   -18527.044    363.12947    236.12852 
   99750    92.847398   -775.67984    72835.866   -17251.631    1257.5995    -18509.23     363.6702    236.49023 
   99800    91.142919   -515.31152    72872.362   -17274.225    1234.5127   -18508.738    364.10033    232.14878 
   99850    93.250344   -657.95387     72840.31   -17301.096    1263.0573   -18564.153    364.47157    237.51657 
   99900    92.699629    -604.8417    72805.745   -17277.444     1255.598   -18533.042    364.60522    236.11385 
   99950    93.462982   -135.18469    72830.597   -17275.786    1265.9375   -18541.723    365.42649    238.05818 
  100000    95.180541    -328.1287    72833.743   -17286.336    1289.2015   -18575.537    365.94865    242.43295 
Loop time of 96.2662 on 32 procs for 100000 steps with 4545 atoms

Performance: 448.756 ns/day, 0.053 hours/ns, 1038.786 timesteps/s
99.9% CPU use with 32 MPI tasks x no OpenMP threads

MPI task timing breakdown:
Section |  min time  |  avg time  |  max time  |%varavg| %total
---------------------------------------------------------------
Pair    | 56.422     | 64.18      | 72.362     |  82.4 | 66.67
Neigh   | 1.2304     | 2.8916     | 4.7536     |  95.5 |  3.00
Comm    | 13.362     | 22.598     | 31.649     | 165.6 | 23.47
Output  | 0.1028     | 0.10898    | 0.22917    |   6.5 |  0.11
Modify  | 4.6003     | 5.6158     | 6.7842     |  23.4 |  5.83
Other   |            | 0.8717     |            |       |  0.91

Nlocal:    142.031 ave 217 max 76 min
Histogram: 16 0 0 0 0 0 0 0 6 10
Nghost:    952.562 ave 1009 max 906 min
Histogram: 13 3 0 0 0 0 0 6 4 6
Neighs:    0 ave 0 max 0 min
Histogram: 32 0 0 0 0 0 0 0 0 0
FullNghs:  14601.9 ave 26599 max 3793 min
Histogram: 16 0 0 0 0 0 0 0 3 13

Total # of neighbors = 467262
Ave neighs/atom = 102.808
Neighbor list builds = 5676
Dangerous builds = 0

write_data		${DIR}/data.eq-${NAME}-${TEMP}
write_data		run_4/data.eq-${NAME}-${TEMP}
write_data		run_4/data.eq-het_freeze_4-${TEMP}
write_data		run_4/data.eq-het_freeze_4-240
undump          1

reset_timestep  0

unfix           2
unfix           3
unfix           4


################################################
#######         Run Simulation         #########
################################################

log				${DIR}/log.run_${NAME}
log				run_4/log.run_${NAME}
log				run_4/log.run_het_freeze_4
