LAMMPS data file via write_data, version 16 Mar 2018, timestep = 100000

6768 atoms
2 atom types

0.0000000000000000e+00 4.9219999999999999e+01 xlo xhi
0.0000000000000000e+00 4.9019635930410494e+01 ylo yhi
-1.8991392107864868e-01 6.0251913921077673e+01 zlo zhi

Masses

1 18.015
2 12.01

Atoms # atomic

6761 1 1.0471251179907929e+01 9.6308187874847402e+00 8.8170997361831169e+00 0 1 0
3645 1 6.5484023170610772e+00 9.3262899516989126e+00 1.0591488117031520e+01 2 0 0
3316 1 5.2628600689280303e+00 2.1999685175857357e+00 2.4202967635004371e+00 0 1 1
1900 1 8.9118365019707628e+00 8.9259064572216076e+00 1.4209404928717282e+01 -1 1 0
3139 1 1.2348048840978647e+00 1.1626388909139729e+01 1.3679997425314223e+01 0 0 1
3403 1 1.6581441535927741e+00 4.1329280554461695e-01 5.4107532912548209e+00 0 0 1
5535 1 1.1398233228716084e+01 2.8695244730061500e+00 1.1524892338608009e+01 2 1 0
5142 1 8.7823708442601323e+00 2.4927324348221811e+00 3.8099938764810584e+00 0 0 1
5613 1 9.6366316482062739e+00 8.8542822852616521e+00 8.8917539074661600e-02 0 -1 1
2095 1 1.1897801619300315e+01 6.8088393416026705e+00 5.9545032982171442e-01 -1 1 0
1681 1 7.6266556288449650e+00 1.6079509836178194e+00 1.1090082927238485e+00 2 0 1
2120 1 1.1081351927609543e+01 1.1838188951557620e+00 3.6624416762843279e+00 1 1 0
2205 1 1.1406009974223304e+01 9.0834349813915676e+00 3.7181110348219342e+00 -1 1 1
4840 1 4.2443828263625649e+00 5.6552242230298821e+00 3.0279958482103662e+00 0 -1 1
3964 1 5.6112931238393173e+00 7.6978312786170688e+00 1.8087101796841565e+00 1 1 1
2204 1 9.6634798687794348e+00 4.9415703840350851e+00 2.4832610788875016e+00 -1 -1 0
108 1 7.9225083371900062e+00 7.2060320409899230e+00 2.8870369148032382e+00 1 1 0
6442 1 4.1157613773905561e+00 1.1898788099480234e+01 3.8530432606903746e+00 0 0 1
6692 1 1.1455814041582027e+01 1.5684810748823967e+00 1.4114465981396922e+01 2 -1 0
2239 1 4.5139633213498476e+00 1.0598535453991998e+01 1.4213248000381844e+01 0 0 0
5166 1 5.5761290290323595e+00 1.0614785836019202e+01 1.5410436972017134e+00 1 1 0
614 1 2.9184178920888248e+00 2.0744739017366167e+00 1.0225688582578270e+00 1 0 0
154 1 9.0511853229781067e+00 9.4769703603366402e+00 2.5450591591076028e+00 1 0 0
2135 1 5.3256710723059708e+00 4.2378604460116709e-01 6.3837291502256992e+00 1 1 1
5269 1 4.2480401743018676e+00 1.9496196177944466e-01 4.0511473453267479e+00 1 1 1
6555 1 1.5780396966753529e+00 3.0599650969458079e+00 4.4239527746310090e+00 1 0 1
3116 1 2.2073601225821209e+00 1.9249584201385616e-03 8.3178368643773961e+00 0 0 1
2165 1 8.2191246089170455e+00 5.9745181888163024e-01 6.4296794364900247e+00 0 2 0
3097 1 5.0542704994633798e+00 2.7991096342658985e+00 1.4864909294985411e+01 0 1 1
3513 1 3.5171750049493154e-02 7.2045521499362613e+00 4.8191056486817860e+00 0 1 0
1470 1 2.3594450420908175e+00 4.7767772329468148e+00 6.2263466017354077e+00 -1 -1 1
6612 1 1.4522919338499178e+00 1.1548291041350254e+01 6.4652245364152634e+00 0 0 1
1924 1 4.7137397554942622e+00 3.1861104126320701e+00 6.7699736386116962e+00 -1 1 0
3875 1 3.6174239899293927e+00 7.3039586452116927e+00 4.9799515634664262e+00 0 1 0
1807 1 5.8548820638951478e+00 8.6029665166556057e+00 6.3430092378599570e+00 0 1 0
2156 1 8.6401170556510394e+00 4.7476635938802367e+00 7.4673494754004635e+00 -1 1 0
1332 1 6.4461025384255795e+00 4.2934534405498521e+00 4.4787017069859028e+00 1 0 0
3268 1 1.0206713850744139e+01 8.1485251606391831e+00 6.3082431821288356e+00 -1 0 1
4863 1 2.1275718921774955e+00 9.7050613913846906e+00 4.6793339195057504e+00 -1 -1 1
5255 1 2.0638465448678284e-01 9.6376271732502303e+00 8.4338247892538991e+00 -1 0 0
22 1 6.5498247327292560e+00 1.1382712729553054e+01 7.7647859613800279e+00 1 1 1
5508 1 7.7603963861281748e+00 7.0415681302742925e+00 5.6304065619311094e+00 0 0 0
1933 1 6.4639011303359819e+00 1.1005796897091288e+01 4.7183343083550549e+00 0 2 0
3705 1 1.5205846406339214e+00 1.5120142517589388e+00 1.1812949003443720e+01 1 2 0
3644 1 2.1567757465549109e+00 2.7197293314316706e+00 8.7233382700934659e+00 1 1 0
1690 1 1.8111581742601670e+00 8.8775776937274085e+00 -6.8353657031236525e-04 2 1 1
2321 1 9.0533733077884779e+00 2.1534897745925594e+00 8.2287824081769365e+00 0 0 0
2096 1 3.8590343015492099e+00 3.1481058792241075e+00 1.0780960282389268e+01 2 2 0
5567 1 8.7174697846889639e+00 3.9732750863685551e+00 1.2033825128907411e+01 0 2 0
2339 1 9.3672069385554195e+00 4.9134045807025002e+00 1.4184918911783795e+01 -1 0 1
5555 1 2.1373636680272310e+00 4.5157535928432493e+00 2.1705242984040227e+00 0 0 0
5194 1 1.1660488778787011e+01 2.5205214238383897e+00 8.5899060253258597e+00 1 0 1
3698 1 5.4488276288253159e+00 1.1370743494217306e+00 1.2346021041275113e+01 2 0 0
5377 1 2.5080753739126798e+00 6.4724352546175430e+00 1.3976952945449094e+01 1 0 0
433 1 1.6375090719104188e+00 2.7775394038558021e-01 1.4604715311898154e+01 0 0 0
2228 1 5.0282378911052481e+00 5.5875166146289690e+00 1.0385242671684439e+01 0 0 1
3415 1 7.7480640468967259e+00 5.7578417549035139e+00 1.0162629123015355e+01 1 2 1
6415 1 5.0597670622185111e+00 6.3811835176696974e+00 1.2931683781410143e+01 0 0 1
1865 1 1.0979332726784337e+01 7.1919052651463291e+00 1.4000111805298079e+01 0 0 0
3242 1 9.1223412370192793e+00 7.6870919176270398e+00 1.1167007598378563e+01 0 1 1
5047 1 2.2920878940457130e+00 8.7741406941885263e+00 1.0211277578921260e+01 0 0 1
448 1 3.1483276909470290e+00 1.0765713067417055e+01 1.1618955384714397e+01 1 0 0
3340 1 1.1155472519869469e+00 7.4393844431431226e+00 1.1955914364234713e+01 2 0 1
5044 1 1.1061385962073429e+01 5.7045854002040013e+00 6.7137611186691579e+00 0 3 0
3280 1 5.3602934125911093e+00 1.2024330887523513e+01 1.0406549243553956e+01 0 0 1
546 1 4.7849313049215185e+00 7.8687887183091600e+00 9.1081253290944169e+00 1 1 1
2124 1 6.2798282053191121e+00 8.6146910904048948e+00 1.3079992359275840e+01 1 2 0
3878 1 1.2088139840741160e+01 4.8013254594297550e+00 4.1035613116474368e+00 0 0 1
2028 1 8.1743509142914235e+00 1.2341745612474067e+00 1.0868457845760853e+01 1 1 0
3582 1 9.4895233681430042e+00 3.6586323894222974e+00 -1.5975088359112424e-01 0 1 0
3812 1 6.0711177566647767e-01 9.5906186226884405e+00 2.5095103642767311e+00 1 0 0
1975 1 2.4702524351460506e+00 3.6876975719628606e+00 1.3969586016995551e+01 0 1 0
6688 1 1.1893954032799035e+01 2.2095300886012623e+00 8.0272432078145539e-01 1 1 0
3168 1 9.0856894125559204e+00 1.2012020707360008e+01 9.3038617479310126e+00 0 1 0
3145 1 1.2183154006533773e+01 1.1393995124368843e+01 4.7216309461502242e+00 -1 1 0
253 1 1.0522459408981481e+01 1.1127031047081134e+01 1.4860170297130036e+01 1 1 0
3061 1 6.6679281629820082e+00 5.1196813827237069e+00 1.4863462731570195e+01 0 0 1
617 1 4.7287717542080188e+00 2.0319626488090887e+00 1.8177919162957231e+01 0 1 0
1682 1 4.9815811430753527e+00 4.9513443953728755e+00 1.8015563222494514e+01 0 1 1
2063 1 6.4843281420480983e+00 3.9696258502845377e-01 1.6070757052496010e+01 0 1 0
3489 1 9.4008011259460051e+00 8.3875228446098093e-01 1.9598130133201039e+01 0 0 0
5552 1 3.2051566661708644e+00 1.1225220459431675e+01 1.6695004753943035e+01 0 1 0
1396 1 9.2965368730192708e+00 8.1683920005112820e-01 1.6996895635883465e+01 1 3 1
845 2 1.1074500000000002e+01 1.0656442593567498e+01 3.0030999999999423e+01 0 0 0
843 2 1.1074500000000002e+01 1.2077301606043163e+01 3.0030999999999423e+01 0 0 0
3510 1 1.0248632608395669e+01 3.4887353672231081e+00 1.6320008998377027e+01 1 1 0
2041 1 1.5694591185896936e+00 5.1870961915235787e+00 1.7707291472046510e+01 0 1 0
299 1 3.4549326294041078e+00 8.0450738549417569e+00 1.6113055205316339e+01 -1 1 0
6693 1 9.7245990142090244e-01 7.6282496995625291e+00 2.0832600667771597e+01 0 -1 0
369 1 2.3394184611222872e+00 2.4610116851470503e+00 1.6608722971443886e+01 0 1 0
3960 1 7.4321363871790602e+00 4.5085277461353419e+00 1.9597070898249619e+01 0 0 1
3391 1 9.8133889822656908e+00 2.2153558071991278e-01 2.3317207712105297e+01 -1 1 1
5162 1 1.0238363426346604e+01 4.9158494765156755e+00 1.8666024567083777e+01 0 1 0
798 2 8.6134999999999984e+00 1.0656442593567498e+01 3.0030999999999423e+01 0 0 0
1323 1 8.5941018010617998e-01 1.2211821996956722e+01 2.0045606221856627e+01 1 0 1
5004 1 3.0214886787977933e+00 6.8256467863158807e+00 1.9256747921186047e+01 1 0 1
3137 1 6.1936576903387017e+00 7.2828463324505037e+00 1.6665705727999676e+01 1 0 1
2319 1 8.1716532877661923e+00 9.1602647162042565e+00 1.6749742485971982e+01 0 1 1
797 2 8.6134999999999984e+00 1.0656442593567498e+01 2.6802551189347309e+01 0 0 0
756 2 8.6134999999999984e+00 9.2355835810918343e+00 2.6802551189347309e+01 0 0 0
3852 1 1.0907806377734909e+01 1.0126248317235742e+01 1.9500275977689121e+01 0 1 0
5306 1 9.6199082630588286e+00 1.1932036525838225e+01 2.4306104491321481e+01 1 2 1
1905 1 4.5923067668995748e-01 9.1368032484304407e-01 1.7967095804955694e+01 0 1 0
2057 1 2.2717017001812656e+00 2.6061798390729547e+00 2.3874400612039064e+01 2 1 0
6413 1 3.6899788019663391e+00 1.4916082221904925e+00 2.0918112366469067e+01 0 1 0
503 1 1.0109548343681267e+00 7.3722003224253578e+00 2.3640816090220497e+01 0 0 0
6524 1 5.2953023659621028e+00 1.0328344365143192e+00 2.3432961666343285e+01 1 1 1
277 1 4.0572373537515078e+00 9.9636842215553383e+00 1.9187664986499232e+01 0 -2 1
4901 1 7.1258541579343255e+00 2.0216483360173769e+00 2.0992499024958892e+01 1 1 0
3780 1 5.9610414905665232e+00 3.7239162934394718e+00 2.3949799908796557e+01 1 0 0
6634 1 8.5727608197888827e+00 2.7825590980020523e+00 2.3593310334968010e+01 0 0 1
5249 1 1.1974246310196312e+01 4.7818639443404045e+00 2.0659493964580189e+01 -1 2 0
803 2 1.1074500000000002e+01 9.2355835810918343e+00 2.6802551189347309e+01 0 0 0
3419 1 2.7251189536568199e+00 3.9596678314141465e+00 2.1168689617659968e+01 1 2 0
3224 1 4.8431133590576642e-01 1.1592985139432521e+01 1.6691648945850645e+01 -1 2 1
2270 1 2.8804881011099632e+00 5.4237351903325122e+00 2.3494959719329380e+01 0 0 1
5204 1 5.4432430242209451e+00 6.3994318794684979e+00 2.2972225590591108e+01 1 1 0
4016 1 6.2228928091093696e+00 6.8871426956597279e+00 2.0423724010753247e+01 1 0 1
3193 1 7.1283901368105544e+00 1.1398050883217165e+01 1.7906698453983243e+01 2 0 1
105 1 1.0762804999112436e+01 4.2384922293413076e+00 2.3575396531127769e+01 1 1 1
6705 1 1.0559187783182885e+01 7.0471524062259974e+00 2.4463720295393777e+01 0 0 1
6520 1 1.6861730958916690e+00 1.0139700039491897e+01 2.3858016252832957e+01 1 1 1
3481 1 2.3038694323345865e+00 1.0004392547697154e+01 2.1260025717105062e+01 1 0 0
3829 1 6.5826088657210473e+00 1.0743310222172227e+01 2.0469894844370494e+01 0 1 0
1849 1 4.9734383949552150e+00 1.0422154664167625e+01 2.2716444372613417e+01 0 2 0
112 1 8.4263587274485428e+00 8.3886131773586836e+00 2.0832402648480933e+01 0 -1 0
377 1 6.1305415863306196e+00 8.6478314684804900e+00 2.4203780953137908e+01 0 0 0
2306 1 2.3423352106938011e-01 4.1384231123931334e+00 1.9787414929797194e+01 1 0 1
4779 1 8.8705557310971486e+00 9.0257172055141641e+00 2.3562534108613612e+01 0 1 1
298 1 1.0173077126996704e+01 7.8838665407638562e+00 1.8175043669637059e+01 0 1 0
801 2 9.8440000000000012e+00 8.5251540748539956e+00 2.6802551189347309e+01 0 0 0
623 2 0.0000000000000000e+00 2.8417180249513345e+00 2.6802551189347309e+01 0 0 0
625 2 0.0000000000000000e+00 0.0000000000000000e+00 2.6802551189347309e+01 0 0 0
627 2 1.2305000000000001e+00 7.1042950623783474e-01 2.6802551189347309e+01 0 0 0
634 2 1.2305000000000001e+00 2.1312885187134998e+00 2.6802551189347309e+01 0 0 0
636 2 2.4610000000000003e+00 2.8417180249513345e+00 2.6802551189347309e+01 0 0 0
638 2 2.4610000000000003e+00 0.0000000000000000e+00 2.6802551189347309e+01 0 0 0
640 2 3.6915000000000004e+00 7.1042950623783474e-01 2.6802551189347309e+01 0 0 0
655 2 3.6914999999999996e+00 2.1312885187134998e+00 2.6802551189347309e+01 0 0 0
624 2 0.0000000000000000e+00 1.4208590124756650e+00 3.0030999999999423e+01 0 0 0
626 2 0.0000000000000000e+00 0.0000000000000000e+00 3.0030999999999423e+01 0 0 0
633 2 1.2305000000000001e+00 3.5521475311891644e+00 3.0030999999999423e+01 0 0 0
635 2 1.2305000000000001e+00 2.1312885187134998e+00 3.0030999999999423e+01 0 0 0
637 2 2.4610000000000003e+00 1.4208590124756650e+00 3.0030999999999423e+01 0 0 0
639 2 2.4610000000000003e+00 0.0000000000000000e+00 3.0030999999999423e+01 0 0 0
654 2 3.6914999999999996e+00 3.5521475311891644e+00 3.0030999999999423e+01 0 0 0
656 2 3.6914999999999996e+00 2.1312885187134998e+00 3.0030999999999423e+01 0 0 0
657 2 4.9220000000000006e+00 2.8417180249513332e+00 2.6802551189347309e+01 0 0 0
659 2 4.9220000000000006e+00 0.0000000000000000e+00 2.6802551189347309e+01 0 0 0
661 2 6.1524999999999999e+00 7.1042950623783407e-01 2.6802551189347309e+01 0 0 0
684 2 6.1524999999999999e+00 2.1312885187134989e+00 2.6802551189347309e+01 0 0 0
686 2 7.3829999999999991e+00 2.8417180249513345e+00 2.6802551189347309e+01 0 0 0
688 2 7.3829999999999991e+00 0.0000000000000000e+00 2.6802551189347309e+01 0 0 0
658 2 4.9220000000000006e+00 1.4208590124756650e+00 3.0030999999999423e+01 0 0 0
660 2 4.9220000000000006e+00 0.0000000000000000e+00 3.0030999999999423e+01 0 0 0
683 2 6.1524999999999999e+00 3.5521475311891644e+00 3.0030999999999423e+01 0 0 0
685 2 6.1524999999999999e+00 2.1312885187134989e+00 3.0030999999999423e+01 0 0 0
687 2 7.3829999999999991e+00 1.4208590124756659e+00 3.0030999999999423e+01 0 0 0
689 2 7.3829999999999991e+00 0.0000000000000000e+00 3.0030999999999423e+01 0 0 0
690 2 8.6134999999999984e+00 7.1042950623783407e-01 2.6802551189347309e+01 0 0 0
721 2 8.6134999999999984e+00 2.1312885187135002e+00 2.6802551189347309e+01 0 0 0
723 2 9.8440000000000012e+00 2.8417180249513332e+00 2.6802551189347309e+01 0 0 0
725 2 9.8440000000000012e+00 0.0000000000000000e+00 2.6802551189347309e+01 0 0 0
727 2 1.1074500000000002e+01 7.1042950623783330e-01 2.6802551189347309e+01 0 0 0
766 2 1.1074500000000002e+01 2.1312885187135002e+00 2.6802551189347309e+01 0 0 0
720 2 8.6134999999999984e+00 3.5521475311891657e+00 3.0030999999999423e+01 0 0 0
722 2 8.6134999999999984e+00 2.1312885187135002e+00 3.0030999999999423e+01 0 0 0
724 2 9.8440000000000012e+00 1.4208590124756659e+00 3.0030999999999423e+01 0 0 0
726 2 9.8440000000000012e+00 0.0000000000000000e+00 3.0030999999999423e+01 0 0 0
765 2 1.1074500000000002e+01 3.5521475311891644e+00 3.0030999999999423e+01 0 0 0
767 2 1.1074500000000002e+01 2.1312885187135002e+00 3.0030999999999423e+01 0 0 0
628 2 0.0000000000000000e+00 7.1042950623783341e+00 2.6802551189347309e+01 0 0 0
630 2 0.0000000000000000e+00 4.2625770374269996e+00 2.6802551189347309e+01 0 0 0
632 2 1.2305000000000001e+00 4.9730065436648339e+00 2.6802551189347309e+01 0 0 0
647 2 1.2305000000000001e+00 6.3938655561404980e+00 2.6802551189347309e+01 0 0 0
649 2 2.4610000000000003e+00 7.1042950623783341e+00 2.6802551189347309e+01 0 0 0
651 2 2.4610000000000003e+00 4.2625770374269996e+00 2.6802551189347309e+01 0 0 0
653 2 3.6914999999999996e+00 4.9730065436648339e+00 2.6802551189347309e+01 0 0 0
676 2 3.6914999999999996e+00 6.3938655561404980e+00 2.6802551189347309e+01 0 0 0
629 2 0.0000000000000000e+00 5.6834360499026637e+00 3.0030999999999423e+01 0 0 0
631 2 0.0000000000000000e+00 4.2625770374269996e+00 3.0030999999999423e+01 0 0 0
646 2 1.2305000000000001e+00 7.8147245686161639e+00 3.0030999999999423e+01 0 0 0
648 2 1.2305000000000001e+00 6.3938655561404980e+00 3.0030999999999423e+01 0 0 0
650 2 2.4610000000000003e+00 5.6834360499026637e+00 3.0030999999999423e+01 0 0 0
652 2 2.4610000000000003e+00 4.2625770374269996e+00 3.0030999999999423e+01 0 0 0
675 2 3.6914999999999996e+00 7.8147245686161639e+00 3.0030999999999423e+01 0 0 0
677 2 3.6914999999999996e+00 6.3938655561404980e+00 3.0030999999999423e+01 0 0 0
678 2 4.9220000000000006e+00 7.1042950623783341e+00 2.6802551189347309e+01 0 0 0
680 2 4.9220000000000006e+00 4.2625770374269978e+00 2.6802551189347309e+01 0 0 0
682 2 6.1524999999999999e+00 4.9730065436648339e+00 2.6802551189347309e+01 0 0 0
713 2 6.1524999999999999e+00 6.3938655561404980e+00 2.6802551189347309e+01 0 0 0
715 2 7.3830000000000009e+00 7.1042950623783341e+00 2.6802551189347309e+01 0 0 0
717 2 7.3829999999999991e+00 4.2625770374269996e+00 2.6802551189347309e+01 0 0 0
679 2 4.9220000000000006e+00 5.6834360499026637e+00 3.0030999999999423e+01 0 0 0
681 2 4.9220000000000006e+00 4.2625770374269978e+00 3.0030999999999423e+01 0 0 0
712 2 6.1524999999999999e+00 7.8147245686161639e+00 3.0030999999999423e+01 0 0 0
714 2 6.1524999999999999e+00 6.3938655561404980e+00 3.0030999999999423e+01 0 0 0
716 2 7.3829999999999991e+00 5.6834360499026637e+00 3.0030999999999423e+01 0 0 0
718 2 7.3829999999999991e+00 4.2625770374269996e+00 3.0030999999999423e+01 0 0 0
719 2 8.6135000000000002e+00 4.9730065436648339e+00 2.6802551189347309e+01 0 0 0
758 2 8.6135000000000002e+00 6.3938655561404980e+00 2.6802551189347309e+01 0 0 0
760 2 9.8440000000000012e+00 7.1042950623783341e+00 2.6802551189347309e+01 0 0 0
762 2 9.8440000000000012e+00 4.2625770374270004e+00 2.6802551189347309e+01 0 0 0
764 2 1.1074500000000002e+01 4.9730065436648339e+00 2.6802551189347309e+01 0 0 0
805 2 1.1074500000000002e+01 6.3938655561404980e+00 2.6802551189347309e+01 0 0 0
757 2 8.6135000000000002e+00 7.8147245686161639e+00 3.0030999999999423e+01 0 0 0
759 2 8.6135000000000002e+00 6.3938655561404980e+00 3.0030999999999423e+01 0 0 0
761 2 9.8440000000000012e+00 5.6834360499026637e+00 3.0030999999999423e+01 0 0 0
763 2 9.8440000000000012e+00 4.2625770374270004e+00 3.0030999999999423e+01 0 0 0
804 2 1.1074500000000002e+01 7.8147245686161639e+00 3.0030999999999423e+01 0 0 0
806 2 1.1074500000000002e+01 6.3938655561404980e+00 3.0030999999999423e+01 0 0 0
641 2 0.0000000000000000e+00 1.1366872099805333e+01 2.6802551189347309e+01 0 0 0
643 2 0.0000000000000000e+00 8.5251540748539991e+00 2.6802551189347309e+01 0 0 0
645 2 1.2305000000000001e+00 9.2355835810918343e+00 2.6802551189347309e+01 0 0 0
668 2 1.2305000000000001e+00 1.0656442593567498e+01 2.6802551189347309e+01 0 0 0
670 2 2.4610000000000003e+00 1.1366872099805333e+01 2.6802551189347309e+01 0 0 0
672 2 2.4610000000000003e+00 8.5251540748539991e+00 2.6802551189347309e+01 0 0 0
674 2 3.6915000000000004e+00 9.2355835810918343e+00 2.6802551189347309e+01 0 0 0
705 2 3.6914999999999996e+00 1.0656442593567499e+01 2.6802551189347309e+01 0 0 0
642 2 0.0000000000000000e+00 9.9460130873296642e+00 3.0030999999999423e+01 0 0 0
644 2 0.0000000000000000e+00 8.5251540748539991e+00 3.0030999999999423e+01 0 0 0
667 2 1.2305000000000001e+00 1.2077301606043163e+01 3.0030999999999423e+01 0 0 0
669 2 1.2305000000000001e+00 1.0656442593567498e+01 3.0030999999999423e+01 0 0 0
671 2 2.4610000000000003e+00 9.9460130873296642e+00 3.0030999999999423e+01 0 0 0
673 2 2.4610000000000003e+00 8.5251540748539991e+00 3.0030999999999423e+01 0 0 0
704 2 3.6914999999999996e+00 1.2077301606043163e+01 3.0030999999999423e+01 0 0 0
706 2 3.6914999999999996e+00 1.0656442593567499e+01 3.0030999999999423e+01 0 0 0
707 2 4.9220000000000006e+00 1.1366872099805333e+01 2.6802551189347309e+01 0 0 0
709 2 4.9220000000000006e+00 8.5251540748539991e+00 2.6802551189347309e+01 0 0 0
711 2 6.1524999999999999e+00 9.2355835810918343e+00 2.6802551189347309e+01 0 0 0
750 2 6.1524999999999999e+00 1.0656442593567499e+01 2.6802551189347309e+01 0 0 0
752 2 7.3829999999999991e+00 1.1366872099805333e+01 2.6802551189347309e+01 0 0 0
754 2 7.3830000000000009e+00 8.5251540748539991e+00 2.6802551189347309e+01 0 0 0
708 2 4.9220000000000006e+00 9.9460130873296642e+00 3.0030999999999423e+01 0 0 0
710 2 4.9220000000000006e+00 8.5251540748539991e+00 3.0030999999999423e+01 0 0 0
749 2 6.1524999999999999e+00 1.2077301606043163e+01 3.0030999999999423e+01 0 0 0
751 2 6.1524999999999999e+00 1.0656442593567499e+01 3.0030999999999423e+01 0 0 0
753 2 7.3830000000000009e+00 9.9460130873296642e+00 3.0030999999999423e+01 0 0 0
755 2 7.3830000000000009e+00 8.5251540748539991e+00 3.0030999999999423e+01 0 0 0
846 2 1.2304999999999998e+01 1.1366872099805333e+01 2.6802551189347309e+01 0 0 0
844 2 1.1074500000000002e+01 1.0656442593567498e+01 2.6802551189347309e+01 0 0 0
799 2 9.8440000000000012e+00 1.1366872099805333e+01 2.6802551189347309e+01 0 0 0
802 2 9.8440000000000012e+00 8.5251540748539956e+00 3.0030999999999423e+01 0 0 0
800 2 9.8440000000000012e+00 9.9460130873296642e+00 3.0030999999999423e+01 0 0 0
796 2 8.6135000000000002e+00 1.2077301606043163e+01 3.0030999999999423e+01 0 0 0
2119 1 2.4568242490030121e-01 6.7179293232529993e+00 1.5853352038293892e+01 0 1 0
1911 1 1.2286499847060574e+01 1.1951361240311110e+01 2.3364331680076909e+01 1 1 0
952 2 0.0000000000000000e+00 2.8417180249513345e+00 3.3259448810656643e+01 0 0 0
953 2 0.0000000000000000e+00 0.0000000000000000e+00 3.3259448810656643e+01 0 0 0
954 2 1.2305000000000001e+00 7.1042950623783474e-01 3.3259448810656643e+01 0 0 0
958 2 1.2305000000000001e+00 2.1312885187134998e+00 3.3259448810656643e+01 0 0 0
959 2 2.4610000000000003e+00 2.8417180249513345e+00 3.3259448810656643e+01 0 0 0
960 2 2.4610000000000003e+00 0.0000000000000000e+00 3.3259448810656643e+01 0 0 0
961 2 3.6915000000000004e+00 7.1042950623783474e-01 3.3259448810656643e+01 0 0 0
969 2 3.6914999999999996e+00 2.1312885187134998e+00 3.3259448810656643e+01 0 0 0
970 2 4.9220000000000006e+00 2.8417180249513332e+00 3.3259448810656643e+01 0 0 0
971 2 4.9220000000000006e+00 0.0000000000000000e+00 3.3259448810656643e+01 0 0 0
972 2 6.1524999999999999e+00 7.1042950623783407e-01 3.3259448810656643e+01 0 0 0
984 2 6.1524999999999999e+00 2.1312885187134989e+00 3.3259448810656643e+01 0 0 0
985 2 7.3829999999999991e+00 2.8417180249513345e+00 3.3259448810656643e+01 0 0 0
986 2 7.3829999999999991e+00 0.0000000000000000e+00 3.3259448810656643e+01 0 0 0
987 2 8.6134999999999984e+00 7.1042950623783407e-01 3.3259448810656643e+01 0 0 0
1003 2 8.6134999999999984e+00 2.1312885187135002e+00 3.3259448810656643e+01 0 0 0
1004 2 9.8440000000000012e+00 2.8417180249513332e+00 3.3259448810656643e+01 0 0 0
1005 2 9.8440000000000012e+00 0.0000000000000000e+00 3.3259448810656643e+01 0 0 0
1006 2 1.1074500000000002e+01 7.1042950623783330e-01 3.3259448810656643e+01 0 0 0
1026 2 1.1074500000000002e+01 2.1312885187135002e+00 3.3259448810656643e+01 0 0 0
955 2 0.0000000000000000e+00 7.1042950623783341e+00 3.3259448810656643e+01 0 0 0
956 2 0.0000000000000000e+00 4.2625770374269996e+00 3.3259448810656643e+01 0 0 0
957 2 1.2305000000000001e+00 4.9730065436648339e+00 3.3259448810656643e+01 0 0 0
965 2 1.2305000000000001e+00 6.3938655561404980e+00 3.3259448810656643e+01 0 0 0
966 2 2.4610000000000003e+00 7.1042950623783341e+00 3.3259448810656643e+01 0 0 0
967 2 2.4610000000000003e+00 4.2625770374269996e+00 3.3259448810656643e+01 0 0 0
968 2 3.6914999999999996e+00 4.9730065436648339e+00 3.3259448810656643e+01 0 0 0
980 2 3.6914999999999996e+00 6.3938655561404980e+00 3.3259448810656643e+01 0 0 0
981 2 4.9220000000000006e+00 7.1042950623783341e+00 3.3259448810656643e+01 0 0 0
982 2 4.9220000000000006e+00 4.2625770374269978e+00 3.3259448810656643e+01 0 0 0
983 2 6.1524999999999999e+00 4.9730065436648339e+00 3.3259448810656643e+01 0 0 0
999 2 6.1524999999999999e+00 6.3938655561404980e+00 3.3259448810656643e+01 0 0 0
1000 2 7.3830000000000009e+00 7.1042950623783341e+00 3.3259448810656643e+01 0 0 0
1001 2 7.3829999999999991e+00 4.2625770374269996e+00 3.3259448810656643e+01 0 0 0
1002 2 8.6135000000000002e+00 4.9730065436648339e+00 3.3259448810656643e+01 0 0 0
1022 2 8.6135000000000002e+00 6.3938655561404980e+00 3.3259448810656643e+01 0 0 0
1023 2 9.8440000000000012e+00 7.1042950623783341e+00 3.3259448810656643e+01 0 0 0
1024 2 9.8440000000000012e+00 4.2625770374270004e+00 3.3259448810656643e+01 0 0 0
1025 2 1.1074500000000002e+01 4.9730065436648339e+00 3.3259448810656643e+01 0 0 0
1046 2 1.1074500000000002e+01 6.3938655561404980e+00 3.3259448810656643e+01 0 0 0
962 2 0.0000000000000000e+00 1.1366872099805333e+01 3.3259448810656643e+01 0 0 0
963 2 0.0000000000000000e+00 8.5251540748539991e+00 3.3259448810656643e+01 0 0 0
964 2 1.2305000000000001e+00 9.2355835810918343e+00 3.3259448810656643e+01 0 0 0
976 2 1.2305000000000001e+00 1.0656442593567498e+01 3.3259448810656643e+01 0 0 0
977 2 2.4610000000000003e+00 1.1366872099805333e+01 3.3259448810656643e+01 0 0 0
978 2 2.4610000000000003e+00 8.5251540748539991e+00 3.3259448810656643e+01 0 0 0
979 2 3.6915000000000004e+00 9.2355835810918343e+00 3.3259448810656643e+01 0 0 0
995 2 3.6914999999999996e+00 1.0656442593567499e+01 3.3259448810656643e+01 0 0 0
996 2 4.9220000000000006e+00 1.1366872099805333e+01 3.3259448810656643e+01 0 0 0
997 2 4.9220000000000006e+00 8.5251540748539991e+00 3.3259448810656643e+01 0 0 0
998 2 6.1524999999999999e+00 9.2355835810918343e+00 3.3259448810656643e+01 0 0 0
1018 2 6.1524999999999999e+00 1.0656442593567499e+01 3.3259448810656643e+01 0 0 0
1019 2 7.3829999999999991e+00 1.1366872099805333e+01 3.3259448810656643e+01 0 0 0
1020 2 7.3830000000000009e+00 8.5251540748539991e+00 3.3259448810656643e+01 0 0 0
1021 2 8.6134999999999984e+00 9.2355835810918343e+00 3.3259448810656643e+01 0 0 0
1042 2 8.6134999999999984e+00 1.0656442593567498e+01 3.3259448810656643e+01 0 0 0
1043 2 9.8440000000000012e+00 1.1366872099805333e+01 3.3259448810656643e+01 0 0 0
1044 2 9.8440000000000012e+00 8.5251540748539956e+00 3.3259448810656643e+01 0 0 0
1045 2 1.1074500000000002e+01 9.2355835810918343e+00 3.3259448810656643e+01 0 0 0
1066 2 1.1074500000000002e+01 1.0656442593567498e+01 3.3259448810656643e+01 0 0 0
1067 2 1.2304999999999998e+01 1.1366872099805333e+01 3.3259448810656643e+01 0 0 0
2215 1 2.2978879132639682e+00 4.1797865611490890e+00 3.5785045520799081e+01 0 0 0
1691 1 1.2008642256576723e+00 1.9659954605940146e+00 3.6970153223150227e+01 3 0 -1
5542 1 9.9705886263684551e+00 8.2565525817940866e-01 4.2140485237995854e+01 0 1 -1
3638 1 1.1708389305787307e+01 7.6943346418367531e+00 4.0248361647535283e+01 2 -1 -1
3508 1 7.6401476489413840e+00 2.8160235529215210e+00 3.7442225629811205e+01 1 1 -1
6383 1 9.6053976890929551e+00 4.1232308437692904e+00 3.6758952010936859e+01 1 0 0
3700 1 7.9871472386409454e+00 3.3237643561755088e+00 4.0430985354395652e+01 -1 -1 -1
2160 1 8.7520188161890133e-01 4.1482626217749718e+00 4.2738582855981974e+01 1 0 -1
467 1 1.1922984422142218e+01 2.6446511648323070e+00 3.7846574495643729e+01 -1 1 0
3886 1 9.2834753763768205e+00 1.0071191592611890e+00 3.9550366690106770e+01 0 -1 -1
3840 1 9.2384181067829618e-01 1.5474540098914258e+00 4.1964886138125912e+01 0 0 -1
5368 1 5.1452650545613148e+00 4.0975572664626778e+00 3.7570803344376813e+01 1 -1 -1
5242 1 2.1891699667204692e+00 2.4818384757294698e+00 3.9745933481719668e+01 0 -1 -1
5180 1 2.5812571070896100e+00 7.7135523342233183e+00 3.7568675580598281e+01 1 0 0
73 1 4.6328438488675943e+00 6.5816076839648812e+00 3.6375506379875020e+01 0 1 -1
3141 1 6.6585098149751181e+00 8.5124579108412934e+00 3.6075644552515136e+01 1 0 0
6371 1 9.0480892619437387e+00 6.8863801382751157e+00 3.5908093302919468e+01 0 0 0
6360 1 1.1627861831081450e+01 7.8798656869032682e+00 3.5772534555602178e+01 0 0 0
558 1 9.7361239814744973e+00 5.7690445821045353e+00 3.9532164587472700e+01 0 2 0
5233 1 2.7710058081452589e+00 1.1301995270724932e+01 3.9557069014394138e+01 1 -2 -1
5528 1 1.4692876677510607e+00 8.9153948572745669e+00 3.9856635753192364e+01 0 2 -1
3968 1 2.4062403434612003e+00 9.5298551289484532e+00 3.5623088375509369e+01 1 0 0
6400 1 5.7088676337473485e+00 1.1014401186334483e+01 3.9683775280904641e+01 1 0 0
4700 1 6.4612520633067270e+00 1.0927179322300903e+01 3.7272373858866708e+01 1 1 0
1725 1 8.6324174691005862e+00 8.0562202674945596e+00 3.8709737113665334e+01 0 1 -1
1658 1 5.9506190219140933e+00 1.0682528229683786e+01 4.4121190909529503e+01 0 0 0
72 1 1.1298078107339441e+01 1.0711661286822144e+01 3.6186902329003416e+01 2 0 -1
1794 1 1.0590381624030584e+01 1.0056147203854010e+01 3.9020766778268069e+01 0 0 0
428 1 5.6072196444609066e+00 2.4962992653015199e+00 4.1178707228055316e+01 0 1 -1
47 1 1.2042691372833881e+01 3.0476404714743111e-01 3.9006482393109472e+01 1 2 -1
6469 1 2.7138877773195600e+00 1.1877839120893176e+01 3.6827240540542910e+01 0 0 0
4895 1 6.9172313612763414e+00 8.7009350861766321e-01 3.5672624492844804e+01 1 1 0
175 1 9.2136643965729235e+00 9.6902287221466228e+00 4.3469255512085326e+01 1 0 -1
3349 1 4.7766644332304669e+00 1.9545106026880354e+00 4.3620983614345192e+01 -1 1 -1
1650 1 3.2752552387765288e+00 4.0702611226829379e+00 4.4659540521739316e+01 1 -1 0
6604 1 9.7869235880155969e+00 1.1689549257325107e+01 4.0977467232147049e+01 0 0 0
60 1 4.4802652101275697e+00 4.2958972561362013e-01 3.9802250364402276e+01 0 2 -1
4747 1 1.0459107986710123e+01 3.5325050276791430e+00 4.2903513080763702e+01 1 0 0
6559 1 2.4318559935624022e+00 6.9944714041815308e+00 4.2617578203544781e+01 1 1 -1
1630 1 6.6152477383116413e+00 8.3464678201505844e+00 4.0416128370054096e+01 0 1 0
2320 1 6.8771405992984631e+00 5.9934526423885686e+00 4.4858316265767620e+01 0 0 0
38 1 4.1483235049262914e+00 7.0237226247666156e+00 4.0281468406102967e+01 2 0 0
1437 1 4.2163108663003595e+00 4.2275522093678086e+00 3.9976157174621434e+01 1 1 0
3965 1 9.0529120324319834e+00 5.6677414449042924e+00 4.2542268618933363e+01 -1 1 0
5402 1 1.0992008385226491e+01 7.6309106488393930e+00 4.2908036066489345e+01 1 0 -1
97 1 4.4070911916468702e+00 1.0527770932420653e+00 3.6997816858978219e+01 -1 0 0
4839 1 6.7543760554661709e+00 8.4262275976058874e+00 4.3193539460669903e+01 0 1 0
80 1 3.4792338583108005e+00 1.1309674003921106e+01 4.5007510376725229e+01 0 0 0
4708 1 3.9691214429096811e-01 6.0387214584843347e+00 3.7098336236021893e+01 1 0 0
524 1 1.2099896134914813e+01 4.4480958259020218e+00 4.0307205715520503e+01 -1 0 -1
3816 1 2.3661869193863874e+00 4.2689927302711717e-01 4.3562658473413158e+01 2 2 -1
340 1 1.1957320857059500e+01 1.1856961653619093e+01 4.3174124429226289e+01 0 1 -1
1787 1 5.9709815158382575e+00 9.5021119949997228e+00 5.8384052629182271e+01 1 1 0
1612 1 1.0739309594836829e+01 2.5628570658910426e+00 4.7764816280976525e+01 0 0 0
5602 1 4.7903844725924074e+00 3.0051444166546863e+00 4.7004386478274277e+01 1 0 0