LAMMPS data file via write_data, version 16 Mar 2018, timestep = 6000000

6768 atoms
2 atom types

0.0000000000000000e+00 4.9219999999999999e+01 xlo xhi
0.0000000000000000e+00 4.9019635930410494e+01 ylo yhi
1.6593323106028990e-01 5.9896066768936983e+01 zlo zhi

Masses

1 18.015
2 12.01

Atoms # atomic

3817 1 1.2002495163480558e+00 3.2569586086834312e+00 1.1226045389292310e+00 0 2 0
5207 1 2.3583612277360633e+00 8.6457907887940344e-01 2.1741941403045972e+00 3 -1 0
1410 1 2.6635222917662813e+00 1.0042375967919241e+00 4.8911834578722484e+00 -4 0 1
3819 1 4.8759900397053526e+00 1.1348881121835590e+00 1.0065749511644495e+00 -1 -1 1
1362 1 6.4025062582701562e+00 3.4635060387971905e+00 1.6408066145177493e+00 0 2 1
3356 1 6.3298630268866471e+00 3.1884315996350718e+00 4.7236459396967705e+00 1 0 1
3615 1 1.0284340443334676e+01 1.3763780702950013e+00 2.1739800246069629e+00 -2 -1 0
325 1 9.0480849188630650e+00 3.6032500752792744e+00 1.1343154979283532e+00 1 -1 0
470 1 1.0085837736689248e+01 1.2439752654146110e+00 4.9867319845565143e+00 -1 -1 0
2153 1 2.6138692738263845e+00 5.1417484294196170e+00 2.1201012384945228e+00 2 -1 0
2097 1 1.2886087579391705e+00 7.6219840397681633e+00 1.4405020093366760e+00 2 1 0
3563 1 4.9210860316826865e+00 5.5638450583652199e+00 8.7832658830299937e-01 3 2 0
1893 1 5.9050666539922805e+00 7.6175776278184353e+00 2.1955857939063104e+00 1 -1 0
1517 1 9.9939878904444317e+00 5.9285919915684602e+00 2.2039893545955778e+00 1 3 1
5211 1 9.9906529423717636e+00 5.5871242908674263e+00 4.7535189368490638e+00 -1 -1 0
5169 1 8.4653505270014477e+00 8.0386305859961009e+00 1.1021320492523887e+00 -1 2 0
5161 1 4.2047788202026890e+00 1.2174042106325009e+01 8.5069128816541024e+00 2 1 0
397 1 2.6507762985602326e+00 9.5966670012302995e+00 2.2477306068721656e+00 1 1 0
3844 1 2.4273414840607899e+00 9.7204119728194804e+00 5.0225681294750677e+00 1 2 0
5150 1 5.0404474856209083e+00 9.8429555161975699e+00 1.2197931182850207e+01 -1 0 1
359 1 5.0043991430187837e+00 9.7238679534442909e+00 1.4101002105235134e+00 3 -1 0
1413 1 1.0261410750132688e+01 1.0144306023680290e+01 1.9053269353183719e+00 -4 2 1
3781 1 1.0382008239425303e+01 9.9684675747561755e+00 4.6935660550384890e+00 2 1 0
622 1 1.5742051416443588e+00 3.0752031194596441e+00 9.7124981670401276e+00 -1 2 1
6 1 6.3615938061876842e-01 5.5655319450890222e+00 8.9472582196500099e+00 1 -1 0
3865 1 1.6090665978691248e+00 1.2249193659350642e+01 1.2399526036680392e+01 1 -1 0
3197 1 3.9904021350800845e+00 3.2722402623428350e+00 8.5209013251674666e+00 3 1 0
3565 1 3.9819006463360291e+00 2.9930046570054434e+00 5.7784406400900172e+00 2 2 0
251 1 5.1974185581767811e+00 9.7813687651607184e-01 9.3263011730808731e+00 2 0 0
4978 1 7.2578480312892513e+00 8.6989323154144416e-01 5.6801629459711478e+00 0 1 1
5289 1 7.6376124861575665e+00 1.1771357458174554e+00 8.3100465426011674e+00 1 1 1
5117 1 1.1208531468742658e+01 3.6456447486802852e+00 5.7875408492410161e+00 1 2 0
3863 1 1.1628414547625345e+01 3.4566222401719680e+00 8.6135603861068759e+00 2 0 0
3688 1 9.1226062754275379e+00 3.1395488021023712e+00 9.4026747400822188e+00 2 -1 0
4899 1 2.7088008863657245e+00 5.1616080905005974e+00 4.8794089336597368e+00 0 1 1
3255 1 1.5451057255960545e+00 7.8763864677974329e+00 9.7061192490474539e+00 2 1 1
617 1 4.1315907185068124e+00 7.6381410689069096e+00 8.3910990827423113e+00 3 0 0
3921 1 3.9665304819205889e+00 7.5092215573313394e+00 5.6507094105669893e+00 0 -3 1
3473 1 8.4128291592734231e-02 1.0038562672547188e+01 8.6572226599811657e+00 0 4 0
1746 1 4.9059709171512278e-01 5.5089694583866109e+00 6.0948519231863987e+00 0 1 0
1813 1 6.4030736181029848e+00 7.4841239212866650e+00 4.9666705371042541e+00 1 0 0
3762 1 5.2049525675620520e+00 5.3297780182355270e+00 9.4054835447095826e+00 2 -3 0
2196 1 7.7795818207922816e+00 5.5104291114989303e+00 8.5279031420143436e+00 -2 -1 1
4740 1 7.6409329419591980e+00 5.3047078209903935e+00 5.8906200243325193e+00 1 1 1
66 1 1.1194197502217559e+01 7.7519270771321418e+00 8.5253251962025374e+00 0 0 0
2206 1 9.9626406847503652e+00 1.0020023219809964e+01 1.3231688655280470e+01 0 -1 0
3647 1 2.4721963312786313e-01 8.7537459172575804e-01 8.7271911067905688e+00 1 -2 0
1367 1 8.6935565939028780e+00 1.1912520473392329e+01 9.6241261849979605e+00 -3 0 1
72 1 1.1255056053269969e+01 1.2220451072038266e+01 8.4825935643065087e+00 3 2 0
1874 1 2.5233091687702913e+00 9.8621944815931020e+00 1.3285585928476841e+01 0 1 0
152 1 4.8646286343955936e+00 1.0074791437295074e+01 9.5212729185317446e+00 0 -1 0
326 1 7.3918869844251027e+00 9.6018296078860690e+00 8.5533102148642310e+00 0 -1 0
158 1 7.7816136533633680e+00 9.6802731461984681e+00 5.6460714673472818e+00 -1 -1 0
3488 1 1.1316761467296445e+01 7.7781657782433351e+00 5.7773796443249310e+00 -1 2 0
1548 1 8.9126020519901079e+00 7.6723305132633985e+00 9.8300519780393216e+00 -2 0 1
6550 1 3.0720369290867540e+00 8.6234288889302169e-01 1.3278264726438765e+01 2 -1 1
3492 1 1.8129499664237358e+00 3.2364041182834926e+00 1.2426306697464561e+01 2 1 1
2189 1 5.2927713624776045e+00 9.3927809017012964e-01 1.1963826693308640e+01 1 -1 0
1971 1 6.7347254131594099e+00 2.8828680061308680e+00 1.3158262619855400e+01 0 3 0
4928 1 1.0173825012701380e+01 9.8762680325421748e-01 1.3096865496138289e+01 0 0 0
6700 1 9.0940947586608392e+00 3.1538235424652759e+00 1.2100634506132746e+01 3 -1 0
324 1 2.8935113053464563e+00 5.5277472601600772e+00 1.3471804558821660e+01 -2 1 0
6692 1 1.3912313778624432e+00 7.4943737245527373e+00 1.2390619203905237e+01 3 -3 0
1447 1 6.2279148088566547e+00 7.4808746463556757e+00 1.3207314166709661e+01 -1 -1 1
5357 1 5.3039209873977065e+00 5.0888451744402490e+00 1.2248728857900302e+01 0 3 0
6513 1 8.6915413477050958e+00 7.4779291281370295e+00 1.2360004988956421e+01 0 1 1
5142 1 1.0115411701999728e+01 5.3469491944278396e+00 1.3232682189572541e+01 -1 -1 1
6669 1 1.6411525207038611e+00 1.1640946227786696e+01 1.5131209146840874e+00 1 1 1
1835 1 1.8726264991177066e-01 7.5219759838041667e-01 6.0807010391891110e+00 2 3 1
3708 1 6.5692082473799243e+00 1.1938872076832777e+01 5.0554961276829271e+00 -2 2 0
3106 1 6.2554240463345687e+00 1.1842963874117739e+01 1.3404066225967753e+01 -2 0 1
6702 1 6.3771832468171885e+00 1.2038801266043201e+01 2.2308624908573922e+00 -1 1 1
3491 1 3.9703914409534251e+00 1.1798827834582818e+01 5.9798007287430046e+00 1 0 0
5001 1 2.8786330312849970e+00 6.5000979626422228e-01 1.5946247642423494e+01 -1 2 1
78 1 1.4922436063449176e+00 1.1771442336104611e+01 2.0615352049745685e+01 3 -1 1
1981 1 5.9383558400711733e-01 5.5805919418108862e-01 1.9658732825751787e+01 -1 2 0
4886 1 3.9731513371699969e+00 3.0055721822526138e+00 1.6767822122364475e+01 1 -2 1
3314 1 4.1525105468987444e+00 2.8280646449982076e+00 1.9503930646382582e+01 1 1 0
1382 1 6.5830495719904567e+00 3.0950931096746723e+00 1.5908887860772753e+01 0 1 1
1961 1 8.1152139669099164e+00 9.8451872501468851e-01 1.6694007096488789e+01 -2 0 0
606 1 7.7040988484001254e+00 8.5906409874806966e-01 1.9330445969862510e+01 -2 -2 1
6463 1 1.1384333691319368e+01 3.2072935440222778e+00 1.6994782002046779e+01 2 1 1
3516 1 1.0697326717267973e+01 7.3164748188931239e-01 1.5931512366766151e+01 2 0 0
5417 1 1.1551538297196602e+01 3.2090433996458199e+00 1.9404535520919673e+01 0 0 0
4826 1 2.7232984501058040e+00 5.2574376327316656e+00 1.6213691639409905e+01 2 -2 1
5094 1 3.8397309944526823e+00 7.5637540392769411e+00 1.9864725290465604e+01 -1 -2 0
1508 1 3.5448821306447198e+00 7.6567041538855944e+00 1.7248177442217525e+01 1 0 1
3448 1 1.0894526148633176e+01 1.2216132769543158e+01 1.7023144071795432e+01 1 -3 0
5373 1 5.9490571275621624e+00 7.6386978539541666e+00 1.6045758059576421e+01 0 -1 0
1719 1 7.5474541407610536e+00 5.5017147173031118e+00 1.7067692684765330e+01 1 1 0
5301 1 7.4059461114274070e+00 5.4291290525833737e+00 1.9738793728612023e+01 1 0 0
1377 1 9.9555054309069657e+00 5.5805394678886824e+00 1.5846043110786416e+01 1 0 1
3734 1 1.1042222810124924e+01 7.8073902555126704e+00 1.6807473026732620e+01 0 1 0
3031 1 1.1452151521852738e+01 7.5601088059369603e+00 1.9517083476991537e+01 0 0 1
5176 1 2.3467682766789317e+00 9.7753167919449329e+00 1.6091963651470920e+01 2 -1 1
798 2 8.6134999999999984e+00 1.0656442593567498e+01 3.0030999999998564e+01 0 0 0
844 2 1.1074500000000002e+01 1.0656442593567498e+01 2.6840565735106765e+01 0 0 0
4747 1 6.3474216931904053e+00 1.1655337042736907e+01 2.4396106344082053e+01 2 -2 1
6518 1 2.1866111057146023e-01 6.4219602193505476e-01 1.6917333482650577e+01 2 -3 1
511 1 7.3098689744960543e+00 9.8275428303624857e+00 1.6855840992755663e+01 -3 -2 1
3881 1 7.4078072175624810e+00 9.6276938528983642e+00 1.9729632915607930e+01 0 1 1
164 1 5.0751079508849948e+00 9.5703622752768123e+00 2.0859872607691784e+01 2 -1 0
800 2 9.8440000000000012e+00 9.9460130873296642e+00 3.0030999999998564e+01 0 0 0
1625 1 9.7587825906993508e+00 9.9610511288172976e+00 1.5923968870028542e+01 2 2 1
756 2 8.6134999999999984e+00 9.2355835810918343e+00 2.6840565735106765e+01 0 0 0
6632 1 3.0161399457443285e+00 3.1423226719921038e-01 2.3886966754879630e+01 -1 0 1
6389 1 1.4086219453494875e+00 2.9279524886700115e+00 2.0440599850327821e+01 0 -1 1
1850 1 1.3059383586662363e+00 2.6137766438773999e+00 2.3313236034559409e+01 2 0 0
3964 1 5.3499842954550703e+00 3.0770602361884802e-01 2.3079866061515002e+01 0 4 1
4960 1 5.1563335072588412e+00 5.7633217675268766e-01 2.0288927118620368e+01 -2 4 1
5569 1 6.5887710238768893e+00 2.4707010560060705e+00 2.4276133934130030e+01 -2 2 0
5317 1 8.7633947214711085e+00 3.3143447784112889e+00 2.0452449718010456e+01 1 0 0
5183 1 9.0219106118910073e+00 2.9448356803221509e+00 2.3200030576250370e+01 3 -1 0
1522 1 1.0625566832528477e+01 6.5235154149486052e-01 2.3589338486469899e+01 2 -1 0
3735 1 1.3219223631194321e+00 7.5171002965735942e+00 2.1008675172375959e+01 1 -1 0
3518 1 2.4114136209101420e+00 4.7133663123661185e+00 2.4355911998110304e+01 4 2 1
3774 1 1.3584012240734200e+00 7.2230738417484899e+00 2.3525719536328324e+01 0 -3 0
4847 1 4.9101686532799036e+00 5.2073947185870431e+00 2.0858406855927427e+01 -1 2 1
396 1 4.9801294433403598e+00 4.7077685903531918e+00 2.3649192881582270e+01 0 2 0
3344 1 6.3673190980585996e+00 6.7610923202717146e+00 2.4473361039881173e+01 1 1 0
2194 1 8.7053644784349462e+00 7.5008173073280391e+00 2.0476344746504619e+01 0 -2 0
2286 1 1.0190660572779736e+01 4.9707701229262389e+00 2.4219085515763911e+01 5 2 1
132 1 8.6796794860047211e+00 7.1796393900071580e+00 2.3117479137360029e+01 -1 -1 0
2180 1 1.0977807240772210e+01 1.2238745367127249e+01 1.9889739656466265e+01 2 -1 1
232 1 2.6657310754176482e+00 9.2793378698935225e+00 2.4604876079796419e+01 3 0 0
3190 1 1.4677492459262476e+00 1.1633845121962985e+01 2.3483311595496790e+01 0 0 1
5000 1 3.8873851013507092e+00 1.1954356822934411e+01 1.7172248674660032e+01 0 1 1
1820 1 5.2031170881585620e+00 9.1750777711052933e+00 2.3664981167879077e+01 5 3 1
796 2 8.6135000000000002e+00 1.2077301606043163e+01 3.0030999999998564e+01 0 0 0
6658 1 8.3606154822287699e+00 1.1984195225183933e+01 2.0852433482359956e+01 1 2 0
5025 1 1.0021071573502176e+01 9.2278629992648238e+00 2.4347599577052737e+01 -2 -2 0
623 2 0.0000000000000000e+00 2.8417180249513345e+00 2.6840565735106765e+01 0 0 0
625 2 0.0000000000000000e+00 0.0000000000000000e+00 2.6840565735106765e+01 0 0 0
627 2 1.2305000000000001e+00 7.1042950623783474e-01 2.6840565735106765e+01 0 0 0
634 2 1.2305000000000001e+00 2.1312885187134998e+00 2.6840565735106765e+01 0 0 0
636 2 2.4610000000000003e+00 2.8417180249513345e+00 2.6840565735106765e+01 0 0 0
638 2 2.4610000000000003e+00 0.0000000000000000e+00 2.6840565735106765e+01 0 0 0
640 2 3.6915000000000004e+00 7.1042950623783474e-01 2.6840565735106765e+01 0 0 0
655 2 3.6914999999999996e+00 2.1312885187134998e+00 2.6840565735106765e+01 0 0 0
624 2 0.0000000000000000e+00 1.4208590124756650e+00 3.0030999999998564e+01 0 0 0
626 2 0.0000000000000000e+00 0.0000000000000000e+00 3.0030999999998564e+01 0 0 0
633 2 1.2305000000000001e+00 3.5521475311891644e+00 3.0030999999998564e+01 0 0 0
635 2 1.2305000000000001e+00 2.1312885187134998e+00 3.0030999999998564e+01 0 0 0
637 2 2.4610000000000003e+00 1.4208590124756650e+00 3.0030999999998564e+01 0 0 0
639 2 2.4610000000000003e+00 0.0000000000000000e+00 3.0030999999998564e+01 0 0 0
654 2 3.6914999999999996e+00 3.5521475311891644e+00 3.0030999999998564e+01 0 0 0
656 2 3.6914999999999996e+00 2.1312885187134998e+00 3.0030999999998564e+01 0 0 0
657 2 4.9220000000000006e+00 2.8417180249513332e+00 2.6840565735106765e+01 0 0 0
659 2 4.9220000000000006e+00 0.0000000000000000e+00 2.6840565735106765e+01 0 0 0
661 2 6.1524999999999999e+00 7.1042950623783407e-01 2.6840565735106765e+01 0 0 0
684 2 6.1524999999999999e+00 2.1312885187134989e+00 2.6840565735106765e+01 0 0 0
686 2 7.3829999999999991e+00 2.8417180249513345e+00 2.6840565735106765e+01 0 0 0
688 2 7.3829999999999991e+00 0.0000000000000000e+00 2.6840565735106765e+01 0 0 0
658 2 4.9220000000000006e+00 1.4208590124756650e+00 3.0030999999998564e+01 0 0 0
660 2 4.9220000000000006e+00 0.0000000000000000e+00 3.0030999999998564e+01 0 0 0
683 2 6.1524999999999999e+00 3.5521475311891644e+00 3.0030999999998564e+01 0 0 0
685 2 6.1524999999999999e+00 2.1312885187134989e+00 3.0030999999998564e+01 0 0 0
687 2 7.3829999999999991e+00 1.4208590124756659e+00 3.0030999999998564e+01 0 0 0
689 2 7.3829999999999991e+00 0.0000000000000000e+00 3.0030999999998564e+01 0 0 0
690 2 8.6134999999999984e+00 7.1042950623783407e-01 2.6840565735106765e+01 0 0 0
721 2 8.6134999999999984e+00 2.1312885187135002e+00 2.6840565735106765e+01 0 0 0
723 2 9.8440000000000012e+00 2.8417180249513332e+00 2.6840565735106765e+01 0 0 0
725 2 9.8440000000000012e+00 0.0000000000000000e+00 2.6840565735106765e+01 0 0 0
727 2 1.1074500000000002e+01 7.1042950623783330e-01 2.6840565735106765e+01 0 0 0
766 2 1.1074500000000002e+01 2.1312885187135002e+00 2.6840565735106765e+01 0 0 0
720 2 8.6134999999999984e+00 3.5521475311891657e+00 3.0030999999998564e+01 0 0 0
722 2 8.6134999999999984e+00 2.1312885187135002e+00 3.0030999999998564e+01 0 0 0
724 2 9.8440000000000012e+00 1.4208590124756659e+00 3.0030999999998564e+01 0 0 0
726 2 9.8440000000000012e+00 0.0000000000000000e+00 3.0030999999998564e+01 0 0 0
765 2 1.1074500000000002e+01 3.5521475311891644e+00 3.0030999999998564e+01 0 0 0
767 2 1.1074500000000002e+01 2.1312885187135002e+00 3.0030999999998564e+01 0 0 0
628 2 0.0000000000000000e+00 7.1042950623783341e+00 2.6840565735106765e+01 0 0 0
630 2 0.0000000000000000e+00 4.2625770374269996e+00 2.6840565735106765e+01 0 0 0
632 2 1.2305000000000001e+00 4.9730065436648339e+00 2.6840565735106765e+01 0 0 0
647 2 1.2305000000000001e+00 6.3938655561404980e+00 2.6840565735106765e+01 0 0 0
649 2 2.4610000000000003e+00 7.1042950623783341e+00 2.6840565735106765e+01 0 0 0
651 2 2.4610000000000003e+00 4.2625770374269996e+00 2.6840565735106765e+01 0 0 0
653 2 3.6914999999999996e+00 4.9730065436648339e+00 2.6840565735106765e+01 0 0 0
676 2 3.6914999999999996e+00 6.3938655561404980e+00 2.6840565735106765e+01 0 0 0
629 2 0.0000000000000000e+00 5.6834360499026637e+00 3.0030999999998564e+01 0 0 0
631 2 0.0000000000000000e+00 4.2625770374269996e+00 3.0030999999998564e+01 0 0 0
646 2 1.2305000000000001e+00 7.8147245686161639e+00 3.0030999999998564e+01 0 0 0
648 2 1.2305000000000001e+00 6.3938655561404980e+00 3.0030999999998564e+01 0 0 0
650 2 2.4610000000000003e+00 5.6834360499026637e+00 3.0030999999998564e+01 0 0 0
652 2 2.4610000000000003e+00 4.2625770374269996e+00 3.0030999999998564e+01 0 0 0
675 2 3.6914999999999996e+00 7.8147245686161639e+00 3.0030999999998564e+01 0 0 0
677 2 3.6914999999999996e+00 6.3938655561404980e+00 3.0030999999998564e+01 0 0 0
678 2 4.9220000000000006e+00 7.1042950623783341e+00 2.6840565735106765e+01 0 0 0
680 2 4.9220000000000006e+00 4.2625770374269978e+00 2.6840565735106765e+01 0 0 0
682 2 6.1524999999999999e+00 4.9730065436648339e+00 2.6840565735106765e+01 0 0 0
713 2 6.1524999999999999e+00 6.3938655561404980e+00 2.6840565735106765e+01 0 0 0
715 2 7.3830000000000009e+00 7.1042950623783341e+00 2.6840565735106765e+01 0 0 0
717 2 7.3829999999999991e+00 4.2625770374269996e+00 2.6840565735106765e+01 0 0 0
679 2 4.9220000000000006e+00 5.6834360499026637e+00 3.0030999999998564e+01 0 0 0
681 2 4.9220000000000006e+00 4.2625770374269978e+00 3.0030999999998564e+01 0 0 0
712 2 6.1524999999999999e+00 7.8147245686161639e+00 3.0030999999998564e+01 0 0 0
714 2 6.1524999999999999e+00 6.3938655561404980e+00 3.0030999999998564e+01 0 0 0
716 2 7.3829999999999991e+00 5.6834360499026637e+00 3.0030999999998564e+01 0 0 0
718 2 7.3829999999999991e+00 4.2625770374269996e+00 3.0030999999998564e+01 0 0 0
719 2 8.6135000000000002e+00 4.9730065436648339e+00 2.6840565735106765e+01 0 0 0
758 2 8.6135000000000002e+00 6.3938655561404980e+00 2.6840565735106765e+01 0 0 0
760 2 9.8440000000000012e+00 7.1042950623783341e+00 2.6840565735106765e+01 0 0 0
762 2 9.8440000000000012e+00 4.2625770374270004e+00 2.6840565735106765e+01 0 0 0
764 2 1.1074500000000002e+01 4.9730065436648339e+00 2.6840565735106765e+01 0 0 0
805 2 1.1074500000000002e+01 6.3938655561404980e+00 2.6840565735106765e+01 0 0 0
757 2 8.6135000000000002e+00 7.8147245686161639e+00 3.0030999999998564e+01 0 0 0
759 2 8.6135000000000002e+00 6.3938655561404980e+00 3.0030999999998564e+01 0 0 0
761 2 9.8440000000000012e+00 5.6834360499026637e+00 3.0030999999998564e+01 0 0 0
763 2 9.8440000000000012e+00 4.2625770374270004e+00 3.0030999999998564e+01 0 0 0
804 2 1.1074500000000002e+01 7.8147245686161639e+00 3.0030999999998564e+01 0 0 0
806 2 1.1074500000000002e+01 6.3938655561404980e+00 3.0030999999998564e+01 0 0 0
641 2 0.0000000000000000e+00 1.1366872099805333e+01 2.6840565735106765e+01 0 0 0
643 2 0.0000000000000000e+00 8.5251540748539991e+00 2.6840565735106765e+01 0 0 0
645 2 1.2305000000000001e+00 9.2355835810918343e+00 2.6840565735106765e+01 0 0 0
668 2 1.2305000000000001e+00 1.0656442593567498e+01 2.6840565735106765e+01 0 0 0
670 2 2.4610000000000003e+00 1.1366872099805333e+01 2.6840565735106765e+01 0 0 0
672 2 2.4610000000000003e+00 8.5251540748539991e+00 2.6840565735106765e+01 0 0 0
674 2 3.6915000000000004e+00 9.2355835810918343e+00 2.6840565735106765e+01 0 0 0
705 2 3.6914999999999996e+00 1.0656442593567499e+01 2.6840565735106765e+01 0 0 0
642 2 0.0000000000000000e+00 9.9460130873296642e+00 3.0030999999998564e+01 0 0 0
644 2 0.0000000000000000e+00 8.5251540748539991e+00 3.0030999999998564e+01 0 0 0
667 2 1.2305000000000001e+00 1.2077301606043163e+01 3.0030999999998564e+01 0 0 0
669 2 1.2305000000000001e+00 1.0656442593567498e+01 3.0030999999998564e+01 0 0 0
671 2 2.4610000000000003e+00 9.9460130873296642e+00 3.0030999999998564e+01 0 0 0
673 2 2.4610000000000003e+00 8.5251540748539991e+00 3.0030999999998564e+01 0 0 0
704 2 3.6914999999999996e+00 1.2077301606043163e+01 3.0030999999998564e+01 0 0 0
706 2 3.6914999999999996e+00 1.0656442593567499e+01 3.0030999999998564e+01 0 0 0
711 2 6.1524999999999999e+00 9.2355835810918343e+00 2.6840565735106765e+01 0 0 0
709 2 4.9220000000000006e+00 8.5251540748539991e+00 2.6840565735106765e+01 0 0 0
707 2 4.9220000000000006e+00 1.1366872099805333e+01 2.6840565735106765e+01 0 0 0
750 2 6.1524999999999999e+00 1.0656442593567499e+01 2.6840565735106765e+01 0 0 0
752 2 7.3829999999999991e+00 1.1366872099805333e+01 2.6840565735106765e+01 0 0 0
754 2 7.3830000000000009e+00 8.5251540748539991e+00 2.6840565735106765e+01 0 0 0
708 2 4.9220000000000006e+00 9.9460130873296642e+00 3.0030999999998564e+01 0 0 0
749 2 6.1524999999999999e+00 1.2077301606043163e+01 3.0030999999998564e+01 0 0 0
710 2 4.9220000000000006e+00 8.5251540748539991e+00 3.0030999999998564e+01 0 0 0
751 2 6.1524999999999999e+00 1.0656442593567499e+01 3.0030999999998564e+01 0 0 0
753 2 7.3830000000000009e+00 9.9460130873296642e+00 3.0030999999998564e+01 0 0 0
755 2 7.3830000000000009e+00 8.5251540748539991e+00 3.0030999999998564e+01 0 0 0
846 2 1.2304999999999998e+01 1.1366872099805333e+01 2.6840565735106765e+01 0 0 0
799 2 9.8440000000000012e+00 1.1366872099805333e+01 2.6840565735106765e+01 0 0 0
843 2 1.1074500000000002e+01 1.2077301606043163e+01 3.0030999999998564e+01 0 0 0
801 2 9.8440000000000012e+00 8.5251540748539956e+00 2.6840565735106765e+01 0 0 0
797 2 8.6134999999999984e+00 1.0656442593567498e+01 2.6840565735106765e+01 0 0 0
803 2 1.1074500000000002e+01 9.2355835810918343e+00 2.6840565735106765e+01 0 0 0
802 2 9.8440000000000012e+00 8.5251540748539956e+00 3.0030999999998564e+01 0 0 0
845 2 1.1074500000000002e+01 1.0656442593567498e+01 3.0030999999998564e+01 0 0 0
1830 1 8.9024146403650963e+00 1.1711488191551105e+01 2.3489861452311278e+01 -3 2 0
6597 1 6.2274345926159320e+00 1.2082675958748590e+01 1.6113865977412761e+01 1 0 1
1923 1 3.9080733431411341e+00 1.1761899287989410e+01 1.9862179238584954e+01 -1 1 0
2222 1 2.0977369643574523e-01 4.9870069293719341e+00 1.7143669033543652e+01 4 1 0
24 1 1.9222310479563642e-01 5.3236037108142940e+00 1.9912370726312492e+01 2 -2 1
952 2 0.0000000000000000e+00 2.8417180249513345e+00 3.3221434264897567e+01 0 0 0
953 2 0.0000000000000000e+00 0.0000000000000000e+00 3.3221434264897567e+01 0 0 0
954 2 1.2305000000000001e+00 7.1042950623783474e-01 3.3221434264897567e+01 0 0 0
958 2 1.2305000000000001e+00 2.1312885187134998e+00 3.3221434264897567e+01 0 0 0
959 2 2.4610000000000003e+00 2.8417180249513345e+00 3.3221434264897567e+01 0 0 0
960 2 2.4610000000000003e+00 0.0000000000000000e+00 3.3221434264897567e+01 0 0 0
961 2 3.6915000000000004e+00 7.1042950623783474e-01 3.3221434264897567e+01 0 0 0
969 2 3.6914999999999996e+00 2.1312885187134998e+00 3.3221434264897567e+01 0 0 0
970 2 4.9220000000000006e+00 2.8417180249513332e+00 3.3221434264897567e+01 0 0 0
971 2 4.9220000000000006e+00 0.0000000000000000e+00 3.3221434264897567e+01 0 0 0
972 2 6.1524999999999999e+00 7.1042950623783407e-01 3.3221434264897567e+01 0 0 0
984 2 6.1524999999999999e+00 2.1312885187134989e+00 3.3221434264897567e+01 0 0 0
985 2 7.3829999999999991e+00 2.8417180249513345e+00 3.3221434264897567e+01 0 0 0
986 2 7.3829999999999991e+00 0.0000000000000000e+00 3.3221434264897567e+01 0 0 0
987 2 8.6134999999999984e+00 7.1042950623783407e-01 3.3221434264897567e+01 0 0 0
1003 2 8.6134999999999984e+00 2.1312885187135002e+00 3.3221434264897567e+01 0 0 0
1004 2 9.8440000000000012e+00 2.8417180249513332e+00 3.3221434264897567e+01 0 0 0
1005 2 9.8440000000000012e+00 0.0000000000000000e+00 3.3221434264897567e+01 0 0 0
1006 2 1.1074500000000002e+01 7.1042950623783330e-01 3.3221434264897567e+01 0 0 0
1026 2 1.1074500000000002e+01 2.1312885187135002e+00 3.3221434264897567e+01 0 0 0
955 2 0.0000000000000000e+00 7.1042950623783341e+00 3.3221434264897567e+01 0 0 0
956 2 0.0000000000000000e+00 4.2625770374269996e+00 3.3221434264897567e+01 0 0 0
957 2 1.2305000000000001e+00 4.9730065436648339e+00 3.3221434264897567e+01 0 0 0
965 2 1.2305000000000001e+00 6.3938655561404980e+00 3.3221434264897567e+01 0 0 0
966 2 2.4610000000000003e+00 7.1042950623783341e+00 3.3221434264897567e+01 0 0 0
967 2 2.4610000000000003e+00 4.2625770374269996e+00 3.3221434264897567e+01 0 0 0
968 2 3.6914999999999996e+00 4.9730065436648339e+00 3.3221434264897567e+01 0 0 0
980 2 3.6914999999999996e+00 6.3938655561404980e+00 3.3221434264897567e+01 0 0 0
981 2 4.9220000000000006e+00 7.1042950623783341e+00 3.3221434264897567e+01 0 0 0
982 2 4.9220000000000006e+00 4.2625770374269978e+00 3.3221434264897567e+01 0 0 0
983 2 6.1524999999999999e+00 4.9730065436648339e+00 3.3221434264897567e+01 0 0 0
999 2 6.1524999999999999e+00 6.3938655561404980e+00 3.3221434264897567e+01 0 0 0
1000 2 7.3830000000000009e+00 7.1042950623783341e+00 3.3221434264897567e+01 0 0 0
1001 2 7.3829999999999991e+00 4.2625770374269996e+00 3.3221434264897567e+01 0 0 0
1002 2 8.6135000000000002e+00 4.9730065436648339e+00 3.3221434264897567e+01 0 0 0
1022 2 8.6135000000000002e+00 6.3938655561404980e+00 3.3221434264897567e+01 0 0 0
1023 2 9.8440000000000012e+00 7.1042950623783341e+00 3.3221434264897567e+01 0 0 0
1024 2 9.8440000000000012e+00 4.2625770374270004e+00 3.3221434264897567e+01 0 0 0
1025 2 1.1074500000000002e+01 4.9730065436648339e+00 3.3221434264897567e+01 0 0 0
1046 2 1.1074500000000002e+01 6.3938655561404980e+00 3.3221434264897567e+01 0 0 0
962 2 0.0000000000000000e+00 1.1366872099805333e+01 3.3221434264897567e+01 0 0 0
963 2 0.0000000000000000e+00 8.5251540748539991e+00 3.3221434264897567e+01 0 0 0
964 2 1.2305000000000001e+00 9.2355835810918343e+00 3.3221434264897567e+01 0 0 0
976 2 1.2305000000000001e+00 1.0656442593567498e+01 3.3221434264897567e+01 0 0 0
977 2 2.4610000000000003e+00 1.1366872099805333e+01 3.3221434264897567e+01 0 0 0
978 2 2.4610000000000003e+00 8.5251540748539991e+00 3.3221434264897567e+01 0 0 0
979 2 3.6915000000000004e+00 9.2355835810918343e+00 3.3221434264897567e+01 0 0 0
995 2 3.6914999999999996e+00 1.0656442593567499e+01 3.3221434264897567e+01 0 0 0
996 2 4.9220000000000006e+00 1.1366872099805333e+01 3.3221434264897567e+01 0 0 0
997 2 4.9220000000000006e+00 8.5251540748539991e+00 3.3221434264897567e+01 0 0 0
998 2 6.1524999999999999e+00 9.2355835810918343e+00 3.3221434264897567e+01 0 0 0
1018 2 6.1524999999999999e+00 1.0656442593567499e+01 3.3221434264897567e+01 0 0 0
1019 2 7.3829999999999991e+00 1.1366872099805333e+01 3.3221434264897567e+01 0 0 0
1020 2 7.3830000000000009e+00 8.5251540748539991e+00 3.3221434264897567e+01 0 0 0
1021 2 8.6134999999999984e+00 9.2355835810918343e+00 3.3221434264897567e+01 0 0 0
1042 2 8.6134999999999984e+00 1.0656442593567498e+01 3.3221434264897567e+01 0 0 0
1043 2 9.8440000000000012e+00 1.1366872099805333e+01 3.3221434264897567e+01 0 0 0
1044 2 9.8440000000000012e+00 8.5251540748539956e+00 3.3221434264897567e+01 0 0 0
1045 2 1.1074500000000002e+01 9.2355835810918343e+00 3.3221434264897567e+01 0 0 0
1066 2 1.1074500000000002e+01 1.0656442593567498e+01 3.3221434264897567e+01 0 0 0
1067 2 1.2304999999999998e+01 1.1366872099805333e+01 3.3221434264897567e+01 0 0 0
5330 1 3.9829142412353056e+00 3.4246660135758473e+00 3.6470860298627017e+01 0 0 -1
6418 1 3.8894661244056183e+00 3.2485592557968603e+00 3.9200591823016055e+01 0 1 0
3286 1 2.8515922745427220e+00 8.7451848143555566e-01 3.5980883751219807e+01 0 1 -1
6731 1 2.7313566363878046e+00 9.4047739787481677e-01 4.0121051720932954e+01 -1 2 -1
1596 1 7.5546353447303023e+00 1.0468789284405272e+01 4.3905378708801280e+01 1 0 0
6415 1 2.1843731558813861e-01 1.2613067001441276e+00 4.3779948614600798e+01 0 -1 0
3717 1 7.7901700125238706e+00 1.3770029270142889e+00 3.9275625351853435e+01 0 2 -1
151 1 6.4533384840831687e+00 3.8124863858885152e+00 3.5469612979226241e+01 3 2 -1
6492 1 7.6179964540321166e+00 1.5577766141755487e+00 3.6705656586040718e+01 1 -1 -1
1425 1 1.0137165671466065e+01 1.6119996278071109e+00 3.5882346492546844e+01 0 -1 0
3291 1 1.1645815061126745e+01 3.9031532126495816e+00 3.8843356493092784e+01 1 1 0
85 1 1.1685442147581698e+01 3.7296575498981341e+00 3.6176330890375937e+01 2 3 -1
6451 1 2.5824466165931286e+00 5.5553494009286251e+00 3.5475676504060459e+01 1 1 0
393 1 4.1085699703642469e+00 8.1134231384302797e+00 3.9224947970004322e+01 -1 2 -1
3105 1 4.0197162539220725e+00 7.7884055164099966e+00 3.6325763588284062e+01 -1 2 0
3672 1 1.0098138787537291e+01 1.0653138686470342e+01 4.2766463621957030e+01 0 -1 0
4934 1 7.8829312986045128e+00 5.7668168218704627e+00 3.9484966392234384e+01 -1 1 0
3958 1 7.8977545868059496e+00 5.6210299933259114e+00 3.6615496761645687e+01 -1 1 0
5643 1 6.6450313711987468e+00 8.0112721248700041e+00 3.5948393228691273e+01 1 0 0
3854 1 6.6871954359296213e+00 8.1681835267816272e+00 4.0008836412116239e+01 -1 -3 -1
3219 1 1.0634794482453160e+01 6.1501108118716372e+00 3.5894201751834927e+01 -1 1 -1
3368 1 1.1656763506784252e+01 8.3990065598340760e+00 3.6650659452472411e+01 0 3 -1
5478 1 1.0601523117376193e+01 5.8786143392535584e+00 4.0131061169588378e+01 1 -2 -1
5413 1 2.8463654706209942e+00 1.0475571018031943e+01 3.5784916615362846e+01 -2 -1 -1
4783 1 7.7113637531171477e+00 1.0620097920456011e+01 3.9163092239570204e+01 0 -1 0
3354 1 7.3484254883493465e+00 1.0642534971173882e+01 3.6590423098269497e+01 -1 1 -1
3593 1 1.1627453984164683e+01 8.4435973089292595e+00 3.9362883383723855e+01 -1 -1 -1
3226 1 9.9105803954759342e+00 1.0215808958146161e+01 3.5768464321585810e+01 1 2 -1
4875 1 1.0150010687652804e+01 1.0686935492650427e+01 3.9999984396160087e+01 -1 -1 0
35 1 2.8229831240654069e-01 3.2914297003411591e-01 3.6663631326107136e+01 0 2 -1
5513 1 2.9716680365962334e+00 1.3001084110948091e+00 4.3037256394562007e+01 1 1 -1
2186 1 6.2268373736533604e+00 3.6013119270070999e+00 4.0215735735854878e+01 3 1 -1
1780 1 3.9530642857140235e+00 3.6822874337408198e+00 4.3621543591292976e+01 -1 -3 -1
13 1 7.9289896196815910e+00 1.4700323847046655e+00 4.3534692000467004e+01 -1 1 -1
5102 1 6.5584499135769860e+00 3.5026539882979457e+00 4.2698177577765918e+01 0 2 0
6440 1 1.0660455507424652e+01 1.5379460270451024e+00 3.9833237131026209e+01 -1 1 0
5043 1 1.0625177178630208e+01 1.6451667994985828e+00 4.2466183348083590e+01 2 3 0
3682 1 1.1582137937195377e+01 3.8870405862193227e+00 4.3409602340603641e+01 -1 -2 -1
5264 1 2.9937580528895054e+00 5.6400385714063379e+00 4.0164125124200410e+01 2 3 -1
2237 1 2.9125841290423717e+00 5.8953988852523844e+00 4.2988752147936637e+01 1 -1 0
6587 1 1.1697226438153063e+01 8.4303573024087939e+00 4.3708271595571077e+01 -2 4 0
5403 1 3.9070415788792361e+00 8.2756397091236558e+00 4.4028115503138281e+01 2 -1 -1
5334 1 6.3959209618134114e+00 8.1553819745999689e+00 4.2667064741384763e+01 1 2 -1
387 1 7.8992916808956251e+00 6.0678776258005316e+00 4.3309070629639095e+01 -2 1 -1
96 1 1.0428019810826720e+01 6.2416641282035386e+00 4.2692372970837042e+01 0 -2 -1
3046 1 3.0692204556595994e+00 1.0324512444364826e+01 4.0120901713922592e+01 -1 -1 0
1474 1 2.9391032191838939e+00 1.0298817164315548e+01 4.2798628955309582e+01 1 0 0
405 1 2.9561025627940818e-01 5.7643251710405483e+00 3.6837007671675281e+01 -1 0 -1
223 1 1.6728018753658272e-01 9.2529660496563260e-01 3.9554314795308983e+01 1 2 -1