
# Create simulation box and atoms

read_data data.graphite_substrate_1000
  orthogonal box = (0 0 -1.03859) to (49.22 49.0196 61.1006)
  4 by 4 by 4 MPI processor grid
  reading atoms ...
  6768 atoms
  reading velocities ...
  6768 velocities
group water type 1
4008 atoms in group water
group graphite type 2
2760 atoms in group graphite

# Define potential

pair_style sw
pair_coeff * * mWC.sw mW C
Reading potential file mWC.sw with DATE: 2019-02-27


# Fix graphite atoms in place

fix 5 graphite setforce 0.0 0.0 0.0
velocity graphite set 0.0 0.0 0.0


# Equilibration of molecular water

# Add velocity/set timestep

velocity	    water create ${TEMP} ${SEED} rot yes dist gaussian
velocity	    water create 225 ${SEED} rot yes dist gaussian
velocity	    water create 225 3793 rot yes dist gaussian
timestep	    5.0

# Define output

compute			1 water msd
compute			3 water temp
thermo	    	50
thermo_style	custom step temp press vol etotal ke pe c_1[4] c_3

# Neighbor lists

neigh_modify    delay 0 every 1 check yes

# Set fixes

fix             1 water momentum 10 linear 1 1 1 rescale
fix             2 water nve
fix             3 water temp/csvr ${TEMP} ${TEMP} 500.0 ${SEED}
fix             3 water temp/csvr 225 ${TEMP} 500.0 ${SEED}
fix             3 water temp/csvr 225 225 500.0 ${SEED}
fix             3 water temp/csvr 225 225 500.0 3793
fix             4 water press/berendsen z ${PRES} ${PRES} 1000.0 modulus 20000
fix             4 water press/berendsen z -1000 ${PRES} 1000.0 modulus 20000
fix             4 water press/berendsen z -1000 -1000 1000.0 modulus 20000

# Run 0.5 ns equilibration

dump		    1 all atom 2000 ${DIR}/eq.${NAME}-${TEMP}.dump
dump		    1 all atom 2000 run_13/eq.${NAME}-${TEMP}.dump
dump		    1 all atom 2000 run_13/eq.het_freeze_13-${TEMP}.dump
dump		    1 all atom 2000 run_13/eq.het_freeze_13-225.dump

reset_timestep  0

run	            100000
Neighbor list info ...
  update every 1 steps, delay 0 steps, check yes
  max neighbors/atom: 2000, page size: 100000
  master list distance cutoff = 7.76
  ghost atom cutoff = 7.76
  binsize = 3.88, bins = 13 13 17
  1 neighbor lists, perpetual/occasional/extra = 1 0 0
  (1) pair sw, perpetual
      attributes: full, newton on
      pair build: full/bin/atomonly
      stencil: full/bin/3d
      bin: standard
Per MPI rank memory allocation (min/avg/max) = 4.083 | 4.202 | 4.508 Mbytes
Step Temp Press Volume TotEng KinEng PotEng c_1[4] c_3 
       0    133.23112   -1309.3276    149926.08   -35971.017    2687.4238   -38658.441            0          225 
      50    177.56754   -1820.0488    149539.66   -36318.043      3581.74   -39899.783   0.88378598     299.8751 
     100    168.19448   -1567.7972     149218.4   -36748.645    3392.6746   -40141.319    1.9764313    284.04593 
     150    165.73228   -1828.8693     148859.6   -37026.493    3343.0093   -40369.502    2.8572463    279.88778 
     200    156.96997   -1741.6364    148378.15   -37359.062    3166.2635   -40525.326    3.6553557    265.09004 
     250    155.04132   -1609.8337    147989.82   -37627.895    3127.3604   -40755.255    4.3496717    261.83294 
     300    150.87969   -1582.0492    147667.58   -37907.591    3043.4157   -40951.007     4.997179    254.80481 
     350    149.19467   -1685.1441    147326.42   -38120.219    3009.4269   -41129.646    5.7851057    251.95916 
     400    144.78068   -1677.4673     147012.6   -38296.619    2920.3915   -41217.011    6.4708718    244.50483 
     450    142.93867   -1519.4213    146773.07   -38386.496    2883.2361   -41269.733    7.0453149    241.39405 
     500    142.49407   -1517.4143    146588.13   -38468.758    2874.2681   -41343.026     7.602382    240.64322 
     550    143.46599   -1391.7149    146403.48   -38568.551    2893.8727   -41462.424     8.081803    242.28458 
     600    142.45615   -1409.0263    146309.05   -38692.311    2873.5032   -41565.814    8.5653135    240.57918 
     650    141.52191   -1273.9577     146093.2   -38779.262    2854.6584    -41633.92    8.9923458    239.00143 
     700    138.18645   -1285.2582    145931.41   -38843.092    2787.3784    -41630.47     9.439717    233.36852 
     750     139.7574   -1449.7107    145787.11   -38865.143    2819.0663   -41684.209     9.890711    236.02155 
     800    138.35254   -1249.4109    145668.74       -38916    2790.7286   -41706.729    10.293497    233.64902 
     850    141.02707   -1419.7471    145590.03   -38970.392     2844.677   -41815.069    10.623171    238.16576 
     900    135.91038    -1403.483    145511.88   -39047.497    2741.4675   -41788.964     10.87944    229.52472 
     950    136.13325   -1408.3641    145386.47   -39111.041    2745.9631   -41857.004     11.14166     229.9011 
    1000    137.07555   -1090.4587    145339.19   -39134.064    2764.9704   -41899.034    11.494635    231.49245 
    1050    138.49274   -995.34745    145378.96   -39154.726    2793.5566   -41948.283    11.815911    233.88579 
    1100    136.03954   -1255.7428    145343.72   -39216.936    2744.0729   -41961.009    12.206386    229.74285 
    1150    138.07713   -1290.9238    145307.82   -39186.753    2785.1733   -41971.927    12.429864    233.18391 
    1200    136.96234   -1103.4082    145288.91   -39245.512    2762.6867   -42008.198     12.66157    231.30126 
    1250     137.9869   -1100.0506    145232.96    -39329.74    2783.3534   -42113.093    13.026723    233.03154 
    1300    134.72301   -1327.7859    145185.84   -39375.354    2717.5168   -42092.871    13.203175    227.51949 
    1350    132.80342   -1386.6068    145046.05   -39431.081    2678.7966   -42109.878    13.564858     224.2777 
    1400    133.05259   -1081.9082    144942.46   -39452.896    2683.8226   -42136.719    13.896268     224.6985 
    1450     132.3677   -1120.7846    144933.67   -39468.285    2670.0075   -42138.292    14.043553    223.54185 
    1500    134.91599   -1199.4839    144912.76   -39449.656    2721.4094   -42171.065    14.260593    227.84539 
    1550    134.89149   -1349.5152    144911.88   -39479.439    2720.9154   -42200.354     14.41351    227.80402 
    1600    137.17917   -1043.7827    144894.87   -39456.808    2767.0604   -42223.869    14.727917    231.66743 
    1650    133.61474   -1128.6249    144905.69   -39486.479    2695.1619   -42181.641    14.997641    225.64786 
    1700    135.35834   -880.31991       144893    -39475.77    2730.3322   -42206.102    15.220373    228.59244 
    1750    135.08885   -1074.9696    144911.47   -39504.644    2724.8963    -42229.54    15.471773    228.13732 
    1800    134.05777    -1145.202    144882.89   -39520.521    2704.0982   -42224.619    15.771677    226.39604 
    1850    133.43568   -1077.0182    144780.67   -39528.069      2691.55   -42219.619    15.963079    225.34546 
    1900    133.42981     -1136.85    144712.44   -39533.673    2691.4317   -42225.104    16.235444    225.33555 
    1950    133.53686   -1046.6421     144749.1   -39559.495    2693.5909   -42253.086    16.513956    225.51633 
    2000    131.23621   -1196.0195    144706.32   -39593.059    2647.1842   -42240.243    16.809316    221.63101 
    2050    134.03032   -1186.9156    144654.83   -39582.446    2703.5446   -42285.991    17.009458    226.34968 
    2100     134.6224   -1107.9248    144758.82    -39554.98    2715.4876   -42270.467    17.259481    227.34959 
    2150    133.85889   -1357.5982    144754.95   -39548.954    2700.0867   -42249.041      17.4572    226.06017 
    2200    135.42226   -1057.6651    144751.84   -39533.116    2731.6216   -42264.738    17.793958    228.70039 
    2250    134.52078   -1097.3197    144773.92   -39521.292    2713.4377    -42234.73    18.035309    227.17797 
    2300    133.72767   -1098.6005    144854.76   -39533.417    2697.4397   -42230.856    18.264876    225.83857 
    2350    134.77212   -1148.9213    144898.25   -39526.945    2718.5076   -42245.453     18.57991    227.60243 
    2400    133.05131   -1264.1719    144878.11   -39586.295    2683.7968   -42270.092    18.860069    224.69634 
    2450    134.38102   -1091.5235    144917.44   -39572.336    2710.6186   -42282.955    19.114741    226.94195 
    2500    135.58139   -1194.6084    144946.94   -39537.872    2734.8313   -42272.703    19.275781    228.96911 
    2550    134.64166   -1032.2405    144968.59    -39583.91     2715.876   -42299.786      19.3612    227.38211 
    2600    133.18379   -1295.9215    144967.86   -39593.943    2686.4692   -42280.412    19.447948    224.92007 
    2650    135.38933   -950.83543    144994.48   -39524.722    2730.9574    -42255.68    19.688069    228.64478 
    2700    134.79387    -1146.273    144996.24   -39545.741    2718.9462   -42264.687    19.816115    227.63916 
    2750    133.80565   -1216.2958     144987.2   -39587.403    2699.0128   -42286.416    19.989536    225.97027 
    2800    136.68349    -997.9176    145091.05   -39580.917     2757.062   -42337.979    20.114766    230.83034 
    2850    133.05121   -1172.5955    145114.98   -39601.461    2683.7947   -42285.256    20.348117    224.69616 
    2900    132.82556   -1165.5991    145118.27   -39654.798    2679.2431   -42334.042    20.752597    224.31509 
    2950    134.26733   -1065.4173    145151.43   -39655.799    2708.3253   -42364.124    20.910575    226.74994 
    3000    133.12892   -1107.3915    145252.96   -39679.068    2685.3622    -42364.43    20.978984    224.82739 
    3050    133.01921   -1275.8323     145165.3   -39689.982    2683.1493   -42373.131    21.155583    224.64212 
    3100    131.15953   -1227.6562    145086.78   -39738.987    2645.6374   -42384.625    21.334933    221.50151 
    3150    132.93173   -1141.6565    145088.55   -39711.419    2681.3848   -42392.804    21.447037    224.49439 
    3200    132.32344   -1069.4429     145091.2   -39698.796    2669.1149   -42367.911    21.758689    223.46712 
    3250    130.78533   -1122.8926    145179.35   -39740.945    2638.0895   -42379.035    21.939112    220.86957 
    3300     134.9561   -1239.3925    145228.65   -39751.413    2722.2186   -42473.632    22.190071    227.91314 
    3350    133.63591   -1113.8746    145254.27   -39821.445    2695.5888   -42517.034    22.322067     225.6836 
    3400    131.81089   -1082.0242    145321.96   -39824.447    2658.7761   -42483.223    22.467139    222.60151 
    3450    132.14888   -1133.6402    145380.78   -39841.509    2665.5938   -42507.103    22.749185    223.17232 
    3500    133.77189   -895.84523    145495.67   -39803.462    2698.3318   -42501.793    22.870929    225.91326 
    3550    134.62775   -1340.7711    145487.28   -39797.145    2715.5953   -42512.741    22.979209    227.35861 
    3600    134.10427   -1253.8903    145427.34   -39774.023    2705.0361    -42479.06    23.270242    226.47456 
    3650    133.76502   -1129.3899    145433.52   -39774.451    2698.1931   -42472.644    23.453304    225.90164 
    3700    134.03991   -1131.2993     145493.5    -39843.56     2703.738   -42547.298    23.619669    226.36588 
    3750    133.36846    -1097.729    145538.89   -39828.298    2690.1942   -42518.492     23.86686    225.23194 
    3800    133.24032   -1186.9961    145579.28   -39782.052    2687.6094   -42469.662    24.035444    225.01554 
    3850    132.75506    -1208.912    145582.82   -39787.184    2677.8212   -42465.005    24.133212    224.19604 
    3900    132.08524   -1085.5851    145673.33   -39785.292    2664.3101   -42449.603    24.261874    223.06485 
    3950    132.15026   -1381.2397    145693.12   -39819.622    2665.6216   -42485.244    24.525455    223.17465 
    4000    132.12761   -1428.0841    145591.17   -39873.669    2665.1648   -42538.834    24.671574     223.1364 
    4050    132.16337   -1104.4917    145587.25   -39860.223    2665.8861   -42526.109    24.808059    223.19679 
    4100    132.62197   -1275.4417    145617.29   -39831.769    2675.1365   -42506.906    24.957124    223.97126 
    4150    132.71424   -950.14479    145643.12   -39833.525    2676.9977   -42510.522    25.109629    224.12709 
    4200    130.25984   -1141.0296    145651.09   -39894.373    2627.4897   -42521.862    25.203385    219.98212 
    4250    132.98343   -1391.1061    145669.06   -39908.315    2682.4276   -42590.743    25.332161     224.5817 
    4300    133.64557   -1039.9346    145659.16   -39867.876    2695.7837    -42563.66    25.419388    225.69991 
    4350    132.26517   -1297.3331    145715.01   -39905.435    2667.9396   -42573.374    25.454713    223.36871 
    4400    133.12055   -1043.3493    145757.45   -39877.102    2685.1934   -42562.295    25.620632    224.81326 
    4450    132.11078   -1111.4423    145915.73   -39902.028    2664.8252   -42566.853    25.860988    223.10797 
    4500    129.82648   -1216.9504    145845.61   -39969.288    2618.7483   -42588.036    26.006903    219.25026 
    4550    132.07338   -1103.4189    145780.16   -39998.873    2664.0709   -42662.944    26.168993    223.04482 
    4600    130.23372   -1155.4165    145772.93   -39955.927    2626.9627   -42582.889    26.303174      219.938 
    4650    132.29167   -1130.6214    145748.24   -39949.499    2668.4741   -42617.974     26.26137    223.41346 
    4700    131.90748   -1313.0496    145740.18   -39974.196    2660.7245    -42634.92    26.348234    222.76464 
    4750    131.06858   -1124.9911    145661.75   -40022.909    2643.8029   -42666.712    26.447611    221.34791 
    4800    132.05099   -1161.9244    145695.68   -40036.345    2663.6193   -42699.965    26.505773    223.00701 
    4850    129.56619   -1062.3337    145661.11   -40010.972     2613.498    -42624.47     26.64946    218.81069 
    4900    129.36009   -947.39954    145684.83   -40004.632    2609.3406   -42613.973    26.666052    218.46262 
    4950    132.94068   -969.26769    145690.56   -39974.027    2681.5654   -42655.592    26.761444    224.50951 
    5000    133.95025   -1042.9459    145696.87   -39891.183    2701.9294   -42593.112     26.92834    226.21446 
    5050    134.62356   -1069.7016    145641.89   -39854.694     2715.511   -42570.205    27.096205    227.35155 
    5100    134.40618   -1165.8293    145564.08   -39874.051    2711.1261   -42585.177    27.249813    226.98443 
    5150    134.39733   -1096.9864    145530.46   -39848.174    2710.9475   -42559.121    27.285136    226.96948 
    5200    133.82179    -973.1208    145520.71   -39812.183    2699.3383   -42511.521     27.29515    225.99752 
    5250    135.57095   -1079.3454    145562.01   -39826.665    2734.6208   -42561.286    27.326928    228.95149 
    5300    131.21893    -1008.567    145596.12   -39853.358    2646.8356   -42500.193    27.539276    221.60182 
    5350    135.27104   -996.85587    145698.74   -39825.815    2728.5713   -42554.386    27.683716    228.44501 
    5400     133.3077   -1011.9723    145720.59   -39912.498    2688.9684   -42601.467    27.772852    225.12932 
    5450    135.34016   -1127.7176    145744.23    -39854.78    2729.9655   -42584.745    27.893019    228.56173 
    5500    134.01079   -1051.9563     145822.2   -39857.449    2703.1505     -42560.6    28.068871    226.31669 
    5550    131.50854   -1247.3564    145856.14   -39919.681    2652.6773   -42572.358    28.250535    222.09091 
    5600    134.43569   -1144.4773    145807.62   -39886.295    2711.7214   -42598.016    28.383311    227.03427 
    5650    134.97488   -998.46214    145897.53   -39907.634    2722.5974   -42630.231    28.536131    227.94485 
    5700    132.31248   -992.84999     145983.6   -39952.815    2668.8938   -42621.709    28.603786     223.4486 
    5750    133.32186    -1094.042    146079.79   -39957.117    2689.2542   -42646.371    28.762372    225.15324 
    5800    127.84487   -1291.2517    146023.33   -39958.192    2578.7769   -42536.969    29.018006    215.90372 
    5850    133.63533   -1178.0459    145983.19   -39845.682    2695.5772   -42541.259    29.119386    225.68263 
    5900    131.52857   -1112.6067    145998.45   -39883.359    2653.0815    -42536.44    29.296563    222.12474 
    5950     131.5832   -1345.9634    145948.65    -39823.14    2654.1833   -42477.323    29.364996    222.21699 
    6000    134.34084   -1125.6231    145954.25   -39820.845    2709.8081   -42530.653    29.563519    226.87409 
    6050    132.40662   -1391.4141     145874.8   -39819.868    2670.7926    -42490.66    29.780767    223.60758 
    6100    133.38245   -1157.5246    145867.97   -39823.696    2690.4762   -42514.172    29.960236    225.25556 
    6150    133.23762   -1216.5117    145756.47   -39836.037    2687.5548   -42523.592    30.058731    225.01097 
    6200    131.79369   -1081.7163    145694.17   -39832.514    2658.4291   -42490.943    30.408318    222.57247 
    6250    135.96649   -1123.4827    145784.97   -39832.387    2742.5994   -42574.987    30.553086    229.61948 
    6300    133.42693   -1242.7422    145776.57   -39807.225    2691.3734   -42498.598    30.715267    225.33068 
    6350    137.17415   -1071.8067    145779.17   -39802.944    2766.9592   -42569.903    30.732497    231.65896 
    6400    139.70174   -973.13796    145847.93   -39733.975    2817.9435   -42551.919    30.859451    235.92754 
    6450    133.62466   -826.34918    145835.78   -39738.104     2695.362   -42433.466    30.990258    225.66461 
    6500     136.2924   -1059.0008    145958.12   -39698.124    2749.1733   -42447.297    31.180913    230.16987 
    6550    135.89373   -996.23355    145970.01   -39703.499    2741.1316    -42444.63    31.433312    229.49659 
    6600    132.60773   -1253.8213    145974.82   -39724.483    2674.8494   -42399.332     31.73844    223.94723 
    6650    134.95686    -1290.284    145932.49   -39781.972     2722.234   -42504.206    31.909964    227.91442 
    6700    129.11989    -1184.605    145852.99   -39778.006    2604.4956   -42382.502    32.047081    218.05697 
    6750     134.1266   -1361.3892    145780.46   -39799.661    2705.4867   -42505.148    32.204161    226.51229 
    6800    135.26922   -1151.6749    145815.07   -39770.328    2728.5346   -42498.863    32.353736    228.44193 
    6850    134.08957   -1239.1295    145755.88   -39785.088    2704.7397   -42489.828    32.495237    226.44974 
    6900     132.2225   -1194.9286    145766.47    -39764.55    2667.0788   -42431.629    32.487123    223.29665 
    6950    134.35248    -1277.947    145724.77   -39768.982    2710.0428   -42479.025    32.705733    226.89374 
    7000    135.87161   -1358.7268    145733.61   -39763.711    2740.6856   -42504.397    32.915579    229.45925 
    7050    131.90063   -1314.9587    145726.17   -39780.104    2660.5864    -42440.69     33.16007    222.75308 
    7100     130.6107   -1256.4506    145721.17   -39773.812    2634.5668   -42408.379    33.410163    220.57464 
    7150    134.05642   -1206.9271    145784.78   -39759.786    2704.0711   -42463.857    33.532957    226.39377 
    7200    133.69194   -1117.9149    145807.52   -39788.291     2696.719    -42485.01    33.674401    225.77822 
    7250    133.39192   -1178.5888    145825.07   -39784.393    2690.6674    -42475.06    33.669046    225.27156 
    7300    131.48828   -1179.0316    145793.22   -39781.866    2652.2688   -42434.135     33.82548     222.0567 
    7350    131.64382   -1099.3765    145829.37   -39736.209    2655.4061   -42391.616       33.712    222.31937 
    7400    133.71287   -1321.4698     145814.3   -39725.872    2697.1412   -42423.013    33.749346    225.81357 
    7450    137.32326   -1119.2269    145798.91   -39707.829     2769.967   -42477.796    33.718861    231.91079 
    7500    132.33753   -1092.6122     145780.5   -39726.214     2669.399   -42395.613    34.037781     223.4909 
    7550    135.77832   -1068.0818    145684.37   -39718.862    2738.8037   -42457.666    34.267706    229.30169 
    7600    135.81783   -1132.3722    145655.84   -39742.988    2739.6006   -42482.589    34.443355    229.36841 
    7650    135.90254   -1185.1685    145546.25   -39772.551    2741.3094   -42513.861    34.684155    229.51148 
    7700    132.99746   -1257.8565    145530.44   -39765.921    2682.7106   -42448.632    34.770628     224.6054 
    7750    135.32541   -1176.8764    145488.48    -39802.78     2729.668   -42532.448     35.01016    228.53682 
    7800    133.34983   -1272.4828    145465.64   -39797.613    2689.8182   -42487.431    35.125181    225.20047 
    7850    130.01024   -1310.2572    145374.27    -39843.98    2622.4549   -42466.435    35.276105    219.56059 
    7900    133.66542   -1112.4076    145339.15     -39820.3    2696.1842   -42516.484    35.421887    225.73344 
    7950    132.05907   -1211.8129    145390.28   -39796.683    2663.7822   -42460.465    35.486241    223.02064 
    8000    133.08733    -1219.406    145408.75   -39846.252    2684.5234   -42530.775     35.54104    224.75717 
    8050    130.35628    -1023.125    145380.63   -39824.412     2629.435   -42453.847    35.748877    220.14499 
    8100    133.92596   -1059.7465    145421.44   -39893.725    2701.4394   -42595.165    35.843715    226.17343 
    8150    131.02369   -1211.4924    145389.04   -39909.606    2642.8974   -42552.503    35.884018     221.2721 
    8200    133.39272   -1142.8928    145379.45   -39902.874    2690.6835   -42593.558    36.017476    225.27291 
    8250    131.99186   -1124.6216    145421.35   -39873.253    2662.4265   -42535.679    36.265457    222.90714 
    8300    131.55328   -1125.7333    145420.35   -39901.578    2653.5798   -42555.158    36.298787    222.16647 
    8350    133.14714   -905.57609    145499.95     -39870.6    2685.7298   -42556.329    36.258677    224.85817 
    8400    132.93401   -1191.6904    145530.33   -39886.414    2681.4307   -42567.845    36.370091    224.49824 
    8450    131.98236     -1019.24    145550.38   -39881.608    2662.2348   -42543.842    36.650926    222.89109 
    8500    136.03739   -1257.4044    145550.92    -39888.85    2744.0294    -42632.88    36.837388     229.7392 
    8550    132.00072   -965.34279    145562.05   -39901.619    2662.6051   -42564.225    36.917422     222.9221 
    8600    133.92504   -1055.6524    145699.09   -39855.141    2701.4209   -42556.562    36.956769    226.17188 
    8650    133.70874   -1053.0534    145763.75   -39867.072     2697.058    -42564.13    37.147949     225.8066 
    8700    136.99851   -1127.9141     145876.1   -39849.685    2763.4162   -42613.101    37.287737    231.36234 
    8750    133.78722    -996.6404    145852.82    -39886.55    2698.6409   -42585.191    37.476768    225.93914 
    8800    134.20612   -1175.4218    145874.56   -39898.523    2707.0906   -42605.613    37.540524    226.64656 
    8850    131.92554   -1309.7947    145773.74   -39998.019    2661.0887   -42659.107    37.691794    222.79514 
    8900    131.04353   -1046.0444    145738.81   -39976.296    2643.2976   -42619.594    37.863239     221.3056 
    8950     129.4265   -1099.5397    145731.73   -40059.561    2610.6803   -42670.241    37.949919    218.57478 
    9000    130.09246   -1116.3101    145688.63   -40053.385    2624.1134   -42677.498    38.079157    219.69944 
    9050    131.84443   -1214.1085    145668.49   -40055.373    2659.4526   -42714.825    38.153919    222.65816 
    9100     131.8148   -1058.1343    145691.97   -40015.044     2658.855   -42673.899    38.192705    222.60812 
    9150    131.79872   -1039.6506    145758.83   -39977.648    2658.5306   -42636.178    38.269335    222.58096 
    9200    130.19224   -1036.3499    145764.14   -39999.079    2626.1261   -42625.205    38.423745    219.86795 
    9250    132.52759   -1004.1116    145722.18   -39991.595    2673.2329   -42664.828    38.514803    223.81189 
    9300    131.77624   -961.30973    145780.61   -39935.555    2658.0772   -42593.632    38.652531    222.54301 
    9350    132.48761   -823.86575    145928.87   -39888.031    2672.4263   -42560.458    38.906151    223.74436 
    9400    133.03457   -940.81937    146053.14   -39884.323    2683.4592   -42567.782    38.991925    224.66806 
    9450    133.31041   -1173.5517    146185.36   -39856.932    2689.0231   -42545.955    38.974429     225.1339 
    9500    131.89351   -1023.3958    146265.44    -39838.36    2660.4428   -42498.803    38.986686    222.74106 
    9550     134.7134   -1253.1648    146278.94   -39835.901     2717.323   -42553.224    39.152317    227.50326 
    9600    137.57203   -1143.0681    146322.16   -39795.456    2774.9849   -42570.441    39.210975    232.33091 
    9650    134.19152   -1253.2029    146329.38   -39820.776    2706.7962   -42527.572    39.361237    226.62192 
    9700    135.63501   -969.71788    146421.16   -39790.031    2735.9131   -42525.944    39.550926    229.05968 
    9750    135.61903   -1217.4433    146470.41   -39850.304    2735.5907   -42585.894    39.568781    229.03269 
    9800     134.2361   -1115.2036    146411.77   -39870.223    2707.6954   -42577.919    39.600269     226.6972 
    9850    130.85228   -989.05859     146386.1   -39904.427    2639.4398   -42543.867     39.60618    220.98262 
    9900    129.41783   -1220.4268    146367.18   -39915.072    2610.5054   -42525.577    39.773166    218.56014 
    9950    131.41377   -1202.5669    146215.08   -39852.069    2650.7657   -42502.835    39.983857    221.93086 
   10000    136.38011   -1080.3877    146174.27   -39867.411    2750.9425   -42618.353    40.125903    230.31799 
   10050    134.70833   -1078.0562     146198.9   -39823.912    2717.2208   -42541.132    40.123095     227.4947 
   10100    135.92817   -1034.6729    146219.84   -39811.407    2741.8264   -42553.233    40.442261    229.55476 
   10150    132.53891   -1216.7245    146197.57   -39877.335    2673.4612   -42550.796     40.63682      223.831 
   10200    134.38876   -1012.1519     146242.1   -39833.865    2710.7747   -42544.639    40.760159    226.95501 
   10250    132.77725   -1127.7456    146331.93   -39851.126    2678.2688   -42529.395    40.764306    224.23351 
   10300    132.62269   -1042.0345    146354.53   -39850.626    2675.1511   -42525.777    40.951814    223.97249 
   10350    135.44597   -1131.7253    146363.57   -39775.925    2732.0999   -42508.025    41.076137    228.74043 
   10400    135.96371   -1210.5329    146389.07   -39767.743    2742.5433   -42510.286       41.247    229.61478 
   10450    133.76548   -1227.7485    146415.51   -39793.538    2698.2024    -42491.74    41.379661    225.90241 
   10500    135.77433   -1093.5765    146384.12   -39787.951    2738.7233   -42526.675    41.520405    229.29496 
   10550     136.2094   -1181.5576    146333.78   -39851.414    2747.4991   -42598.913    41.568132     230.0297 
   10600    135.31053   -1270.1001    146246.75   -39907.829    2729.3679   -42637.197    41.638372    228.51169 
   10650    132.93547   -1222.9526    146194.79    -39900.25    2681.4602    -42581.71    41.737782    224.50071 
   10700    130.39689   -1100.4175    146228.68    -39923.64    2630.2541   -42553.894    41.868874    220.21356 
   10750    131.99904   -1072.1538    146234.92   -39934.706    2662.5713   -42597.277    42.011388    222.91926 
   10800    132.36965   -1239.6998    146280.32   -39935.381    2670.0469   -42605.428    42.202605    223.54515 
   10850    131.32821   -1267.8725    146149.78   -39963.924    2649.0399   -42612.964    42.376345    221.78637 
   10900    131.40065   -1225.8337     146113.6   -39924.043    2650.5011   -42574.544    42.595324    221.90871 
   10950      133.938   -1159.7061    146161.37   -39863.329    2701.6824   -42565.011    42.549342    226.19378 
   11000    136.37953   -1184.6737    146182.29   -39831.287    2750.9308   -42582.218    42.748169    230.31701 
   11050    133.01075   -1231.2917    146178.23   -39875.495    2682.9786   -42558.474    42.907054    224.62784 
   11100    135.02279   -1154.1838    146140.31   -39835.814    2723.5638   -42559.378    42.939103    228.02575 
   11150    132.55159   -1244.4991    146027.59   -39844.999    2673.7169   -42518.716    43.032095    223.85241 
   11200    133.33142    -1196.654    145942.57   -39922.967    2689.4471   -42612.414    43.130792    225.16939 
   11250    130.99177   -1200.8367    145890.27   -39945.536    2642.2535   -42587.789    43.304918    221.21819 
   11300    130.43274    -1132.485    145884.12   -39988.615    2630.9773   -42619.592    43.510812    220.27411 
   11350    131.93293   -1199.2247    145893.81   -39966.754    2661.2379   -42627.992    43.593392    222.80763 
   11400    131.61669   -1078.2546    145891.64   -39953.219    2654.8588   -42608.078    43.786886    222.27355 
   11450    133.15297   -1052.1001    145941.96   -39907.928    2685.8474   -42593.776    43.884186    224.86801 
   11500    136.38434    -1147.362    145977.41   -39877.565    2751.0278   -42628.593    44.143907    230.32513 
   11550    135.71185   -969.30644    146036.22   -39875.681    2737.4629   -42613.144    44.391965    229.18944 
   11600    133.58667   -1009.6139     146068.3   -39863.658    2694.5956   -42558.253    44.778316    225.60044 
   11650    132.10254   -953.08183    146188.31   -39856.806    2664.6591   -42521.465    44.661159    223.09407 
   11700    132.92286   -1030.9347    146290.13   -39820.758    2681.2059   -42501.964    44.734991    224.47941 
   11750    134.89119    -1233.733    146279.47   -39830.865    2720.9092   -42551.774    45.015914    227.80351 
   11800    132.61437   -1074.4953    146279.81   -39844.335    2674.9833   -42519.318    45.148431    223.95844 
   11850    131.10388    -1176.061    146226.74   -39939.533    2644.5148   -42584.048    45.087019    221.40752 
   11900    128.64076   -1236.9468    146244.52   -39946.044    2594.8309   -42540.874    45.243459    217.24781 
   11950    133.02049    -1114.991    146209.78   -39900.365    2683.1752    -42583.54     45.44707    224.64429 
   12000    134.47938   -1365.1056    146204.29    -39905.57    2712.6027   -42618.173    45.613212    227.10806 
   12050    135.04077    -1158.229    146119.34   -39900.705    2723.9265   -42624.632    45.584363    228.05612 
   12100    133.69131   -1077.5182    146164.05   -39942.465    2696.7063   -42639.171    45.542091    225.77716 
   12150    132.95056   -1120.9451    146216.97   -39964.982    2681.7646   -42646.747    45.702213     224.5262 
   12200    131.82992   -1190.6389    146218.36   -39976.508      2659.16   -42635.668    45.928829    222.63366 
   12250    131.55905    -1324.119    146158.44   -39971.586    2653.6962   -42625.283    46.129623    222.17622 
   12300     133.9129   -1262.4848    146157.43   -39977.458    2701.1762   -42678.634    46.483651    226.15139 
   12350     130.4258   -1245.6623    146100.24   -40014.416    2630.8373   -42645.253    46.545706    220.26239 
   12400     131.9782   -1154.3204    146066.04   -40004.293    2662.1509   -42666.444    46.621522    222.88406 
   12450    129.63111   -1307.2704    146009.94   -40019.097    2614.8076   -42633.904    46.817849    218.92033 
   12500     134.8227   -1201.7245    145990.37   -40028.061    2719.5278   -42747.589    46.967828    227.68785 
   12550    134.54088   -1088.3391    146063.26   -40020.628    2713.8432   -42734.471    47.098383    227.21192 
   12600    131.78873   -1162.6797    146090.41   -40070.131    2658.3291    -42728.46    47.135923    222.56409 
   12650    132.82163   -1230.7446    146035.86   -40031.971    2679.1638   -42711.135    47.278269    224.30845 
   12700     131.2612    -1020.972    146032.49   -39992.619    2647.6883   -42640.307    47.321122    221.67321 
   12750    136.20156   -1088.6735    146115.49   -39958.589     2747.341    -42705.93    47.369964    230.01646 
   12800    134.55236   -1184.9323     146095.5   -39943.286    2714.0746    -42657.36    47.502018    227.23129 
   12850     132.8199   -1195.4522    146093.43   -39950.363     2679.129   -42629.492    47.753944    224.30553 
   12900    134.33324   -1082.5053    146065.87   -39926.257    2709.6548   -42635.912    47.870198    226.86125 
   12950    134.96455   -1194.0229    146103.36   -39901.384     2722.389   -42623.774    48.123152     227.9274 
   13000    134.20171   -931.77112    146149.79   -39973.122    2707.0017   -42680.124    48.150877    226.63913 
   13050    133.33587   -1382.6832    146127.96     -39977.9    2689.5368   -42667.436    48.412282     225.1769 
   13100    129.80611   -993.39681    146117.61    -39995.21    2618.3375   -42613.548     48.67792    219.21587 
   13150    132.91105    -1276.897    146150.19   -40002.673    2680.9677   -42683.641    48.705341    224.45947 
   13200    131.99723   -1111.3131     146215.6   -40014.006    2662.5347   -42676.541    48.808481     222.9162 
   13250    134.24761   -1251.8029    146209.22   -40003.787    2707.9276   -42711.715    49.024697    226.71665 
   13300    134.61989   -1130.9148    146216.65   -40018.061    2715.4368   -42733.498    49.231681    227.34534 
   13350    132.10759   -951.99638     146198.5    -40015.07    2664.7608   -42679.831    49.535486    223.10258 
   13400    132.24199   -1211.8373    146243.66   -40021.324     2667.472   -42688.796    49.609985    223.32956 
   13450    133.64449   -1138.2868    146226.48   -39996.095    2695.7619   -42691.857    49.604479    225.69809 
   13500    133.78022   -1114.4914    146256.22   -39921.665    2698.4997   -42620.164    49.771282    225.92731 
   13550    134.50951   -1179.6921    146358.87   -39892.185    2713.2104   -42605.396    49.902603    227.15894 
   13600    137.54695   -1065.2157    146437.12   -39904.008     2774.479   -42678.487    49.850364    232.28855 
   13650    135.28766   -1206.6151    146494.71   -39867.658    2728.9065   -42596.564    50.059495    228.47307 
   13700    134.02888   -1231.3513    146497.17   -39879.829    2703.5155   -42583.344    50.266801    226.34725 
   13750    136.87065   -1306.9744    146499.88   -39858.131    2760.8373   -42618.969     50.27926    231.14642 
   13800    133.27737   -1235.0682    146456.55   -39883.046    2688.3568   -42571.402    50.335833    225.07811 
   13850     133.5094   -1153.2732    146476.14   -39885.119     2693.037   -42578.156    50.404198    225.46995 
   13900    132.88396   -1190.2138    146436.33   -39878.249    2680.4213    -42558.67    50.608291    224.41372 
   13950    132.52123    -1330.608     146414.4   -39924.103    2673.1044   -42597.207    50.712297    223.80113 
   14000    133.98067   -1391.8679     146316.8   -39912.375    2702.5431   -42614.918    51.070416    226.26584 
   14050     132.8065   -1319.4516    146173.58    -39954.05    2678.8586   -42632.909    51.315148    224.28289 
   14100     134.3009   -1222.5689    146134.52   -39893.112    2709.0024   -42602.115    51.442018    226.80663 
   14150    135.01911    -1220.335    146078.65   -39881.351    2723.4896    -42604.84    51.477973    228.01954 
   14200    133.65805   -1229.9058    146078.32   -39893.751    2696.0355   -42589.786    51.628635      225.721 
   14250    131.13184   -1375.1395    146028.98   -39862.356    2645.0789   -42507.435    51.839628    221.45474 
   14300    131.39069   -1306.7476    146014.17    -39860.04    2650.3001    -42510.34    51.805171    221.89188 
   14350    131.23048   -1480.0277    145919.65   -39906.385    2647.0685   -42553.454    51.784358    221.62132 
   14400    130.70523   -1174.2952    145853.44   -39942.247    2636.4736   -42578.721    52.023863    220.73428 
   14450    129.95887    -1022.558    145909.09   -39929.241    2621.4189    -42550.66    52.118545    219.47385 
   14500    133.31984   -1120.5973    145924.44   -39919.206    2689.2134   -42608.419    52.217913    225.14983 
   14550    131.77181   -954.35616    146023.81   -39972.363    2657.9878   -42630.351    52.326519    222.53552 
   14600    130.57373    -1246.537    146067.03   -39924.154    2633.8213   -42557.975    52.584385    220.51222 
   14650    130.27429   -1119.9625    146004.18   -39954.375    2627.7811   -42582.157    52.799768    220.00652 
   14700    130.51803   -1120.5405    145936.76   -39965.968    2632.6976   -42598.665    52.900861    220.41814 
   14750    132.18867   -1090.0355    145958.71   -39883.436    2666.3964   -42549.833    53.002425    223.23951 
   14800    132.32812   -1126.8973    145955.03   -39867.929    2669.2093   -42537.138    53.120378    223.47502 
   14850    133.08847   -1074.6543    146040.09   -39875.181    2684.5464   -42559.728     53.39738    224.75909 
   14900    133.23378   -1191.1319    146145.02   -39866.302    2687.4775   -42553.779    53.595055     225.0045 
   14950    133.19695   -1151.5736       146212   -39911.691    2686.7345   -42598.426    53.744706    224.94229 
   15000    131.70292   -1277.9521    146201.58   -39921.145    2656.5983   -42577.744    53.552692    222.41918 
   15050    133.76261   -1326.1098    146155.21   -39910.766    2698.1446   -42608.911    53.741933    225.89758 
   15100    135.15089   -1193.3589     146116.5   -39904.251    2726.1478   -42630.398    54.070785     228.2421 
   15150    129.32757   -1301.9625    146061.87   -39964.073    2608.6847   -42572.758    54.238503     218.4077 
   15200    132.81987   -1299.7031     146012.4    -39942.28    2679.1284   -42621.408    54.305319    224.30548 
   15250    135.39152    -1300.927    145985.62       -39905    2731.0016   -42636.002    54.530613    228.64847 
   15300    135.82839   -1197.3326    145946.61   -39876.704    2739.8137   -42616.518    54.766174    229.38626 
   15350    134.62825   -1135.9708    145906.55   -39887.388    2715.6055   -42602.993    54.765886    227.35946 
   15400    134.89732   -1289.3501    145860.32   -39931.081    2721.0329   -42652.113    54.830755    227.81387 
   15450     131.8186   -1049.9842    145832.49     -39966.4    2658.9316   -42625.331    54.995577    222.61453 
   15500    129.42448   -1267.7915    145898.31   -39977.756    2610.6396   -42588.396    55.020768    218.57137 
   15550    132.11507   -1239.5351     145927.6   -39981.436    2664.9117   -42646.348    55.245899    223.11521 
   15600    132.20245   -985.85338    145943.03   -40011.767    2666.6744   -42678.442    55.549107    223.26279 
   15650    133.14485   -1320.3118       145961   -39981.239    2685.6836   -42666.923    55.596146     224.8543 
   15700    133.12511   -1098.0086    145881.45   -40003.509    2685.2854   -42688.794    55.862328    224.82097 
   15750      130.367   -1169.9605    145850.12   -40050.347    2629.6511   -42679.998    55.943307    220.16308 
   15800    133.87139   -1104.3215    145786.15   -40039.757    2700.3387   -42740.096    56.178271    226.08127 
   15850    130.51363   -1076.1704    145849.29    -39992.26    2632.6088   -42624.869    56.204828    220.41071 
   15900    129.14637   -1035.4861    145903.57   -40026.734    2605.0296   -42631.764    56.258699    218.10169 
   15950    129.89687   -1053.6149    145865.65   -40032.935    2620.1681   -42653.103    56.592436    219.36913 
   16000    132.21139   -1212.1763    145761.64   -40005.949    2666.8546   -42672.804    56.569861    223.27788 
   16050    128.71864   -1026.9596    145721.73   -39987.626     2596.402   -42584.028    56.729885    217.37935 
   16100    131.89765   -900.13742     145780.6   -39988.263    2660.5261   -42648.789    56.773341    222.74803 
   16150    130.83356    -1108.835    145811.65   -39970.027    2639.0624   -42609.089    56.889359    220.95102 
   16200    130.00198   -1063.7282    145802.77   -39967.496    2622.2883   -42589.784    57.123649    219.54664 
   16250    130.62825   -951.70162    145843.84   -39939.958     2634.921   -42574.879     57.35199    220.60429 
   16300    129.69152    -1022.548     145854.5    -39924.63    2616.0259   -42540.656    57.635108    219.02233 
   16350    133.60056    -1340.478    145777.43   -39905.025    2694.8759   -42599.901    57.570481    225.62391 
   16400    131.69885   -1037.9042    145744.69   -39921.615    2656.5162   -42578.131    57.829832    222.41231 
   16450    131.98633   -1074.1316    145742.21   -39933.735    2662.3149    -42596.05    58.006597     222.8978 
   16500    133.11504   -1067.6536    145773.24   -39904.455    2685.0824   -42589.538    58.181097    224.80397 
   16550    133.40279   -1240.9601    145788.56    -39876.41    2690.8865   -42567.296    58.202957    225.28991 
   16600    133.59117   -1186.3434    145824.91   -39886.216    2694.6865   -42580.902    58.190917    225.60805 
   16650    132.63337   -1210.7074    145807.19   -39919.289    2675.3665   -42594.655    58.356025    223.99052 
   16700    132.74846   -1331.5559    145768.38   -39908.671     2677.688   -42586.359    58.538851    224.18488 
   16750     134.1496   -1213.2152     145745.9   -39890.949    2705.9505     -42596.9    58.609551    226.55112 
   16800    134.95671   -993.22572    145869.38   -39889.806    2722.2308   -42612.037     58.87915    227.91416 
   16850    134.39547   -1259.9183    145953.32   -39876.036    2710.9101   -42586.946    59.103669    226.96635 
   16900    133.53867   -1170.0798    145880.59   -39811.923    2693.6275   -42505.551    59.352013    225.51939 
   16950    133.90928   -1131.8256    145869.44   -39843.074    2701.1031   -42544.177    59.735451    226.14527 
   17000    133.06969   -1080.2615     145909.7   -39903.059    2684.1676   -42587.226    59.840657    224.72738 
   17050    132.91746   -1198.1578    145876.06    -39911.17    2681.0969   -42592.267    59.967374    224.47029 
   17100    132.89469    -924.7836    145904.27   -39948.406    2680.6376   -42629.043    59.904195    224.43184 
   17150    134.78931   -1134.3357    145910.43   -39879.907    2718.8543   -42598.761    60.045402    227.63146 
   17200    132.83237   -1085.8069    145963.64   -39881.594    2679.3805   -42560.974    60.153696    224.32659 
   17250    136.38615   -992.44349    146069.02   -39899.231    2751.0643   -42650.295    60.135042    230.32819 
   17300    134.58645   -1248.1478    146049.63   -39917.892    2714.7624   -42632.655    60.209767    227.28888 
   17350    135.29693   -1095.1355    146058.23   -39865.594    2729.0935   -42594.688    60.230601    228.48873 
   17400    134.67599   -1138.7976    146080.98   -39786.211    2716.5685   -42502.779    60.537981    227.44009 
   17450    133.73897   -1214.4514    146125.72   -39830.613    2697.6677   -42528.281    60.727604    225.85765 
   17500    135.24158    -1190.242    146159.34   -39806.812    2727.9771   -42534.789    60.743553    228.39526 
   17550     134.6693   -1339.4135    146125.48   -39842.871    2716.4335   -42559.304    60.886614    227.42878 
   17600     132.5847   -1308.2823    146094.42    -39842.26    2674.3848   -42516.645    60.968458    223.90833 
   17650     134.3376   -1235.4051    146102.55   -39852.606    2709.7427   -42562.349    61.243167    226.86861 
   17700    133.40768   -1045.5044    146158.62   -39858.536    2690.9852   -42549.522    61.364792    225.29817 
   17750    132.04951   -1280.6954    146146.42   -39915.079    2663.5894   -42578.668    61.628264     223.0045 
   17800    134.69027   -1165.4935     146108.8   -39918.562    2716.8564   -42635.419    61.847235    227.46419 
   17850      133.431   -1101.5909    146112.57   -39886.871    2691.4555   -42578.327    62.040619    225.33755 
   17900     132.5545   -1160.0603    146180.31   -39893.827    2673.7756   -42567.602    62.109017    223.85733 
   17950    135.60496   -1163.9772    146222.74   -39891.062    2735.3069   -42626.369    62.223253    229.00893 
   18000    132.92832   -1307.4673    146173.62   -39847.033    2681.3159   -42528.349     62.35485    224.48862 
   18050    136.00556   -1249.3402    146209.02   -39810.059    2743.3873   -42553.446    62.370189    229.68545 
   18100    137.31633   -1092.7269    146148.47   -39787.632    2769.8272   -42557.459    62.580479    231.89908 
   18150     133.9436   -1137.4424    146154.73   -39828.471    2701.7954   -42530.266    62.703824    226.20323 
   18200    131.90459   -1202.1762    146126.78   -39859.238    2660.6662   -42519.904    62.817009    222.75976 
   18250    131.69126   -1195.4022    146117.75   -39901.448     2656.363   -42557.811    63.126839    222.39948 
   18300    131.52316    -1359.727    146042.05    -39883.36    2652.9723   -42536.333    63.017872     222.1156 
   18350    132.68327    -1111.882    146021.25    -39894.94     2676.373   -42571.313    63.158752    224.07479 
   18400    133.33903   -1220.5312    145942.16   -39944.942    2689.6005   -42634.543    63.348156    225.18224 
   18450    134.15954   -1112.3554    145926.67   -39946.867    2706.1511   -42653.018    63.526455    226.56791 
   18500    132.90029   -1002.4184     145959.3   -39983.798    2680.7505   -42664.549    63.600502    224.44129 
   18550    133.19388   -1036.3451     145966.9   -39939.488    2686.6726    -42626.16    63.968517     224.9371 
   18600    130.77649   -938.40345    146062.48   -39979.602    2637.9111   -42617.514    63.948087    220.85463 
   18650    131.91912    -1172.667    146064.07   -40001.829    2660.9592   -42662.789    64.086194    222.78429 
   18700    133.74689   -1227.0384    146075.95   -39978.425    2697.8275   -42676.252    64.219691    225.87103 
   18750    133.24846   -1300.1735    146028.61   -39956.438    2687.7736   -42644.212    64.398712    225.02929 
   18800    134.52476   -1103.6556    146024.37   -39925.577     2713.518   -42639.095    64.364385    227.18469 
   18850    129.94041   -1072.4723    146004.54   -39981.392    2621.0464   -42602.439    64.333277    219.44266 
   18900    133.54901    -1110.719    146003.91   -39971.358    2693.8361   -42665.195    64.459995    225.53685 
   18950    135.01324   -1100.7652    146042.35   -40001.913    2723.3712   -42725.284    64.611956    228.00963 
   19000    133.77639   -1218.1508     146016.2    -39982.32    2698.4225   -42680.742    64.637351    225.92085 
   19050    135.93879   -1067.5671    145974.25   -40011.705    2742.0406   -42753.745    64.830792     229.5727 
   19100    131.31654   -1183.3869    145994.91   -40032.667    2648.8044   -42681.471    65.022854    221.76666 
   19150    135.08232   -1032.2617    146054.04   -40021.254    2724.7647   -42746.019    64.994637     228.1263 
   19200    131.62243   -958.59447    146099.49   -40068.873    2654.9746   -42723.847     65.21402    222.28325 
   19250    132.41949   -1191.7173    146116.45   -40092.255    2671.0524   -42763.307    65.309002    223.62933 
   19300    132.06262   -1164.2189    146076.81   -40111.247    2663.8539   -42775.101    65.386401    223.02665 
   19350    131.32365   -1184.5607    146088.97   -40094.688     2648.948   -42743.636    65.513338    221.77867 
   19400    130.15116   -1140.8281    146092.42   -40083.413    2625.2974    -42708.71    65.677462    219.79857 
   19450    131.22747   -1089.8113    146118.02   -40079.539    2647.0078   -42726.546    65.964493    221.61624 
   19500    133.10739   -1193.4802    146129.01   -40045.926     2684.928   -42730.854    66.103671    224.79104 
   19550    130.87116   -941.25615    146144.33   -40010.893    2639.8208   -42650.714    66.071564    221.01452 
   19600    133.32654   -939.53855    146209.43   -40036.921    2689.3486    -42726.27    66.123533    225.16115 
   19650    133.03118   -1300.4172    146197.73   -40046.043    2683.3908   -42729.433    66.169383    224.66234 
   19700    132.05829   -1143.7525    146156.68   -40079.055    2663.7664   -42742.821    66.253952    223.01932 
   19750    132.61658     -1288.77    146123.69   -40038.208    2675.0277   -42713.235    66.464543    223.96216 
   19800    133.55179   -1220.5128    146101.94   -40003.643    2693.8921   -42697.535    66.504877    225.54154 
   19850    132.10029   -1175.5334    146062.05   -40008.757    2664.6137   -42673.371    66.702828    223.09026 
   19900    132.55507    -1183.154    146029.38   -40010.586     2673.787   -42684.373    66.856174    223.85828 
   19950     134.2026   -1073.6708    146017.63   -40002.299    2707.0196   -42709.319    66.974445    226.64063 
   20000    129.70655   -1034.3831    146064.24   -40000.463    2616.3291   -42616.792    67.014086    219.04772 
   20050    134.99903   -1138.9085    146064.98   -40008.502    2723.0845   -42731.586    67.440431    227.98563 
   20100    130.81781   -885.12897    146179.64   -40018.162    2638.7447   -42656.906    67.589611    220.92442 
   20150    133.36357   -1017.3516    146214.18   -39961.007    2690.0956   -42651.103    67.658397    225.22369 
   20200    135.47751   -1338.5379    146255.24   -40008.961     2732.736   -42741.697    67.526216    228.79369 
   20250    132.10346   -1276.8818    146191.56    -40013.51    2664.6776   -42678.188    67.648955    223.09561 
   20300    133.58086   -1135.6477     146232.4   -39967.565    2694.4784   -42662.043    67.722562    225.59063 
   20350    134.52253   -1062.6163    146290.58   -39906.019    2713.4729   -42619.492    67.711215    227.18092 
   20400    134.19389   -1304.2757     146358.9   -39948.808    2706.8439   -42655.652    67.836912    226.62591 
   20450    133.19882   -1272.7319     146345.5   -39988.891    2686.7722   -42675.664    67.961662    224.94544 
   20500    131.68723   -1338.2356    146300.26    -40019.03    2656.2819   -42675.312    68.424365    222.39269 
   20550    132.08317   -1128.2033    146215.74   -40012.249    2664.2683   -42676.517    68.530418    223.06135 
   20600    129.94353   -1142.3462     146264.5   -40032.363    2621.1094   -42653.472    68.724124    219.44794 
   20650     135.9276   -1148.6757       146299   -39937.296    2741.8149   -42679.111    68.737731     229.5538 
   20700    134.55426   -1203.1106    146249.36   -39897.138     2714.113   -42611.251    68.918243     227.2345 
   20750    131.64078   -1269.7177    146168.69   -39919.514    2655.3449   -42574.859    68.943577    222.31425 
   20800     131.9201   -1061.4418    146122.51   -39916.134     2660.979   -42577.113    69.231716    222.78596 
   20850    136.23007   -1094.4236    146163.29   -39863.705    2747.9159   -42611.621    69.442077     230.0646 
   20900    134.41691    -964.8219    146232.57   -39915.867    2711.3426    -42627.21    69.609404    227.00256 
   20950    133.37305   -1253.4458     146154.9    -39950.96    2690.2866   -42641.247     69.66544    225.23969 
   21000    132.57066   -1257.2858    146122.71   -39924.776    2674.1016   -42598.877    69.567773    223.88462 
   21050    131.62511   -1196.7772    146094.09   -39954.027    2655.0287   -42609.056    69.786189    222.28777 
   21100    135.11233   -1228.3269    146043.75   -39911.157    2725.3699   -42636.526    69.978061    228.17697 
   21150    135.09328   -1193.5676     146026.8   -39938.386    2724.9858   -42663.372     70.15253    228.14481 
   21200    133.05897   -1171.0036    146079.77   -39904.194    2683.9514   -42588.145    70.154274    224.70928 
   21250    132.72863   -1279.7509    146012.85   -39949.348     2677.288   -42626.636    70.346313    224.15139 
   21300    134.32634   -1159.3777    146029.17   -39936.143    2709.5157   -42645.659    70.421784     226.8496 
   21350    131.01281   -1244.6495    146024.44   -39947.351    2642.6779   -42590.029     70.56566    221.25372 
   21400    133.00101     -1081.59     145988.8   -39973.768    2682.7823    -42656.55    70.785738     224.6114 
   21450    132.31368    -1120.044    145986.78   -40007.045     2668.918   -42675.963    70.687272    223.45063 
   21500    131.93357   -1189.1743    145955.45   -40017.807    2661.2508   -42679.058    70.772618    222.80871 
   21550    131.97786   -1092.6471    145920.55   -40014.991    2662.1441   -42677.135     70.95651     222.8835 
   21600    132.10819   -1284.6568    145945.01   -40016.325    2664.7731   -42681.098    70.930466     223.1036 
   21650    134.27393   -1059.3481     145970.6   -39910.976    2708.4585   -42619.434    71.175846    226.76109 
   21700    131.13573   -1068.2488    146034.18   -39991.705    2645.1573   -42636.862    71.350318    221.46131 
   21750    132.73236    -1147.678    146063.36    -39918.76    2677.3633   -42596.124    71.524721     224.1577 
   21800    134.26767   -1234.8636    146118.91   -39865.432    2708.3321   -42573.765    71.477492    226.75051 
   21850    133.38491   -1361.4202    146084.31   -39879.438    2690.5259   -42569.964    71.891229    225.25971 
   21900    131.16053   -1162.8017    146015.14   -39918.379    2645.6576   -42564.036    71.979859    221.50319 
   21950    132.82847   -1045.3964    146034.52   -39947.018    2679.3019   -42626.319    72.191279    224.32001 
   22000     131.4698   -1106.2754    146038.97   -39925.523     2651.896   -42577.419    72.372153    222.02549 
   22050    131.43047   -984.61607    146038.03   -39949.769    2651.1026   -42600.872    72.532875    221.95907 
   22100    133.58077   -1070.9988    146012.14   -39923.837    2694.4766   -42618.313     72.82346    225.59048 
   22150    134.53368   -1200.1802    145966.22   -39894.413    2713.6979   -42608.111    72.888133    227.19975 
   22200    132.33328   -1180.0859    145945.31   -39924.439    2669.3134   -42593.753    72.984718    223.48374 
   22250     133.2372   -1022.2843    145990.83     -39873.8    2687.5464   -42561.347    73.195418    225.01026 
   22300    133.24042   -1259.9024    146000.95   -39866.855    2687.6113   -42554.466    73.632892     225.0157 
   22350    133.03823   -1167.1318    145936.06    -39828.67     2683.533   -42512.203    73.756132    224.67425 
   22400    134.32827   -1130.3547    145857.96   -39828.751    2709.5546   -42538.305     73.73046    226.85286 
   22450    133.14694   -1081.2492    145887.84   -39854.286    2685.7259   -42540.012    73.829992    224.85784 
   22500    134.62769   -1156.6254    145864.13   -39846.144    2715.5943   -42561.738     74.05625    227.35852 
   22550    134.62306   -1199.0686    145902.53   -39797.582    2715.5008   -42513.083    74.176388    227.35069 
   22600    135.18593   -1081.3775    145949.35   -39840.442    2726.8545   -42567.297    74.342775    228.30126 
   22650    132.47166   -1200.5244    145903.98    -39875.45    2672.1047   -42547.555    74.530584    223.71743 
   22700    133.43977   -1150.7621    145936.31   -39847.782    2691.6326   -42539.415    74.522948    225.35237 
   22750    134.30315   -1064.5095    145990.53    -39848.36    2709.0479   -42557.407    74.716383    226.81044 
   22800    135.77509    -1095.243    146010.81   -39879.906    2738.7386   -42618.644    74.807371    229.29624 
   22850    136.18677   -1377.1918    145930.95   -39872.045    2747.0427   -42619.087    74.996875    229.99149 
   22900    132.05246   -1112.6624    145874.31   -39934.215    2663.6489   -42597.864    75.297877    223.00948 
   22950     134.0482   -1199.0207    145794.81   -39923.143    2703.9053   -42627.048    75.396241    226.37988 
   23000     134.6341   -1237.1947    145797.57   -39909.012    2715.7235   -42624.736    75.435224    227.36934 
   23050    134.41906   -1148.8683    145706.45   -39861.734    2711.3858    -42573.12    75.685281    227.00618 
   23100    132.00978   -1091.0019    145662.07   -39879.533    2662.7879   -42542.321    75.780967     222.9374 
   23150    133.08985   -1127.7346    145663.99   -39883.132    2684.5742   -42567.706    75.754148    224.76142 
   23200    133.28532    -1138.456    145661.53   -39881.569    2688.5171   -42570.086    75.983305    225.09153 
   23250    133.38598   -992.75104    145693.43   -39847.643    2690.5476    -42538.19    76.021125    225.26153 
   23300    133.77496   -1103.9318    145666.03   -39883.214    2698.3937   -42581.608    76.419026    225.91844 
   23350    135.64753   -1229.5399    145564.72   -39887.601    2736.1655   -42623.766    76.541684    229.08082 
   23400    131.50842   -1211.1379    145467.92   -39933.604    2652.6749   -42586.279    76.707104    222.09071 
   23450    133.13449   -1113.5938    145468.21    -39994.59    2685.4747   -42680.065      76.9197    224.83682 
   23500    128.71968   -1113.4328    145579.77   -40006.307    2596.4228    -42602.73    76.964679     217.3811 
   23550    129.09206   -1251.5664    145608.13   -39974.759    2603.9342   -42578.693    77.333976    218.00998 
   23600    128.69209   -1228.6151    145559.17   -40009.266    2595.8664   -42605.132    77.405294    217.33451 
   23650    128.44045   -1090.9773    145564.96   -40034.461    2590.7905   -42625.252    77.507389    216.90954 
   23700    130.26743   -1117.5276    145472.22   -40075.796    2627.6428   -42703.439    77.867544    219.99493 
   23750    130.01195   -1207.5761    145465.71   -40016.728    2622.4894   -42639.217    78.043091    219.56348 
   23800    132.32028   -1038.7366     145539.6   -39990.633    2669.0512   -42659.684    77.988367    223.46178 
   23850    129.77225   -1175.2206    145518.44   -40003.974    2617.6544   -42621.628    77.951998    219.15867 
   23900    131.70564   -1071.1643     145492.7   -39969.272    2656.6531   -42625.925    77.805291    222.42377 
   23950    134.20336   -1205.6062    145436.34   -39952.098     2707.035   -42659.133    77.810556    226.64192 
   24000    133.53043   -1122.5751    145373.84   -39983.046    2693.4613   -42676.507    77.941927    225.50548 
   24050    131.58761   -1151.7198       145332   -39960.771    2654.2723   -42615.043    78.178568    222.22444 
   24100    130.91611   -1064.5541    145283.16   -39923.899    2640.7274   -42564.626    78.058616    221.09042 
   24150    133.25053   -1109.6055    145363.21   -39836.038    2687.8153   -42523.853    78.278219    225.03278 
   24200    132.16845   -1062.4579     145354.4   -39825.014    2665.9885   -42491.002    78.491628    223.20536 
   24250    135.44391   -1013.5393    145362.05   -39841.394    2732.0584   -42573.452     78.59687    228.73695 
   24300    133.87945   -1142.7039    145365.55   -39830.057    2700.5013   -42530.558    78.859733    226.09489 
   24350     135.2815   -962.38638    145478.49   -39787.403    2728.7823   -42516.186    79.168166    228.46267 
   24400    134.54699   -1125.7119    145542.45    -39819.95    2713.9663   -42533.916    79.347679    227.22222 
   24450    134.02134   -1063.8063    145544.41   -39853.136    2703.3635     -42556.5    79.609628    226.33452 
   24500    132.13057   -1142.6721    145532.34   -39825.426    2665.2244    -42490.65     79.59458    223.14139 
   24550    130.91134   -1108.9033    145457.04    -39833.55    2640.6313   -42474.182    79.913912    221.08237 
   24600    132.36978   -1208.3766     145396.3   -39818.202    2670.0496   -42488.251      80.1689    223.54537 
   24650    134.24855   -1063.3612    145394.15   -39848.475    2707.9465   -42556.422    80.214206    226.71823 
   24700    132.40776   -1158.8825    145417.69   -39845.432    2670.8157   -42516.248    80.378134    223.60951 
   24750    131.36281   -1086.0024    145361.65   -39925.539    2649.7379   -42575.277    80.547804    221.84481 
   24800    132.93559   -928.12563    145446.92    -39890.49    2681.4625   -42571.952     80.64411     224.5009 
   24850    132.99109   -990.96629       145568   -39839.399    2682.5822   -42521.981    80.499531    224.59464 
   24900    135.48926   -1045.8497    145640.67    -39792.44    2732.9731   -42525.413    80.386836    228.81353 
   24950    133.01002   -1028.8235    145663.42   -39815.923    2682.9639   -42498.887    80.712165     224.6266 
   25000    135.97232   -1058.9498    145734.65    -39769.63    2742.7168   -42512.347    80.775833    229.62931 
   25050    134.47528    -1153.096    145829.93    -39758.23    2712.5199    -42470.75     81.15597    227.10113 
   25100    134.07964   -1099.1712       145862   -39770.614    2704.5394   -42475.153    81.360193    226.43298 
   25150    137.20123   -1167.1156    145810.82   -39786.135    2767.5054    -42553.64    81.341019    231.70469 
   25200    136.95014   -1158.4224    145819.07   -39788.739    2762.4407    -42551.18    81.359323    231.28066 
   25250    132.87993   -953.43532    145738.73   -39800.681      2680.34   -42481.021     81.61003    224.40692 
   25300    135.57835   -1102.4481    145700.31   -39790.442    2734.7702   -42525.212    81.910151    228.96399 
   25350    136.23217   -1055.1966     145728.4   -39776.219    2747.9585   -42524.177     82.22028    230.06816 
   25400    134.40567   -1204.4121    145698.49   -39795.289    2711.1157   -42506.404    82.426683    226.98357 
   25450    135.78215   -1143.3319    145604.38   -39733.083     2738.881   -42471.964    82.710035    229.30817 
   25500    135.27231   -1050.0002    145587.14   -39792.079     2728.597   -42520.676    82.791305    228.44715 
   25550    137.19301   -1175.6789    145547.54   -39828.274    2767.3395   -42595.614    82.906699    231.69081 
   25600     134.1909   -1087.6962    145528.52   -39835.057    2706.7837    -42541.84    83.101369    226.62087 
   25650    132.03156   -1211.2673    145530.69   -39839.967    2663.2273   -42503.194    83.339302    222.97419 
   25700    134.62448   -1151.3766    145581.36   -39814.493    2715.5295   -42530.023    83.423468     227.3531 
   25750    134.19994   -1348.5598    145562.53   -39797.933    2706.9659   -42504.899    83.660876    226.63613 
   25800    130.72169   -1145.3977    145525.96   -39766.632    2636.8057   -42403.438    83.826302    220.76208 
   25850    134.79957   -975.08425    145543.51   -39816.179    2719.0613    -42535.24    83.954564    227.64879 
   25900    130.75849   -1093.1169     145631.1   -39897.167     2637.548   -42534.715    84.161123    220.82423 
   25950     133.8005   -1061.6635    145681.82   -39832.246    2698.9088   -42531.154    84.105013    225.96156 
   26000    131.84053    -1197.205    145700.59   -39872.175     2659.374   -42531.549     84.33853    222.65158 
   26050    133.38389   -1205.4143    145721.74   -39823.604    2690.5052   -42514.109    84.524581    225.25799 
   26100    133.72445   -1084.5794    145754.26   -39850.522    2697.3748   -42547.896    84.718244    225.83313 
   26150    133.89816   -1177.7206    145735.01   -39827.038    2700.8788   -42527.917    84.763232    226.12649 
   26200    136.12763   -1061.9769    145719.71   -39849.973    2745.8496   -42595.823    85.001001     229.8916 
   26250    134.76685   -1036.8777    145789.23   -39842.986    2718.4012   -42561.388    85.275851    227.59353 
   26300    135.05504   -1195.7606    145834.29   -39826.643    2724.2144   -42550.858    85.582907    228.08023 
   26350    134.66336    -1328.314    145814.26   -39792.059    2716.3137   -42508.373    85.896434    227.41875 
   26400    134.31557   -1089.4744     145908.1   -39809.371    2709.2984   -42518.669    86.082276    226.83141 
   26450    135.25992   -1150.0534    145964.15   -39811.835    2728.3471   -42540.182    86.169541    228.42623 
   26500    132.44741   -1245.7415    145999.57   -39816.046    2671.6155   -42487.662     86.12178    223.67647 
   26550    133.73987   -1286.4859    146050.33   -39783.852    2697.6858   -42481.538    86.049149    225.85917 
   26600    133.68668   -1380.9726    146020.68   -39753.967    2696.6129    -42450.58    86.483313    225.76934 
   26650    133.26426   -1274.5905    145983.86   -39762.057    2688.0923    -42450.15    86.720978    225.05596 
   26700    135.03865   -892.61054    146107.52   -39748.518    2723.8837   -42472.402    86.750318    228.05254 
   26750    136.02597   -1199.4705    146135.32   -39787.779    2743.7991   -42531.578    86.946883    229.71993 
   26800    134.36515   -1239.7671    146149.92   -39817.936    2710.2986   -42528.235    87.090703    226.91515 
   26850    133.32565   -1296.2387     146120.9   -39841.142    2689.3305   -42530.473     87.08933    225.15964 
   26900    133.79152   -1180.1957    146123.51   -39812.039    2698.7277   -42510.766    87.235497     225.9464 
   26950    134.25307   -1172.5895    146226.84   -39739.421    2708.0377   -42447.458     87.46445    226.72587 
   27000     134.2117   -1149.1904     146196.9   -39740.251    2707.2032   -42447.454    87.618779      226.656 
   27050    136.21102   -1226.9769    146264.93   -39754.359    2747.5317   -42501.891    87.717496    230.03243 
   27100    137.25476   -1210.5858    146311.63   -39755.747    2768.5853   -42524.332    87.986035     231.7951 
   27150    137.06359   -1175.0507    146333.35   -39731.036    2764.7291   -42495.765    88.097883    231.47225 
   27200    136.73911   -1071.2162    146392.48   -39743.919     2758.184   -42502.103    88.392953    230.92427 
   27250    131.47287   -1397.3272    146311.37   -39828.132     2651.958    -42480.09    88.539622    222.03068 
   27300    130.61069    -1218.568    146254.87    -39879.02    2634.5668   -42513.587    88.671361    220.57464 
   27350    133.22115   -1184.1196    146227.35   -39877.393    2687.2227   -42564.615    88.725501    224.98316 
   27400    131.29106   -1238.1224    146213.48   -39914.478    2648.2905   -42562.769    88.975225    221.72363 
   27450    132.81431   -1084.7752    146201.55    -39913.26    2679.0162   -42592.276    89.035907    224.29608 
   27500    132.38729   -1128.4726     146260.5   -39916.384    2670.4028   -42586.787    89.230207    223.57494 
   27550    132.90579   -1493.5188    146183.41   -39908.259    2680.8615   -42589.121    89.289748    224.45058 
   27600    131.39791   -1047.9276    146098.38   -39897.828    2650.4459   -42548.273    89.276636    221.90409 
   27650       134.03   -1092.3613    146211.11   -39911.463    2703.5381   -42615.001    89.352095    226.34914 
   27700    133.87582   -1292.2384    146283.27   -39881.666    2700.4282   -42582.094    89.614735    226.08877 
   27750    133.45836   -1232.2376    146232.75   -39853.165    2692.0074   -42545.172    89.682965    225.38375 
   27800    131.12165    -1104.205     146212.8   -39839.125    2644.8734   -42483.998     89.87838    221.43754 
   27850      132.631   -1100.0738    146205.11   -39867.064    2675.3188   -42542.382     89.93103    223.98653 
   27900    132.36321   -1381.2702    146236.79   -39832.678     2669.917   -42502.595    90.096105    223.53428 
   27950    133.32762   -1354.4783    146193.72   -39835.187    2689.3703   -42524.557    90.390846    225.16296 
   28000    133.09272   -1193.0657    146215.32   -39841.248    2684.6322    -42525.88    90.470712    224.76627 
   28050    135.37527   -999.07671    146197.76     -39810.4    2730.6737   -42541.074    90.600132    228.62102 
   28100    132.50523    -1159.652    146289.48   -39843.432    2672.7818   -42516.214    90.847627    223.77412 
   28150    132.45688   -1066.1041    146282.92   -39859.319    2671.8065   -42531.125     91.09836    223.69246 
   28200    133.86165   -1302.8659    146279.03   -39786.945    2700.1424   -42487.088     91.31441    226.06484 
   28250    132.76599   -1224.2531    146360.53   -39814.592    2678.0416   -42492.633    91.648756    224.21449 
   28300    132.93485    -1194.575    146428.17   -39819.116    2681.4477   -42500.564    91.713872    224.49966 
   28350     133.0821   -1061.7648    146550.09   -39828.776     2684.418   -42513.194    91.810407    224.74834 
   28400    133.69299   -1154.6781     146638.9   -39783.857    2696.7402   -42480.598    91.860355       225.78 
   28450    133.10973   -1244.6455    146625.97    -39805.34    2684.9751   -42490.315     91.88215    224.79499 
   28500    134.13005    -1231.527    146595.55   -39839.278    2705.5562   -42544.834    92.185391     226.5181 
   28550    134.71805   -1281.7108    146570.74   -39829.191    2717.4169   -42546.608    92.290614    227.51112 
   28600    133.69855   -1217.7089    146518.84   -39827.683    2696.8525   -42524.536    92.305614     225.7894 
   28650     134.3649   -1137.9581     146566.3   -39836.955    2710.2935   -42547.248    92.459036    226.91472 
   28700    131.12218   -1215.6471    146595.12   -39922.843    2644.8841   -42567.727    92.613061    221.43843 
   28750    132.81311   -1240.1894    146535.68   -39887.575     2678.992   -42566.567    92.777479    224.29406 
   28800    132.31294   -1316.9336    146474.62   -39870.865     2668.903   -42539.768    92.948914    223.44937 
   28850    130.04152   -1241.5319    146429.84   -39850.298    2623.0859   -42473.384    93.119702    219.61341 
   28900    131.99269   -1310.4079    146352.32   -39859.286    2662.4433   -42521.729    93.339009    222.90855 
   28950    133.09512   -1176.7969    146292.27   -39842.997    2684.6805   -42527.678    93.277411    224.77032 
   29000    132.94699   -1085.2488    146302.58   -39821.762    2681.6927   -42503.454    93.521146    224.52017 
   29050    133.08234   -1317.2029     146285.5   -39856.023    2684.4228   -42540.446    93.786465    224.74874 
   29100    131.69997   -1358.5018    146176.62   -39856.956    2656.5388   -42513.495    94.086977     222.4142 
   29150    132.35543    -1231.704    146057.49   -39866.522    2669.7602   -42536.283    94.157319    223.52114 
   29200    133.85172   -1140.9341    146057.36   -39815.799     2699.942   -42515.741    94.563334    226.04806 
   29250    134.37886    -1242.394    146023.78   -39818.132     2710.575   -42528.707    94.773271    226.93829 
   29300    133.78565   -1157.1944    145944.89   -39847.886    2698.6094   -42546.495     94.98786    225.93649 
   29350    134.75447   -1245.6571    145940.19   -39794.583    2718.1514   -42512.735    95.055699    227.57261 
   29400    133.42201   -1186.7143    145896.63   -39787.099    2691.2743   -42478.373    95.191367    225.32238 
   29450    134.91571   -1218.1026     145941.1   -39827.851    2721.4039   -42549.255    95.400559    227.84493 
   29500    136.60205   -1023.6128    146003.79   -39757.745    2755.4194   -42513.165    95.661448    230.69281 
   29550    134.11622   -1261.7091    146070.83   -39816.856    2705.2772   -42522.134     95.95418    226.49475 
   29600    133.21434   -1296.0292    146044.34   -39765.951    2687.0853   -42453.037    96.219033    224.97166 
   29650    132.94287   -999.34464    146049.47   -39709.384    2681.6095   -42390.994    96.404823    224.51321 
   29700    134.59156     -1249.43    146092.82   -39767.459    2714.8654   -42482.324    96.571796     227.2975 
   29750    133.00661   -1177.0861    146066.34   -39772.005    2682.8952     -42454.9    96.666096    224.62085 
   29800    134.53034   -1280.3799    146093.78   -39770.477    2713.6305   -42484.108    96.727063    227.19411 
   29850    134.68275   -1240.4969    146134.69   -39802.967    2716.7049   -42519.672    96.634919    227.45151 
   29900    134.38689   -1054.0226    146175.94   -39826.278    2710.7369   -42537.015    96.759714    226.95185 
   29950    133.04546   -1262.2684    146233.42   -39832.919    2683.6788   -42516.598    96.967913    224.68645 
   30000    133.54877   -937.28918     146316.2   -39844.947    2693.8313   -42538.778    97.213421    225.53645 
   30050    137.67427   -958.25708    146388.13   -39784.711    2777.0472   -42561.758     97.42159    232.50356 
   30100    134.58206   -1057.8497    146407.74   -39782.397    2714.6737    -42497.07    97.825758    227.28145 
   30150    136.38573   -1319.8865    146449.04   -39796.411    2751.0559   -42547.467    98.098095    230.32748 
   30200    136.14739   -1040.8153    146468.99   -39777.272    2746.2484   -42523.521     98.56366    229.92498 
   30250    136.20462   -1363.1384     146491.9   -39792.221    2747.4028   -42539.624    98.737447    230.02164 
   30300    135.38769   -1433.8482    146394.58   -39801.067    2730.9243   -42531.992    98.957172      228.642 
   30350     131.6755   -1328.6606    146316.99   -39826.216    2656.0451   -42482.261    99.225735    222.37287 
   30400    134.71223   -1268.0791     146291.8   -39843.097    2717.2994   -42560.396    99.563624    227.50128 
   30450    131.81004   -1309.7566    146244.93   -39862.978     2658.759   -42521.737    99.586695    222.60009 
   30500    131.71931   -1224.5037    146235.66   -39857.011    2656.9289    -42513.94    99.820105    222.44686 
   30550    133.43266   -1157.7572    146205.97   -39893.348     2691.489   -42584.837    99.703241    225.34035 
   30600    130.23631   -1337.6666    146178.16   -39895.795    2627.0151    -42522.81    99.886712    219.94238 
   30650    131.75293   -1277.3908     146120.7   -39893.407     2657.607   -42551.014    100.13335    222.50364 
   30700    132.89421   -1233.7161    146033.66   -39868.231    2680.6279   -42548.859    100.30117    224.43103 
   30750    132.73193   -1225.2901    146004.19   -39890.249    2677.3546   -42567.603    100.37308    224.15697 
   30800    129.41455   -1129.3621    146012.01   -39960.372    2610.4392   -42570.811    100.30866     218.5546 
   30850    130.94908    -1189.132    145902.22   -39975.396    2641.3925   -42616.788    100.50209     221.1461 
   30900    132.09387   -994.63272    145875.88   -39978.246    2664.4841    -42642.73     100.6342    223.07941 
   30950    132.46665   -1191.3431    145885.76   -39963.786    2672.0035    -42635.79    100.82758    223.70896 
   31000    132.81775   -1326.7446    145842.48     -39960.1    2679.0856   -42639.185    101.20324     224.3019 
   31050    128.94209   -1288.0381    145809.37   -40028.756    2600.9092   -42629.665    101.53248    217.75671 
   31100    131.87203   -980.10939    145845.08   -40010.016    2660.0094   -42670.025    101.69731    222.70478 
   31150    132.20101   -1131.6016     145841.4   -39972.516    2666.6453   -42639.162    101.83444    223.26036 
   31200     133.1722   -1133.0568    145792.43   -39973.547    2686.2354   -42659.782    101.90526     224.9005 
   31250     135.0651    -1058.677    145769.07   -39932.284    2724.4173   -42656.701    102.03942    228.09722 
   31300    134.69615   -1069.7757     145792.7   -39944.742    2716.9752   -42661.717    102.22656    227.47414 
   31350    131.33904   -1067.5026     145748.5   -39978.464    2649.2583   -42627.723    102.25329    221.80465 
   31400    133.66966   -1184.9542    145752.34   -39969.592    2696.2697   -42665.862    102.24876    225.74061 
   31450    133.95908   -1002.1141    145831.11   -39970.812    2702.1076   -42672.919    102.64572    226.22937 
   31500    136.39278   -1063.5912    145935.53   -39915.324    2751.1981   -42666.522    102.62942    230.33939 
   31550    132.35916    -1095.144    145954.21   -39926.078    2669.8353   -42595.914    103.14675    223.52743 
   31600    133.16338   -1142.7595    146013.85   -39911.908    2686.0575   -42597.966    103.16267     224.8856 
   31650    134.05612     -1060.42    146049.17   -39939.105     2704.065    -42643.17    103.14237    226.39326 
   31700    133.36519   -1120.5275    146096.45   -39976.467    2690.1282   -42666.595    103.23296    225.22642 
   31750    132.87276   -971.50876    146162.01   -40002.751    2680.1954   -42682.946    103.11122    224.39481 
   31800    131.42988   -996.37104    146199.73   -39944.843    2651.0907   -42595.933    103.26176    221.95807 
   31850    132.24544   -1313.9564    146194.55   -39944.982    2667.5416   -42612.523    103.30854    223.33539 
   31900    130.28232   -1015.0933    146175.34   -40006.459    2627.9432   -42634.402    103.41536    220.02009 
   31950      129.894   -1008.6627    146237.12   -40036.592    2620.1102   -42656.702    103.56604    219.36428 
   32000    131.77533   -1119.9249     146247.4   -39985.736    2658.0587   -42643.795    103.67674    222.54146 
   32050    133.46553   -1003.2107    146170.24   -39999.529    2692.1521   -42691.681    103.58245    225.39587 
   32100    131.97764    -1091.023    146187.79   -39969.484    2662.1397   -42631.623    103.95749    222.88313 
   32150    133.71168   -1204.7925    146181.19   -39916.039    2697.1173   -42613.156    104.04612    225.81157 
   32200    134.72064    -1063.481    146169.25   -39883.946    2717.4692   -42601.415    104.21476     227.5155 
   32250    133.68678   -1291.0381    146134.72   -39886.764    2696.6149   -42583.379    104.28229    225.76951 
   32300    133.29155   -1098.9421    146069.63   -39875.909    2688.6427   -42564.551    104.30662    225.10205 
   32350    136.20003   -1031.7845       146140   -39867.157    2747.3101   -42614.467    104.83858    230.01388 
   32400    131.83417   -1157.5064    146164.09   -39886.899    2659.2457   -42546.144    104.74386    222.64084 
   32450    132.12014   -1134.9337    146152.22   -39928.261     2665.014   -42593.275    104.87272    223.12377 
   32500    132.86148   -1062.5304     146147.9   -39914.074    2679.9677   -42594.042    104.81021    224.37575 
   32550    131.25448   -1156.9273    146155.89   -39914.026    2647.5526   -42561.579    104.99546    221.66185 
   32600    129.73403   -1265.6403    146168.56   -39958.384    2616.8836   -42575.268    105.22712    219.09414 
   32650    132.15006   -1140.6484    146132.34   -40001.144    2665.6175   -42666.761     105.3892     223.1743 
   32700    132.18005    -1142.988    146078.69   -39956.384    2666.2225   -42622.607    105.41124    223.22495 
   32750    132.61628   -1299.7256    146026.92   -39957.278    2675.0217     -42632.3    105.53475    223.96165 
   32800     131.1785   -1309.3599    146004.96   -39934.651      2646.02   -42580.671     105.7434    221.53354 
   32850    130.95669   -1318.1648    145965.63   -39904.444    2641.5459    -42545.99     105.9949    221.15895 
   32900    132.52268   -1025.4372    145936.78   -39940.623    2673.1337   -42613.756    106.03433    223.80358 
   32950    131.96382   -1251.3435    145981.16   -39910.491    2661.8609   -42572.352    106.20068    222.85978 
   33000    131.26706   -939.73306    145970.31   -39884.675    2647.8064   -42532.482    106.29801     221.6831 
   33050    133.05242     -1086.22    146021.38   -39902.705    2683.8191   -42586.524    106.51034     224.6982 
   33100    132.12827   -1102.7954    146062.11       -39908     2665.178   -42573.178    106.91591    223.13751 
   33150    134.18977   -1099.0739    146121.46   -39893.546    2706.7609   -42600.307    107.14613    226.61896 
   33200    133.29925   -1055.1325    146121.21   -39840.075     2688.798   -42528.873    107.54456    225.11505 
   33250    135.19622    -1162.051    146115.88   -39856.605     2727.062   -42583.667    107.94735    228.31864 
   33300    132.31157   -1187.5328    146054.96   -39878.229    2668.8754   -42547.105    108.23405    223.44706 
   33350     131.4898    -1037.979    145973.94   -39911.795    2652.2994   -42564.095    108.33367    222.05927 
   33400    131.95856   -1048.2369    145899.57   -39903.059    2661.7548   -42564.813     108.7475     222.8509 
   33450    130.82321   -975.21729    145876.11   -39922.356    2638.8535    -42561.21    108.89007    220.93353 
   33500    132.87848   -1067.1221     145839.2   -39911.357    2680.3107   -42591.668    108.85284    224.40447 
   33550    133.96207   -1025.5269    145810.74    -39933.78     2702.168   -42635.948    108.78778    226.23443 
   33600    132.66102    -947.5639    145846.99   -39923.545    2675.9242   -42599.469    108.83276    224.03721 
   33650     133.8596   -1030.0225    146005.68   -39905.527    2700.1009   -42605.628    109.01905    226.06137 
   33700    136.40584   -1184.7764    146040.24   -39873.797    2751.4615   -42625.258    109.47866    230.36145 
   33750    132.20059   -1163.8627    146075.62   -39862.624    2666.6368   -42529.261    109.52128    223.25964 
   33800    134.35421   -1094.5201    146044.37   -39866.867    2710.0778   -42576.944    109.54156    226.89666 
   33850    133.14563   -1162.9679    146059.04   -39872.276    2685.6994   -42557.976    109.40499    224.85562 
   33900    133.20643   -1135.4741    146125.48   -39879.238    2686.9257   -42566.164    109.38235     224.9583 
   33950    135.35281   -1203.6655    146227.43   -39844.398    2730.2206   -42574.619     109.5486    228.58309 
[...]
   92000    131.36891   -1234.0915     145485.8    -39939.18    2649.8608   -42589.041    255.02882     221.8551 
   92050    131.19428   -1155.8857    145400.08   -39956.507    2646.3384   -42602.846     255.1084     221.5602 
   92100    130.73953   -1088.7629    145367.37   -39966.761    2637.1655   -42603.926    255.33739    220.79221 
   92150    131.09489   -1095.4308       145466   -39963.347    2644.3336    -42607.68    255.46143    221.39235 
   92200    133.52653   -1137.7323    145556.96   -39877.491    2693.3825   -42570.873    255.86028    225.49888 
   92250    134.36992   -1201.6466    145590.14   -39864.965    2710.3948    -42575.36    255.85569     226.9232 
   92300    133.63538   -1095.2156    145592.65    -39845.03    2695.5783   -42540.608    256.05025    225.68272 
   92350    130.98821    -1009.397    145691.79   -39853.133    2642.1818   -42495.315    256.09627    221.21219 
   92400    133.38499   -1292.1137    145662.24   -39823.446    2690.5275   -42513.974    256.49349    225.25985 
   92450    134.79467   -960.94591    145704.46   -39810.402    2718.9624   -42529.365    256.30271    227.64051 
   92500    130.70676   -1330.8439    145652.01   -39883.437    2636.5046   -42519.942    256.21745    220.73688 
   92550    133.12969   -1119.6411    145690.46   -39829.439    2685.3779   -42514.816    256.59966    224.82871 
   92600    131.01766   -1183.1417    145659.72   -39817.959    2642.7757   -42460.735    256.76497    221.26192 
   92650    132.70055   -1285.2673     145620.3   -39833.095    2676.7215   -42509.816    257.12675    224.10397 
   92700    133.94549   -1247.5184    145580.57   -39838.177    2701.8334   -42540.011    257.17971    226.20642 
   92750    132.76035   -1170.9692    145583.63   -39829.862    2677.9278    -42507.79    257.28735    224.20496 
   92800    135.91839   -1311.4194    145622.15   -39847.901    2741.6292    -42589.53     257.7917    229.53825 
   92850    134.09732   -1048.3594    145613.35   -39819.814    2704.8961    -42524.71    257.88182    226.46284 
   92900    132.12477   -1260.1261    145581.43   -39836.481    2665.1075   -42501.588    257.79664     223.1316 
   92950    133.34622   -1382.3354       145624   -39897.576    2689.7454   -42587.321    257.61589    225.19437 
   93000    132.11722   -1101.6956    145576.49   -39875.043    2664.9552   -42539.998    257.55397    223.11885 
   93050     133.0251   -1351.7176    145542.36    -39903.84    2683.2682   -42587.108    257.78892    224.65208 
   93100    134.15231   -1234.7117    145488.81   -39896.694    2706.0052     -42602.7    257.89828    226.55569 
   93150    133.55343   -1106.9983    145512.47   -39919.122    2693.9252   -42613.047    258.02336    225.54432 
   93200    132.10409   -1073.5354    145470.12   -39909.928    2664.6902   -42574.619    257.97969    223.09667 
   93250    130.62927    -1119.359    145523.16   -39896.196    2634.9415   -42531.138    258.39097    220.60601 
   93300    131.48847    -1114.008    145522.57   -39917.521    2652.2726   -42569.794    258.20321    222.05703 
   93350    132.95997   -1214.5205    145461.01    -39905.43    2681.9543   -42587.384    258.63471    224.54207 
   93400    129.35519   -1207.8552       145422    -39936.06    2609.2419   -42545.302    258.27797    218.45435 
   93450      134.224   -1124.4001    145468.37   -39879.346    2707.4513   -42586.798    258.23438    226.67677 
   93500    132.70226   -1226.9882    145492.57   -39855.641    2676.7561   -42532.397    258.37358    224.10686 
   93550     131.7636   -1036.5327    145513.86   -39882.192    2657.8223   -42540.015    258.57719    222.52166 
   93600    131.91443     -1055.41    145531.47   -39859.358    2660.8646   -42520.223    258.31624    222.77637 
   93650    136.22374   -1153.6964    145551.43   -39819.714    2747.7883   -42567.503    257.99342    230.05391 
   93700     134.1931   -949.82699    145554.79   -39814.054     2706.828   -42520.882    257.99552    226.62458 
   93750    133.41788   -1208.8107    145579.86   -39808.321     2691.191   -42499.512    257.93729     225.3154 
   93800    136.79287   -1216.3621    145545.48   -39838.344    2759.2684   -42597.612    258.28016    231.01506 
   93850    133.30898   -1060.9831    145496.09   -39873.849    2688.9943   -42562.843    258.31925    225.13149 
   93900     132.4056    -1106.163     145542.2   -39861.332     2670.772   -42532.104    257.85793    223.60586 
   93950    133.19003   -1329.5134     145594.1   -39870.875     2686.595    -42557.47    258.08099    224.93061 
   94000    132.52076   -1230.4197    145549.31   -39864.145    2673.0951    -42537.24    258.32421    223.80035 
   94050    132.63878   -1099.3957    145574.83   -39906.493    2675.4755   -42581.969    258.39928    223.99965 
   94100     134.4622    -1053.162    145554.39   -39874.503    2712.2561    -42586.76    258.45951    227.07904 
   94150    133.01481   -1068.4203    145597.36   -39871.369    2683.0606    -42554.43     258.4832    224.63469 
   94200    129.45528   -1070.1669    145667.21    -39846.99    2611.2607   -42458.251    259.01725    218.62337 
   94250    132.23582   -1346.0523    145626.05   -39841.793    2667.3474    -42509.14    259.20152    223.31913 
   94300    132.93589   -1414.5106    145557.26    -39862.01    2681.4686   -42543.479    259.30058    224.50141 
   94350    132.14432   -1108.9489    145493.95   -39863.973    2665.5018   -42529.475    259.45989    223.16462 
   94400    130.77599   -1110.7979    145536.26   -39850.842    2637.9011   -42488.743    259.57109    220.85379 
   94450    133.06779   -1181.2793    145541.03   -39890.149    2684.1293   -42574.279    259.57537    224.72417 
   94500    132.97088   -1039.0081    145617.03   -39887.886    2682.1745   -42570.061    259.83699    224.56051 
   94550    129.37525   -1174.5221    145633.16   -39926.922    2609.6465   -42536.569    259.93833    218.48823 
   94600     131.9515   -1197.9144    145637.01   -39962.976    2661.6124   -42624.589    260.36688    222.83898 
   94650    130.78893   -1243.9149    145547.35   -39926.632    2638.1621   -42564.794    260.85864    220.87564 
   94700    131.36132   -1274.7952    145554.44   -39945.633    2649.7078   -42595.341    260.77003    221.84229 
   94750    130.55762   -936.95305    145474.57   -39932.979    2633.4962   -42566.475    260.56497      220.485 
   94800    131.10022   -1017.9471    145533.88   -39915.009     2644.441    -42559.45    260.81086    221.40134 
   94850    132.42194   -1125.0944    145564.32   -39898.493    2671.1018   -42569.595    260.92641    223.63346 
   94900    130.28284   -1021.7303     145611.5   -39862.557    2627.9535    -42490.51     261.0419    220.02095 
   94950    134.47748   -1149.0784    145634.35   -39818.184    2712.5643   -42530.748     261.1101    227.10484 
   95000    132.61986   -1189.5382    145736.38   -39841.088    2675.0939   -42516.182    261.45832     223.9677 
   95050    133.11697   -1178.7113    145690.08   -39738.414    2685.1213   -42423.536    262.00688    224.80723 
   95100    135.92312   -1222.7346    145717.84   -39745.447    2741.7244   -42487.171    262.38697    229.54623 
   95150    134.51116   -1073.7178    145716.99   -39786.302    2713.2436   -42499.545    262.43035    227.16172 
   95200    133.80212   -1117.6707    145705.57   -39802.616    2698.9415   -42501.558    262.66529     225.9643 
   95250    134.50996   -1198.3739    145731.24   -39783.385    2713.2195   -42496.604    262.32345     227.1597 
   95300    134.70477   -1218.0698    145772.15   -39784.034    2717.1489   -42501.183    262.57957    227.48868 
   95350    131.76739   -1125.4645    145743.09   -39780.383    2657.8986   -42438.281    263.06793    222.52805 
   95400    132.97174   -1181.6605    145696.97   -39804.586    2682.1919   -42486.778    263.12296    224.56197 
   95450    133.20182   -1380.8217    145725.36   -39801.273    2686.8328   -42488.105    263.63735    224.95052 
   95500    133.02749   -1244.3993    145616.24   -39785.423    2683.3163   -42468.739     263.5303     224.6561 
   95550    135.40667   -1279.9743    145582.14   -39803.977    2731.3071   -42535.284    263.63008    228.67406 
   95600     133.0843   -1269.3343    145548.92   -39855.974    2684.4623   -42540.436    263.79841    224.75205 
   95650     133.0051   -1129.0187    145521.33   -39830.931    2682.8648   -42513.796      264.379     224.6183 
   95700    133.90859   -1103.0835     145482.3   -39791.324    2701.0891   -42492.414    264.73374     226.1441 
   95750    132.44575   -1077.8604       145468   -39818.348    2671.5821    -42489.93    264.75686    223.67368 
   95800    132.25907   -1073.2335    145490.26   -39807.769    2667.8165   -42475.585     264.9014    223.35841 
   95850    132.46161   -1029.7885    145553.12   -39796.999    2671.9019   -42468.901    265.24206    223.70046 
   95900    133.48214   -993.36013    145548.88   -39789.743    2692.4871    -42482.23    265.48267    225.42391 
   95950    130.98976   -1134.8936    145562.82   -39812.865     2642.213   -42455.078     265.6364     221.2148 
   96000      133.285    -1246.387     145496.8   -39856.278    2688.5105   -42544.789    265.37282    225.09098 
   96050    132.33233   -1088.5692    145444.51   -39858.941    2669.2941   -42528.235    265.38465    223.48212 
   96100    130.67898   -1111.1165    145529.19   -39830.109    2635.9442   -42466.053    265.50256    220.68996 
   96150    133.93897   -1219.5312    145588.95     -39803.1     2701.702   -42504.802     266.0342    226.19542 
   96200    132.69395   -1023.5525    145613.62   -39855.935    2676.5884   -42532.524    265.89799    224.09282 
   96250    135.96697   -989.78762    145662.71   -39806.005     2742.609   -42548.614    266.08567    229.62028 
   96300    132.58268   -1168.9145    145555.74   -39859.189     2674.344   -42533.533    265.98394    223.90491 
   96350    130.29803   -1403.6603    145499.01   -39850.261      2628.26   -42478.521    266.29633    220.04661 
   96400    135.82698   -1187.3996    145496.93   -39802.683    2739.7852   -42542.468    266.29054    229.38387 
   96450    133.88046    -1057.553       145486    -39837.91    2700.5218   -42538.432    266.89048     226.0966 
   96500    131.60755   -1101.8041     145455.7   -39883.928    2654.6745   -42538.603    266.76848    222.25812 
   96550    133.17023   -1059.2007     145400.6   -39831.971    2686.1956   -42518.166    267.09378    224.89717 
   96600    135.42956   -1032.4028    145446.78   -39806.794    2731.7689   -42538.563     267.6254    228.71271 
   96650    134.85673   -1174.0744    145401.22   -39836.507    2720.2143   -42556.721    268.14921    227.74533 
   96700    134.94931   -1024.1144    145442.88   -39810.837    2722.0816   -42532.918    268.38953    227.90166 
   96750    134.02708   -1078.6867    145425.75    -39833.24    2703.4792   -42536.719    268.37842    226.34421 
   96800    133.84502   -1083.7123    145391.95   -39849.873    2699.8069    -42549.68    268.36387    226.03675 
   96850    131.46125   -960.84563    145464.04   -39824.018    2651.7236   -42475.742    268.84187    222.01106 
   96900    134.91032   -1025.2626     145544.4   -39792.906    2721.2952   -42514.202    269.44488    227.83583 
   96950     134.8845   -1093.5552     145660.4   -39768.517    2720.7744   -42489.291     269.7495    227.79222 
   97000    131.61336   -1030.1899    145673.64   -39792.029    2654.7918   -42446.821     269.7734    222.26794 
   97050    137.38649   -1123.1573    145663.21   -39836.135    2771.2424   -42607.378    269.56047    232.01757 
   97100    133.23797   -1291.9667    145621.93   -39865.776    2687.5619   -42553.338    269.50575    225.01156 
   97150    135.14796   -1118.7399    145558.01   -39886.186    2726.0886   -42612.275    269.57542    228.23715 
   97200    131.75933    -1021.486    145548.53   -39893.622     2657.736   -42551.358    269.89541    222.51444 
   97250    129.92532   -924.32402    145533.25   -39947.525    2620.7419   -42568.267    269.69204    219.41717 
   97300    133.68309   -1182.8685    145576.63    -39892.56    2696.5405     -42589.1    269.35889    225.76328 
   97350    131.97241   -1152.1187    145652.28   -39888.445    2662.0341   -42550.479    269.85553    222.87429 
   97400    134.81532   -1071.3948    145695.81   -39859.792     2719.379   -42579.171    270.16845    227.67539 
   97450    135.56874   -1194.6226    145766.97   -39859.657    2734.5762   -42594.233    270.46128    228.94775 
   97500    135.10704   -1213.1013    145718.07   -39887.385    2725.2633   -42612.648    270.64137    228.16805 
   97550    134.83185   -1006.8322    145694.82   -39856.006    2719.7123   -42575.718    270.59685     227.7033 
   97600    134.40063   -1063.7968    145655.39   -39862.023    2711.0142   -42573.037      270.413    226.97507 
   97650    134.59256   -1120.6973    145732.19   -39870.114    2714.8857       -42585    270.37484     227.2992 
   97700    131.01954   -1154.5702     145714.8   -39909.414    2642.8136   -42552.228    270.71063    221.26509 
   97750    132.08772   -979.57574    145640.84    -39903.63    2664.3602    -42567.99    271.20817    223.06903 
   97800    132.60248   -1099.1145    145668.69    -39865.38    2674.7434   -42540.123    271.33542    223.93836 
   97850    131.96706   -1156.9532    145584.21   -39892.889    2661.9263   -42554.816    271.12432    222.86526 
   97900    134.25877   -1076.5054    145611.93    -39888.24    2708.1527   -42596.393    271.12086    226.73549 
   97950    134.39327    -1048.946     145629.2   -39873.271    2710.8657   -42584.137    271.59283    226.96263 
   98000    134.78016   -1161.6452    145694.12    -39856.06    2718.6697    -42574.73    271.64244    227.61601 
   98050    134.59491   -1037.1376    145791.45   -39855.655     2714.933   -42570.588    271.46593    227.30316 
   98100    132.66737   -1218.1132    145705.72   -39891.398    2676.0523   -42567.451      271.537    224.04794 
   98150    132.74118   -1151.2965    145740.52   -39891.514    2677.5412   -42569.056    271.73454     224.1726 
   98200    132.30158    -1180.493    145732.27   -39887.584    2668.6739   -42556.257     271.8808     223.4302 
   98250      132.589   -1171.0725    145721.47    -39892.06    2674.4716   -42566.532    272.15578    223.91559 
   98300    135.55947   -1135.8882    145765.89    -39875.38    2734.3893    -42609.77    271.79924     228.9321 
   98350    134.27313   -1026.9197    145784.04   -39889.448    2708.4424    -42597.89    271.90629    226.75974 
   98400    134.35012   -1101.6083    145830.19   -39930.413    2709.9953   -42640.409    272.04941    226.88976 
   98450     131.2302   -1031.3136    145971.52   -39904.282     2647.063   -42551.345    272.25915    221.62086 
   98500    134.37892   -1138.3921    145985.62   -39862.016    2710.5763   -42572.592    272.57078     226.9384 
   98550    133.27745   -1142.6685    146018.22    -39912.19    2688.3583   -42600.548    272.68164    225.07823 
   98600    132.53425   -1190.8386    146009.02   -39939.547    2673.3671   -42612.914    273.02985    223.82312 
   98650    133.74672   -1176.5364    146038.56   -39919.251     2697.824   -42617.075    273.05793    225.87074 
   98700    134.62011   -1256.3651    146045.75   -39865.485    2715.4413   -42580.927    273.08258    227.34572 
   98750    132.45678   -1151.5422    146013.89    -39954.04    2671.8044   -42625.844    272.72908    223.69229 
   98800     132.1407   -1069.2859    146023.25   -39951.151    2665.4288   -42616.579    272.79974     223.1585 
   98850    133.99065   -1042.8903    146041.52   -39925.928    2702.7444   -42628.673    272.74734    226.28269 
   98900    130.95119   -1115.3906    146041.79   -39923.736    2641.4349   -42565.171    273.10188    221.14966 
   98950    133.00025   -1315.2304    146033.36   -39950.433    2682.7669   -42633.199    273.25758     224.6101 
   99000    133.93801    -1070.679    145998.88   -39933.989    2701.6827   -42635.671    273.21747     226.1938 
   99050     133.5801    -1237.096    145982.43    -39893.93     2694.463   -42588.393     273.6359    225.58935 
   99100    134.30209   -1078.6878    146071.52   -39886.898    2709.0265   -42595.924    273.60581    226.80865 
   99150    133.39646   -1015.0825    146150.38   -39901.019    2690.7588   -42591.777    273.60569    225.27922 
   99200    132.11621   -1175.6316    146144.92   -39911.212    2664.9348   -42576.147    273.28418    223.11715 
   99250    131.69165   -1069.5072    146120.92   -39901.001     2656.371   -42557.372    273.29475    222.40015 
   99300    134.51167     -1288.24    146054.45   -39920.537    2713.2539   -42633.791    273.44707    227.16258 
   99350    132.70435   -1175.4003    145984.18   -39908.125    2676.7983   -42584.923    274.06445     224.1104 
   99400    131.34334   -1001.9488    145970.72   -39907.843    2649.3451   -42557.188    274.25954    221.81192 
   99450    133.95516   -1055.6524    146011.74   -39882.326    2702.0286   -42584.355    274.64895    226.22276 
   99500    135.67612    -1017.459    146001.57   -39836.156    2736.7422   -42572.899    275.07875     229.1291 
   99550    133.30935   -951.36879    146041.59   -39862.421    2689.0018   -42551.423    275.93053    225.13211 
   99600    133.16619    -1016.231    146026.25   -39880.904    2686.1141   -42567.019    275.55738    224.89035 
   99650    132.37333   -1007.2859    146037.79   -39905.089    2670.1211    -42575.21    275.94036    223.55136 
   99700    135.40407   -948.58535    146044.93   -39895.271    2731.2546   -42626.525    275.91791    228.66966 
   99750    134.03945   -972.71825       146085   -39896.476    2703.7286   -42600.205    275.83864    226.36509 
   99800    132.78857   -996.94213    146118.08   -39835.414     2678.497   -42513.911     276.3917    224.25262 
   99850    133.88523   -1101.1551    146077.55   -39871.056    2700.6179   -42571.674    276.90143    226.10465 
   99900     132.8201   -1219.9041     146045.6   -39861.654    2679.1331   -42540.787    276.62683    224.30587 
   99950    130.85865    -1320.172    145916.36   -39831.818    2639.5683   -42471.387    276.73106    220.99338 
  100000    133.75691   -1028.7201    145830.81   -39806.439    2698.0297   -42504.469    276.51883    225.88796 
Loop time of 182.913 on 64 procs for 100000 steps with 6768 atoms

Performance: 236.178 ns/day, 0.102 hours/ns, 546.708 timesteps/s
100.0% CPU use with 64 MPI tasks x no OpenMP threads

MPI task timing breakdown:
Section |  min time  |  avg time  |  max time  |%varavg| %total
---------------------------------------------------------------
Pair    | 32.751     | 84.922     | 142.78     | 558.5 | 46.43
Neigh   | 1.287      | 2.642      | 6.0275     |  91.1 |  1.44
Comm    | 26.844     | 83.007     | 137.64     | 542.8 | 45.38
Output  | 0.12591    | 0.12715    | 0.14014    |   0.5 |  0.07
Modify  | 6.8933     | 11.45      | 20.391     | 136.0 |  6.26
Other   |            | 0.7652     |            |       |  0.42

Nlocal:    105.75 ave 175 max 67 min
Histogram: 30 2 0 11 5 0 0 0 7 9
Nghost:    993.656 ave 1342 max 675 min
Histogram: 32 0 0 0 0 0 0 0 8 24
Neighs:    0 ave 0 max 0 min
Histogram: 64 0 0 0 0 0 0 0 0 0
FullNghs:  12475.6 ave 27408 max 4125 min
Histogram: 32 0 0 0 15 1 0 0 2 14

Total # of neighbors = 798438
Ave neighs/atom = 117.973
Neighbor list builds = 6132
Dangerous builds = 0

write_data		${DIR}/data.eq-${NAME}-${TEMP}
write_data		run_13/data.eq-${NAME}-${TEMP}
write_data		run_13/data.eq-het_freeze_13-${TEMP}
write_data		run_13/data.eq-het_freeze_13-225
undump          1

reset_timestep  0

unfix           2
unfix           3
unfix           4


################################################
#######         Run Simulation         #########
################################################

log				${DIR}/log.run_${NAME}
log				run_13/log.run_${NAME}
log				run_13/log.run_het_freeze_13
