LAMMPS data file via write_data, version 16 Mar 2018, timestep = 100000

6337 atoms
2 atom types

0.0000000000000000e+00 4.9219999999999999e+01 xlo xhi
0.0000000000000000e+00 4.9019635930410494e+01 ylo yhi
2.7283199623016721e+00 5.7333680037695878e+01 zlo zhi

Masses

1 18.015
2 12.01

Atoms # atomic

3084 1 2.7107681944833386e+00 8.0424486404446114e+00 2.7767861085323040e+00 0 0 1
4760 1 9.8362642933147324e+00 1.1852810726870642e+01 7.5898288658738728e+00 0 0 1
4884 1 5.4303683933132492e+00 2.5204942553152896e+00 6.1600536343400574e+00 0 1 0
4961 1 4.7060891228782422e+00 4.9973915695618052e+00 5.5522847169262182e+00 1 0 0
3348 1 9.8088154666442751e-01 2.3524974296622005e+00 5.4083967681809417e+00 0 0 0
4503 1 8.9162726626415854e+00 3.1345473337046514e+00 4.2517492702039368e+00 0 1 0
29 1 6.0693779267795858e+00 9.8214457424703703e+00 4.8490250437462175e+00 1 0 0
1238 1 4.5875317921248477e+00 9.6876231539571833e+00 7.0262411557121993e+00 0 0 1
1809 1 2.9804726656564249e+00 1.2671605857683674e+00 7.2354011364145068e+00 0 0 1
355 1 6.6789035785369926e+00 1.1280477799546018e+01 9.0867757513364218e+00 0 0 0
3050 1 5.5500699708749594e-02 6.7160280894576276e+00 3.4270754118349562e+00 1 1 1
6150 1 3.2004906060119134e+00 1.2065331410741299e+01 8.0238159520207937e+00 1 0 0
4606 1 6.5849186852361257e+00 2.4258105991244281e+00 8.9459007470294463e+00 1 1 1
5202 1 9.1614038349431173e+00 2.1983513188375241e+00 7.6340086236743163e+00 1 1 0
1832 1 2.4710034836519288e+00 8.4324085673044564e+00 5.7046680951608657e+00 1 0 0
4673 1 2.9522072239795931e+00 6.1599459942814416e+00 7.3735090706183879e+00 0 1 1
6284 1 8.2431607779684302e-01 1.1205772324823783e+01 8.5678641582138049e+00 1 0 0
502 1 9.1007997202399213e+00 6.2498174168316112e+00 7.5249476769518884e+00 0 1 1
2941 1 5.0877341768023161e+00 7.2191734502425637e+00 3.8051142584411233e+00 0 1 1
3445 1 4.7818015892983423e+00 7.9209438030946409e+00 9.3742720186820989e+00 0 1 0
6250 1 2.9973992942478472e-01 1.7690171353566144e+00 8.7890258593320993e+00 0 1 1
1662 1 5.4070198714297826e+00 5.2454868965967885e+00 8.8335420501564919e+00 0 1 0
4612 1 7.4011703083411486e+00 5.2167173142692365e+00 5.5229213687720158e+00 -1 1 1
1822 1 8.3719977229605629e+00 7.8708117321305142e+00 4.5982411125587159e+00 0 0 0
1845 1 2.1376371024164813e+00 4.5699826641095598e+00 3.9965732280868469e+00 1 1 0
1812 1 7.0001591403716343e+00 1.2154525564229941e+01 6.1948603130568003e+00 0 1 0
100 1 8.8303030438072341e+00 7.5168369558285946e+00 1.4431434564591694e+01 0 0 0
21 1 1.2901988016134638e-01 3.9888927506726382e+00 1.2416899141795753e+01 2 1 1
141 1 7.4290351091458113e+00 9.6472754569569474e+00 1.2727806623958589e+01 0 0 0
3160 1 6.5169130807949038e+00 1.4023117224784689e+00 1.3430167444092492e+01 1 1 1
4437 1 4.1531252277033914e+00 1.0549909315503310e+01 1.5369251601900013e+01 1 1 1
2881 1 6.3535192595043890e+00 4.0650548827925592e-01 1.0793124672207165e+01 0 1 1
5148 1 3.7879306221424214e+00 4.4582446647736678e+00 1.1312986923871408e+01 1 0 0
1821 1 3.4192332326866892e+00 7.4511630989787445e+00 1.2097842002522217e+01 0 0 0
3459 1 9.0015571467523969e+00 4.3846218682474767e+00 1.1708438071521764e+01 -1 1 0
3318 1 3.4593233701401247e+00 1.8128399456229936e+00 9.8562106369490969e+00 1 1 0
3416 1 1.4821174173905447e+00 1.0666772374921583e+01 1.4653616541142821e+01 0 0 1
257 1 1.1632141391943964e+00 4.6107135397646575e+00 9.5830656168268860e+00 0 1 0
3194 1 7.7427022418133689e+00 6.1692404459753201e+00 9.6668568755476620e+00 1 1 1
4848 1 7.3794046373611195e+00 8.8261463467350030e+00 9.9698454588728858e+00 0 0 0
3449 1 1.0369954801043653e+00 4.5684125645517321e-01 1.3549951972590886e+01 1 0 0
1433 1 1.5786242611448813e+00 5.8648811504564069e+00 1.4310923076146317e+01 1 0 1
6300 1 7.7512953780822902e-02 2.5875378436599283e+00 1.5138989898396263e+01 1 0 1
5062 1 6.5810112995085204e+00 4.0528771736597973e+00 1.2842978662353245e+01 1 1 0
3262 1 3.5645368737515817e+00 1.9296262999840270e+00 1.3243746157427889e+01 1 0 1
352 1 8.6067770529177101e-01 8.4009962752307104e+00 1.2890517555846840e+01 0 0 1
6226 1 9.1436425407279440e+00 1.2881795551301450e-01 1.0146351871830561e+01 1 1 0
92 1 6.0989630662297287e+00 6.0648045739610827e+00 1.4561455020247578e+01 0 0 1
4913 1 5.2338765750728120e+00 8.3294574857142525e+00 1.3638478058383761e+01 1 0 0
2095 1 3.8636068892446915e+00 5.4613105272210616e+00 1.6054490930489710e+01 0 1 0
1841 1 3.2705917101083593e+00 2.8932629650514650e+00 1.5825629595524669e+01 0 -1 0
1431 1 7.9576589847032437e+00 7.7827056780463977e-03 1.5271677099829429e+01 1 0 1
3222 1 2.1343363366608208e+00 1.1776556707605352e+00 1.7948155577177715e+01 -1 1 1
35 1 5.1541915828301956e+00 1.7033237296823165e+00 1.8525673280893290e+01 0 0 1
5025 1 7.5641370383120980e+00 3.1121768121076552e+00 1.8237241563463812e+01 0 1 0
372 1 2.6345975796642751e+00 3.5971485683144779e+00 2.1238208193819460e+01 1 2 1
4983 1 7.0439347853054972e+00 5.6281458251408152e+00 1.7294996294010879e+01 0 0 0
5157 1 9.6411256530388059e+00 1.9476600274783060e+00 1.6663556527964111e+01 0 0 0
5155 1 3.4749355867649254e+00 6.9434598664193228e+00 1.8391978523112392e+01 0 -1 0
5065 1 4.8770049587756468e+00 9.2467267185804047e+00 1.7697499643887703e+01 1 0 1
4907 1 6.7931071328463766e-01 1.0489867349178537e+01 1.7440794946522423e+01 0 0 0
5275 1 7.6353019385228083e-01 7.5669168536021605e+00 1.9052459984578665e+01 0 0 0
518 1 3.2948644179606505e+00 1.1308257320925202e+01 2.1321888994700693e+01 0 0 0
3478 1 9.4748702518128471e+00 4.2571600240897917e-01 2.1938607666435878e+01 0 0 0
1543 1 9.4031863505169060e+00 7.2556613836190813e+00 1.9671436657356409e+01 0 0 1
198 1 2.8401845482579874e-01 5.8426265353554223e+00 1.6946779259085915e+01 0 0 1
1984 1 7.5548931265129369e+00 2.3268681980397194e+00 2.1144524757546716e+01 0 1 0
189 1 5.0826315227378780e+00 3.9854496579629722e-01 2.1222637906812015e+01 1 0 0
3412 1 4.9782064086005962e+00 5.0140177218921451e+00 1.9871754506069294e+01 1 0 0
489 1 7.6615089219209720e+00 5.1863861633448227e+00 2.0650976907621931e+01 -1 0 1
45 1 6.4334660469943286e+00 9.6442039909397455e+00 2.1152470462421462e+01 0 0 1
2951 1 4.8115686471206089e+00 7.3149958460758242e+00 2.1463787889899905e+01 0 0 0
4468 1 2.2489090314270346e+00 9.6351259918767018e-01 2.0655813813249974e+01 1 0 1
1989 1 2.2358710753483306e+00 8.6343013982530810e+00 2.1479712160132085e+01 1 1 0
3108 1 9.2865378476434906e+00 9.7544583916457608e+00 2.0725846229557739e+01 0 0 1
1262 1 4.0673948541771212e+00 1.1961858497827825e+01 1.8597064388531031e+01 0 1 1
361 1 1.1118920599886195e-01 3.1444704151834597e+00 1.8104663942355373e+01 0 0 0
238 1 1.5285764122310201e+00 5.0564715936136393e+00 2.4168430904162733e+01 0 1 0
1435 1 5.3822618585464062e+00 1.6639996195048647e+00 2.3654577378845406e+01 0 0 1
687 2 8.6134999999999984e+00 9.2355835810918343e+00 2.6886445980049903e+01 0 0 0
1 1 7.8215246745010267e+00 2.4680700015638792e+00 2.4568854183476535e+01 0 2 0
681 2 6.1524999999999999e+00 1.0656442593567499e+01 2.6886445980049903e+01 0 0 0
3274 1 4.0607525616723343e+00 4.2795428882480193e+00 2.3714462924597115e+01 1 0 0
4971 1 8.1580545150911750e+00 5.0028783569303448e+00 2.3270871918498827e+01 1 0 1
2014 1 6.0290105109714247e+00 6.4141627446295244e+00 2.4103910273154064e+01 0 -1 0
3470 1 1.2136323271805087e+00 7.8299177198222178e+00 2.4116459747759315e+01 0 0 0
2046 1 3.2124034458588682e+00 1.0414861536853106e+01 2.4047399299465908e+01 1 0 0
195 1 5.8264033424052570e+00 9.3244081008415485e+00 2.4084036674691543e+01 0 1 0
5203 1 8.4110788899918223e+00 1.0766726880125887e+01 2.4323788539113675e+01 0 0 0
554 2 0.0000000000000000e+00 2.8417180249513345e+00 2.6886445980049903e+01 0 0 0
556 2 0.0000000000000000e+00 0.0000000000000000e+00 2.6886445980049903e+01 0 0 0
558 2 1.2305000000000001e+00 7.1042950623783474e-01 2.6886445980049903e+01 0 0 0
565 2 1.2305000000000001e+00 2.1312885187134998e+00 2.6886445980049903e+01 0 0 0
567 2 2.4610000000000003e+00 2.8417180249513345e+00 2.6886445980049903e+01 0 0 0
569 2 2.4610000000000003e+00 0.0000000000000000e+00 2.6886445980049903e+01 0 0 0
571 2 3.6915000000000004e+00 7.1042950623783474e-01 2.6886445980049903e+01 0 0 0
586 2 3.6914999999999996e+00 2.1312885187134998e+00 2.6886445980049903e+01 0 0 0
588 2 4.9220000000000006e+00 2.8417180249513332e+00 2.6886445980049903e+01 0 0 0
590 2 4.9220000000000006e+00 0.0000000000000000e+00 2.6886445980049903e+01 0 0 0
592 2 6.1524999999999999e+00 7.1042950623783407e-01 2.6886445980049903e+01 0 0 0
615 2 6.1524999999999999e+00 2.1312885187134989e+00 2.6886445980049903e+01 0 0 0
617 2 7.3829999999999991e+00 2.8417180249513345e+00 2.6886445980049903e+01 0 0 0
619 2 7.3829999999999991e+00 0.0000000000000000e+00 2.6886445980049903e+01 0 0 0
621 2 8.6134999999999984e+00 7.1042950623783407e-01 2.6886445980049903e+01 0 0 0
652 2 8.6134999999999984e+00 2.1312885187135002e+00 2.6886445980049903e+01 0 0 0
561 2 0.0000000000000000e+00 4.2625770374269996e+00 2.6886445980049903e+01 0 0 0
563 2 1.2305000000000001e+00 4.9730065436648339e+00 2.6886445980049903e+01 0 0 0
578 2 1.2305000000000001e+00 6.3938655561404980e+00 2.6886445980049903e+01 0 0 0
582 2 2.4610000000000003e+00 4.2625770374269996e+00 2.6886445980049903e+01 0 0 0
584 2 3.6914999999999996e+00 4.9730065436648339e+00 2.6886445980049903e+01 0 0 0
607 2 3.6914999999999996e+00 6.3938655561404980e+00 2.6886445980049903e+01 0 0 0
559 2 0.0000000000000000e+00 7.1042950623783341e+00 2.6886445980049903e+01 0 0 0
580 2 2.4610000000000003e+00 7.1042950623783341e+00 2.6886445980049903e+01 0 0 0
611 2 4.9220000000000006e+00 4.2625770374269978e+00 2.6886445980049903e+01 0 0 0
613 2 6.1524999999999999e+00 4.9730065436648339e+00 2.6886445980049903e+01 0 0 0
644 2 6.1524999999999999e+00 6.3938655561404980e+00 2.6886445980049903e+01 0 0 0
648 2 7.3829999999999991e+00 4.2625770374269996e+00 2.6886445980049903e+01 0 0 0
650 2 8.6135000000000002e+00 4.9730065436648339e+00 2.6886445980049903e+01 0 0 0
689 2 8.6135000000000002e+00 6.3938655561404980e+00 2.6886445980049903e+01 0 0 0
609 2 4.9220000000000006e+00 7.1042950623783341e+00 2.6886445980049903e+01 0 0 0
646 2 7.3830000000000009e+00 7.1042950623783341e+00 2.6886445980049903e+01 0 0 0
574 2 0.0000000000000000e+00 8.5251540748539991e+00 2.6886445980049903e+01 0 0 0
576 2 1.2305000000000001e+00 9.2355835810918343e+00 2.6886445980049903e+01 0 0 0
603 2 2.4610000000000003e+00 8.5251540748539991e+00 2.6886445980049903e+01 0 0 0
605 2 3.6915000000000004e+00 9.2355835810918343e+00 2.6886445980049903e+01 0 0 0
572 2 0.0000000000000000e+00 1.1366872099805333e+01 2.6886445980049903e+01 0 0 0
599 2 1.2305000000000001e+00 1.0656442593567498e+01 2.6886445980049903e+01 0 0 0
601 2 2.4610000000000003e+00 1.1366872099805333e+01 2.6886445980049903e+01 0 0 0
636 2 3.6914999999999996e+00 1.0656442593567499e+01 2.6886445980049903e+01 0 0 0
685 2 7.3830000000000009e+00 8.5251540748539991e+00 2.6886445980049903e+01 0 0 0
640 2 4.9220000000000006e+00 8.5251540748539991e+00 2.6886445980049903e+01 0 0 0
638 2 4.9220000000000006e+00 1.1366872099805333e+01 2.6886445980049903e+01 0 0 0
683 2 7.3829999999999991e+00 1.1366872099805333e+01 2.6886445980049903e+01 0 0 0
642 2 6.1524999999999999e+00 9.2355835810918343e+00 2.6886445980049903e+01 0 0 0
728 2 8.6134999999999984e+00 1.0656442593567498e+01 2.6886445980049903e+01 0 0 0
555 2 0.0000000000000000e+00 1.4208590124756650e+00 3.0030999999998805e+01 0 0 0
557 2 0.0000000000000000e+00 0.0000000000000000e+00 3.0030999999998805e+01 0 0 0
566 2 1.2305000000000001e+00 2.1312885187134998e+00 3.0030999999998805e+01 0 0 0
568 2 2.4610000000000003e+00 1.4208590124756650e+00 3.0030999999998805e+01 0 0 0
570 2 2.4610000000000003e+00 0.0000000000000000e+00 3.0030999999998805e+01 0 0 0
587 2 3.6914999999999996e+00 2.1312885187134998e+00 3.0030999999998805e+01 0 0 0
564 2 1.2305000000000001e+00 3.5521475311891644e+00 3.0030999999998805e+01 0 0 0
585 2 3.6914999999999996e+00 3.5521475311891644e+00 3.0030999999998805e+01 0 0 0
883 2 0.0000000000000000e+00 2.8417180249513345e+00 3.3175554019946240e+01 0 0 0
884 2 0.0000000000000000e+00 0.0000000000000000e+00 3.3175554019946240e+01 0 0 0
885 2 1.2305000000000001e+00 7.1042950623783474e-01 3.3175554019946240e+01 0 0 0
889 2 1.2305000000000001e+00 2.1312885187134998e+00 3.3175554019946240e+01 0 0 0
890 2 2.4610000000000003e+00 2.8417180249513345e+00 3.3175554019946240e+01 0 0 0
891 2 2.4610000000000003e+00 0.0000000000000000e+00 3.3175554019946240e+01 0 0 0
892 2 3.6915000000000004e+00 7.1042950623783474e-01 3.3175554019946240e+01 0 0 0
900 2 3.6914999999999996e+00 2.1312885187134998e+00 3.3175554019946240e+01 0 0 0
589 2 4.9220000000000006e+00 1.4208590124756650e+00 3.0030999999998805e+01 0 0 0
591 2 4.9220000000000006e+00 0.0000000000000000e+00 3.0030999999998805e+01 0 0 0
616 2 6.1524999999999999e+00 2.1312885187134989e+00 3.0030999999998805e+01 0 0 0
618 2 7.3829999999999991e+00 1.4208590124756659e+00 3.0030999999998805e+01 0 0 0
620 2 7.3829999999999991e+00 0.0000000000000000e+00 3.0030999999998805e+01 0 0 0
653 2 8.6134999999999984e+00 2.1312885187135002e+00 3.0030999999998805e+01 0 0 0
614 2 6.1524999999999999e+00 3.5521475311891644e+00 3.0030999999998805e+01 0 0 0
651 2 8.6134999999999984e+00 3.5521475311891657e+00 3.0030999999998805e+01 0 0 0
901 2 4.9220000000000006e+00 2.8417180249513332e+00 3.3175554019946240e+01 0 0 0
902 2 4.9220000000000006e+00 0.0000000000000000e+00 3.3175554019946240e+01 0 0 0
903 2 6.1524999999999999e+00 7.1042950623783407e-01 3.3175554019946240e+01 0 0 0
915 2 6.1524999999999999e+00 2.1312885187134989e+00 3.3175554019946240e+01 0 0 0
916 2 7.3829999999999991e+00 2.8417180249513345e+00 3.3175554019946240e+01 0 0 0
917 2 7.3829999999999991e+00 0.0000000000000000e+00 3.3175554019946240e+01 0 0 0
918 2 8.6134999999999984e+00 7.1042950623783407e-01 3.3175554019946240e+01 0 0 0
934 2 8.6134999999999984e+00 2.1312885187135002e+00 3.3175554019946240e+01 0 0 0
560 2 0.0000000000000000e+00 5.6834360499026637e+00 3.0030999999998805e+01 0 0 0
562 2 0.0000000000000000e+00 4.2625770374269996e+00 3.0030999999998805e+01 0 0 0
579 2 1.2305000000000001e+00 6.3938655561404980e+00 3.0030999999998805e+01 0 0 0
581 2 2.4610000000000003e+00 5.6834360499026637e+00 3.0030999999998805e+01 0 0 0
583 2 2.4610000000000003e+00 4.2625770374269996e+00 3.0030999999998805e+01 0 0 0
608 2 3.6914999999999996e+00 6.3938655561404980e+00 3.0030999999998805e+01 0 0 0
577 2 1.2305000000000001e+00 7.8147245686161639e+00 3.0030999999998805e+01 0 0 0
606 2 3.6914999999999996e+00 7.8147245686161639e+00 3.0030999999998805e+01 0 0 0
887 2 0.0000000000000000e+00 4.2625770374269996e+00 3.3175554019946240e+01 0 0 0
888 2 1.2305000000000001e+00 4.9730065436648339e+00 3.3175554019946240e+01 0 0 0
896 2 1.2305000000000001e+00 6.3938655561404980e+00 3.3175554019946240e+01 0 0 0
898 2 2.4610000000000003e+00 4.2625770374269996e+00 3.3175554019946240e+01 0 0 0
899 2 3.6914999999999996e+00 4.9730065436648339e+00 3.3175554019946240e+01 0 0 0
911 2 3.6914999999999996e+00 6.3938655561404980e+00 3.3175554019946240e+01 0 0 0
886 2 0.0000000000000000e+00 7.1042950623783341e+00 3.3175554019946240e+01 0 0 0
897 2 2.4610000000000003e+00 7.1042950623783341e+00 3.3175554019946240e+01 0 0 0
610 2 4.9220000000000006e+00 5.6834360499026637e+00 3.0030999999998805e+01 0 0 0
612 2 4.9220000000000006e+00 4.2625770374269978e+00 3.0030999999998805e+01 0 0 0
645 2 6.1524999999999999e+00 6.3938655561404980e+00 3.0030999999998805e+01 0 0 0
647 2 7.3829999999999991e+00 5.6834360499026637e+00 3.0030999999998805e+01 0 0 0
649 2 7.3829999999999991e+00 4.2625770374269996e+00 3.0030999999998805e+01 0 0 0
690 2 8.6135000000000002e+00 6.3938655561404980e+00 3.0030999999998805e+01 0 0 0
643 2 6.1524999999999999e+00 7.8147245686161639e+00 3.0030999999998805e+01 0 0 0
688 2 8.6135000000000002e+00 7.8147245686161639e+00 3.0030999999998805e+01 0 0 0
913 2 4.9220000000000006e+00 4.2625770374269978e+00 3.3175554019946240e+01 0 0 0
914 2 6.1524999999999999e+00 4.9730065436648339e+00 3.3175554019946240e+01 0 0 0
930 2 6.1524999999999999e+00 6.3938655561404980e+00 3.3175554019946240e+01 0 0 0
932 2 7.3829999999999991e+00 4.2625770374269996e+00 3.3175554019946240e+01 0 0 0
933 2 8.6135000000000002e+00 4.9730065436648339e+00 3.3175554019946240e+01 0 0 0
953 2 8.6135000000000002e+00 6.3938655561404980e+00 3.3175554019946240e+01 0 0 0
912 2 4.9220000000000006e+00 7.1042950623783341e+00 3.3175554019946240e+01 0 0 0
931 2 7.3830000000000009e+00 7.1042950623783341e+00 3.3175554019946240e+01 0 0 0
573 2 0.0000000000000000e+00 9.9460130873296642e+00 3.0030999999998805e+01 0 0 0
575 2 0.0000000000000000e+00 8.5251540748539991e+00 3.0030999999998805e+01 0 0 0
602 2 2.4610000000000003e+00 9.9460130873296642e+00 3.0030999999998805e+01 0 0 0
604 2 2.4610000000000003e+00 8.5251540748539991e+00 3.0030999999998805e+01 0 0 0
598 2 1.2305000000000001e+00 1.2077301606043163e+01 3.0030999999998805e+01 0 0 0
600 2 1.2305000000000001e+00 1.0656442593567498e+01 3.0030999999998805e+01 0 0 0
635 2 3.6914999999999996e+00 1.2077301606043163e+01 3.0030999999998805e+01 0 0 0
637 2 3.6914999999999996e+00 1.0656442593567499e+01 3.0030999999998805e+01 0 0 0
894 2 0.0000000000000000e+00 8.5251540748539991e+00 3.3175554019946240e+01 0 0 0
895 2 1.2305000000000001e+00 9.2355835810918343e+00 3.3175554019946240e+01 0 0 0
909 2 2.4610000000000003e+00 8.5251540748539991e+00 3.3175554019946240e+01 0 0 0
910 2 3.6915000000000004e+00 9.2355835810918343e+00 3.3175554019946240e+01 0 0 0
893 2 0.0000000000000000e+00 1.1366872099805333e+01 3.3175554019946240e+01 0 0 0
907 2 1.2305000000000001e+00 1.0656442593567498e+01 3.3175554019946240e+01 0 0 0
908 2 2.4610000000000003e+00 1.1366872099805333e+01 3.3175554019946240e+01 0 0 0
926 2 3.6914999999999996e+00 1.0656442593567499e+01 3.3175554019946240e+01 0 0 0
639 2 4.9220000000000006e+00 9.9460130873296642e+00 3.0030999999998805e+01 0 0 0
641 2 4.9220000000000006e+00 8.5251540748539991e+00 3.0030999999998805e+01 0 0 0
684 2 7.3830000000000009e+00 9.9460130873296642e+00 3.0030999999998805e+01 0 0 0
686 2 7.3830000000000009e+00 8.5251540748539991e+00 3.0030999999998805e+01 0 0 0
680 2 6.1524999999999999e+00 1.2077301606043163e+01 3.0030999999998805e+01 0 0 0
682 2 6.1524999999999999e+00 1.0656442593567499e+01 3.0030999999998805e+01 0 0 0
727 2 8.6135000000000002e+00 1.2077301606043163e+01 3.0030999999998805e+01 0 0 0
729 2 8.6134999999999984e+00 1.0656442593567498e+01 3.0030999999998805e+01 0 0 0
928 2 4.9220000000000006e+00 8.5251540748539991e+00 3.3175554019946240e+01 0 0 0
929 2 6.1524999999999999e+00 9.2355835810918343e+00 3.3175554019946240e+01 0 0 0
951 2 7.3830000000000009e+00 8.5251540748539991e+00 3.3175554019946240e+01 0 0 0
952 2 8.6134999999999984e+00 9.2355835810918343e+00 3.3175554019946240e+01 0 0 0
927 2 4.9220000000000006e+00 1.1366872099805333e+01 3.3175554019946240e+01 0 0 0
949 2 6.1524999999999999e+00 1.0656442593567499e+01 3.3175554019946240e+01 0 0 0
950 2 7.3829999999999991e+00 1.1366872099805333e+01 3.3175554019946240e+01 0 0 0
973 2 8.6134999999999984e+00 1.0656442593567498e+01 3.3175554019946240e+01 0 0 0
4873 1 4.5724581079154829e+00 2.8003147582825649e-01 3.5501020789468427e+01 1 0 -1
4511 1 7.7521251516209899e+00 7.3784763650393002e+00 3.6006323815688461e+01 1 1 0
3008 1 7.7578047717770957e+00 1.6574436940919854e+00 3.5539165137005256e+01 1 0 -1
1402 1 3.8533743480794742e+00 5.2845136758415068e+00 3.6376591982422298e+01 1 1 0
3456 1 1.3817824707757367e+00 9.9701427310624879e-01 3.6067120636093023e+01 1 0 -1
6177 1 2.5314151987234732e+00 1.1708415022784408e+01 3.6495041020546410e+01 1 0 0
1869 1 3.6387630143310465e+00 9.0630610353673742e+00 3.6597357392309888e+01 0 0 -1
6309 1 1.5334702150957216e+00 7.0596646070284432e+00 3.6345823176376015e+01 1 1 0
3155 1 7.2464321473728770e+00 4.3946527670336595e+00 3.6119619911321294e+01 0 1 0
5282 1 6.1800793040199364e+00 9.5932883257294499e+00 3.5730993490390304e+01 1 1 0
3535 1 2.1605541649493589e+00 3.7728357616790467e+00 4.1159601380670267e+01 0 1 -1
1599 1 4.6999988063450946e+00 2.5500210762335533e+00 4.0100630608523034e+01 0 0 0
4590 1 7.1528048359762959e+00 1.7300728239903607e+00 3.8040724806726075e+01 1 1 -1
3730 1 4.1062486214079827e+00 7.5940086625379823e+00 3.8869170500429121e+01 -1 0 0
4626 1 2.3126037495635328e+00 6.6907443549439751e+00 4.1035706984564825e+01 1 1 -1
1376 1 8.0634581593244548e+00 6.0755598274278162e+00 4.2394106976000174e+01 1 1 0
1661 1 7.7940955396357197e+00 6.4394008189716310e+00 3.9918814235986531e+01 0 0 -1
1408 1 6.7533740808793463e-01 7.3946814700851506e+00 3.8822420683196356e+01 0 0 0
4721 1 9.1767046475457263e+00 2.0525415938335532e+00 4.2241697745616079e+01 1 0 0
3695 1 4.2372389919784545e+00 1.5997036218348246e-01 3.8531267979040621e+01 1 2 0
2865 1 6.5888750326323224e+00 8.7656133104325651e+00 3.9725322004159736e+01 0 0 0
3172 1 7.0283385354735461e-01 2.9219057467130862e+00 3.8845619966435379e+01 1 1 -1
2153 1 7.8074872223167562e+00 1.0854746417047162e+01 3.8272238064093784e+01 -1 0 0
1951 1 5.8636433106710237e+00 4.7922212940904529e+00 3.8668450633778008e+01 1 1 -1
3279 1 8.5804243523763155e+00 8.9253243559189155e+00 4.2991741361504410e+01 1 0 -1
2135 1 6.5696327540620780e+00 3.3483880053241455e+00 4.2237794246910241e+01 1 1 0
2129 1 3.5160559857527831e+00 7.7277274359645487e+00 4.3494632068479405e+01 1 1 0
4677 1 1.9440229152189417e+00 1.1961719590432082e+01 4.2533636351915717e+01 0 -1 0
4610 1 6.4317379511772055e+00 1.1058752918123583e+01 4.1943494122614553e+01 1 1 0
4564 1 9.3544732184869996e+00 7.5697074316663859e-01 3.9565076760929301e+01 -1 1 -1
2830 1 4.1766630790286641e+00 1.0359422499620822e+01 4.3054998929082927e+01 1 0 0
4775 1 3.2457663698505304e+00 2.8059073312906535e+00 3.7296317621294250e+01 1 0 0
2825 1 1.8453039698647642e+00 1.1455397097228147e+01 3.8921265121092461e+01 1 0 0
3099 1 3.8771007609524105e-01 3.4563730021818329e-01 4.3305885526982976e+01 0 1 0
102 1 4.4056396583390027e+00 2.2431169740994630e+00 4.7689761714472141e+01 0 0 -1
4557 1 8.9772951788983253e+00 1.1294468580126159e+01 4.9147861749240946e+01 0 1 0
2116 1 6.5529213503842132e-01 4.5111436410909338e+00 4.7628428941966121e+01 0 1 0
5259 1 8.1386310869333816e+00 1.4498260499259308e+00 4.6187591675374634e+01 1 1 0
4874 1 1.4137815959072269e+00 6.9926101271576906e+00 4.5092580363620428e+01 1 0 -1
3399 1 4.8468645781533262e+00 8.6892961535067261e+00 4.7739863670358702e+01 0 1 -1
1350 1 6.7283209952015497e+00 7.4709422831448915e+00 4.6420513948725016e+01 0 1 0
1261 1 8.2599576823945284e+00 9.5005986982839854e+00 4.5503896403993267e+01 -1 0 0
3134 1 5.9038666098514598e+00 6.1764248127628090e+00 4.4274022418198228e+01 0 1 0
2028 1 8.9387141748406744e+00 3.6804058478090846e+00 4.7469476155149891e+01 0 0 0
1574 1 5.3332855426927527e-02 4.3268577109862436e+00 4.4576553271409992e+01 0 1 -1
3236 1 4.4465443009788324e+00 3.6129161111523564e+00 4.5182817122891791e+01 1 0 0
6247 1 4.6064289167669044e+00 1.0861092269197096e+01 4.5701345649489511e+01 0 -1 -1
1670 1 4.6523355268588595e+00 1.1654165138482625e+01 4.8565472548322717e+01 1 1 -1
6011 1 4.4747162442893567e+00 4.8142255184091223e+00 4.9037272515514019e+01 0 0 0
3740 1 7.1436246150749243e+00 5.6221254658234212e+00 4.8441974385481117e+01 1 -1 0
5323 1 2.7248830102280102e+00 6.6488093562364137e+00 4.7611311515229161e+01 1 1 0
1401 1 7.2754735537985393e-01 8.2662738466333447e+00 4.9254648500777208e+01 0 0 0
1937 1 7.0390136157995737e+00 1.1942727806495956e+01 4.4854231662962150e+01 1 0 -1
4978 1 6.1604884733569119e+00 1.7108221668515593e+00 4.4364678436656845e+01 1 1 -1
4693 1 2.6546310908206343e+00 4.8203588366757028e-01 4.9917562194115064e+01 1 0 0
2026 1 3.4348217160505392e+00 9.0355174618483467e+00 5.0498495626311410e+01 0 1 0
1855 1 2.0124825155556310e+00 1.1814712732121690e+01 5.0074849431431460e+01 1 0 0
4835 1 2.1197739776595315e+00 2.6892589018174364e+00 4.3789171839763043e+01 1 1 -1
3436 1 6.3506758282412274e+00 2.7374345317666998e-01 4.7762008857681678e+01 0 1 -1
1988 1 2.1122441620725851e-01 1.0622770391745172e+01 4.7957931361984777e+01 0 0 -1
3557 1 2.0888411803921353e-01 4.4337059837828585e+00 5.0350311793141685e+01 0 0 -1
1400 1 6.3464061414733886e+00 7.1163859870913839e+00 5.2427733612148643e+01 1 0 0
2968 1 2.9270387751950464e+00 9.0749845489940872e-01 5.5652266782207732e+01 1 -1 0
1649 1 1.3066979907678102e+00 1.1689796620968393e+00 5.3234333420564809e+01 0 1 -1
303 1 7.3680024304261833e+00 6.1157981055374773e+00 5.4901006504996062e+01 1 1 -1
6255 1 2.5173291539959428e+00 1.0489917947543448e+01 5.5781571591045420e+01 0 0 -1
1570 1 2.3454910763604278e+00 3.6109768996789393e+00 5.2154463693792920e+01 0 0 0
1255 1 3.0240721162758160e+00 3.7250649772976439e+00 5.6156560003371467e+01 -1 0 -1
3136 1 5.8996984856550814e+00 9.3107252013545434e+00 5.4351415941401171e+01 0 0 -1
1398 1 6.5133355462334137e+00 4.9908222554555515e-01 5.2677253943134261e+01 1 1 0
4583 1 7.8550756370593788e+00 3.1659879424215496e+00 5.3824595229369748e+01 0 1 0
1730 1 4.5141207267381898e+00 2.1588079176801838e+00 5.1043124194195684e+01 0 1 -1
4578 1 4.2038855945277813e+00 1.0500941788471597e+01 5.2635134979626216e+01 1 0 0
2974 1 7.2640718051965898e+00 1.1647387837052452e+01 5.5523879372689677e+01 1 0 0
3708 1 3.7543751184038507e+00 6.4270333430039557e+00 5.1342851110458298e+01 1 0 0
1540 1 7.4616970971113235e+00 2.4238901684627758e+00 5.6504480980902557e+01 0 1 0
6083 1 8.6543149829093622e+00 6.1501128358828456e+00 5.0739785869111756e+01 1 1 0
4724 1 1.7909595808079057e+00 5.2858919549785393e+00 5.4147373683168908e+01 0 0 0
3077 1 7.8905597744467251e+00 8.4300961434384050e+00 5.6657109231058797e+01 1 0 -1
3295 1 2.8124778264174735e+00 8.0746322871840643e+00 5.4008275051369409e+01 0 0 -1
1834 1 5.5449646292481560e+00 4.7759542700966744e+00 5.6620685241017910e+01 0 0 -1
3082 1 9.7444898162736617e+00 9.0034817922832673e+00 5.0956587766387074e+01 0 0 0
2009 1 1.6850562087776313e+00 1.1804989214166923e+01 5.3021790375440446e+01 0 0 -1
4808 1 4.8589462160677881e+00 1.1279775052183574e+01 5.7276068983931609e+01 1 0 -1
4947 1 9.7780858789063885e+00 7.3163516172820753e-01 5.3061370227944067e+01 0 1 0
5119 1 1.1454555952799386e+00 1.3717362295990000e+01 2.9367987881147957e+00 1 0 0
1846 1 5.0644010267275785e+00 1.4051400585268667e+01 4.1275093742119289e+00 0 1 0
116 1 7.7470150647445548e+00 1.4240702068860301e+01 3.4591613722470349e+00 1 0 1
3530 1 5.3040361182581908e+00 1.4148588126675209e+01 7.4268432076933610e+00 1 0 0
4457 1 9.2184973352878892e+00 2.3545233877139342e+01 7.3824765110766419e+00 0 1 1
3356 1 8.9756817466430299e+00 1.8911578246036427e+01 4.4946201326296187e+00 -1 0 0
1585 1 4.3733916889445164e+00 1.6987783381025100e+01 4.1989329382945559e+00 0 -1 0
3119 1 4.3888603758676448e+00 2.1686572202239919e+01 3.5574423135067175e+00 0 1 0
517 1 1.7249453544693483e+00 1.5848987358676363e+01 7.2486216045741694e+00 1 0 1
2893 1 7.7280876685534698e+00 2.1176326161759611e+01 5.7989918643108425e+00 0 0 1
1831 1 7.1866591127634383e-02 1.6698667351635933e+01 5.4164737534482024e+00 2 1 0
1874 1 7.4786925079499138e+00 2.2593460361418281e+01 3.2203150586199989e+00 0 0 0
4695 1 4.7258511209255394e+00 2.4252831913489725e+01 4.4239792648411784e+00 1 0 1
4795 1 7.9451324392605658e+00 1.6200333448028193e+01 8.3131831712769646e+00 1 0 0
4972 1 3.9800841535121378e+00 2.4311690462307592e+01 7.3355064839556681e+00 0 0 0
519 1 1.3774109178713929e+00 2.1125433426610442e+01 8.3327851556040908e+00 0 1 1
1835 1 2.6494746825974618e+00 2.0472156111024621e+01 5.5082366720546290e+00 0 0 0
5240 1 3.2543601951322683e+00 1.8478457153863509e+01 7.8106214179733380e+00 0 -1 1
2073 1 5.2700343381726542e+00 1.6820725878003316e+01 6.9764015494127118e+00 1 0 0
1577 1 4.1086367237961463e+00 2.1825582247263114e+01 8.4168978904434457e+00 0 -1 0
5167 1 7.9522694592035954e+00 1.6167429613648654e+01 5.5914337642003247e+00 0 0 0
6106 1 5.9802269999539925e+00 1.9801085114004191e+01 7.8484143698872142e+00 0 0 1
1501 1 2.6355915211568572e-02 2.1040858052183228e+01 4.4238324960877691e+00 0 0 0
4421 1 2.3968585338507400e+00 1.3587807083271178e+01 5.6044311824772679e+00 0 1 1
1259 1 5.9887213114878417e+00 1.9345057527387574e+01 3.7543105233783787e+00 0 1 1
3419 1 5.4875795558638227e+00 1.3124904571996964e+01 1.1021225551112058e+01 0 0 0
1691 1 4.9465703020310814e+00 2.1915047642868828e+01 1.5120173687487453e+01 0 0 1
3243 1 5.9615772676388321e+00 1.5808044339521869e+01 1.0444965024623563e+01 0 0 0
493 1 8.8442484327969773e+00 1.5454906327819925e+01 1.3906444680334758e+01 0 1 1
2841 1 7.8617833415717842e-01 2.1123199193521994e+01 1.1144985555425214e+01 0 0 1
4908 1 6.5812835869266673e+00 1.6570718439871271e+01 1.3104453513727249e+01 0 0 0
5059 1 3.0405662751736324e+00 1.9598558126441461e+01 1.1902516287318747e+01 0 0 0
3289 1 5.5815915111340937e+00 2.0947900283584413e+01 1.2697527941237313e+01 1 0 1
6307 1 7.5489724943370229e+00 1.9358275262807950e+01 1.3719970722297793e+01 0 0 1
98 1 1.6966856526850145e+00 2.3475388079714058e+01 1.2607563982845399e+01 0 1 0
3494 1 3.9707262489861916e+00 2.3320070139887175e+01 1.0883835755016909e+01 0 0 0
3401 1 5.5321114155704292e+00 1.3063563668026365e+01 1.5287352385861835e+01 1 0 0
4862 1 8.8775382762011130e+00 2.1408333964874416e+01 1.2034864879286516e+01 1 0 1
5057 1 3.1129409491617901e+00 1.4378341702169330e+01 1.5381954495295904e+01 0 0 0
5113 1 4.9939853188555459e+00 1.6613015931279897e+01 1.5249045893663817e+01 1 0 0
1479 1 1.1647915379916418e+00 1.3488257217864618e+01 1.3430228851597720e+01 0 0 1
423 1 7.4964863376531072e+00 1.2360586355922148e+01 1.3109084686132123e+01 0 0 0
420 1 2.6901509874236802e+00 1.2994426000311893e+01 1.0824788415064793e+01 0 0 0
1515 1 3.6524630737370019e+00 1.7382768126816394e+01 1.0298769022472410e+01 1 1 1
5985 1 3.9245195943519176e+00 1.9263099783429734e+01 1.5311767508778535e+01 1 0 1
1555 1 3.2068628448963932e-01 2.2514242413219854e+01 1.4976376030168097e+01 1 0 1
5228 1 6.8000776439128927e+00 2.3608928207106317e+01 1.1957412517041394e+01 1 -1 1