
# Create simulation box and atoms

read_data data.ML_graphite_m1000atm_250K
  orthogonal box = (0 0 1.04861) to (49.22 49.0196 38.9514)
  5 by 4 by 4 MPI processor grid
  reading atoms ...
  5031 atoms
  reading velocities ...
  5031 velocities
group water type 1
2271 atoms in group water
group graphite type 2
2760 atoms in group graphite

# Define potential

pair_style sw
pair_coeff * * MLC_e.sw mW C


# Fix graphite atoms in place

fix 5 graphite setforce 0.0 0.0 0.0
velocity graphite set 0.0 0.0 0.0


# Equilibration of molecular water

# Add velocity/set timestep

velocity	    water create ${TEMP} ${SEED} rot yes dist gaussian
velocity	    water create 250 ${SEED} rot yes dist gaussian
velocity	    water create 250 13570 rot yes dist gaussian
timestep	    5.0

# Define output

compute			1 water msd
compute			3 water temp
thermo	    	50
thermo_style	custom step temp press vol etotal ke pe c_1[4] c_3

# Neighbor lists

neigh_modify    delay 0 every 1 check yes

# Set fixes

fix             1 water momentum 10 linear 1 1 1 rescale
fix             2 water nve
fix             3 water temp/csvr ${TEMP} ${TEMP} 500.0 ${SEED}
fix             3 water temp/csvr 250 ${TEMP} 500.0 ${SEED}
fix             3 water temp/csvr 250 250 500.0 ${SEED}
fix             3 water temp/csvr 250 250 500.0 13570
fix             4 water press/berendsen z ${PRES} ${PRES} 1000.0 modulus 20000
fix             4 water press/berendsen z -1000 ${PRES} 1000.0 modulus 20000
fix             4 water press/berendsen z -1000 -1000 1000.0 modulus 20000

# Run 0.5 ns equilibration

dump		    1 all atom 2000 ${DIR}/eq.${NAME}-${TEMP}.dump
dump		    1 all atom 2000 run_2/eq.${NAME}-${TEMP}.dump
dump		    1 all atom 2000 run_2/eq.het_freeze_2-${TEMP}.dump
dump		    1 all atom 2000 run_2/eq.het_freeze_2-250.dump

reset_timestep  0

run	            100000
Neighbor list info ...
  update every 1 steps, delay 0 steps, check yes
  max neighbors/atom: 2000, page size: 100000
  master list distance cutoff = 6.67472
  ghost atom cutoff = 6.67472
  binsize = 3.33736, bins = 15 15 12
  1 neighbor lists, perpetual/occasional/extra = 1 0 0
  (1) pair sw, perpetual
      attributes: full, newton on
      pair build: full/bin/atomonly
      stencil: full/bin/3d
      bin: standard
Per MPI rank memory allocation (min/avg/max) = 4.069 | 4.188 | 4.476 Mbytes
Step Temp Press Volume TotEng KinEng PotEng c_1[4] c_3 
       0    112.82306   -1433.2777    91449.793   -21655.009    1691.6097   -23346.618            0          250 
      50    112.12901   -1432.5651    91501.438   -21665.193    1681.2035   -23346.396   0.52049387    248.46208 
     100    111.90615   -1478.2324    91447.932   -21652.176     1677.862   -23330.038   0.86070952    247.96825 
     150    112.27175   -1532.4116    91381.668   -21683.693    1683.3436   -23367.037    1.0424655    248.77836 
     200    115.04079     -1561.14    91301.896   -21697.036    1724.8612   -23421.897    1.2033947    254.91418 
     250    114.60216    -1193.978    91304.202   -21693.602    1718.2846   -23411.887     1.351282    253.94223 
     300    112.73019    -1550.853    91348.267   -21692.465    1690.2172   -23382.682    1.5250834    249.79421 
     350    112.82291   -1388.2164    91301.154   -21649.243    1691.6074    -23340.85    1.7016934    249.99966 
     400     110.5512   -1350.7036    91247.442   -21648.326    1657.5466   -23305.872    1.8656382    244.96588 
     450    111.77821   -1425.9127    91217.163   -21712.766    1675.9437    -23388.71    2.0529592    247.68475 
     500    110.05715   -1374.4313    91165.253   -21699.981    1650.1391    -23350.12    2.2115778    243.87113 
     550    111.10781   -1254.8207    91139.792   -21710.632    1665.8921   -23376.524    2.4010882    246.19924 
     600    114.06921   -1315.1638     91105.96    -21655.74    1710.2938   -23366.034    2.5388465    252.76129 
     650     116.1968    -1235.367    91087.952   -21646.422    1742.1938   -23388.616    2.6749068    257.47573 
     700    112.97995   -1263.1912    91075.646   -21634.204     1693.962   -23328.166    2.8229038    250.34764 
     750    110.80609   -1221.1073    91044.874   -21691.219    1661.3683   -23352.588     2.946624    245.53068 
     800    111.69082   -1242.2025    91100.385   -21689.911    1674.6334   -23364.544    3.2389854     247.4911 
     850    114.05872   -1305.4406    91082.328    -21727.58    1710.1365   -23437.716    3.3846368    252.73804 
     900    113.16304   -1571.6505    91061.688   -21719.144    1696.7072   -23415.851    3.6371876    250.75335 
     950     110.8597   -1357.4728    91029.177   -21740.743    1662.1721   -23402.915    3.8296148    245.64947 
    1000    109.93626   -1387.0236    91029.254   -21752.822    1648.3265   -23401.149    3.9618002    243.60326 
    1050    111.18819   -1237.7823    91013.545   -21735.109    1667.0973   -23402.206    4.1267703    246.37736 
    1100    111.09342   -1307.9569    91043.916   -21688.201    1665.6764   -23353.877     4.357491    246.16736 
    1150    113.05029   -1173.3957    91031.291   -21648.579    1695.0167   -23343.596    4.5222794    250.50351 
    1200    111.76315   -1458.1017    91004.469   -21686.933     1675.718   -23362.651    4.6318262    247.65139 
    1250    112.36265   -1568.0628    90953.405   -21690.984    1684.7066    -23375.69     4.661803     248.9798 
    1300    110.97982   -1248.2054    90894.579   -21701.618    1663.9732   -23365.591    4.7746111    245.91564 
    1350    112.99494   -1453.9133    90798.799   -21745.502    1694.1868   -23439.689    4.9544088    250.38086 
    1400    111.61977   -1834.0022    90773.308   -21789.718    1673.5681   -23463.286    5.1366499    247.33367 
    1450    110.30244   -1421.3453     90750.74   -21799.497    1653.8169   -23453.314    5.2467147    244.41467 
    1500    108.63827   -1415.2901    90700.774    -21817.19    1628.8651   -23446.055    5.4726336    240.72709 
    1550    110.18454   -1069.5804    90743.816   -21766.963    1652.0491   -23419.012    5.6119697    244.15341 
    1600     110.1744   -1218.5944    90725.632   -21756.584    1651.8971   -23408.482    5.8402495    244.13094 
    1650    109.36524   -1212.5188    90690.874   -21749.606     1639.765   -23389.371     6.012665    242.33796 
    1700    109.83148   -1104.4415    90674.768   -21758.074    1646.7555   -23404.829    6.2002127    243.37108 
    1750    111.45883   -983.23102    90692.267   -21739.376    1671.1551   -23410.531    6.3080347    246.97705 
    1800    111.83986   -1251.5506    90771.928   -21733.596    1676.8681   -23410.464    6.4101411    247.82137 
    1850     111.2215   -1520.4774    90844.962   -21720.797    1667.5967   -23388.394    6.5287689    246.45116 
    1900    111.03206     -1503.28    90883.956   -21734.905    1664.7564   -23399.661    6.6872142     246.0314 
    1950    115.97635   -1274.1152    90922.169   -21678.393    1738.8884   -23417.282    6.7390133    256.98724 
    2000    113.68786   -1425.0789    90967.416   -21644.611    1704.5761   -23349.187    6.8827756    251.91628 
    2050    115.07705   -1517.6965    91038.118   -21644.915    1725.4048    -23370.32    7.0306782    254.99451 
    2100    113.70772   -1437.4491    90963.746   -21692.751    1704.8738   -23397.625    7.2839757    251.96027 
    2150    113.14765   -1436.5205    90904.509   -21702.794    1696.4764    -23399.27    7.4212288    250.71923 
    2200    110.43736   -1020.9502    90965.446   -21749.925    1655.8397   -23405.764    7.4970323    244.71362 
    2250    111.07976   -1289.4424    90945.986   -21693.928    1665.4715   -23359.399    7.6161925    246.13709 
    2300    111.64685   -1130.8042    90993.736   -21722.877    1673.9743   -23396.851    7.8345986    247.39369 
    2350    110.42704   -996.96112    91040.435   -21703.021     1655.685   -23358.706    8.0130933    244.69075 
    2400    112.16221   -1243.0402    91106.424   -21702.857    1681.7012   -23384.558    8.2505265    248.53564 
    2450    114.91489   -1321.4806    91149.278   -21702.955    1722.9734   -23425.928    8.4640816    254.63519 
    2500    108.88999   -1369.0465    91121.281   -21774.788    1632.6393   -23407.427    8.7059805    241.28486 
    2550    112.60754   -1271.3561    91134.743   -21734.128    1688.3783   -23422.506    8.8520359    249.52244 
    2600    111.21504    -1160.993    91156.505   -21728.785    1667.4998   -23396.285     8.997157    246.43685 
    2650    112.68146    -1351.397    91241.446   -21704.292    1689.4866   -23393.778    9.1854647    249.68623 
    2700    113.84628   -1278.2438    91247.012   -21703.434    1706.9512   -23410.385     9.267638     252.2673 
    2750    110.92211   -1466.1839    91220.201   -21726.907    1663.1078   -23390.014      9.32887    245.78776 
    2800    114.41164   -1476.9321    91121.734   -21679.256    1715.4281   -23394.684    9.4653424    253.52007 
    2850    111.03338    -1340.914    91088.828   -21687.446    1664.7761   -23352.222    9.7100007    246.03432 
    2900     113.4313   -1342.7129     91052.54   -21652.657    1700.7293   -23353.386    9.8531202    251.34776 
    2950    114.21122   -1423.9182    91070.641   -21655.257     1712.423    -23367.68    10.056408    253.07595 
    3000    112.98806   -1187.9091    91132.853   -21691.052    1694.0836   -23385.135    10.224055    250.36562 
    3050    111.62382   -1192.6251    91175.845   -21709.254    1673.6289   -23382.883    10.534976    247.34265 
    3100    111.84554   -1388.5026    91167.711   -21690.995    1676.9532   -23367.948    10.652588    247.83394 
    3150    113.35155   -1448.6658    91201.447   -21709.372    1699.5336   -23408.906    10.853733    251.17105 
    3200    113.51923   -1306.0421    91220.681   -21690.258    1702.0477   -23392.305    11.118897    251.54262 
    3250    113.25448   -1547.9887    91170.269   -21653.193    1698.0782   -23351.271    11.327806    250.95597 
    3300    110.92996   -1388.7745    91110.197   -21676.303    1663.2255   -23339.529    11.449438    245.80515 
    3350    113.93881   -1290.1543    91121.618   -21656.464    1708.3386   -23364.802    11.559728    252.47234 
    3400    112.72893   -1226.6234    91123.308   -21712.644    1690.1984   -23402.842    11.540929    249.79142 
    3450    112.48175   -1111.7623    91079.551   -21718.802    1686.4923   -23405.294    11.689004    249.24371 
    3500    112.74016   -1557.5535    91087.448   -21699.838    1690.3667   -23390.204    11.904086     249.8163 
    3550    111.84513   -1293.7003    91070.563   -21757.469     1676.947   -23434.416    12.040756    247.83303 
    3600    109.40605   -1455.0625    91004.852   -21775.259    1640.3769   -23415.636    12.181198    242.42839 
    3650    114.16386   -1154.0034    90963.909   -21730.581     1711.713   -23442.294    12.462801    252.97103 
    3700    112.17683   -1197.1146    90933.991   -21725.212    1681.9205   -23407.132    12.698537    248.56804 
    3750    111.46177   -1111.2733    90989.124   -21716.963    1671.1992   -23388.162    13.053825    246.98357 
    3800    113.28918   -1265.6668    90973.698   -21710.618    1698.5984   -23409.217     13.25981    251.03285 
    3850    113.47641   -1201.7483     90983.94   -21684.926    1701.4057   -23386.332    13.489127    251.44774 
    3900    111.30516   -1111.3467    91028.565   -21712.405     1668.851   -23381.256    13.612121    246.63653 
    3950    110.53723   -1260.4078      91047.4   -21711.069    1657.3371   -23368.406    13.826447    244.93492 
    4000    112.60749   -1083.0605    91096.217   -21661.154    1688.3775   -23349.532    13.822188    249.52232 
    4050    114.14362   -1450.7881    91116.063   -21687.008    1711.4094   -23398.417    14.011224    252.92616 
    4100    112.97565   -1374.3231     91084.34   -21665.605    1693.8975   -23359.503    14.099534     250.3381 
    4150    111.54461   -1229.5256    91138.041   -21642.419    1672.4413   -23314.861    14.313638    247.16713 
    4200     112.8919   -1159.4427    91165.158   -21664.333    1692.6418   -23356.975    14.337451    250.15254 
    4250    114.67657   -1012.8037    91188.881   -21652.271    1719.4002   -23371.672    14.619079     254.1071 
    4300    113.09689   -929.13895    91246.518   -21670.321    1695.7153   -23366.036    14.725708    250.60677 
    4350    117.10061   -1237.2592    91232.315   -21664.738     1755.745   -23420.483    14.956113    259.47844 
    4400    114.36388   -1175.4845    91225.779   -21683.634    1714.7119   -23398.346    15.160316    253.41424 
    4450    114.98372   -1133.1818    91343.114   -21631.033    1724.0055   -23355.038    15.137501    254.78772 
    4500    113.79019   -1176.9269    91412.996   -21643.491    1706.1104   -23349.602    15.143468    252.14302 
    4550    113.29361   -1334.0498    91362.693   -21664.788    1698.6648   -23363.453    15.361693    251.04266 
    4600    116.18021   -1486.3549    91318.367   -21678.039    1741.9451   -23419.985    15.507414    257.43897 
    4650    111.87571   -1376.6313    91315.276   -21691.007    1677.4056   -23368.412    15.675711    247.90079 
    4700    113.63231    -1050.756    91321.926   -21697.392    1703.7432   -23401.135    15.925684    251.79319 
    4750    110.66062   -1353.6731    91301.478   -21715.624    1659.1872   -23374.812    16.038535    245.20833 
    4800    115.20418   -1123.3225    91284.235   -21690.856    1727.3109   -23418.167    16.269738    255.27622 
    4850    112.96956   -1236.4143    91332.324   -21653.988    1693.8063   -23347.794    16.406504    250.32463 
    4900    113.14664   -1129.4904    91356.408   -21627.521    1696.4612   -23323.982     16.41897    250.71699 
    4950     113.8386    -1137.838    91469.387   -21621.506    1706.8362   -23328.343    16.680476     252.2503 
    5000    113.14074   -1199.7238    91522.103   -21639.819    1696.3728   -23336.192    17.085306    250.70393 
    5050     113.4191   -1054.3894      91528.8   -21642.561    1700.5464   -23343.107    17.134246    251.32073 
    5100    113.01506    -1622.321    91540.525   -21637.375    1694.4885   -23331.864    17.232963    250.42545 
    5150    113.60786   -1520.4533     91483.67   -21677.853    1703.3766    -23381.23    17.324982    251.73901 
    5200    114.71264   -1504.2566    91408.788   -21664.678    1719.9411    -23384.62    17.580084    254.18704 
    5250    114.51162    -1433.466    91383.811   -21678.542     1716.927   -23395.469    17.753204     253.7416 
    5300    113.39896   -1295.1472    91361.835   -21700.304    1700.2444   -23400.548    17.945914    251.27611 
    5350     114.7767   -1696.7505    91374.376    -21696.07    1720.9015   -23416.971    18.083238    254.32899 
    5400    112.35111    -1165.544    91374.458   -21754.882    1684.5335   -23439.416     18.21112    248.95422 
    5450    108.08881   -1452.6839    91354.744    -21777.59    1620.6269   -23398.217    18.439623    239.50957 
    5500    110.65041   -1397.2743    91284.419   -21768.924    1659.0341   -23427.959    18.373467     245.1857 
    5550    111.72724   -1042.6377    91235.639   -21777.185    1675.1795   -23452.364    18.418689    247.57181 
    5600    112.76108   -1224.2031    91218.871   -21745.071    1690.6804   -23435.752    18.651303    249.86266 
    5650    114.33273    -1425.548    91279.287   -21695.553    1714.2449   -23409.798    18.684511    253.34522 
    5700    114.78713   -1383.0976    91231.547   -21660.852    1721.0579    -23381.91    18.743324    254.35209 
    5750     111.8537   -1329.7072    91287.747    -21723.75    1677.0756   -23400.826    18.715194    247.85202 
    5800    112.45782   -1578.8141    91273.474   -21687.448    1686.1334   -23373.581     18.93614    249.19067 
    5850    113.66245   -1402.6068    91337.411   -21684.727    1704.1951   -23388.922    19.286709    251.85997 
    5900    113.88132   -1328.1386    91291.271    -21718.45    1707.4767   -23425.927    19.188438    252.34496 
    5950    110.18658   -1493.8324    91250.497   -21751.865    1652.0797   -23403.944    19.241547    244.15793 
    6000    109.12179    -1345.523    91215.149   -21777.434    1636.1148   -23413.549    19.491969     241.7985 
    6050    111.51399   -1465.4124    91189.473   -21761.387    1671.9822    -23433.37    19.800072    247.09928 
    6100    112.41053    -1402.975    91174.748   -21721.551    1685.4245   -23406.975    20.039021     249.0859 
    6150    112.78002   -1138.5671    91213.738   -21681.297    1690.9643   -23372.261    20.318512    249.90462 
    6200    114.18234   -1397.9356    91194.638   -21673.153    1711.9899   -23385.143    20.368312    253.01196 
    6250    114.20317   -1694.6902    91081.762   -21652.881    1712.3023   -23365.183    20.605372    253.05812 
    6300    113.26085   -1750.5273    91001.434   -21689.007    1698.1736    -23387.18    20.774824    250.97007 
    6350    114.66057   -1406.1903     90943.77   -21682.669    1719.1604   -23401.829     20.82885    254.07166 
    6400    113.30542    -1453.207    90923.924   -21690.753     1698.842   -23389.595    21.141054    251.06885 
    6450    113.51999   -1214.6836    90919.614   -21677.262    1702.0591   -23379.321    21.181711     251.5443 
    6500    114.65278   -1114.6554    90982.101   -21664.431    1719.0435   -23383.475    21.339733    254.05439 
    6550    109.57754   -1221.4628    91043.646    -21700.05    1642.9481   -23342.998    21.564633    242.80838 
    6600    113.93769   -1399.7772    91021.174   -21722.357    1708.3219   -23430.679    21.882324    252.46987 
    6650    114.50284   -1390.5841    91031.546   -21726.601    1716.7954   -23443.397    22.062433    253.72215 
    6700    111.02777   -1213.2265    91046.118   -21747.183    1664.6921   -23411.875    22.189987    246.02189 
    6750    109.15226   -1143.4812    91121.217   -21801.685    1636.5716   -23438.256    22.213206    241.86601 
    6800    109.95533   -1558.7905    91136.832   -21788.366    1648.6124   -23436.978     22.48165    243.64551 
    6850    111.27284   -1330.0037    91116.088   -21750.576    1668.3666   -23418.943    22.593562    246.56494 
    6900    112.02355    -1440.067    91122.411    -21779.17    1679.6223   -23458.792    22.718797     248.2284 
    6950    114.50728   -823.63032    91114.679   -21731.373     1716.862   -23448.235    22.694429    253.73199 
    7000    112.73091   -1214.8468    91138.229   -21728.878    1690.2281   -23419.106    22.874984    249.79581 
    7050    113.25311   -1492.2905    91135.824   -21694.834    1698.0576   -23392.892    23.362503    250.95292 
    7100    112.72794   -1354.1487    91145.651    -21761.59    1690.1836   -23451.774    23.584541    249.78923 
    7150    112.69471   -1305.1808    91125.239   -21762.627    1689.6853   -23452.312    23.724656    249.71559 
    7200    112.23258    -1366.695    91159.998   -21759.172    1682.7563   -23441.929    24.055552    248.69157 
    7250    112.70792   -1373.5123    91144.053    -21740.25    1689.8833   -23430.133    24.282836    249.74486 
    7300    113.16296   -1440.3722    91078.815   -21744.897     1696.706   -23441.603    24.392575    250.75317 
    7350    111.03083   -1180.7886     91113.95   -21748.997    1664.7379   -23413.735    24.435816    246.02867 
    7400    112.20937   -1290.8648    91118.921    -21732.62    1682.4083   -23415.028    24.591236    248.64015 
    7450    113.83957   -1188.8049    91103.857   -21732.576    1706.8507   -23439.426    24.813256    252.25244 
    7500    110.69395   -1229.8473    91045.337   -21770.922    1659.6869   -23430.609    24.871116    245.28219 
    7550    112.23984   -1227.5043    90988.639   -21755.367    1682.8652   -23438.232    24.947171    248.70767 
    7600    113.43694   -1056.9514    91088.976   -21746.181    1700.8139   -23446.995    25.212259    251.36027 
    7650    111.69682   -1261.9947    91107.916   -21734.124    1674.7235   -23408.848     25.48475    247.50441 
    7700    113.40208    -1212.316     91136.93   -21743.297    1700.2912   -23443.589    25.792373    251.28302 
    7750    113.09465   -1421.2877    91127.036   -21752.509    1695.6818   -23448.191    25.881197    250.60181 
    7800    116.01655   -992.75731     91143.91   -21698.376    1739.4912   -23437.867    25.824304    257.07633 
    7850    115.92454   -1111.9111    91175.933   -21685.192    1738.1116   -23423.304    25.888489    256.87244 
    7900    112.83839   -1021.4966    91226.271    -21720.34    1691.8396    -23412.18    26.378948    250.03397 
    7950    112.15181   -1182.9094    91278.087   -21732.238    1681.5454   -23413.784    26.467474    248.51261 
    8000    115.41108   -1138.0577    91244.434   -21689.051     1730.413   -23419.464    26.531395    255.73468 
    8050    115.16902   -1089.9823    91262.143   -21682.382    1726.7837   -23409.165    26.427462     255.1983 
    8100    116.10426   -1303.8854    91339.804   -21677.967    1740.8062   -23418.773    26.580722    257.27067 
    8150    113.91451   -1441.8477    91361.501   -21698.109    1707.9744   -23406.083    26.851765     252.4185 
    8200    113.25985   -1209.7039    91354.175   -21705.312    1698.1586    -23403.47    27.067359    250.96786 
    8250    111.64298   -1342.7803    91338.703    -21732.77    1673.9162   -23406.686    27.445504    247.38511 
    8300    113.50646   -1433.2763    91380.576   -21742.045    1701.8562   -23443.901    27.649385    251.51432 
    8350    112.47575   -1206.4763    91399.366   -21793.534    1686.4023   -23479.937    27.743257    249.23041 
    8400    112.39206   -1402.8627    91402.244   -21781.927    1685.1474   -23467.075    27.757309    249.04495 
    8450    114.40619   -1486.9966    91415.491   -21760.153    1715.3463   -23475.499    27.905565    253.50799 
    8500    117.00447   -1383.8518    91302.621   -21699.816    1754.3035    -23454.12    28.130839    259.26541 
    8550    112.89715   -1505.9281     91269.73   -21670.657    1692.7206   -23363.378    28.288191    250.16418 
    8600    116.13521   -1467.4339    91220.936   -21646.825    1741.2703   -23388.096    28.408161    257.33925 
    8650     116.9078   -1507.4443     91175.92   -21691.397    1752.8542   -23444.251    28.499932    259.05121 
    8700    111.54136   -1325.8204    91160.816   -21728.832    1672.3925   -23401.225    28.678273    247.15992 
    8750    114.32719    -1181.935    91182.954   -21675.908    1714.1618    -23390.07    28.856042    253.33294 
    8800    114.10372    -1124.939    91263.648   -21692.467    1710.8113   -23403.278    29.040762    252.83776 
    8850    111.91861   -1401.0892    91213.975   -21683.819    1678.0488   -23361.868    29.380469    247.99586 
    8900    113.65512   -1430.4108    91117.637   -21728.577    1704.0852   -23432.662    29.578155    251.84372 
    8950    114.72031   -1488.6417    91089.191   -21735.779    1720.0561   -23455.835    29.588928    254.20405 
    9000    110.47175   -1443.0398    91065.336   -21775.084    1656.3554   -23431.439    29.430867    244.78983 
    9050    111.50261   -1383.3305    91075.791   -21744.788    1671.8115   -23416.599    29.405719    247.07406 
    9100    111.10956   -1481.7602    91103.663    -21760.71    1665.9184   -23426.629    29.487042    246.20313 
    9150    111.75146   -1016.5229    91060.491   -21768.495    1675.5426   -23444.038    29.452387    247.62547 
    9200    110.93207   -1386.1336    91180.025   -21735.138    1663.2572   -23398.395    29.518781    245.80983 
    9250    114.19704   -1327.4984    91142.307   -21740.801    1712.2104   -23453.012    29.813234    253.04453 
    9300    113.49643   -1402.0173    91176.888    -21741.52    1701.7058   -23443.225    29.959112    251.49208 
    9350    114.12331   -1403.8545    91234.828    -21722.55     1711.105   -23433.655    30.089407    252.88118 
    9400    113.42012   -1237.1388    91218.447   -21743.417    1700.5617   -23443.979    30.243761    251.32299 
    9450    112.89599   -1437.8182    91198.907   -21756.936    1692.7032   -23449.639    30.527191    250.16161 
    9500    109.46784        -1418    91241.241   -21781.731    1641.3033   -23423.034     30.47958    242.56531 
    9550     111.5284   -1673.0842    91218.088   -21765.841    1672.1982    -23438.04    30.631955    247.13121 
    9600    113.97357   -1505.3162    91171.992   -21744.572    1708.8598   -23453.431    30.610352    252.54936 
    9650    113.97789   -1237.9478    91099.776   -21726.026    1708.9246   -23434.951    30.767629    252.55893 
    9700    113.09144    -1472.747    91077.547   -21719.088    1695.6336   -23414.722    31.006292    250.59469 
    9750    114.02507   -1283.3789    91062.393    -21700.41    1709.6319   -23410.042    31.203406    252.66348 
    9800    112.22259   -1392.2364    91065.485   -21694.463    1682.6066    -23377.07     31.36274    248.66944 
    9850    112.94498   -1347.7095    91036.231   -21732.604    1693.4377   -23426.042    31.362126    250.27016 
    9900    110.62709   -852.41256    91088.841   -21751.643    1658.6845   -23410.327    31.543729    245.13404 
    9950    114.37323   -1366.1435    91125.082   -21764.857    1714.8522   -23479.709    31.714327    253.43496 
   10000    114.06403   -1121.6318    91128.487   -21782.131    1710.2162   -23492.348     31.99675    252.74982 
   10050    110.41264   -1361.3457    91105.279   -21747.565     1655.469   -23403.034    32.132538    244.65884 
   10100    114.37923   -1048.0464    91125.667   -21726.863     1714.942   -23441.805    32.232376    253.44824 
   10150    112.80997   -1133.1828    91085.348   -21729.835    1691.4133   -23421.248    32.272825    249.97098 
   10200     110.8526    -1193.484    91076.054   -21715.479    1662.0656   -23377.545    32.330719    245.63374 
   10250    114.61557   -958.15755     91049.07   -21705.749    1718.4856   -23424.235    32.336985    253.97194 
   10300    115.19648   -1066.4809    91034.775     -21719.4    1727.1955   -23446.595    32.495452    255.25916 
   10350    112.81862    -1096.662    91025.742   -21757.055     1691.543   -23448.598    32.808348    249.99015 
   10400     113.8856   -1063.4463    91077.403   -21744.966    1707.5408   -23452.507    32.815666    252.35443 
   10450    111.42299   -1476.1705    91059.422   -21782.998    1670.6178   -23453.615    32.848452    246.89764 
   10500     111.0517   -1173.0812    91095.697   -21773.445    1665.0509   -23438.496    33.173269    246.07492 
   10550    111.05798   -1144.0417    91215.291   -21782.431    1665.1449   -23447.576     33.37861    246.08882 
   10600    112.85762   -1170.1091    91263.196   -21752.522    1692.1279    -23444.65    33.543045    250.07658 
   10650    112.86541   -1535.5919    91249.987   -21718.284    1692.2447   -23410.528    33.694321    250.09384 
   10700    117.49246   -1182.0374    91343.753   -21661.665    1761.6202   -23423.286    33.805768    260.34673 
   10750    115.02112   -1329.9935    91390.733   -21705.898    1724.5662   -23430.464    33.813561    254.87058 
   10800    115.31764   -1493.0173    91406.986   -21694.804    1729.0121   -23423.816    33.925304    255.52763 
   10850    113.02554   -1424.1241    91379.608   -21749.256    1694.6455   -23443.901    34.060136    250.44866 
   10900    111.37055   -1245.0469    91358.563   -21770.622    1669.8316   -23440.453    34.214078    246.78145 
   10950    110.53287   -1574.5351    91364.438   -21792.567    1657.2718   -23449.839    34.491528    244.92526 
   11000    111.28547   -1627.2973    91355.795   -21804.042    1668.5559   -23472.597    34.657076    246.59292 
   11050    115.44433   -1479.1335    91358.881   -21778.414    1730.9116   -23509.325    34.704007    255.80835 
   11100    112.66878   -1190.1656    91393.911   -21773.929    1689.2965   -23463.225    34.852043    249.65814 
   11150      113.709    -1452.983    91471.055    -21749.97     1704.893   -23454.863    34.883499    251.96312 
   11200    111.42656   -1488.3697     91485.58   -21737.529    1670.6713     -23408.2    35.373967    246.90555 
   11250     114.6008   -1809.4869    91410.516   -21721.003    1718.2642   -23439.267    35.709664    253.93922 
   11300    114.92967   -1318.8099    91335.109   -21711.738    1723.1951   -23434.933     35.83931    254.66795 
   11350    111.72848   -1060.8737    91374.661   -21712.035    1675.1981   -23387.233    36.081397    247.57456 
   11400    111.88505   -1454.4627    91346.984   -21661.572    1677.5457   -23339.118    36.258357     247.9215 
   11450    113.77124    -1425.946    91385.117   -21658.227    1705.8262   -23364.053      36.2003    252.10103 
   11500    112.77327   -1427.1976     91376.01   -21665.719    1690.8632   -23356.582    36.359775    249.88967 
   11550    117.97268   -1288.2218    91403.233   -21638.672    1768.8203   -23407.493    36.529462    261.41082 
   11600    113.27695   -1461.9834     91392.84   -21677.524     1698.415   -23375.939    36.652386    251.00575 
   11650    113.18687   -1498.4272    91357.065   -21681.617    1697.0645   -23378.682    36.726816    250.80615 
   11700    117.08563   -1461.9141    91298.449   -21648.309    1755.5204    -23403.83    36.949184    259.44525 
   11750    115.24504    -1527.092    91295.702   -21636.913    1727.9236   -23364.836    37.194571    255.36677 
   11800    113.63491   -1561.1335    91215.094   -21703.316    1703.7821   -23407.098    37.258779    251.79894 
   11850     111.5596   -1182.0352    91203.259   -21717.163     1672.666   -23389.829    37.444325    247.20034 
   11900    111.18487    -1270.044    91249.925   -21739.426    1667.0475   -23406.473    37.395794    246.36999 
   11950    113.53526   -1073.7494    91250.954   -21717.992     1702.288    -23420.28    37.471915    251.57813 
   12000    108.25021   -1216.7618    91272.856   -21786.446    1623.0468   -23409.492    37.720051     239.8672 
   12050    111.06631   -1185.0873    91231.912   -21786.153    1665.2698   -23451.423    37.854783    246.10728 
   12100    110.90168   -1731.1663    91242.875   -21722.113    1662.8016   -23384.915    38.069303     245.7425 
   12150    112.80185   -1680.4206    91193.013   -21721.592    1691.2917   -23412.884    38.242561      249.953 
   12200    114.27944   -853.31803    91248.863   -21686.308    1713.4459   -23399.754    38.175534    253.22713 
   12250    112.07369   -1244.3889    91270.393    -21682.94     1680.374   -23363.314    38.451321     248.3395 
   12300    110.97061   -1226.6313    91342.432   -21700.179    1663.8349   -23364.014    38.551021    245.89522 
   12350     110.4542   -1356.8772    91316.254    -21716.51    1656.0922   -23372.603    38.786419    244.75094 
   12400    108.82651   -1305.5803     91291.37    -21721.33    1631.6875   -23353.017     38.88044     241.1442 
   12450    116.02734   -1259.1958    91359.082   -21708.663    1739.6529   -23448.316    39.119665    257.10022 
   12500    112.52812    -1501.126    91344.312   -21753.244    1687.1874   -23440.432    39.451462    249.34644 
   12550    112.83216   -1320.8717    91335.527   -21778.072    1691.7461   -23469.819    39.570021    250.02016 
   12600    108.70415   -1156.2513    91375.888   -21757.415     1629.853   -23387.268    39.675812    240.87308 
   12650    110.22594   -1101.3437    91402.073   -21732.282    1652.6698   -23384.952    39.842848    244.24514 
   12700    113.30716   -1256.0723    91414.402    -21690.55     1698.868   -23389.418    40.203042     251.0727 
   12750    113.76183   -1353.2499    91324.292   -21702.651    1705.6851   -23408.336    40.040819    252.08018 
   12800    112.18325   -1398.8918     91353.84    -21668.58    1682.0167   -23350.597    40.035724    248.58226 
   12850    114.24209   -1219.5661    91340.678   -21669.981    1712.8859   -23382.867    40.160913    253.14437 
   12900    115.01942   -1357.6904    91360.489   -21650.613    1724.5408   -23375.154     40.25026    254.86682 
   12950    112.22743   -1310.3478    91400.877   -21665.726    1682.6791   -23348.405    40.108939    248.68016 
   13000    113.01919   -1441.8891    91379.266   -21663.406    1694.5503   -23357.956    40.237859    250.43459 
   13050    112.72195   -1518.8457    91308.025   -21666.265    1690.0937   -23356.358    40.272829    249.77596 
   13100     112.1359   -1568.8845    91273.807   -21694.333    1681.3067    -23375.64    40.311652    248.47734 
   13150    112.94944   -1120.4207    91270.054   -21686.398    1693.5045   -23379.902    40.200905    250.28003 
   13200     113.2602   -1266.3946    91266.471   -21711.319     1698.164   -23409.482    40.226651    250.96864 
   13250    111.38612    -1677.775    91269.106    -21729.36     1670.065   -23399.425    40.208186    246.81595 
   13300     112.1819   -1357.0722    91233.951   -21706.573    1681.9964   -23388.569    40.302151    248.57927 
   13350    112.80803   -1371.7384     91204.07   -21702.441    1691.3843   -23393.825    40.545329     249.9667 
   13400    110.38213   -1195.1005    91160.837   -21687.682    1655.0117   -23342.693    40.824201    244.59125 
   13450    113.32817    -1390.389    91197.529   -21701.438    1699.1831   -23400.621    40.895593    251.11925 
   13500    115.41743   -1338.5225    91148.751   -21699.953    1730.5083   -23430.461    41.034609    255.74876 
   13550    112.64112    -1666.558    91159.207   -21689.559    1688.8818   -23378.441    41.413449    249.59684 
   13600    112.66207   -1117.8778    91134.506   -21682.583    1689.1959   -23371.779    41.771281    249.64327 
   13650    112.81193   -1280.9482    91170.675   -21681.092    1691.4428   -23372.534      41.8492    249.97533 
   13700    110.20178   -1426.1096    91229.042   -21732.696    1652.3076   -23385.004    41.924296    244.19162 
   13750    111.66993   -1021.7347    91242.481   -21719.521    1674.3202   -23393.841    42.048069    247.44482 
   13800    112.55587   -1361.6094    91314.109   -21677.417    1687.6036   -23365.021    42.099923    249.40795 
   13850    112.95276   -1489.3005    91283.969   -21716.034    1693.5543   -23409.588    42.447788    250.28739 
   13900    111.47504   -1229.5744    91279.116   -21767.538    1671.3982   -23438.936    42.492325    247.01297 
   13950    111.06849   -1024.0053    91269.413   -21746.043    1665.3025   -23411.346    42.684552    246.11211 
   14000    112.89418   -1200.4635    91259.133   -21759.573     1692.676   -23452.249    42.631468    250.15758 
   14050     111.4649   -782.10689    91279.527    -21694.92    1671.2462   -23366.166    42.603463    246.99051 
   14100    113.96703   -1199.5654    91327.893   -21680.062    1708.7617   -23388.824    42.957929    252.53486 
   14150    114.06867   -1207.4304    91377.239   -21712.159    1710.2857   -23422.445    43.111171    252.76009 
   14200    113.15318    -1201.641    91348.621   -21732.598    1696.5593   -23429.157    43.221037    250.73149 
   14250    113.80577   -1278.9547    91301.781   -21724.367    1706.3439   -23430.711    43.492033    252.17755 
   14300    113.64453   -1455.0395    91275.498   -21725.356    1703.9264   -23429.282    43.502044    251.82027 
   14350     114.3717   -1217.5503    91249.418    -21688.67    1714.8292   -23403.499    43.846304    253.43157 
   14400    115.49541   -1498.6511    91194.896   -21693.599    1731.6775   -23425.277    43.847117    255.92154 
   14450    112.05144   -1324.0493    91186.477   -21734.228    1680.0404   -23414.268    44.150968     248.2902 
   14500    113.70102   -1624.4847    91158.851   -21710.765    1704.7733   -23415.539    44.399675    251.94543 
   14550    111.95766   -1424.5485    91053.934   -21679.686    1678.6344    -23358.32    44.312121     248.0824 
   14600     113.1879   -1423.1933    91002.709   -21685.438    1697.0799   -23382.518    44.405168    250.80843 
   14650    113.40028   -1301.6704    90929.361   -21707.682    1700.2642   -23407.946    44.532611    251.27903 
   14700    111.76002   -1314.8162    90900.115   -21697.397     1675.671   -23373.068    44.672935    247.64445 
   14750    113.48806   -1336.0317    90919.621   -21716.599    1701.5804   -23418.179    44.905481    251.47355 
   14800    111.46104   -1318.3225    90985.489   -21736.119    1671.1882   -23407.307     45.21858    246.98195 
   14850    111.61021   -1304.2885    91002.662   -21779.263    1673.4248   -23452.688    44.989908    247.31249 
   14900    113.01084   -1062.7532    90987.469   -21772.415    1694.4252    -23466.84    44.846672     250.4161 
   14950    111.31653   -1556.3196    90980.043   -21729.871    1669.0216   -23398.893     44.99315    246.66175 
   15000    111.48608   -1209.6055    91018.105     -21761.2    1671.5637   -23432.764    45.129111    247.03744 
   15050    109.54032   -1404.1925    91073.976   -21822.135      1642.39   -23464.525    45.308124    242.72591 
   15100    110.65726   -1418.3944     91028.93   -21848.753    1659.1369    -23507.89    45.332593     245.2009 
   15150    113.45057   -1380.7857     90986.75    -21762.51    1701.0182   -23463.528    45.363134    251.39047 
   15200    111.67025   -1211.6865     91016.35   -21773.607     1674.325   -23447.932    45.519575    247.44553 
   15250     111.1806   -1142.7195    91074.279   -21776.966    1666.9835    -23443.95    45.780525    246.36054 
   15300    109.01503   -1488.9542     91026.97   -21816.511     1634.514   -23451.025    46.154461    241.56193 
   15350    111.91806   -1264.1144    91017.813    -21791.14    1678.0406   -23469.181    46.326855    247.99464 
   15400    109.51451   -1214.7945    90993.045   -21781.046     1642.003   -23423.049    46.380244    242.66871 
   15450    113.49443   -1143.5298    91007.582   -21826.842    1701.6758   -23528.518    46.643232    251.48765 
   15500    110.58342    -1397.285    91042.538   -21779.384    1658.0296   -23437.413    46.618748    245.03726 
   15550    114.23421   -1049.4298    91120.886   -21793.616    1712.7677   -23506.383    46.770626    253.12691 
   15600    107.59666   -1205.9212    91133.558   -21761.031    1613.2477   -23374.279    47.237306    238.41902 
   15650    112.70975   -1324.2331    91162.748   -21766.573    1689.9108   -23456.484    47.232122    249.74893 
   15700    115.82745   -1092.0274    91163.844   -21717.362     1736.656   -23454.018    47.466922    256.65731 
   15750    110.51801   -1400.4792    91216.334   -21764.963     1657.049   -23422.012    47.620034    244.89233 
   15800    112.39796   -1300.0459    91244.832   -21797.918    1685.2359   -23483.154    47.631268    249.05803 
   15850    110.54202   -1291.1294    91181.102   -21770.793    1657.4089   -23428.202    47.542027    244.94553 
   15900    114.07038   -1251.8763    91168.898   -21755.005    1710.3114   -23465.316    47.445072    252.76389 
   15950    109.82952   -1222.8479    91196.598   -21794.287    1646.7262   -23441.014     47.49575    243.36674 
   16000    109.71909   -1550.9378     91225.85   -21809.385    1645.0703   -23454.456    47.640348    243.12203 
   16050    109.94659   -1419.2791     91193.66   -21804.694    1648.4814   -23453.175    47.718931    243.62615 
   16100     108.3713   -1389.5469    91170.267   -21850.875    1624.8623   -23475.737    47.828873    240.13552 
   16150    110.95702   -1335.7139     91139.67   -21857.513    1663.6312   -23521.144    48.118814    245.86511 
   16200    111.04108   -1150.9816    91170.842   -21848.836    1664.8917   -23513.728    48.081098    246.05139 
   16250    110.99549   -1338.5546    91222.685   -21822.043     1664.208   -23486.251    48.039783    245.95035 
   16300    110.18738   -1057.9473    91232.464   -21841.351    1652.0917   -23493.443    48.030176    244.15971 
   16350    110.97149   -1276.0594    91248.634    -21862.02    1663.8481   -23525.868    48.258224    245.89717 
   16400    113.05236   -1337.6312    91277.771    -21780.93    1695.0477   -23475.978     48.35159     250.5081 
   16450    111.98802   -1129.4702    91215.526   -21778.846    1679.0896   -23457.935    48.464554    248.14968 
   16500     113.3436   -1286.0783    91241.275   -21727.832    1699.4145   -23427.246    48.541118    251.15345 
   16550    114.14098    -1399.589    91184.321   -21751.076    1711.3699   -23462.446    48.857122    252.92032 
   16600    109.65202   -1563.1425     91120.75   -21768.541    1644.0648   -23412.606    49.009409    242.97342 
   16650    112.70236   -1241.3421    91072.328    -21747.78       1689.8    -23437.58    48.876143    249.73255 
   16700    114.77677   -1281.0386    91041.431   -21720.763    1720.9025   -23441.665    49.105612    254.32913 
   16750    113.31026   -963.37537    91047.486   -21697.256    1698.9144   -23396.171    49.545248    251.07955 
   16800    115.82524   -938.63672    91085.891   -21678.601    1736.6228   -23415.223    49.493084     256.6524 
   16850    112.35231    -1372.398    91137.692   -21711.221    1684.5514   -23395.773     49.75592    248.95687 
   16900    112.89234   -1173.0682    91147.038   -21709.929    1692.6484   -23402.578    50.012656    250.15351 
   16950    113.68024   -1309.1404    91121.373   -21684.791    1704.4618   -23389.253    50.108376    251.89939 
   17000     112.1738    -1444.672    90989.474    -21705.32     1681.875   -23387.195    50.238424    248.56132 
   17050    113.34591   -1030.0941    91015.375   -21676.058     1699.449   -23375.507    50.392722    251.15856 
   17100    112.40018   -1150.3884    91018.483   -21715.042    1685.2692   -23400.311    50.434147    249.06295 
   17150    114.54462   -1243.6746    90991.007   -21705.181    1717.4218   -23422.603    50.489402    253.81473 
   17200    113.61252   -928.61557    90967.843   -21689.149    1703.4464   -23392.596    50.701609    251.74933 
   17250    110.94306   -1087.5246    91088.471   -21673.034     1663.422   -23336.456    50.851639    245.83419 
   17300    113.89548   -1097.2076    91181.798   -21720.339    1707.6889   -23428.027    51.111894    252.37632 
   17350    114.79313   -1297.4405    91182.783   -21702.455    1721.1478   -23423.602    51.399255    254.36539 
   17400    117.29751   -1168.9484    91139.602   -21668.338    1758.6973   -23427.035    51.636311    259.91475 
   17450    115.09397   -1283.1102    91151.738   -21691.731    1725.6585   -23417.389    51.846383    255.03201 
   17500    111.25578   -1350.6444    91147.604   -21711.101    1668.1107   -23379.211    51.674055    246.52712 
   17550    114.98908   -1268.1588    91125.058   -21706.317    1724.0858   -23430.403    51.546055    254.79959 
   17600    114.58049   -1156.1049    91074.877   -21700.583    1717.9597   -23418.543    51.554744    253.89422 
   17650    112.77333   -1306.5948    91072.747   -21722.433    1690.8641   -23413.297     51.65484    249.88981 
   17700    112.21798   -1356.0604    91024.042   -21735.999    1682.5374   -23418.536    51.885968    248.65923 
   17750    113.42114   -1190.3422    91006.379   -21714.977     1700.577   -23415.554     51.83341    251.32526 
   17800     115.1426    -1130.196    91079.614   -21672.318    1726.3877   -23398.706    51.989908    255.13977 
   17850    110.10968   -783.39427    91124.579    -21676.43    1650.9267   -23327.356    52.438714    243.98753 
   17900    113.71713   -879.11316    91250.367   -21619.155    1705.0149    -23324.17    52.696586    251.98113 
   17950    113.16779   -1044.2604    91313.467    -21632.27    1696.7784   -23329.048    52.757861    250.76387 
   18000    111.46716   -1586.2213    91341.085   -21666.322      1671.28   -23337.602    52.846041    246.99552 
   18050    111.61656    -1357.383    91276.645   -21658.802      1673.52   -23332.322    53.016874    247.32655 
   18100    110.95076   -1354.8309    91216.725   -21732.377    1663.5373   -23395.914    53.313209    245.85123 
   18150    113.39982   -1365.1651    91241.704   -21707.307    1700.2573   -23407.565    53.476664    251.27801 
   18200    113.36951   -1257.0439    91249.084   -21705.362    1699.8029   -23405.165    53.761582    251.21086 
   18250    115.70513   -1412.2805     91260.05   -21661.277     1734.822   -23396.099    54.339776    256.38627 
   18300     113.0748   -1237.1741    91264.213   -21667.125    1695.3841   -23362.509     54.55288    250.55782 
   18350    113.41989    -1230.059    91340.658   -21647.146    1700.5582   -23347.704    55.069119    251.32249 
   18400      112.237   -1257.7691    91366.765    -21680.58    1682.8227   -23363.403     55.30104    248.70138 
   18450    115.86911   -1543.0485    91433.683   -21674.311    1737.2806   -23411.592    55.437141    256.74962 
   18500    111.76587   -1351.6951    91478.387   -21708.751    1675.7587    -23384.51    55.367525    247.65741 
   18550    110.92161   -1476.4803    91392.212   -21725.875    1663.1004   -23388.975    55.457771    245.78666 
   18600    113.09247   -1504.3257    91336.119   -21680.867    1695.6491   -23376.516    55.477713    250.59698 
   18650    110.60492   -1501.2053    91281.816   -21706.315     1658.352   -23364.667     55.69772     245.0849 
   18700    112.15144   -1434.4965    91340.704   -21685.872    1681.5397   -23367.412    55.972045    248.51178 
   18750    112.28578   -1468.2521    91330.714   -21709.866     1683.554    -23393.42    56.166798    248.80946 
   18800    111.14617   -1514.2845    91336.854   -21742.619    1666.4673   -23409.086     56.28286    246.28425 
   18850    109.89475   -1032.1156    91346.786   -21740.003    1647.7041   -23387.707    56.222584    243.51126 
   18900     111.3578   -1016.1517     91389.87   -21731.043    1669.6403   -23400.683    56.365552    246.75318 
   18950    112.68636   -963.71355    91402.224   -21734.025      1689.56   -23423.585    56.352279    249.69708 
   19000    111.99801   -928.88903    91440.434   -21712.298    1679.2392   -23391.537    56.460839    248.17179 
   19050    111.80791    -1394.349    91450.954   -21694.945     1676.389   -23371.334    56.929374    247.75056 
   19100    112.59889   -1148.9019     91495.07   -21696.802    1688.2487   -23385.051    57.277957    249.50328 
   19150    111.73052   -1225.0263    91533.977   -21712.863    1675.2287   -23388.092    57.408088    247.57909 
   19200     111.4908   -1245.9223    91592.462    -21726.43    1671.6344   -23398.064    57.535541    247.04789 
   19250    113.59084   -1489.6521    91606.059   -21670.419    1703.1214   -23373.541    57.602772     251.7013 
   19300    115.75798   -1430.9127    91642.305   -21611.749    1735.6144   -23347.363    57.696702    256.50337 
   19350    115.65231   -1458.6723    91663.573   -21631.051    1734.0299   -23365.081    58.130651    256.26921 
   19400    115.52602   -1464.2572     91693.52   -21640.951    1732.1364   -23373.087    58.388433    255.98937 
   19450    113.00071   -1359.4446    91663.272   -21658.627    1694.2733   -23352.901    58.343919    250.39364 
   19500    110.69235    -1394.557    91588.521   -21700.445    1659.6629   -23360.108    58.423752    245.27864 
   19550     112.3731   -1312.4742    91580.998   -21675.517    1684.8632    -23360.38    58.555849    249.00294 
   19600     112.1743   -1435.0339    91632.884   -21654.371    1681.8825   -23336.253    58.802718    248.56243 
   19650    112.96367   -1440.7012    91622.747   -21684.763     1693.718   -23378.481    58.975263    250.31158 
   19700    114.38859   -1265.2199    91547.949   -21655.048    1715.0824    -23370.13    59.104622      253.469 
   19750    110.90166   -1364.7093    91564.636   -21666.282    1662.8012   -23329.083     59.19376    245.74244 
   19800    110.61225   -1460.2379    91610.304   -21691.671     1658.462   -23350.133    59.309453    245.10116 
   19850    114.18351     -1220.67    91639.037   -21658.074    1712.0075   -23370.082    59.535285    253.01455 
   19900    115.08056   -1239.6048     91554.05   -21634.431    1725.4575   -23359.888    59.592007     255.0023 
   19950    113.02735   -1245.4542    91544.628    -21643.66    1694.6728   -23338.332    59.963182    250.45268 
   20000    116.35261   -1305.8352    91611.322   -21635.838    1744.5299   -23380.368     60.03091    257.82098 
   20050    116.50981   -1464.3424    91643.732   -21633.916    1746.8869   -23380.803    60.517673    258.16931 
   20100     114.6287   -1164.7833    91599.443   -21630.307    1718.6825    -23348.99    60.683648    254.00104 
   20150    111.71606   -1228.6763    91554.186   -21655.788    1675.0119     -23330.8    60.906742    247.54705 
   20200    112.98548   -1069.8337    91632.647   -21692.876     1694.045   -23386.921    60.925049     250.3599 
   20250    111.19455   -1416.0308    91644.616   -21694.206    1667.1926   -23361.399    60.985166    246.39144 
   20300    109.91128   -1407.8028    91620.531   -21702.819     1647.952   -23350.771    61.052076    243.54791 
   20350    115.66562   -1128.2475    91631.556   -21681.874    1734.2296   -23416.103    61.104671    256.29871 
   20400    111.80513   -1165.1831    91639.378   -21695.304    1676.3474   -23371.652    61.274807     247.7444 
   20450    113.58405   -1079.5064    91686.851   -21680.388    1703.0196   -23383.408    60.953548    251.68625 
   20500    111.87015   -1359.1547    91716.492   -21656.216    1677.3223   -23333.538    61.342631    247.88849 
   20550    112.41314   -1475.1788    91679.483   -21661.262    1685.4635   -23346.726     61.38767    249.09167 
   20600     111.1821   -1555.6921    91534.336    -21684.58    1667.0059   -23351.586    61.364809    246.36385 
   20650    113.80325   -1638.4309    91432.889   -21669.138    1706.3061   -23375.444    61.699423    252.17195 
   20700    116.79527   -1420.6858    91339.354   -21623.855    1751.1669   -23375.022    61.949446    258.80185 
   20750    114.48524   -1530.4791    91276.868   -21621.935    1716.5315   -23338.467    62.388284    253.68315 
   20800    114.28559   -1247.2045      91247.8   -21653.412     1713.538    -23366.95    62.456731    253.24075 
   20850    113.23308   -1419.3442    91230.599   -21647.025    1697.7573   -23344.782    62.483574    250.90855 
   20900      113.462   -1482.7215    91149.978   -21656.197    1701.1897   -23357.386    62.512653     251.4158 
   20950    113.85063   -1385.4799    91121.161   -21659.608    1707.0165   -23366.625    62.640981    252.27694 
   21000    114.14372   -1427.4209    91113.081   -21686.443     1711.411   -23397.854    62.536906    252.92639 
   21050    113.25183   -1151.0372     91124.74   -21661.677    1698.0385   -23359.715    62.745271     250.9501 
   21100    112.72812   -1288.4313    91173.168   -21705.394    1690.1861    -23395.58    63.391922    249.78961 
   21150     112.7456   -1071.0976    91266.517    -21710.57    1690.4482   -23401.019     63.39994    249.82835 
   21200     114.5675   -1181.5108    91283.706   -21734.386    1717.7649   -23452.151    63.647601    253.86543 
   21250    111.54355   -1221.8402    91291.726   -21742.546    1672.4254   -23414.971    63.715735    247.16478 
   21300    110.61832   -1284.2181    91254.648   -21757.592     1658.553   -23416.145     63.97068    245.11461 
   21350    110.67009   -1057.9243    91270.244   -21768.085    1659.3292   -23427.414    64.252361    245.22932 
   21400    114.42272    -1178.463     91331.94   -21723.243    1715.5942   -23438.837    64.341178    253.54463 
   21450     111.8982    -1189.598    91338.135   -21742.746    1677.7428   -23420.488    64.487831    247.95064 
   21500    110.08374   -1171.0906    91317.977   -21792.002    1650.5377    -23442.54    64.556725    243.93005 
   21550    110.43474   -1339.9845    91332.152   -21747.205    1655.8005   -23403.006    64.851103    244.70782 
   21600    113.34463   -1438.5509    91280.974   -21786.072    1699.4299   -23485.502     64.82248    251.15573 
   21650    112.34689    -1359.955    91276.119   -21770.498    1684.4702   -23454.968    64.736954    248.94486 
   21700    110.85255   -1399.9054     91274.81   -21769.169     1662.065   -23431.234    64.844432    245.63363 
   21750    112.78018   -1294.8514    91310.964   -21760.832    1690.9668   -23451.799    65.264242    249.90498 
   21800    112.36907   -1004.0907    91431.675   -21782.012    1684.8028   -23466.814    65.450337    248.99402 
   21850    113.95529   -965.10607    91455.914   -21743.122    1708.5858   -23451.708    65.552296    252.50886 
   21900    111.62625   -1479.9385    91439.009   -21749.696    1673.6654   -23423.361     65.80433    247.34804 
   21950    111.92336   -1149.1344    91499.297   -21711.203    1678.1201   -23389.323    66.013255    248.00639 
   22000    114.22105   -1135.6802    91496.058   -21718.468    1712.5704   -23431.038    66.395019    253.09774 
   22050    111.56055   -1190.8893    91510.572   -21751.243    1672.6802   -23423.923    66.471295    247.20244 
   22100    114.28423   -1307.8207    91526.084   -21748.359    1713.5177   -23461.876    66.272259    253.23775 
   22150    113.01918   -1354.4583    91531.512   -21716.279    1694.5502   -23410.829    66.383597    250.43457 
   22200    111.53188   -1442.6009    91584.184   -21695.095    1672.2504   -23367.345    66.366491    247.13893 
   22250    115.64821   -1111.7808    91602.729    -21715.79    1733.9684   -23449.759    66.422306    256.26012 
   22300    110.31724   -1431.6818    91560.159    -21706.22    1654.0387   -23360.259    66.344544    244.44745 
   22350    112.82875   -1231.4062    91590.049   -21754.558     1691.695   -23446.253    66.658372    250.01261 
   22400    115.91821    -1122.094    91583.049   -21703.584    1738.0167   -23441.601    66.829912    256.85841 
   22450     110.1512   -1534.6926     91538.97   -21730.746    1651.5492   -23382.295    66.776564    244.07953 
   22500    110.74643   -1680.8771    91431.374   -21756.405    1660.4738   -23416.879    66.935697    245.39848 
   22550     110.5032   -1335.4452    91409.323   -21747.634    1656.8269   -23404.461    66.812391    244.85951 
   22600    112.46823   -1372.9792     91392.35   -21746.804    1686.2896   -23433.094    66.745304    249.21375 
   22650    112.00625   -1410.4623    91312.713   -21720.714    1679.3628   -23400.077    66.770804    248.19005 
   22700    112.60288   -1470.9404    91267.738   -21717.705    1688.3084   -23406.013    67.001596    249.51211 
   22750    114.71652   -1368.1068    91280.534   -21731.518    1719.9992   -23451.517    67.011077    254.19564 
   22800    109.00619   -1233.7296    91251.284   -21732.677    1634.3816   -23367.059    67.410139    241.54236 
   22850    110.81109   -1156.3989    91279.518   -21712.611    1661.4433   -23374.054    67.923546    245.54176 
   22900     114.7673   -1348.2833    91350.552   -21702.451    1720.7606   -23423.211    67.844777    254.30815 
   22950    113.52032   -1420.9291     91350.81   -21710.728    1702.0641   -23412.792    67.891819    251.54503 
   23000    112.02735   -1162.6098    91377.411   -21712.277    1679.6793   -23391.957    67.873529    248.23683 
   23050    112.88021   -1268.5826    91399.213    -21740.93    1692.4665   -23433.396    67.973858    250.12663 
   23100    110.66182   -1326.3537    91442.371   -21774.673    1659.2051   -23433.878     68.28762    245.21099 
   23150    111.23946   -1513.1066    91440.924   -21773.089     1667.866   -23440.955    68.355969    246.49096 
   23200    112.77644   -1134.0854    91429.723   -21788.139    1690.9107   -23479.049    68.435491     249.8967 
   23250    111.03618   -1237.6244    91408.791   -21738.428    1664.8182   -23403.246    68.802544    246.04053 
   23300    113.52291   -1217.9075    91398.699   -21734.759    1702.1029   -23436.862    68.784096    251.55077 
   23350    110.50579   -1219.1427    91372.758   -21755.097    1656.8657   -23411.963    69.159805    244.86524 
   23400    111.48958    -1453.903    91332.289   -21755.958    1671.6163   -23427.575    69.247396     247.0452 
   23450    113.65343   -1295.5818    91293.239   -21722.211    1704.0598   -23426.271    69.199159    251.83998 
   23500    111.12254   -1396.1922    91325.282   -21772.752     1666.113   -23438.865    69.485324    246.23189 
   23550    114.31281   -1214.0437    91238.476   -21768.962    1713.9462   -23482.908    69.500864    253.30107 
   23600    112.19349   -1178.9028    91274.291   -21789.074    1682.1702   -23471.244    69.835489    248.60495 
   23650    112.42809   -1291.9687    91286.948   -21812.141    1685.6877   -23497.829    70.218443     249.1248 
   23700    112.61585   -1259.6421    91303.816   -21793.111    1688.5029   -23481.614    70.425564    249.54085 
   23750    110.10883    -1336.303     91324.69   -21857.897     1650.914   -23508.811    70.576784    243.98565 
   23800    110.54662   -1079.1375    91260.437   -21849.471     1657.478   -23506.949    70.901603    244.95574 
   23850    112.23467   -1239.5829    91190.211   -21812.136    1682.7877   -23494.924    70.797331    248.69621 
   23900    112.52256   -1416.0036    91143.694    -21809.12    1687.1041   -23496.224    70.915105    249.33412 
   23950    109.73496   -1165.3993    91167.309   -21792.862    1645.3084    -23438.17    71.140707    243.15721 
   24000     116.2554   -1283.3559    91174.782   -21791.568    1743.0724   -23534.641    71.039887    257.60558 
   24050    114.34336   -1193.8962    91191.602   -21764.567    1714.4043   -23478.972    71.194655    253.36877 
   24100    113.92889    -1189.554     91158.44   -21763.853      1708.19   -23472.043    71.523267    252.45037 
   24150      116.038   -1040.8275    91165.898   -21718.671    1739.8128   -23458.484    71.604146    257.12385 
   24200    112.27347   -1234.8105    91190.047   -21746.036    1683.3694   -23429.405    71.674549    248.78218 
   24250     108.7789   -1287.0151    91183.699   -21768.358    1630.9736   -23399.331    71.419031     241.0387 
   24300    109.58343   -1300.0978    91143.524   -21806.915    1643.0364   -23449.951    71.248313    242.82144 
   24350    108.19523   -1182.9649    91115.063   -21796.424    1622.2225   -23418.646     71.51905    239.74538 
   24400    108.72688   -1258.6851    91062.295   -21810.294    1630.1937   -23440.488    71.628648    240.92344 
   24450    112.55513   -910.34464    91065.099   -21774.529    1687.5924   -23462.121    71.696223    249.40629 
   24500    113.62548   -1156.3171    91074.437   -21757.549    1703.6407    -23461.19    72.206881    251.77804 
   24550    112.22414   -1278.2676    91139.507   -21782.664    1682.6297   -23465.294    72.571132    248.67286 
   24600    108.62023   -995.47867    91163.499   -21778.777    1628.5946   -23407.371    72.619684    240.68711 
   24650    111.14568   -1172.2818    91167.511   -21762.861    1666.4599   -23429.321    72.768049    246.28316 
   24700    113.25217   -1388.2416    91224.363   -21798.987    1698.0436    -23497.03    72.903631    250.95085 
   24750    110.66863   -818.38528    91268.928   -21788.268    1659.3073   -23447.575      73.1671    245.22609 
   24800     110.7977   -1203.9238    91339.593   -21738.515    1661.2425   -23399.758     73.35447    245.51209 
   24850    112.26609    -1237.747    91393.927   -21711.533    1683.2587   -23394.791    73.470816    248.76582 
   24900    111.05395   -1424.0151    91430.396   -21740.418    1665.0845   -23405.503    73.761356    246.07989 
   24950    112.93978   -1461.2151    91409.716   -21744.592    1693.3597   -23437.951    73.754612    250.25864 
   25000    110.67885   -1383.0511    91322.046   -21723.851    1659.4606   -23383.312     73.90242    245.24874 
   25050    113.32035   -1388.5239    91265.307   -21700.208    1699.0658   -23399.274    73.937316    251.10192 
   25100    111.60317   -1468.7175    91290.479   -21697.215    1673.3193   -23370.535    74.317565     247.2969 
   25150    113.64007   -1193.3907     91280.84   -21740.881    1703.8595    -23444.74    74.341096    251.81038 
   25200    112.07683   -1226.5461    91365.033   -21722.869    1680.4212   -23403.291    74.551909    248.34647 
   25250    112.21678   -1336.0467    91415.063    -21733.28    1682.5194   -23415.799    74.755721    248.65656 
   25300    114.17221   -1352.6001     91408.19   -21705.338    1711.8381   -23417.176    75.097227    252.98951 
   25350    114.75273   -1289.1223    91382.799   -21680.308    1720.5422    -23400.85    75.394714    254.27588 
   25400    115.98915   -1226.9967    91421.117   -21684.695    1739.0803   -23423.776     75.35882    257.01559 
   25450    113.74476   -1422.8073    91470.575   -21713.009    1705.4291   -23418.438    75.190848    252.04235 
   25500    113.91374   -1479.3398    91528.837   -21690.632    1707.9628   -23398.594    75.242674    252.41679 
   25550     112.9071    -1477.982    91524.961   -21686.104    1692.8697   -23378.973    75.135232    250.18621 
   25600    108.49737   -1545.3453    91513.036   -21733.148    1626.7525     -23359.9    75.519836    240.41487 
   25650    111.51883   -1131.1167    91593.541   -21698.697    1672.0547   -23370.752     75.97458       247.11 
   25700    111.41167   -1102.1714    91607.014   -21689.303     1670.448   -23359.751    76.235133    246.87256 
   25750    113.71284   -1169.2476     91648.92   -21699.632    1704.9506   -23404.582     76.04599    251.97162 
   25800    113.98288   -1152.1153    91675.448   -21679.808    1708.9994   -23388.807    75.854666       252.57 
   25850    116.18187   -1066.1806     91768.83   -21705.103    1741.9699   -23447.073    75.992726    257.44264 
   25900    114.04849   -1583.2791    91792.095   -21739.221    1709.9831   -23449.204    76.326402    252.71538 
   25950      112.512   -1560.5332    91652.419   -21732.869    1686.9458   -23419.815     76.53927    249.31073 
   26000     113.4168   -1493.2878    91623.587       -21736    1700.5119   -23436.512    76.513492    251.31565 
   26050    112.30614   -1126.8437    91672.063   -21706.397    1683.8593   -23390.257    76.624183    248.85458 
   26100    110.53765   -1369.2076    91650.439   -21734.788    1657.3435   -23392.132    77.053541    244.93585 
   26150    112.62065    -1351.696    91568.093   -21726.117    1688.5749   -23414.692    76.687982    249.55149 
   26200    110.48909    -1259.756    91525.634   -21741.968    1656.6154   -23398.583    76.621752    244.82825 
   26250     111.4897    -1207.156    91525.299   -21721.353    1671.6179   -23392.971    76.854083    247.04545 
   26300    113.07095   -1236.8107    91565.157   -21748.125    1695.3264   -23443.451    77.147439    250.54928 
   26350    110.69357   -1094.2436    91571.359   -21739.344    1659.6813   -23399.026    77.417978    245.28136 
   26400    109.69028   -1347.4225    91595.777   -21714.865    1644.6384   -23359.503    77.305145     243.0582 
   26450    113.65041   -1487.7309    91505.228   -21748.351    1704.0146   -23452.366    77.815728     251.8333 
   26500     113.7562   -1576.3368     91444.34   -21764.488    1705.6007   -23470.089    77.805766    252.06771 
   26550    113.51703   -1172.7406    91459.875   -21769.012    1702.0148   -23471.027    78.257066    251.53774 
   26600    111.44959   -1470.5031    91434.847   -21777.271    1671.0166   -23448.287    78.873963    246.95659 
   26650    113.17301   -1403.1399    91439.821   -21740.153    1696.8567   -23437.009    79.035917    250.77544 
   26700    113.17678   -1395.6897    91493.091   -21718.146    1696.9132   -23415.059    79.266306    250.78379 
   26750    113.89296   -1170.2969    91511.079   -21741.727    1707.6511   -23449.378    79.442199    252.37073 
   26800    112.78858   -1362.9893    91553.908   -21735.772    1691.0927   -23426.865    79.477161     249.9236 
   26850    114.27036   -1661.7559    91483.635   -21730.694    1713.3098   -23444.004    79.678279    253.20702 
   26900    114.76934   -1565.5098     91537.54   -21746.078    1720.7912    -23466.87    79.808978    254.31269 
   26950    111.85278   -1572.7229    91513.091   -21767.445    1677.0618   -23444.507    80.263215    247.84999 
   27000    109.55279   -1128.0454    91539.659   -21766.209     1642.577   -23408.786    80.511026    242.75354 
   27050    111.37681    -1256.845     91605.48    -21777.88    1669.9254   -23447.806    80.632005    246.79531 
   27100    111.90952    -1174.956    91640.114   -21717.089    1677.9126   -23395.002    80.926533    247.97573 
   27150    113.42626    -1550.961    91669.297   -21733.973    1700.6537   -23434.627    80.981512     251.3366 
   27200    113.18401   -1451.8617    91692.559   -21755.604    1697.0216   -23452.626    81.083087    250.79982 
   27250    113.19493   -1411.0901    91707.021   -21699.573    1697.1854   -23396.758    81.287715    250.82402 
   27300    112.19954   -1421.5266    91676.507   -21729.846     1682.261   -23412.107    81.508998    248.61837 
   27350    113.38402   -1017.9609    91632.119   -21709.776    1700.0204   -23409.797     81.53965      251.243 
   27400    113.17512   -1720.8013    91616.288   -21707.906    1696.8883   -23404.794    81.680952    250.78012 
   27450    111.27842   -1471.0409    91565.169   -21729.981    1668.4501   -23398.431    82.111976    246.57728 
   27500    112.82211    -1129.179    91607.101   -21710.117    1691.5955   -23401.712    82.244289     249.9979 
   27550     113.1963   -1610.1848    91582.051   -21711.842    1697.2059   -23409.048     82.39366    250.82705 
   27600    112.71559   -1479.0601    91539.082   -21707.963    1689.9983   -23397.962    82.342123    249.76185 
   27650    111.67145   -1424.5651    91462.968   -21700.881    1674.3431   -23375.224    82.579055     247.4482 
   27700    113.79119    -1603.467    91342.662   -21707.838    1706.1253   -23413.963    82.722013    252.14523 
   27750    116.66583   -1372.2992    91265.088    -21694.22    1749.2262   -23443.446    83.122721    258.51503 
   27800    115.06936   -1452.2855     91223.73   -21655.051    1725.2895    -23380.34    83.382983    254.97747 
   27850    113.85365   -1348.1064    91235.954     -21674.7    1707.0618   -23381.761    83.628951    252.28364 
   27900    116.14623   -1376.8024    91227.986   -21667.219    1741.4356   -23408.654    83.645529    257.36368 
   27950    112.57298   -1175.2798    91197.813   -21689.993    1687.8601   -23377.853    83.864356    249.44585 
   28000    112.62679   -1085.5796     91178.32   -21721.657    1688.6669   -23410.324    83.693613    249.56508 
   28050    115.45145   -1360.2448    91229.799   -21663.368    1731.0184   -23394.386    83.979574    255.82414 
   28100    115.11179   -1387.4773    91248.277   -21636.904    1725.9256    -23362.83    84.297596    255.07149 
   28150    114.29269   -981.97067    91272.861    -21661.85    1713.6445   -23375.494    84.273763    253.25648 
   28200    113.29465   -976.76155    91332.528   -21633.358    1698.6805   -23332.039    84.486427    251.04498 
   28250    115.18821   -1006.2759     91413.86   -21636.655    1727.0715   -23363.726     84.56516    255.24084 
   28300    114.07673   -1500.5549    91448.836   -21653.073    1710.4066    -23363.48    84.620967    252.77796 
   28350     112.5332   -1216.0953    91458.653   -21659.629    1687.2637   -23346.893    84.673047    249.35771 
   28400    112.14403   -1906.4477    91418.323   -21728.303    1681.4287   -23409.732    85.029254    248.49537 
   28450    114.87285   -1322.4475    91387.562   -21739.786    1722.3432   -23462.129    85.435318    254.54205 
   28500    111.77087    -1215.107    91397.788   -21744.737    1675.8337   -23420.571    85.503969     247.6685 
   28550    113.73072   -1338.4668    91394.779   -21775.215    1705.2187   -23480.433    85.535271    252.01125 
   28600    110.66945   -1437.2219    91406.104   -21811.649    1659.3196   -23470.968    85.862142     245.2279 
   28650    109.48845   -1397.9641    91410.515   -21823.247    1641.6123    -23464.86    85.980592    242.61097 
   28700    112.17863   -1462.9248    91415.686   -21773.588    1681.9475   -23455.535    86.207414    248.57203 
   28750    114.39801   -1430.7971    91402.569   -21758.999    1715.2237   -23474.223    86.360512    253.48987 
   28800    111.58316   -1393.2403    91424.561   -21712.652    1673.0193   -23385.672    86.304072    247.25256 
   28850    112.10414   -1436.9711    91373.976   -21729.907    1680.8306   -23410.737    86.390812    248.40698 
   28900    113.87368   -1504.6701    91387.003   -21753.814    1707.3621   -23461.176    86.138479    252.32802 
   28950    115.70382   -1582.8904    91355.185   -21732.071    1734.8023   -23466.873      86.1542    256.38335 
   29000    114.57426   -1390.4455    91280.732   -21716.188    1717.8663   -23434.054    86.198354    253.88042 
   29050     112.7352   -1321.1774    91358.615   -21735.267    1690.2924   -23425.559    86.358028    249.80532 
   29100    114.95163   -1354.0131     91366.59   -21717.191    1723.5243   -23440.716     86.32657     254.7166 
   29150    111.10059   -1009.0369    91465.901   -21766.671    1665.7839   -23432.455    86.089436    246.18325 
   29200    114.09373   -1511.6633    91497.369   -21764.412    1710.6614   -23475.073    86.291272    252.81561 
   29250    110.57133    -1680.917    91474.254   -21810.299    1657.8484   -23468.147    86.627093    245.01048 
   29300    110.85765   -1410.6918    91407.112   -21805.618    1662.1414   -23467.759    86.941501    245.64493 
   29350    115.50314     -1132.97    91386.928   -21791.443    1731.7933   -23523.236    86.995394    255.93867 
   29400    113.52308   -1461.9242    91319.717   -21805.573    1702.1054   -23507.679    86.975778    251.55114 
   29450    110.48101   -1137.9944    91324.021   -21866.462    1656.4942   -23522.957    87.185572    244.81035 
   29500    110.28391   -1232.0093    91341.006   -21820.725     1653.539   -23474.264    87.199312     244.3736 
   29550    113.11604   -1520.9949    91343.582   -21781.619    1696.0024   -23477.622     87.17256    250.64919 
   29600    114.30379   -1512.1123    91304.713   -21769.057    1713.8109   -23482.868     87.40637    253.28108 
   29650    112.88028   -1507.6559    91316.528   -21748.159    1692.4677   -23440.627    87.249012    250.12679 
   29700    112.54223   -1173.8604    91350.249   -21755.987    1687.3991   -23443.386    87.118304    249.37772 
   29750    116.12527   -1208.9753    91407.803   -21705.126    1741.1213   -23446.247    86.909908    257.31723 
   29800    116.24596     -1374.88    91407.628   -21703.161    1742.9308   -23446.092    87.130145    257.58465 
   29850     113.9936     -1026.87    91384.122   -21730.205    1709.1602   -23439.365    87.449134    252.59376 
   29900    112.52232   -1141.3729    91392.731   -21722.033    1687.1006   -23409.134     87.81294     249.3336 
   29950    116.13602   -1427.1168    91396.632   -21706.627    1741.2825   -23447.909    87.904689    257.34105 
   30000    115.79297   -1093.2444    91451.767   -21709.305     1736.139   -23445.443    88.087646     256.5809 
   30050    115.88063    -1065.462    91442.644    -21721.59    1737.4533   -23459.043    88.111917    256.77514 
   30100    113.15111   -1024.2343    91462.062   -21742.402    1696.5284    -23438.93     88.60454    250.72692 
   30150    113.85871    -1285.576    91494.361   -21726.802    1707.1377    -23433.94    88.707077    252.29485 
   30200    113.67315   -1382.8087    91506.664   -21677.476    1704.3555   -23381.832    88.651198    251.88367 
   30250    113.50535    -1570.996    91501.457   -21651.682    1701.8396   -23353.521    88.949126    251.51185 
   30300    114.01819   -1638.7808    91423.028   -21697.232    1709.5289   -23406.761    88.860649    252.64824 
   30350    116.36549   -1404.4582    91385.497   -21625.297     1744.723    -23370.02    89.108163    257.84952 
   30400    111.77844   -1468.4449    91353.076   -21697.042    1675.9472   -23372.989    89.214738    247.68527 
   30450    112.19283     -1472.39    91346.125   -21746.298    1682.1604   -23428.458    89.514668     248.6035 
   30500    112.88876   -1293.5308    91310.123   -21755.511    1692.5948   -23448.106    89.622205    250.14558 
   30550    114.15073   -1093.3515    91333.201   -21747.028     1711.516   -23458.544     89.78349    252.94192 
   30600    112.42318   -1578.9071    91390.541   -21745.345    1685.6141   -23430.959    89.770327    249.11392 
   30650    112.59972   -1517.5692    91360.163   -21741.933    1688.2611   -23430.194    89.919186    249.50511 
   30700    113.66611   -1347.4805    91416.264   -21698.642    1704.2499   -23402.892    90.158217    251.86808 
   30750    113.74724    -1336.069    91371.836   -21685.435    1705.4663   -23390.902    90.434611    252.04785 
   30800    113.52046   -1322.9649    91447.476    -21704.08    1702.0662   -23406.146    90.432222    251.54534 
   30850    115.11759   -1278.0947    91520.845   -21708.224    1726.0127   -23434.236    90.781614    255.08435 
   30900    115.28073   -1278.4865    91564.862   -21709.167    1728.4588   -23437.626    90.914684    255.44586 
   30950    115.84421     -1382.74    91519.786   -21728.956    1736.9071   -23465.863    91.051268    256.69443 
   31000    109.20284   -1114.6895    91464.683   -21780.545      1637.33   -23417.875    91.106027     241.9781 
   31050    112.34855   -1628.5465    91475.235   -21739.364    1684.4951   -23423.859    91.327292    248.94854 
   31100    109.22487   -1377.8537    91442.584   -21770.012    1637.6603   -23407.672    92.034491    242.02692 
   31150    111.64612   -1222.1937    91418.698   -21723.362    1673.9632   -23397.325    92.167166    247.39206 
   31200    113.40062   -1567.8975    91313.572   -21661.712    1700.2692   -23361.981    92.505099    251.27978 
   31250    113.42119   -1358.8241    91197.595   -21673.243    1700.5778   -23373.821    92.554006    251.32538 
   31300     112.3552   -1423.0813    91172.704   -21692.622    1684.5948   -23377.217    92.722465    248.96328 
   31350     110.2403   -1443.5276    91110.921   -21718.477    1652.8852   -23371.362    92.996203    244.27697 
   31400    114.31972    -946.7829    91120.069   -21696.304    1714.0498   -23410.354    93.031479    253.31638 
   31450    115.27537    -1211.134    91167.918   -21716.461    1728.3783   -23444.839    93.237391    255.43396 
   31500    111.35121   -1321.7444    91202.581   -21728.758    1669.5416     -23398.3    93.537573    246.73859 
   31550     111.9452   -1667.0205    91174.642    -21733.95    1678.4476   -23412.398     93.92706    248.05479 
   31600    112.54325   -1377.8039    91177.858   -21710.249    1687.4143   -23397.664    94.286222    249.37997 
   31650    113.74666   -1354.2201    91192.743   -21680.581    1705.4577   -23386.038    94.580348    252.04657 
   31700      113.324   -1399.1782    91242.251   -21678.155    1699.1205   -23377.275    94.580956       251.11 
   31750    113.23956   -1246.4298    91270.364   -21696.352    1697.8545   -23394.207    94.617675     250.9229 
   31800    114.69335   -981.74353    91330.629   -21691.901    1719.6519   -23411.553    94.341664     254.1443 
   31850    112.34952   -1024.5963    91369.616   -21694.246    1684.5096   -23378.756    94.241668    248.95069 
   31900    115.55272   -1046.9709    91412.339   -21702.268    1732.5368   -23434.804    94.441613    256.04855 
   31950     111.5607   -1426.9447    91456.393   -21710.267    1672.6825   -23382.949    94.374702    247.20278 
   32000    110.58151   -1553.9983     91398.18   -21753.864     1658.001   -23411.865    94.336402    245.03303 
   32050    110.97026   -1508.1549    91393.296   -21771.656    1663.8297   -23435.486    94.652577    245.89444 
   32100    112.06792    -1348.458     91298.97   -21779.606    1680.2875   -23459.893    94.504818    248.32671 
   32150    112.36461   -1222.3611    91229.333   -21731.839    1684.7359   -23416.575    94.599691    248.98413 
   32200    112.12982   -1264.3608    91122.835   -21714.025    1681.2156   -23395.241    94.697714    248.46387 
   32250    115.97575   -1054.9143    91135.551   -21674.441    1738.8795   -23413.321    94.500626    256.98592 
   32300    112.78749   -668.26374    91182.902   -21641.967    1691.0763   -23333.043    94.248946    249.92117 
   32350     112.5854   -1219.7386    91220.961   -21691.742    1688.0464   -23379.789    94.225877    249.47338 
   32400    113.51398   -1189.8423    91193.778   -21626.416    1701.9689   -23328.385     94.35192    251.53097 
   32450    115.67817   -1135.0399    91230.091   -21580.776    1734.4177   -23315.194    94.367791    256.32652 
   32500    115.53922   -1490.0016    91199.579    -21599.72    1732.3343   -23332.054    94.602846    256.01862 
   32550    112.64132   -1317.2038    91139.271    -21601.44    1688.8847   -23290.325      94.5786    249.59728 
   32600    114.74946   -1433.6701    91080.368   -21600.845    1720.4931   -23321.338    94.924185    254.26863 
   32650    114.77342   -1490.9481    91036.454   -21636.346    1720.8524   -23357.198    95.288287    254.32172 
   32700    113.36236   -1486.3309     90968.26   -21631.145    1699.6956    -23330.84    95.384268    251.19501 
   32750     114.7739     -1018.54    90926.923   -21667.824    1720.8595   -23388.683    95.347108    254.32277 
   32800     111.8063   -1065.7729    91056.311   -21683.209     1676.365   -23359.574    95.565079    247.74701 
   32850    112.39267   -1193.3176    91074.816   -21692.113    1685.1566    -23377.27    95.949036    249.04631 
   32900    112.92547   -1033.8871    91125.355   -21674.029    1693.1452   -23367.174    96.507424    250.22693 
   32950    114.73947   -1005.5605    91237.016   -21678.493    1720.3433   -23398.836    96.495535    254.24648 
   33000    115.95889   -1320.8339      91290.3   -21676.229    1738.6267   -23414.856    97.098876    256.94856 
   33050    112.02892   -1238.7541     91298.36   -21664.357    1679.7028    -23344.06    97.208375    248.24029 
   33100    115.38725   -898.38618    91321.906    -21655.18    1730.0559   -23385.235    97.186022    255.68189 
   33150    116.18308   -1138.0452    91287.354   -21660.658    1741.9881   -23402.646    97.301413    257.44534 
   33200    113.55789   -1138.6688    91299.033   -21665.711    1702.6273   -23368.338    97.407064    251.62828 
   33250    116.44617   -1198.5328    91370.162   -21697.239    1745.9327   -23443.172    97.785411     258.0283 
   33300    114.86253   -1102.7448    91323.497   -21731.371    1722.1884   -23453.559    97.758793    254.51917 
   33350    110.48183   -1054.7295     91436.93   -21787.735    1656.5065   -23444.242    98.005401    244.81215 
   33400    112.37209   -1216.2371    91513.696   -21775.559    1684.8481   -23460.407    98.497765    249.00072 
   33450    110.96858   -1476.5621    91519.379   -21716.314    1663.8046   -23380.119    98.457692    245.89074 
   33500    110.50935   -1313.3608    91485.975    -21765.02    1656.9191   -23421.939    98.546488    244.87314 
   33550    111.08153   -1192.3937    91518.505   -21766.197    1665.4981   -23431.695    98.721122    246.14101 
   33600    113.77111   -1288.3195    91571.496   -21741.936    1705.8242    -23447.76    99.205293    252.10073 
   33650    113.62839   -1269.1387    91548.991    -21711.11    1703.6844   -23414.795    99.528447    251.78449 
   33700    112.53297   -1590.4752    91549.143   -21711.193    1687.2602   -23398.453    99.539314     249.3572 
   33750    113.52185   -1460.9785    91560.185    -21716.53     1702.087   -23418.617    99.642151    251.54842 
   33800    113.54168   -1337.6664    91541.884   -21718.412    1702.3843   -23420.796    99.727073    251.59235 
   33850     111.9188   -1324.3781    91570.671   -21777.664    1678.0517   -23455.716    99.732306    247.99628 
   33900    111.69182   -1403.5765    91573.804    -21749.23    1674.6484   -23423.878    99.811899    247.49333 
   33950    114.23392   -1563.2231    91582.887   -21747.726    1712.7634   -23460.489    100.10797    253.12626 
[...]
   92000     110.5488   -1450.8819    90987.298   -21708.452    1657.5107   -23365.963     275.5211    244.96056 
   92050     111.6965   -1453.8678    91011.243    -21734.65    1674.7186   -23409.369    275.83996    247.50369 
   92100    113.29877   -974.84768    91095.395    -21713.19    1698.7423   -23411.932    275.72882    251.05411 
   92150     110.9316   -1523.3219    91114.916   -21706.714    1663.2501   -23369.965    275.75267    245.80879 
   92200    114.01577     -1070.02    91179.565   -21725.202    1709.4925   -23434.694    276.37758    252.64287 
   92250    111.78195    -1357.325    91215.276   -21766.836    1675.9998   -23442.835     276.3758    247.69304 
   92300    113.46441    -1352.819    91267.574   -21775.855    1701.2257    -23477.08    276.20059    251.42114 
   92350    111.64084    -1455.184     91254.95   -21775.701    1673.8841   -23449.585      276.659    247.38037 
   92400    113.67678   -1412.1544     91178.64   -21768.561    1704.4099    -23472.97    276.43425    251.89172 
   92450    113.98106   -961.41842    91200.729   -21754.981    1708.9722   -23463.953    276.93042    252.56597 
   92500      115.279   -1338.4525    91230.393   -21727.751    1728.4327   -23456.184    277.05236      255.442 
   92550    111.75272   -1269.4846    91174.121   -21733.568    1675.5615    -23409.13    277.28717    247.62827 
   92600    111.35811   -1200.7768    91175.245   -21756.489     1669.645   -23426.134    277.35154    246.75388 
   92650    114.68959   -1505.7661    91232.628   -21740.929    1719.5954   -23460.525    278.09465    254.13596 
   92700    115.42795   -1256.8947    91265.095   -21709.168     1730.666   -23439.834     278.4963    255.77206 
   92750    113.96941    -1064.672    91236.195   -21709.588    1708.7974   -23418.386    278.44093    252.54014 
   92800    114.45202   -1427.8105    91243.309   -21701.822    1716.0335   -23417.856     278.8044    253.60955 
   92850    118.04717   -1079.0936    91285.775   -21691.034    1769.9373   -23460.972    279.16699     261.5759 
   92900     112.7891   -1383.2772    91271.117   -21698.106    1691.1005   -23389.207    279.30814    249.92474 
   92950    113.88226   -1170.7553    91287.411   -21717.012    1707.4908   -23424.503    279.58476    252.34703 
   93000    112.37263    -1127.496    91321.923   -21738.213    1684.8562   -23423.069    279.85693    249.00191 
   93050    114.74782   -1443.9836      91320.1   -21743.457    1720.4685   -23463.926    279.99693    254.26499 
   93100    114.49958   -1191.8188    91312.266   -21731.577    1716.7465   -23448.323    280.14407    253.71493 
   93150    112.94487    -1495.482    91363.666   -21734.382     1693.436   -23427.818    280.79245    250.26991 
   93200    112.17261   -1030.6848    91402.424   -21698.456    1681.8572   -23380.313    281.15844     248.5587 
   93250    111.80248   -1383.2364    91429.292   -21741.806    1676.3076   -23418.113    281.31199    247.73853 
   93300    113.49632   -1309.9166    91419.611   -21723.747    1701.7042   -23425.451    281.65409    251.49184 
   93350    112.12646   -1260.5946    91436.911    -21729.19    1681.1652   -23410.355     281.4392    248.45642 
   93400    112.16317   -1469.5328    91453.415   -21708.107    1681.7156   -23389.823    281.79869    248.53777 
   93450    112.59704   -1156.4383    91469.182   -21751.726    1688.2208   -23439.947    281.53907    249.49916 
   93500    116.81692   -1355.8478    91469.961    -21720.57    1751.4915   -23472.062    281.56365    258.84983 
   93550    112.21655   -1125.3994    91473.564   -21700.945    1682.5161   -23383.461    282.00618    248.65607 
   93600    113.69413   -1223.8459    91409.861   -21690.586      1704.67   -23395.256    282.08324    251.93016 
   93650     115.9029    -729.9011    91445.064   -21693.431    1737.7872   -23431.218    281.89276    256.82449 
   93700    112.29197   -1074.2175    91513.585   -21723.376    1683.6467   -23407.023    282.64015    248.82317 
   93750    111.45115   -1069.8908    91510.578   -21730.195      1671.04   -23401.235    283.09236    246.96005 
   93800    111.02972   -1023.3724    91543.588   -21795.294    1664.7213   -23460.015    283.02611    246.02621 
   93850    111.23425   -1267.0054    91613.346    -21800.96    1667.7879   -23468.748    283.71677    246.47941 
   93900    111.28616   -1354.2515    91610.122   -21799.513    1668.5661   -23468.079    283.61797    246.59443 
   93950    112.88263   -1158.9817    91644.781    -21754.38    1692.5028   -23446.883    284.24839    250.13199 
   94000    113.78512   -1505.7729    91628.114   -21740.174    1706.0343   -23446.209    284.55079    252.13178 
   94050      112.138   -1575.2173     91620.54   -21741.398    1681.3383   -23422.736    284.06783    248.48201 
   94100     114.1198   -1337.7974      91530.7   -21774.578    1711.0524   -23485.631    283.94004     252.8734 
   94150    110.05906   -1410.1107    91558.213   -21829.833    1650.1678       -23480    284.06876    243.87537 
   94200    112.29809   -1187.5513    91555.366   -21785.623    1683.7386   -23469.362    284.09044    248.83674 
   94250    111.92121   -1415.5438    91570.815    -21753.52    1678.0878   -23431.608    284.58472    248.00162 
   94300    111.74323   -922.31125    91590.012    -21743.28    1675.4193     -23418.7    284.28567    247.60724 
   94350     117.9504   -1386.5164    91646.744   -21678.628    1768.4863   -23447.114    283.82582    261.36146 
   94400    115.36533   -1334.3347    91581.781    -21644.37    1729.7272   -23374.097    284.17286    255.63331 
   94450    116.52023   -1175.4527    91615.181   -21636.895    1747.0431   -23383.938    284.12852    258.19241 
   94500    114.38387   -1267.9542    91632.611   -21689.369    1715.0116    -23404.38    284.40742    253.45853 
   94550    112.78461   -1170.4211    91641.653    -21627.72    1691.0331   -23318.753    284.01899    249.91479 
   94600    116.13701   -1335.8862     91645.51   -21625.217    1741.2973   -23366.514    284.28204    257.34325 
   94650    117.00713   -1114.9748    91622.961   -21664.297    1754.3435    -23418.64    284.55369    259.27132 
   94700    114.51486   -1548.6407    91613.698   -21642.964    1716.9757   -23359.939    284.48227    253.74879 
   94750    115.81343   -1168.3469    91623.788   -21657.462    1736.4457   -23393.908    284.46637    256.62624 
   94800    115.96997   -1189.5657    91652.673   -21653.248    1738.7928   -23392.041    283.84836     256.9731 
   94850    114.71314   -1276.2425     91644.66    -21655.82    1719.9485   -23375.769    284.16206    254.18814 
   94900    115.16111   -1163.5401    91675.266   -21669.338    1726.6652   -23396.003    283.96492    255.18079 
   94950    112.45687   -1139.2013    91729.909   -21645.456    1686.1193   -23331.575    284.20018    249.18858 
   95000    116.86234   -1410.7837    91718.529   -21614.936    1752.1725   -23367.108    284.27667    258.95046 
   95050    114.56552    -1344.919    91687.443   -21645.354    1717.7352   -23363.089    284.18685    253.86104 
   95100    117.11141   -1376.3295    91630.773    -21609.01     1755.907   -23364.917     284.2657    259.50238 
   95150     114.6044   -1456.4373    91591.442   -21603.568    1718.3182   -23321.887    284.89268    253.94721 
   95200    117.04914   -1592.5004    91564.758   -21585.857    1754.9734    -23340.83    284.50167     259.3644 
   95250    114.38325   -1281.4926    91520.319   -21636.272    1715.0024   -23351.275    284.42305    253.45717 
   95300    111.91256   -1073.3424    91545.029   -21632.889    1677.9581   -23310.847    285.03726    247.98246 
   95350    115.17937    -1327.972    91545.215   -21633.796    1726.9389   -23360.735    285.17735    255.22124 
   95400    114.29775   -1435.5865    91557.408   -21654.064    1713.7204   -23367.785    285.19821     253.2677 
   95450    115.47517   -1252.5478    91580.024   -21636.432     1731.374   -23367.806    285.65785    255.87669 
   95500    112.00034   -1163.9257    91564.383   -21649.799    1679.2743   -23329.073     285.8063    248.17697 
   95550    115.38644   -1326.1582    91509.879   -21677.045    1730.0436   -23407.089    285.60917    255.68008 
   95600    113.33202   -1406.5833    91444.796   -21663.687    1699.2408   -23362.928    285.36019    251.12779 
   95650    113.34278   -1494.1305    91424.548   -21655.009    1699.4022   -23354.411    285.30218    251.15163 
   95700    114.39119    -1331.756    91400.472   -21641.211    1715.1214   -23356.332     285.4836    253.47475 
   95750    112.77557   -1347.8469    91396.196   -21629.906    1690.8976   -23320.804    285.95635    249.89477 
   95800     112.3768   -1169.3794    91392.213   -21630.591    1684.9187    -23315.51    285.95084    249.01115 
   95850    110.46176   -1438.5988    91429.076   -21651.274    1656.2055    -23307.48    286.34108    244.76768 
   95900    113.51687   -1410.0666    91442.776   -21654.051    1702.0122   -23356.063    286.24988    251.53737 
   95950    114.50262   -1254.6798    91447.769   -21659.673    1716.7921   -23376.465    286.74636    253.72167 
   96000    112.50049   -1518.5684    91430.323    -21656.78    1686.7733   -23343.554    287.54206    249.28523 
   96050    112.50712   -1386.1191    91365.377   -21693.694    1686.8727   -23380.567    287.83401    249.29993 
   96100    109.82803   -1229.6725    91361.053   -21715.824    1646.7038   -23362.528    288.11933    243.36343 
   96150     112.5007   -1147.9728    91241.172   -21709.269    1686.7764   -23396.045    288.40729    249.28569 
   96200    113.14721   -1220.4613    91275.243   -21744.155    1696.4697   -23440.624    288.98699    250.71826 
   96250    113.68392   -1300.7895    91240.948   -21746.329     1704.517   -23450.847    288.60152    251.90755 
   96300     113.0035   -966.01218    91297.678   -21717.572    1694.3151   -23411.887     288.7911    250.39983 
   96350    111.69879   -1279.7718    91384.074   -21728.753     1674.753   -23403.506    289.17143    247.50877 
   96400    113.53454   -1386.6543    91319.357   -21734.122    1702.2772   -23436.399    288.90189    251.57654 
   96450    113.75201   -1228.9295    91273.873   -21689.847    1705.5379   -23395.384    289.25252    252.05842 
   96500    113.21362   -1161.3839    91279.962   -21666.923    1697.4655   -23364.388     289.3973    250.86542 
   96550    113.16272   -1221.2501     91309.71   -21685.756    1696.7023   -23382.459    289.04264    250.75263 
   96600    111.62841   -1193.1843    91385.135   -21669.524    1673.6977   -23343.222    289.29933    247.35282 
   96650    116.64988   -822.82245    91463.668   -21651.993     1748.987    -23400.98     288.9224    258.47968 
   96700    112.36571   -1187.4902    91524.747    -21631.93    1684.7525   -23316.682    288.95281    248.98658 
   96750    112.63108   -1395.4423    91443.319   -21683.613    1688.7312   -23372.344    289.34769     249.5746 
   96800    115.00999   -1225.6809    91358.951   -21634.806    1724.3994   -23359.205    289.19848    254.84593 
   96850    114.82952   -1032.5037    91448.994   -21591.237    1721.6935    -23312.93    289.54255    254.44603 
   96900    116.20664   -1234.8388    91494.882   -21587.116    1742.3413   -23329.457    289.89376    257.49753 
   96950    115.06185   -1499.6063    91517.592    -21598.39    1725.1769   -23323.567    290.13347    254.96084 
   97000    115.72819   -1095.5267     91508.07   -21611.508    1735.1676   -23346.675    289.92408    256.43735 
   97050    113.50453   -1156.5203    91463.635   -21653.921    1701.8273   -23355.749     289.8433    251.51005 
   97100    110.72627   -1624.6295    91373.239   -21688.852    1660.1716   -23349.023    290.21105    245.35381 
   97150    115.57448   -1129.4016    91235.607    -21662.27     1732.863   -23395.133      290.103    256.09676 
   97200    113.68635   -1157.8188    91253.111   -21648.694    1704.5534   -23353.248    290.62204    251.91292 
   97250    114.11804   -1266.9574    91282.876   -21661.534    1711.0259    -23372.56    290.38884    252.86948 
   97300    111.29606   -1375.5666    91287.685   -21665.617    1668.7147   -23334.332    290.40691    246.61639 
   97350    111.06023   -1506.8193    91293.531   -21682.071    1665.1788   -23347.249    289.96542    246.09382 
   97400    114.39501   -1376.0621    91237.782   -21674.535    1715.1787   -23389.713    290.53893    253.48322 
   97450    114.96392   -1188.8332    91283.161   -21701.816    1723.7087   -23425.524    291.32047    254.74385 
   97500    112.72725   -1092.2869    91325.457   -21707.284    1690.1731   -23397.457    291.47995    249.78769 
   97550    115.11977   -1351.6653    91376.783   -21745.186    1726.0453   -23471.231    292.02214    255.08918 
   97600    112.67039   -1421.0149    91320.161   -21723.696    1689.3206   -23413.016    291.63111     249.6617 
   97650    114.33817   -1051.0175    91403.101    -21712.02    1714.3265   -23426.347    291.71857    253.35727 
   97700    113.80702   -1465.9234    91472.428   -21682.192    1706.3627   -23388.554    292.30526    252.18032 
   97750    114.57498   -1592.7139    91411.326   -21693.569     1717.877   -23411.446    292.42748      253.882 
   97800    112.23705   -1401.6665    91451.064   -21710.676    1682.8234   -23393.499    292.27148    248.70149 
   97850    111.24585   -1340.8805    91504.071   -21772.863    1667.9618   -23440.825    292.95969    246.50511 
   97900    110.72818    -1273.679    91396.256   -21778.772    1660.2002   -23438.972    292.83403    245.35804 
   97950    110.13348   -1389.0497    91430.904   -21805.025    1651.2836   -23456.309    292.67716    244.04027 
   98000    112.67771   -1295.6706    91488.314   -21764.954    1689.4304   -23454.384    292.75163    249.67792 
   98050    114.29177   -1175.5815    91475.845   -21731.938    1713.6308   -23445.569    293.03051    253.25446 
   98100    112.97085      -1467.2    91466.574   -21736.427    1693.8256   -23430.252     293.5859    250.32748 
   98150    110.44879   -1356.9049    91495.784   -21784.446    1656.0111   -23440.457    293.48066    244.73895 
   98200      113.369   -1220.4599    91526.245   -21769.192    1699.7952   -23468.987    293.62353    251.20972 
   98250    112.08789   -1331.7261    91474.862   -21806.773     1680.587   -23487.359    293.70737    248.37097 
   98300    115.10653   -949.58423    91482.343   -21735.557    1725.8469   -23461.404    293.87996    255.05985 
   98350    114.63109   -1029.9185    91480.175    -21684.28    1718.7183   -23402.998    293.86417    254.00633 
   98400    115.37327   -1253.8207    91492.674   -21694.658    1729.8463   -23424.505    293.71066    255.65091 
   98450    117.51407   -1140.1048    91422.645   -21667.789    1761.9442   -23429.734    294.10595     260.3946 
   98500    111.51176   -1348.6163    91399.509   -21727.932    1671.9488   -23399.881    294.30498    247.09434 
   98550    114.66822   -1486.6587    91302.847    -21720.77    1719.2751   -23440.045    294.63275    254.08862 
   98600     115.8853   -1176.2265    91221.546   -21694.722    1737.5232   -23432.245    294.59444    256.78548 
   98650    112.91862   -1160.8207    91246.446   -21730.978    1693.0424    -23424.02    294.77683    250.21173 
   98700    113.37438   -1134.6013    91228.924   -21690.776    1699.8758   -23390.651    295.91104    251.22163 
   98750    113.60358   -969.29937    91276.373   -21688.431    1703.3124   -23391.744     296.2698    251.72952 
   98800    113.22793   -1567.6562    91302.048   -21699.126      1697.68   -23396.806    296.67994    250.89712 
   98850    112.60349   -1429.4901    91255.161   -21698.921    1688.3176   -23387.239     296.9396    249.51347 
   98900    114.32339    -1271.866    91186.894   -21700.753    1714.1049   -23414.858     297.0501    253.32452 
   98950    113.52731   -1179.4951     91182.18   -21710.562    1702.1688   -23412.731    297.21851    251.56051 
   99000    111.39835   -1344.7938    91122.392   -21736.704    1670.2484   -23406.952    297.49088    246.84304 
   99050    111.11889   -1495.0703    91104.566    -21765.91    1666.0583   -23431.968    297.56999     246.2238 
   99100     113.1615   -1573.8885    91062.943   -21751.046     1696.684    -23447.73    297.87043    250.74993 
   99150    115.12101   -1616.2272    90927.848   -21748.711    1726.0639   -23474.775    298.30361    255.09193 
   99200    113.22102   -959.82436    90953.808   -21723.434    1697.5765    -23421.01    298.21918    250.88182 
   99250    111.60196   -1110.6873    91044.573   -21736.764    1673.3011   -23410.065    298.42265     247.2942 
   99300    112.60868   -1260.0477    91109.464   -21732.319    1688.3954   -23420.714    299.44992    249.52497 
   99350    112.09387   -1250.4567    91093.507   -21712.542    1680.6766   -23393.218    299.11996    248.38421 
   99400    112.40876   -1331.9295    91093.808   -21724.861    1685.3979   -23410.259    298.79842    249.08196 
   99450    110.63125   -1207.3041    91038.195   -21732.926    1658.7468   -23391.673    299.00369    245.14324 
   99500    111.70203   -1083.8658    91010.958   -21718.136    1674.8016   -23392.937    299.29613    247.51596 
   99550    111.50618   -925.22429    91009.299   -21723.384     1671.865   -23395.249    299.17003    247.08197 
   99600    113.05499   -923.52169    91120.291   -21708.633    1695.0871    -23403.72    299.10644    250.51392 
   99650    113.92225   -1279.5005    91164.732   -21670.555    1708.0903   -23378.645    299.71686    252.43564 
   99700    116.66159   -1278.4519     91125.52   -21657.886    1749.1626   -23407.048    300.37597    258.50564 
   99750    113.02292   -1270.1029    91097.082   -21706.293    1694.6062     -23400.9    300.66331    250.44285 
   99800    117.43564   -1278.4076     91059.79   -21680.542    1760.7683   -23441.311    301.40743    260.22083 
   99850    113.60217   -1151.0719    91083.889   -21679.438    1703.2913    -23382.73    302.10585     251.7264 
   99900    111.30179   -1316.8299    91132.023   -21691.843    1668.8006   -23360.644    302.05959    246.62908 
   99950    115.56314   -938.23881    91115.133   -21706.509     1732.693   -23439.202    301.99791    256.07163 
  100000    114.22122    -1051.056    91214.946   -21677.381     1712.573   -23389.954    302.46775    253.09812 
Loop time of 42.4087 on 80 procs for 100000 steps with 5031 atoms

Performance: 1018.658 ns/day, 0.024 hours/ns, 2358.006 timesteps/s
100.0% CPU use with 80 MPI tasks x no OpenMP threads

MPI task timing breakdown:
Section |  min time  |  avg time  |  max time  |%varavg| %total
---------------------------------------------------------------
Pair    | 5.8781     | 17.464     | 24.973     | 170.1 | 41.18
Neigh   | 0.47997    | 1.252      | 3.3274     |  95.1 |  2.95
Comm    | 10.389     | 16.931     | 28.111     | 164.2 | 39.92
Output  | 0.11898    | 0.12256    | 0.26021    |   4.4 |  0.29
Modify  | 4.0462     | 5.7745     | 7.2646     |  38.7 | 13.62
Other   |            | 0.865      |            |       |  2.04

Nlocal:    62.8875 ave 144 max 31 min
Histogram: 58 2 0 0 0 0 0 0 5 15
Nghost:    673.062 ave 838 max 393 min
Histogram: 20 0 0 0 0 0 0 39 1 20
Neighs:    0 ave 0 max 0 min
Histogram: 80 0 0 0 0 0 0 0 0 0
FullNghs:  5909.77 ave 18791 max 1140 min
Histogram: 60 0 0 0 0 0 0 0 0 20

Total # of neighbors = 472782
Ave neighs/atom = 93.9738
Neighbor list builds = 5941
Dangerous builds = 0

write_data		${DIR}/data.eq-${NAME}-${TEMP}
write_data		run_2/data.eq-${NAME}-${TEMP}
write_data		run_2/data.eq-het_freeze_2-${TEMP}
write_data		run_2/data.eq-het_freeze_2-250
undump          1

reset_timestep  0

unfix           2
unfix           3
unfix           4


################################################
#######         Run Simulation         #########
################################################

log				${DIR}/log.run_${NAME}
log				run_2/log.run_${NAME}
log				run_2/log.run_het_freeze_2
