
# Create simulation box and atoms

read_data data.ML_graphite_m500atm_240K
  orthogonal box = (0 0 1.53529) to (49.22 49.0196 38.4647)
  5 by 4 by 4 MPI processor grid
  reading atoms ...
  5021 atoms
  reading velocities ...
  5021 velocities
group water type 1
2261 atoms in group water
group graphite type 2
2760 atoms in group graphite

# Define potential

pair_style sw
pair_coeff * * MLC_e.sw mW C


# Fix graphite atoms in place

fix 5 graphite setforce 0.0 0.0 0.0
velocity graphite set 0.0 0.0 0.0


# Equilibration of molecular water

# Add velocity/set timestep

velocity	    water create ${TEMP} ${SEED} rot yes dist gaussian
velocity	    water create 240 ${SEED} rot yes dist gaussian
velocity	    water create 240 9729 rot yes dist gaussian
timestep	    5.0

# Define output

compute			1 water msd
compute			3 water temp
thermo	    	50
thermo_style	custom step temp press vol etotal ke pe c_1[4] c_3

# Neighbor lists

neigh_modify    delay 0 every 1 check yes

# Set fixes

fix             1 water momentum 10 linear 1 1 1 rescale
fix             2 water nve
fix             3 water temp/csvr ${TEMP} ${TEMP} 500.0 ${SEED}
fix             3 water temp/csvr 240 ${TEMP} 500.0 ${SEED}
fix             3 water temp/csvr 240 240 500.0 ${SEED}
fix             3 water temp/csvr 240 240 500.0 9729
fix             4 water press/berendsen z ${PRES} ${PRES} 1000.0 modulus 20000
fix             4 water press/berendsen z -500 ${PRES} 1000.0 modulus 20000
fix             4 water press/berendsen z -500 -500 1000.0 modulus 20000

# Run 0.5 ns equilibration

dump		    1 all atom 2000 ${DIR}/eq.${NAME}-${TEMP}.dump
dump		    1 all atom 2000 run_14/eq.${NAME}-${TEMP}.dump
dump		    1 all atom 2000 run_14/eq.het_freeze_14-${TEMP}.dump
dump		    1 all atom 2000 run_14/eq.het_freeze_14-240.dump

reset_timestep  0

run	            100000
Neighbor list info ...
  update every 1 steps, delay 0 steps, check yes
  max neighbors/atom: 2000, page size: 100000
  master list distance cutoff = 6.67472
  ghost atom cutoff = 6.67472
  binsize = 3.33736, bins = 15 15 12
  1 neighbor lists, perpetual/occasional/extra = 1 0 0
  (1) pair sw, perpetual
      attributes: full, newton on
      pair build: full/bin/atomonly
      stencil: full/bin/3d
      bin: standard
Per MPI rank memory allocation (min/avg/max) = 4.069 | 4.188 | 4.476 Mbytes
Step Temp Press Volume TotEng KinEng PotEng c_1[4] c_3 
       0    108.04781   -816.58172    89101.337   -21796.007    1616.7914   -23412.799            0          240 
      50    109.11325   -769.01208    89109.482   -21762.209    1632.7343   -23394.943   0.50948548     242.3666 
     100    112.55163   -944.15862    89068.052   -21793.106    1684.1851   -23477.291    0.8008961    250.00407 
     150    107.93257   -594.61879    89065.899   -21794.117     1615.067   -23409.184    1.0333143    239.74404 
     200    109.24261   -884.52926    89121.991   -21781.003      1634.67   -23415.673    1.2760529    242.65395 
     250    109.40492   -1012.2968    89073.885     -21793.1    1637.0987   -23430.199    1.4938886    243.01446 
     300    107.87598   -1061.1956    88998.782   -21844.483    1614.2201   -23458.703    1.6221135    239.61832 
     350    106.58239    -624.2637     88979.49   -21867.222    1594.8633   -23462.085    1.7420979    236.74495 
     400    109.34187    -854.8588    88988.575   -21843.156    1636.1553   -23479.312    1.8965211    242.87442 
     450    109.55679   -998.94235    88965.792   -21810.582    1639.3712   -23449.953    2.0454123     243.3518 
     500    109.76527   -823.99132    88916.098   -21807.863    1642.4909   -23450.354    2.2563046    243.81489 
     550    109.92205    -695.4346     88945.89   -21773.696    1644.8369   -23418.533    2.4700751    244.16314 
     600    109.61913     -853.873    88974.382   -21783.598    1640.3041   -23423.902     2.721861    243.49028 
     650    110.38757   -591.74256    88984.185   -21737.434    1651.8028   -23389.237    2.8645672    245.19717 
     700    109.37015   -657.82102    88988.048   -21745.231    1636.5784   -23381.809    3.0838051    242.93723 
     750    108.05737   -789.00743    88950.944   -21803.251    1616.9345   -23420.185    3.2918098    240.02124 
     800     106.9266   -961.31301    88922.371   -21824.256    1600.0139    -23424.27    3.3950175    237.50952 
     850    108.82302   -776.94227    88935.847   -21815.031    1628.3914   -23443.422    3.5408157    241.72194 
     900    109.13457   -973.72221    88924.875   -21792.015    1633.0533   -23425.068    3.7043076    242.41396 
     950    108.89698   -510.20588    88918.676   -21802.824     1629.498   -23432.322    3.9115048     241.8862 
    1000    108.23609   -861.39113    88863.781   -21789.916    1619.6088   -23409.525    4.0909075    240.41822 
    1050    110.76207   -707.42103    88867.154   -21773.906    1657.4066   -23431.312    4.2263381    246.02902 
    1100    107.46851   -476.71171    88829.327   -21775.813     1608.123   -23383.936    4.3683429    238.71325 
    1150     110.2105   -547.48973    88827.053   -21774.215    1649.1532   -23423.369    4.4893348    244.80385 
    1200    109.53827   -752.99917    88850.851   -21750.592    1639.0941   -23389.686    4.7065715    243.31066 
    1250    107.01237   -789.12577    88822.119   -21782.047    1601.2974   -23383.345    4.8497318    237.70004 
    1300    108.63927   -787.80116    88825.351   -21800.297    1625.6418   -23425.938    4.9065683    241.31378 
    1350    105.32334   -450.95755    88863.317   -21824.888    1576.0234   -23400.911    5.0802329    233.94831 
    1400    107.57741   -695.38907    89004.549   -21811.773    1609.7525   -23421.526    5.1793387    238.95514 
    1450    106.76266   -678.48447    89133.414   -21845.832    1597.5608   -23443.393    5.2983383    237.14537 
    1500    107.15526    -783.5716    89118.453    -21857.01    1603.4356   -23460.446    5.4348303    238.01744 
    1550    107.98708   -651.57512    89103.285   -21867.898    1615.8826   -23483.781    5.6091653     239.8651 
    1600    109.72906   -541.56239    89160.514   -21826.919     1641.949   -23468.868    5.7246468    243.73446 
    1650    108.88229   -786.31171     89168.98   -21781.595    1629.2783   -23410.874    5.8569094    241.85359 
    1700    107.25693   -854.78317    89271.924   -21799.359    1604.9569   -23404.316    6.1056996    238.24327 
    1750    111.14327    -639.9564    89322.446   -21773.387    1663.1108   -23436.498     6.333162    246.87575 
    1800    105.70907   -980.35291    89313.527   -21835.094    1581.7952    -23416.89    6.5209645     234.8051 
    1850    109.65207   -835.64447    89408.604   -21799.114     1640.797   -23439.911    6.6806238    243.56345 
    1900    107.90139   -672.18841    89446.758   -21819.995    1614.6004   -23434.596    6.8909166    239.67477 
    1950    108.64521   -814.75833    89490.169   -21782.101    1625.7306   -23407.832    7.0261931    241.32696 
    2000    107.28859   -662.20614    89557.264   -21801.788    1605.4307   -23407.219    7.0872384     238.3136 
    2050    106.31495   -822.39931     89511.48   -21793.958    1590.8615    -23384.82    7.1380828    236.15091 
    2100    111.15504   -883.43809    89496.604   -21771.203    1663.2869    -23434.49    7.3413274     246.9019 
    2150    108.51116   -820.56291    89574.194   -21794.648    1623.7248   -23418.373    7.4795999    241.02921 
    2200    105.85466   -918.85471    89546.362   -21800.615    1583.9739   -23384.589    7.4918467     235.1285 
    2250    108.82146   -922.56309    89555.621    -21816.47    1628.3681   -23444.838    7.6212175    241.71847 
    2300    107.81721   -1086.3037     89586.46   -21826.449    1613.3408    -23439.79    7.8347024    239.48778 
    2350    105.18346   -1015.8954    89608.765   -21846.001    1573.9302   -23419.931    8.0781589    233.63759 
    2400    106.68335   -900.84012    89589.384   -21846.338    1596.3741   -23442.712    8.3258179    236.96921 
    2450     105.7087   -953.37005     89596.29   -21885.001    1581.7897    -23466.79    8.4855677    234.80428 
    2500    108.37504   -752.44289    89657.099   -21813.861    1621.6879   -23435.549    8.7078924    240.72686 
    2550    109.90381   -949.63287    89653.612   -21782.622     1644.564   -23427.187    8.8029119    244.12263 
    2600     107.8256   -1094.9667    89574.648   -21784.529    1613.4663   -23397.995    8.8449408    239.50642 
    2650    107.76964   -877.81815    89540.346    -21755.12     1612.629   -23367.749    8.9161799    239.38213 
    2700    108.21788    -1272.063    89566.786   -21734.309    1619.3363   -23353.646    9.1021143    240.37778 
    2750    110.57356   -739.14608    89492.519   -21702.662    1654.5859   -23357.247    9.2915968    245.61029 
    2800    112.29534   -836.16571    89475.117   -21711.229      1680.35   -23391.579    9.4386693    249.43478 
    2850    106.56709   -904.69612    89478.919   -21733.601    1594.6344   -23328.235    9.6574927    236.71098 
    2900    110.07881   -683.62088    89509.678   -21749.708    1647.1825    -23396.89    9.8622297    244.51133 
    2950    106.95399   -1001.4462    89532.283   -21756.491    1600.4238   -23356.914    10.138645    237.57036 
    3000    107.04492   -748.77331    89548.381   -21753.803    1601.7845   -23355.588    10.211226    237.77235 
    3050    107.50459   -544.15538    89620.282   -21761.512    1608.6629   -23370.174    10.253981    238.79339 
    3100    108.86309   -1115.9432      89638.6   -21765.966     1628.991   -23394.957    10.338092    241.81094 
    3150    107.77272     -744.825    89634.978   -21810.576    1612.6751   -23423.251    10.381674    239.38897 
    3200    108.26018    -617.3448    89659.984    -21806.59    1619.9692    -23426.56    10.536407    240.47172 
    3250    106.65404   -838.31001    89636.444   -21816.792    1595.9355   -23412.727    10.664142    236.90411 
    3300    110.44158   -990.40963    89499.045   -21752.722     1652.611   -23405.333    10.982766    245.31714 
    3350    110.52629   -541.20757    89513.338   -21731.519    1653.8786   -23385.398    11.063284    245.50531 
    3400    113.41128   -476.56967    89553.219   -21720.194    1697.0486   -23417.243    11.167555    251.91356 
    3450    108.91038   -728.18638    89584.292   -21735.012    1629.6986   -23364.711    11.397143    241.91598 
    3500    112.14096   -711.50763     89603.73    -21705.13      1678.04    -23383.17    11.492834    249.09188 
    3550     109.3644   -971.35049    89592.239   -21729.808    1636.4924     -23366.3    11.549117    242.92446 
    3600    109.09133   -916.35847     89659.09   -21699.257    1632.4063   -23331.663    11.605108    242.31792 
    3650    107.88136   -867.19987    89672.821   -21754.104    1614.3007   -23368.404    11.708405    239.63028 
    3700    108.25199     -1029.75    89626.278   -21773.123    1619.8467    -23392.97    11.919005    240.45354 
    3750    107.90912   -1187.9331    89587.247   -21786.191    1614.7161   -23400.907     12.12159    239.69194 
    3800    107.53141   -1111.6334    89524.997   -21760.616    1609.0642    -23369.68    12.396367    238.85295 
    3850    107.34045   -1139.7049     89418.21   -21782.426    1606.2067   -23388.633    12.558174    238.42879 
    3900    105.78608   -883.01715    89330.467   -21797.745    1582.9476   -23380.692    12.680733    234.97615 
    3950    105.50374    -1024.041    89272.789   -21770.203    1578.7227   -23348.926    12.868506    234.34901 
    4000    110.26352   -1046.9004    89177.474    -21765.05    1649.9466   -23414.997    12.921515    244.92163 
    4050    106.67933   -1020.6273    89177.658   -21765.219     1596.314   -23361.533     13.12326    236.96029 
    4100    108.81921   -871.59516    89160.901   -21758.645    1628.3343   -23386.979      13.2169    241.71346 
    4150     107.7967   -639.86128    89154.607   -21813.346    1613.0339    -23426.38    13.414441    239.44223 
    4200    107.20636   -781.69948      89097.3   -21860.161    1604.2002   -23464.361     13.71551    238.13093 
    4250    105.29113   -1030.0207    89134.433   -21868.513    1575.5413   -23444.054    13.858603    233.87676 
    4300    103.15668   -942.19255    89093.836   -21860.065    1543.6022   -23403.668    14.063534    229.13564 
    4350     104.3867     -1084.56    89059.623    -21845.86    1562.0078   -23407.867    14.273341    231.86781 
    4400    106.23955   -661.34946    89005.195   -21855.956    1589.7333   -23445.689    14.501314    235.98344 
    4450    108.95374   -762.44098    89076.503   -21833.588    1630.3474   -23463.936    14.699055    242.01229 
    4500    109.73609   -553.89848    89157.469   -21830.643    1642.0542   -23472.697    14.766839    243.75007 
    4550    106.06564   -1022.4333    89171.926   -21849.921    1587.1308   -23437.052    14.870436    235.59712 
    4600    107.00049    -1002.111    89205.007   -21821.385    1601.1196   -23422.505    15.142116    237.67365 
    4650    105.98269   -821.24699    89190.838   -21844.033    1585.8896   -23429.923       15.291    235.41287 
    4700    106.87805   -962.07175    89113.815     -21835.6    1599.2874   -23434.887    15.373612    237.40168 
    4750    109.83801   -676.20878    89123.496   -21761.738    1643.5793   -23405.318    15.617033    243.97646 
    4800    107.93532   -456.31232    89141.068    -21785.43    1615.1081   -23400.538    15.785991    239.75013 
    4850    105.32413   -950.08096    89186.868   -21801.326    1576.0351   -23377.361     15.85528    233.95006 
    4900    107.60884   -817.99775    89157.493   -21844.439    1610.2228   -23454.662    16.116556    239.02494 
    4950    108.74374   -808.74894    89166.659    -21817.95     1627.205   -23445.155    16.210977    241.54583 
    5000    107.66993    -1038.957    89114.851   -21803.245    1611.1369   -23414.382    16.460897    239.16064 
    5050    108.16324   -788.44091    89089.073   -21804.436    1618.5186   -23422.954     16.74444    240.25639 
    5100    109.54424   -968.93891    89105.409   -21757.357    1639.1834    -23396.54    17.001995    243.32392 
    5150    108.34773    -684.0617    89149.123   -21750.778    1621.2794   -23372.057    17.219462    240.66621 
    5200    108.30283   -761.65642    89136.521   -21816.437    1620.6075   -23437.045    17.420251    240.56647 
    5250    107.51313   -477.55151    89167.857   -21815.805    1608.7906   -23424.595    17.560454    238.81235 
    5300    107.40716   -623.80242    89229.173   -21825.355    1607.2049    -23432.56    17.877637    238.57696 
    5350    107.67706   -511.84015     89269.65   -21850.404    1611.2436   -23461.647    17.874189    239.17648 
    5400    109.69589   -467.79662    89329.736   -21850.087    1641.4528   -23491.539    18.056446    243.66079 
    5450    105.64328   -1070.2596    89342.644   -21902.214    1580.8108   -23483.025    18.345507    234.65897 
    5500    106.41694   -1073.8149    89381.941   -21936.506    1592.3876   -23528.893    18.686534    236.37745 
    5550    107.16915    -928.6094    89347.347   -21927.327    1603.6434    -23530.97    19.035165    238.04829 
    5600    103.64775   -1045.5603    89295.918    -21908.04    1550.9504   -23458.991    19.173404    230.22642 
    5650    107.27452   -716.05966     89251.03    -21909.06    1605.2201    -23514.28    19.307411    238.28233 
    5700    109.00855   -653.30583    89284.835   -21854.017    1631.1675   -23485.185    19.398432    242.13403 
    5750    105.01984   -848.41809    89324.244   -21830.615    1571.4818   -23402.097     19.62019    233.27415 
    5800    108.92143    -504.6919    89386.069   -21794.501     1629.864   -23424.365    19.641855    241.94053 
    5850    109.65037   -754.47145    89446.879   -21767.527    1640.7715   -23408.299    19.729335    243.55967 
    5900    110.66071   -758.41413    89473.581   -21786.072      1655.89   -23441.963    19.930203    245.80389 
    5950    106.49803   -849.62042    89481.457    -21815.44    1593.6011   -23409.041    19.950265    236.55758 
    6000     108.1921   -699.73509    89448.828   -21808.332    1618.9505   -23427.283    20.096056    240.32051 
    6050    106.47475   -757.62435    89491.542   -21824.719    1593.2526   -23417.971    20.206142    236.50585 
    6100    110.44563   -795.00665    89521.125   -21851.175    1652.6716   -23503.847    20.319735    245.32614 
    6150    109.35987   -1035.3002    89486.992   -21839.179    1636.4247   -23475.604    20.411807    242.91441 
    6200    107.51937   -674.35944     89484.49   -21827.801     1608.884   -23436.685     20.47354    238.82622 
    6250    108.93252   -940.49139    89499.687   -21827.875    1630.0299   -23457.905    20.642337    241.96515 
    6300    107.10227   -1182.7673    89493.305   -21866.584    1602.6427   -23469.227    20.813123    237.89974 
    6350    108.08567   -1107.0327    89450.921   -21828.288    1617.3579   -23445.645    20.760538    240.08409 
    6400    105.47416   -1146.5569    89392.396   -21833.333    1578.2801   -23411.613    20.945173    234.28331 
    6450     106.4252   -1045.3405     89329.12   -21836.711    1592.5112   -23429.222    21.006324    236.39579 
    6500    108.23309    -1052.912    89277.522   -21823.176    1619.5639    -23442.74    21.122533    240.41156 
    6550    106.33216   -1025.3381    89204.676   -21844.735     1591.119   -23435.854    21.378918    236.18914 
    6600    107.70821   -730.12927    89297.456   -21831.374    1611.7097   -23443.083    21.455444    239.24567 
    6650    106.28383    -919.8626    89350.259   -21826.357    1590.3957   -23416.753    21.352703    236.08178 
    6700     110.2309   -760.62913    89417.829   -21800.957    1649.4585   -23450.415    21.358281    244.84917 
    6750    109.31497   -550.02059    89486.743   -21793.152    1635.7527   -23428.905    21.495821    242.81467 
    6800    108.78328   -591.60788    89575.929   -21768.291    1627.7967   -23396.088    21.672395    241.63366 
    6850    108.58299   -933.21321    89643.596   -21770.088    1624.7997   -23394.888     21.96347    241.18877 
    6900    107.63281    -1082.763    89629.145   -21748.941    1610.5815   -23359.522    22.293631     239.0782 
    6950    109.74169   -692.83189     89601.77   -21746.187    1642.1381   -23388.326    22.532125    243.76252 
    7000    109.47569   -659.83241    89694.387   -21765.539    1638.1577   -23403.697    22.799087    243.17167 
    7050    110.55222   -706.02355    89719.376   -21761.253    1654.2665   -23415.519    22.876445    245.56289 
    7100    109.67488   -589.26407    89726.106   -21745.829    1641.1383   -23386.967    23.028326     243.6141 
    7150    109.85643   -596.45169        89730   -21720.551    1643.8549   -23364.406    23.187724    244.01737 
    7200    109.40081   -1187.7001    89619.472   -21726.683    1637.0372    -23363.72    23.328496    243.00533 
    7250    110.69602   -962.75734    89606.974   -21750.085    1656.4183   -23406.503    23.353297     245.8823 
    7300    108.76426   -757.53142    89625.619   -21774.339    1627.5121   -23401.851    23.345992    241.59141 
    7350    109.35833   -786.73131    89608.712    -21768.67    1636.4016   -23405.072    23.395151    242.91099 
    7400    109.55848   -1034.1181    89544.884    -21805.98    1639.3966   -23445.377    23.760337    243.35557 
    7450    108.99166   -1092.4909    89606.887   -21801.594    1630.9148   -23432.508    23.952535    242.09652 
    7500    111.40626   -986.23054    89580.043   -21789.571    1667.0461   -23456.617    24.125185    247.45993 
    7550    106.83611   -1170.4781    89588.666   -21826.758    1598.6599   -23425.418    24.289162    237.30852 
    7600    107.82985   -691.25669    89552.051   -21819.882    1613.5299   -23433.412    24.236029    239.51587 
    7650    107.40821   -1189.0178    89598.318   -21817.355    1607.2206   -23424.575    24.417422     238.5793 
    7700    107.00183   -902.04148    89592.664   -21811.725    1601.1397   -23412.865    24.509454    237.67664 
    7750    109.71468   -916.38303    89573.511   -21826.041    1641.7339   -23467.775     24.68197    243.70252 
    7800    106.22577   -1375.0106    89558.941   -21897.102     1589.527   -23486.629    24.782692    235.95282 
    7850    106.78869   -831.75494    89544.461   -21905.333    1597.9503   -23503.283    24.877037     237.2032 
    7900    107.07818   -490.45851     89576.19   -21891.188    1602.2821    -23493.47    25.130128    237.84621 
    7950    108.20803   -788.62303    89657.948   -21889.178    1619.1889   -23508.367    25.324426     240.3559 
    8000     104.0173   -744.79962    89686.638   -21908.582    1556.4802   -23465.062    25.444135    231.04728 
    8050    105.52158   -977.68754    89644.733   -21888.181    1578.9898   -23467.171    25.617966    234.38865 
    8100    108.35765   -1051.0347    89595.385   -21868.434    1621.4277   -23489.862    25.570072    240.68823 
    8150    105.96249   -912.36547    89578.921   -21884.354    1585.5874   -23469.941    25.660068    235.36802 
    8200    107.47788   -731.34001    89641.325   -21842.985    1608.2632   -23451.248    25.905746    238.73406 
    8250     108.6934    -861.2137    89689.708   -21816.293    1626.4518   -23442.745    26.017724    241.43401 
    8300    108.82996   -1056.9616    89631.658    -21816.67    1628.4952   -23445.165    26.123741    241.73734 
    8350    110.24781     -893.488    89610.604    -21818.84    1649.7114   -23468.551    26.269159    244.88672 
    8400    108.90234   -1252.3548    89536.717   -21803.653    1629.5782   -23433.231    26.362497    241.89811 
    8450    110.25633     -814.855    89575.607   -21779.079    1649.8389   -23428.918    26.415846    244.90565 
    8500    107.01246   -1201.6634    89549.512   -21848.105    1601.2988   -23449.404    26.381613    237.70025 
    8550    107.53193   -874.86285    89528.339   -21845.961    1609.0719   -23455.032    26.627592    238.85411 
    8600    106.59084   -999.98233      89537.1   -21854.391    1594.9898   -23449.381    26.751721    236.76373 
    8650    108.99909    -504.7112    89557.225   -21840.518     1631.026   -23471.544    26.879157    242.11303 
    8700    108.49593   -730.88692    89559.847   -21874.672     1623.497   -23498.169    26.916585    240.99539 
    8750     109.1223   -742.85866    89588.035   -21841.901    1632.8697   -23474.771    27.109021    242.38671 
    8800    106.94591   -975.98423    89563.634   -21900.291     1600.303   -23500.594    27.169872    237.55242 
    8850    107.90491   -1089.5897    89509.491   -21924.309     1614.653   -23538.962    27.474778    239.68258 
    8900    105.59094   -1171.2798    89433.647    -21907.16    1580.0276   -23487.188    27.524717     234.5427 
    8950    105.82761   -884.43984    89427.242   -21945.966    1583.5691   -23529.535    27.644451    235.06841 
    9000    110.22527   -931.91083    89562.982   -21872.536    1649.3742    -23521.91    27.617225    244.83666 
    9050    107.83507   -844.89809    89561.337   -21833.434     1613.608   -23447.042     27.73947    239.52746 
    9100    108.86013   -780.22857    89569.732   -21856.616    1628.9467   -23485.563    27.594635    241.80437 
    9150    107.84609   -898.98352    89637.813   -21872.634    1613.7729   -23486.407     27.82226    239.55193 
    9200    109.83731   -948.49516     89652.37   -21836.361    1643.5689    -23479.93    27.966274    243.97491 
    9250     107.7845   -741.17016    89655.424   -21866.598    1612.8514   -23479.449    28.117659    239.41514 
    9300    108.35406   -904.49773    89666.265   -21866.893    1621.3739   -23488.267     28.24813    240.68025 
    9350    106.29853     -780.179    89680.426   -21870.715    1590.6157    -23461.33    28.344883    236.11442 
    9400     112.1627   -771.01323    89690.404   -21861.018    1678.3652   -23539.383    28.502821    249.14015 
    9450    111.56035   -1018.3558     89659.22   -21853.569    1669.3518   -23522.921    28.671334    247.80219 
    9500    109.13129   -758.00655     89636.62   -21851.869    1633.0043   -23484.873    28.824832    242.40668 
    9550    109.29255   -814.82112    89684.727   -21863.132    1635.4173    -23498.55    29.077878    242.76487 
    9600    107.79002   -726.66224    89726.556   -21883.434    1612.9339   -23496.368    29.101005    239.42739 
    9650    106.04099   -878.28306    89745.585   -21866.146     1586.762   -23452.908    29.070774    235.54237 
    9700    106.16495   -1064.7204    89663.025   -21882.427    1588.6169   -23471.044    29.188246    235.81771 
    9750    106.96238   -679.91681    89643.358   -21914.432    1600.5494   -23514.982    29.231794    237.58901 
    9800    105.76721   -754.71961    89669.329   -21930.174    1582.6653    -23512.84    29.584114    234.93425 
    9850    105.99745   -711.47576    89746.215   -21901.377    1586.1104   -23487.487    29.931693    235.44566 
    9900     109.9077   -969.37484    89814.235   -21890.683    1644.6222   -23535.305    29.844957    244.13127 
    9950    106.44274    -978.2354    89831.813   -21925.922    1592.7737   -23518.696    30.047027    236.43476 
   10000    107.67645   -998.93099    89769.768     -21897.7    1611.2344   -23508.935     30.27812    239.17511 
   10050    107.47669   -888.10627    89703.159   -21871.023    1608.2453   -23479.268    30.319576     238.7314 
   10100    109.47801   -916.26052    89648.471   -21846.205    1638.1925   -23484.398    30.481485    243.17682 
   10150     105.3274   -1164.8271    89592.727   -21890.652    1576.0841   -23466.736    30.746061    233.95732 
   10200    107.71508   -804.74576    89586.312   -21881.874    1611.8125   -23493.687    30.810842    239.26093 
   10250    108.26696   -731.70982     89570.56    -21848.02    1620.0707   -23468.091    30.852733    240.48679 
   10300    109.97884   -781.68559    89622.019   -21863.135    1645.6867   -23508.822    31.091715    244.28928 
   10350    108.38852   -765.02872    89640.486   -21835.569    1621.8897   -23457.458    31.156637    240.75681 
   10400     107.1006   -891.72421    89613.603   -21847.977    1602.6177   -23450.594    31.296625    237.89603 
   10450    108.94917   -967.25222    89596.266   -21820.626     1630.279   -23450.905    31.238187    242.00214 
   10500    109.43732   -830.76895    89589.331    -21821.79    1637.5836   -23459.373    31.468317    243.08645 
   10550    106.84198   -960.07039    89575.847   -21842.825    1598.7477   -23441.573    31.447014    237.32156 
   10600    107.58421   -1051.9828    89613.204   -21827.071    1609.8543   -23436.926    31.373684    238.97024 
   10650     108.2098   -1207.7096    89560.692   -21805.218    1619.2154   -23424.433    31.719604    240.35983 
   10700    110.78304   -1036.3932    89472.009   -21776.904    1657.7205   -23434.624    31.853474    246.07561 
   10750    110.93874   -949.63677    89458.092   -21745.138    1660.0503   -23405.188    31.862748    246.42144 
   10800    107.73394   -1017.1389    89431.009   -21776.605    1612.0948     -23388.7    32.213147    239.30283 
   10850    105.83358   -1167.0647    89330.945   -21791.439    1583.6584   -23375.098    32.498489    235.08168 
   10900    109.64825   -920.61759     89231.09   -21819.789    1640.7398   -23460.528    32.790925    243.55495 
   10950    106.50075   -849.15172    89176.675   -21839.897    1593.6417   -23433.538    32.974844    236.56361 
   11000     107.8456   -872.76831    89177.984   -21822.996    1613.7656   -23436.761    33.036941    239.55085 
   11050    109.63539   -735.64665    89164.532   -21804.686    1640.5474   -23445.233    33.109686    243.52639 
   11100    110.57493   -1015.7042    89116.226    -21814.37    1654.6063   -23468.977    33.324852    245.61334 
   11150     108.8647   -755.82451    89120.085   -21812.457    1629.0151   -23441.472    33.545379    241.81451 
   11200    105.48075   -1128.1402    89050.092   -21806.359    1578.3788   -23384.738    33.634668    234.29795 
   11250    108.28401   -836.73533    89055.212    -21818.74    1620.3258   -23439.066    34.004294    240.52466 
   11300    106.67134    -370.4055    89078.775   -21818.972    1596.1944   -23415.167    33.964167    236.94254 
   11350     110.7954   -753.18695    89109.444   -21753.481    1657.9054   -23411.386    34.155714    246.10306 
   11400    107.62226   -760.64786     89001.03   -21776.092    1610.4236   -23386.516    34.344215    239.05476 
   11450    108.73859   -851.74094    88999.148    -21760.26     1627.128   -23387.388    34.507324     241.5344 
   11500    108.52107   -549.61353    89020.412   -21750.637    1623.8731    -23374.51    34.600661    241.05123 
   11550    110.55042   -760.64147     89087.47   -21749.999    1654.2396   -23404.238    34.731995    245.55889 
   11600    106.66724   -657.19589    89095.047   -21765.679     1596.133   -23361.812    34.957441    236.93343 
   11650    110.47958   -1048.4436    89075.779   -21734.174    1653.1796   -23387.353     35.21126    245.40155 
   11700    109.31134   -728.65271    89013.721   -21751.759    1635.6984   -23387.458    35.404956    242.80659 
   11750    109.28641    -779.1217    89071.752    -21732.46    1635.3254   -23367.785     35.64122    242.75124 
   11800    108.73561   -1033.9796    89049.737   -21693.754    1627.0834   -23320.838    35.645668    241.52778 
   11850    109.23027   -574.29545    89047.288   -21696.121    1634.4853   -23330.606    35.928001    242.62652 
   11900    109.05237   -874.90385    89051.452   -21739.045    1631.8233   -23370.868    36.150153    242.23138 
   11950    104.67341   -394.24507    89105.371   -21773.971     1566.298   -23340.269    36.298752    232.50466 
   12000    106.96565   -887.87823    89155.417   -21752.203    1600.5983   -23352.801    36.287669    237.59626 
   12050    108.57495   -507.59948    89093.627   -21724.095    1624.6794   -23348.774     36.51748    241.17091 
   12100    109.41328   -883.47975    89082.404    -21715.91    1637.2238   -23353.134    36.669958    243.03303 
   12150    108.77155   -815.95176    89075.104   -21736.671    1627.6212   -23364.292    36.824162    241.60761 
   12200    108.83934   -1119.8384    89062.501   -21724.896    1628.6356   -23353.532    37.025335    241.75818 
   12250    109.42353   -1077.3762    89075.505   -21770.222    1637.3772     -23407.6    36.896416     243.0558 
   12300    106.16332    -757.6467    89101.249   -21768.363    1588.5925   -23356.956    36.907833     235.8141 
   12350    107.80731   -997.33248    89155.318   -21761.034    1613.1926   -23374.227    37.033287    239.46579 
   12400    109.00106   -406.62565    89212.977   -21785.109    1631.0555   -23416.165    37.001478     242.1174 
   12450    107.93913   -700.47003    89332.825    -21763.59    1615.1652   -23378.755    37.142173     239.7586 
   12500    109.99728   -789.30404    89456.342   -21747.205    1645.9625   -23393.168    37.273028    244.33023 
   12550    111.16752   -802.27594    89516.226   -21724.635    1663.4737   -23388.109    37.654242    246.92963 
   12600    109.07583   -810.60823    89495.045   -21763.762    1632.1743   -23395.936    37.831548    242.28347 
   12650    106.74403   -837.19335    89488.898   -21797.131     1597.282   -23394.413    37.881782    237.10399 
   12700    111.77816   -843.06597    89559.476   -21749.574    1672.6112   -23422.186    37.983741    248.28601 
   12750    108.77253   -985.09309    89582.462   -21747.444    1627.6358    -23375.08    38.183871    241.60977 
   12800    111.41417    -961.4872    89523.809   -21755.914    1667.1645   -23423.079    38.380897     247.4775 
   12850    106.11001   -916.58203    89518.642   -21791.192    1587.7948   -23378.987    38.515447    235.69568 
   12900    110.44801   -634.89363    89485.672   -21756.293    1652.7072   -23409.001    38.632499    245.33143 
   12950    109.00231   -1094.1716    89439.857   -21767.423    1631.0742   -23398.497    38.771553    242.12018 
   13000    107.69075   -1122.0862    89322.718   -21789.881    1611.4484    -23401.33     38.84975    239.20688 
   13050    106.22454   -1241.2884    89324.774   -21782.434    1589.5086   -23371.943    39.113863    235.95009 
   13100    109.20979   -1053.9015    89228.239   -21759.286    1634.1789   -23393.465    39.187045    242.58104 
   13150    107.48294   -931.24127    89289.496    -21785.12    1608.3389   -23393.459    39.416539     238.7453 
   13200    109.49716   -701.72832    89336.755   -21785.863     1638.479   -23424.342    39.534911    243.21935 
   13250    107.93367   -1012.5764    89361.231   -21787.235    1615.0835   -23402.318    39.724825    239.74648 
   13300    109.74586   -901.03639    89346.416   -21789.126    1642.2004   -23431.327     40.15347    243.77178 
   13350     108.1333   -935.70743    89372.574   -21779.033    1618.0706   -23397.103    40.532525    240.18989 
   13400    108.52582   -724.44801    89451.554   -21798.945    1623.9441   -23422.889    40.679369    241.06177 
   13450    109.99143   -447.73814    89597.822   -21785.221     1645.875   -23431.096    40.851318    244.31724 
   13500    108.81186   -866.71486    89741.162   -21794.167    1628.2244   -23422.391    41.027078    241.69714 
   13550    108.82157   -727.17487    89776.913   -21803.929    1628.3697   -23432.299    41.097762    241.71871 
   13600    107.46201   -868.09314    89809.431   -21828.687    1608.0256   -23436.712    41.289223    238.69879 
   13650     107.1797   -819.92725     89837.64   -21786.205    1603.8013   -23390.006    41.494481    238.07173 
   13700    110.39855   -1014.1782    89856.149   -21777.375     1651.967   -23429.342    41.550188    245.22155 
   13750    107.79331    -680.9331    89877.316   -21762.829    1612.9832   -23375.813    41.562247    239.43471 
   13800    107.46237   -922.03927    89873.046   -21788.195    1608.0311   -23396.226    41.699074    238.69961 
   13850    104.85418   -763.41562    89850.534   -21849.869     1569.003   -23418.872    41.619119    232.90619 
   13900    104.93107    -615.8077    89910.188   -21906.757    1570.1535    -23476.91    41.854277    233.07697 
   13950    107.69127   -717.48392    89951.046   -21877.253    1611.4563   -23488.709      42.1751    239.20805 
   14000    106.54532    -913.7225    89943.266   -21864.032    1594.3086    -23458.34    42.298538    236.66261 
   14050    103.80644    -785.2201     89888.61   -21845.911    1553.3249   -23399.236    42.397065     230.5789 
   14100    106.11047   -835.24324    89876.748   -21837.197    1587.8018   -23424.999    42.680527    235.69672 
   14150    107.26242   -1058.0888    89837.916   -21837.762    1605.0391   -23442.801    42.807115    238.25547 
   14200     108.1111   -964.74959    89801.106   -21802.168    1617.7385   -23419.906     43.06963    240.14059 
   14250    108.55663   -207.24059    89821.656   -21790.845    1624.4052    -23415.25     43.27987    241.13022 
   14300    110.36288   -685.52881    89886.101   -21789.201    1651.4334   -23440.635    43.532596    245.14233 
   14350    105.05711   -930.34898    89868.147   -21796.621    1572.0395    -23368.66    43.572844    233.35694 
   14400    110.90676   -1063.9414    89815.836   -21749.446    1659.5718   -23409.018     43.63628    246.35042 
   14450    111.02423   -837.60795    89859.411   -21789.445    1661.3296   -23450.775    43.833743    246.61135 
   14500    108.63077   -963.34319    89881.169   -21747.263    1625.5146   -23372.778    43.989588     241.2949 
   14550    108.99258    -927.4585    89926.216   -21758.838    1630.9286   -23389.767    44.275723    242.09856 
   14600    109.19325   -1053.4763    89971.379   -21723.044    1633.9314   -23356.976     44.24795     242.5443 
   14650    109.05881    -1016.983     89967.07   -21675.611    1631.9197    -23307.53    44.188801    242.24568 
   14700    111.22011   -916.32306    89947.722   -21643.264    1664.2607   -23307.525    44.403654    247.04645 
   14750    112.97272    -1009.897    89984.748   -21659.768    1690.4861   -23350.254    44.473642    250.93941 
   14800    111.65787   -1114.5635    90003.517   -21665.042    1670.8111   -23335.854    44.475443     248.0188 
   14850    110.96919   -1032.4282    89961.296   -21648.864     1660.506    -23309.37    44.498954    246.48909 
   14900    111.56573   -804.99287    89969.342   -21696.292    1669.4324   -23365.725    44.640852    247.81415 
   14950    108.35433   -1106.8407    89942.703   -21743.604    1621.3781   -23364.982    44.979422    240.68087 
   15000    107.91897   -1251.8374    89957.392   -21785.045    1614.8635   -23399.909    44.988823    239.71383 
   15050    108.87499   -1008.1972    89882.153   -21798.535    1629.1691   -23427.704    45.013221    241.83737 
   15100    109.24081   -875.03508    89813.692   -21807.859    1634.6431   -23442.502    45.246471    242.64994 
   15150    106.59557   -987.86881    89791.696   -21796.038    1595.0606   -23391.098    45.510335    236.77424 
   15200    110.20864   -887.02155    89812.822   -21825.014    1649.1253   -23474.139    45.639125    244.79972 
   15250    106.96218    -908.6036     89815.27   -21839.868    1600.5464   -23440.414    45.782375    237.58857 
   15300    108.95955   -810.10197    89842.593   -21818.016    1630.4343    -23448.45    45.965642    242.02519 
   15350    111.92201   -891.86771     89855.81   -21789.904    1674.7637   -23464.668     46.12821    248.60553 
   15400    106.67863   -937.80791    89828.245   -21801.151    1596.3034   -23397.455    46.233218    236.95872 
   15450    108.13572   -1064.1559    89750.947    -21791.21    1618.1069   -23409.317    46.512384    240.19528 
   15500    106.69779   -1100.0103    89723.309   -21801.268    1596.5901   -23397.858    46.698597    237.00128 
   15550    110.24478   -857.54919    89720.002   -21761.477    1649.6661   -23411.143    46.916224       244.88 
   15600    111.60211   -984.59176    89683.521   -21819.783    1669.9767    -23489.76    46.983768    247.89495 
   15650     106.7391   -837.06043     89646.03   -21829.415    1597.2083   -23426.623    47.109821    237.09304 
   15700    109.33232   -759.79682    89634.588   -21796.188    1636.0124   -23432.201    47.259634    242.85321 
   15750    107.55629   -720.16076    89683.081   -21786.237    1609.4365   -23395.674    47.642751    238.90822 
   15800    107.61494   -537.50161     89736.61   -21786.765     1610.314   -23397.079    48.003412    239.03849 
   15850    109.40392   -1181.1223    89753.163   -21766.601    1637.0838   -23403.685    48.145738    243.01225 
   15900    108.43956    -1108.094    89673.488   -21779.645    1622.6534   -23402.298    48.393223    240.87018 
   15950    111.15643    -900.8838    89672.253   -21758.695    1663.3077   -23422.003    48.416921    246.90498 
   16000    108.69273   -638.63171    89691.478   -21809.442    1626.4418   -23435.884    48.491096    241.43253 
   16050    110.55985   -912.41907    89714.426   -21841.459    1654.3807    -23495.84    48.609564    245.57985 
   16100     108.1654   -1197.8193    89644.206   -21853.817    1618.5509   -23472.368    48.840422    240.26119 
   16150    106.85763   -1015.1991    89541.532   -21833.868     1598.982    -23432.85    48.907541    237.35633 
   16200    105.26317   -1104.6306    89532.247   -21854.444    1575.1229   -23429.567    49.042556    233.81465 
   16250    108.63246   -1107.9216    89473.683   -21857.395    1625.5399   -23482.935    49.299169    241.29865 
   16300    109.91732   -941.25374    89473.558   -21832.461    1644.7662   -23477.227    49.229833    244.15264 
   16350     108.1243   -854.69571    89430.677   -21854.486    1617.9359   -23472.422    49.202462     240.1699 
   16400    109.34466   -1001.5157    89467.597    -21831.15     1636.197   -23467.347    49.364798    242.88061 
   16450    108.48346   -1054.6191     89493.45   -21848.963    1623.3104   -23472.273    49.592734    240.96769 
   16500    107.56836   -958.72174    89467.496   -21867.691     1609.617   -23477.309    49.699291    238.93502 
   16550    104.36843   -1224.0357    89392.768   -21898.823    1561.7344   -23460.557     49.94297    231.82722 
   16600    107.56418   -870.15136    89417.309   -21895.339    1609.5545   -23504.893    50.103344    238.92575 
   16650    105.35782   -927.87998    89374.407    -21893.46    1576.5393   -23469.999    50.291056     234.0249 
   16700    109.55163   -853.90929    89368.802   -21839.101    1639.2941   -23478.395    50.333987    243.34036 
   16750    106.38681   -866.28499    89316.557   -21832.999    1591.9367   -23424.935    50.266647    236.31052 
   16800    108.76138   -950.53016    89267.239   -21836.427     1627.469   -23463.896    50.462912    241.58501 
   16850    107.39285   -1191.7043    89242.319   -21852.316    1606.9908   -23459.307     50.64218    238.54518 
   16900    108.78931   -941.33349    89200.885   -21829.034     1627.887   -23456.922    50.915775    241.64706 
   16950    106.02512   -865.67587     89154.72   -21864.123    1586.5245   -23450.647    51.289238    235.50712 
   17000    110.32372   -743.84812    89176.245   -21815.738    1650.8474   -23466.585     51.32006    245.05534 
   17050      107.262   -680.86654    89218.168   -21850.702    1605.0327   -23455.735    51.388915    238.25452 
   17100    106.29725   -879.34953    89130.864   -21818.355    1590.5966   -23408.951     51.56892    236.11159 
   17150    107.80873   -913.56317    89121.361   -21832.691    1613.2138   -23445.905    51.886801    239.46894 
   17200     110.5712   -891.45132    89054.514   -21798.321    1654.5505   -23452.872     51.88769    245.60505 
   17250    110.50828   -737.57155     89074.22   -21780.694    1653.6091   -23434.303    52.174452     245.4653 
   17300    111.66496   -725.84431    89060.306   -21740.381    1670.9172   -23411.298    52.101457    248.03456 
   17350    112.40569   -568.21906    89030.233   -21742.172    1682.0012   -23424.173    52.223393    249.67989 
   17400    110.36281   -670.68082      89005.6   -21751.956    1651.4323   -23403.389    52.380529    245.14218 
   17450    109.05158    -681.3875    89042.162   -21745.151    1631.8114   -23376.962    52.478068     242.2296 
   17500     106.8077   -1095.6317    89071.667   -21797.772    1598.2347   -23396.006    52.948619    237.24541 
   17550    108.69989   -691.66016    89011.015   -21812.364    1626.5488   -23438.913    53.128495    241.44842 
   17600    106.82869   -834.29411     88949.29    -21780.51    1598.5489   -23379.059    53.030339    237.29204 
   17650     108.2681   -814.72381    88979.764    -21824.79    1620.0877   -23444.878    53.031086    240.48932 
   17700    108.41798   -411.03903    89000.307   -21810.807    1622.3305   -23433.138    53.243947    240.82225 
   17750    108.75923   -921.09672    89042.195   -21824.675    1627.4369   -23452.112    53.263034    241.58024 
   17800    105.98619   -973.24239    89027.098   -21799.311     1585.942   -23385.253    53.374381    235.42066 
   17850    110.99432   -766.02111    89025.607   -21789.719     1660.882   -23450.601    53.702132     246.5449 
   17900    108.86162   -714.65987    89023.028   -21791.988     1628.969   -23420.957    53.818572    241.80768 
   17950    108.85542   -922.91905    88997.511   -21799.837    1628.8762   -23428.714    54.074672     241.7939 
   18000    107.32581    -801.9157    89026.333   -21846.258    1605.9877   -23452.246    54.364893    238.39628 
   18050    109.62644   -881.15593    88962.388   -21821.387    1640.4135     -23461.8    54.490114    243.50652 
   18100    106.93107   -669.31703    88975.704    -21828.35    1600.0809   -23428.431    54.875878    237.51947 
   18150    111.22927   -555.64596    88995.148   -21837.623    1664.3977   -23502.021    55.158546    247.06678 
   18200    106.10376   -883.72098    89077.771   -21865.386    1587.7012   -23453.088    55.369131    235.68179 
   18250    108.61748   -646.91865    89194.757   -21828.235    1625.3158   -23453.551    55.597872    241.26538 
   18300    107.76791   -886.43607    89175.809   -21811.529    1612.6031   -23424.133     55.62074    239.37828 
   18350    106.86798    -675.2805      89162.9   -21831.396    1599.1367   -23430.533    55.605626    237.37931 
   18400    108.01913   -594.67237    89236.715   -21851.737    1616.3623   -23468.099    55.602887    239.93631 
   18450    106.62087    -627.3367    89284.348   -21835.831    1595.4391    -23431.27    55.492015    236.83042 
   18500    109.54139   -792.13919    89299.316   -21794.153    1639.1408   -23433.294    55.625529     243.3176 
   18550    109.34603   -937.37393    89290.818   -21832.573    1636.2175    -23468.79     55.67633    242.88366 
   18600    107.03719   -744.14961    89230.912   -21838.353    1601.6688   -23440.022    55.923119    237.75517 
   18650    108.08899   -534.23852    89264.322   -21848.955    1617.4076   -23466.362     56.28172    240.09147 
   18700    110.07154   -353.87581    89364.691   -21855.278    1647.0738   -23502.352    56.465334    244.49519 
   18750    108.91861   -693.87901    89430.235   -21827.919    1629.8218   -23457.741    56.829508    241.93426 
   18800    107.35448   -527.98658     89440.03   -21829.897    1606.4167   -23436.314    57.012071    238.45996 
   18850    107.12822   -658.89396    89404.585   -21806.895     1603.031   -23409.926     57.23933    237.95737 
   18900    108.17165   -650.57802    89450.115   -21767.796    1618.6445   -23386.441    57.352992    240.27508 
   18950    109.28827   -1029.6194    89419.833   -21790.339    1635.3532   -23425.692     57.19798    242.75536 
   19000    107.47274   -583.81102    89507.216   -21857.752    1608.1862   -23465.938    57.344197    238.72263 
   19050    106.87652   -741.45804    89494.933   -21875.913    1599.2646   -23475.177    57.491558    237.39828 
   19100    108.87988   -998.25765    89535.262   -21909.834    1629.2422   -23539.076    57.501371    241.84823 
   19150    103.30307   -834.62084    89617.681   -21933.895    1545.7928   -23479.688    57.943161    229.46081 
   19200     104.8491   -948.74143    89652.166   -21912.881    1568.9269   -23481.808    58.095794     232.8949 
   19250    105.24837   -1131.0928    89629.939   -21882.342    1574.9015   -23457.244    58.267108    233.78178 
   19300    107.89301   -939.52093    89564.443   -21882.074    1614.4751   -23496.549    58.505967    239.65616 
   19350    107.19927   -885.31411    89599.839   -21872.399    1604.0941   -23476.493    58.464647    238.11518 
   19400    110.11983   -916.45222    89545.736   -21874.686    1647.7963   -23522.482    58.663355    244.60244 
   19450     106.6516   -803.89745    89533.524   -21868.677    1595.8989   -23464.576    58.841852    236.89868 
   19500    107.46696   -720.19635    89562.677   -21894.239    1608.0997   -23502.339    58.929315    238.70979 
   19550    107.48184   -994.05085    89552.072   -21881.255    1608.3224   -23489.577    59.282615    238.74285 
   19600    109.59272   -898.23168    89563.949   -21874.745     1639.909   -23514.654    59.302942    243.43163 
   19650    109.37872    -654.3118    89516.061     -21857.5    1636.7066   -23494.207    59.400614    242.95626 
   19700    111.43577   -812.67361    89554.934   -21841.991    1667.4877   -23509.478    59.638289    247.52547 
   19750    108.98151   -789.15512    89579.421   -21851.899     1630.763   -23482.662    59.901358    242.07398 
   19800    109.88531   -640.75139    89661.338   -21831.994    1644.2871   -23476.281    59.826061    244.08152 
   19850    105.60988   -883.98999    89721.333   -21848.866    1580.3109   -23429.177    59.953374    234.58477 
   19900    108.96698   -831.41896    89664.747    -21805.34    1630.5456   -23435.886    60.256781     242.0417 
   19950    109.16101   -1052.8063    89653.261   -21790.266     1633.449   -23423.715    60.907266    242.47269 
   20000     109.3367   -648.95465    89596.436   -21798.253     1636.078   -23434.331    60.580594    242.86295 
   20050    109.15594   -890.27908    89643.964   -21827.014    1633.3731   -23460.387    60.831633    242.46143 
   20100    107.41351    -914.8065    89660.175   -21836.457    1607.2999   -23443.757    61.116513    238.59107 
   20150    108.89402   -809.69362    89647.631   -21874.613    1629.4538   -23504.067     61.19601    241.87964 
   20200     106.1131   -951.18514    89650.133   -21891.334     1587.841   -23479.175    61.214335    235.70255 
   20250    111.06995   -814.67759    89632.481   -21867.108    1662.0137   -23529.122    61.404785     246.7129 
   20300    108.30678   -1016.3773    89655.109   -21882.939    1620.6665   -23503.606    61.444922    240.57523 
   20350    106.48437   -1101.4403    89659.957   -21909.551    1593.3966   -23502.947    61.457815    236.52722 
   20400     107.3019   -980.48882    89659.222   -21907.156    1605.6299   -23512.786    61.571098    238.34317 
   20450    107.36794   -792.02202    89668.846   -21884.994     1606.618   -23491.612    61.827013    238.48984 
   20500    106.64396   -1056.1871     89666.76   -21894.566    1595.7847   -23490.351    61.790806    236.88172 
   20550    107.28789   -1006.8868     89618.05   -21909.517    1605.4202   -23514.937    61.939388    238.31203 
   20600    107.26588   -928.68664    89631.094   -21854.986    1605.0908   -23460.077    62.019605    238.26315 
   20650    105.64879   -863.24634    89597.905   -21861.777    1580.8932   -23442.671    62.100921     234.6712 
   20700     107.1281   -837.02567    89614.794   -21876.378    1603.0292   -23479.407    62.355424    237.95711 
   20750    107.49636   -1124.1645    89577.025   -21902.323    1608.5396   -23510.863    62.603302    238.77509 
   20800    104.57779   -943.09358    89528.078   -21926.255    1564.8671   -23491.123    62.645288    232.29225 
   20850    104.96259   -1178.9461    89504.701   -21941.325    1570.6251   -23511.951    62.726678    233.14698 
   20900    107.28915   -806.75718     89447.47   -21898.236    1605.4391   -23503.676    63.255812    238.31485 
   20950    107.22332   -733.04645    89410.387   -21924.798     1604.454   -23529.252    63.339176    238.16861 
   21000    105.79049   -987.31803    89332.317   -21902.861    1583.0136   -23485.875    63.332652    234.98595 
   21050    105.98385   -752.78331    89322.171    -21882.29     1585.907   -23468.197    63.446355    235.41545 
   21100    106.83507   -682.99423    89261.766   -21901.903    1598.6443   -23500.547    63.592238    237.30621 
   21150    107.50066   -758.26889    89265.078   -21911.829    1608.6041   -23520.433    63.853382    238.78466 
   21200    106.85782   -859.25017    89225.906   -21912.962    1598.9847   -23511.946    63.897047    237.35675 
   21250    106.11558   -485.72554    89220.725   -21915.312    1587.8781    -23503.19    63.907503    235.70805 
   21300    103.25187   -653.27834    89173.274   -21941.944    1545.0266   -23486.971    64.015661    229.34708 
   21350     108.5877   -569.92708    89116.104   -21896.723    1624.8702   -23521.593    64.119489    241.19923 
   21400     110.1912   -605.21433     89146.22   -21861.053    1648.8643   -23509.918    64.213117    244.76098 
   21450    108.18224   -870.70223    89147.795    -21883.26     1618.803   -23502.063    64.299262     240.2986 
   21500    108.19541   -1094.3677    89162.827   -21909.604         1619   -23528.604    64.467881    240.32785 
   21550    105.57498   -677.42628    89227.099   -21899.414    1579.7887   -23479.203    64.801021    234.50725 
   21600    107.02777   -808.44607    89246.049   -21886.204    1601.5278   -23487.732    65.115151    237.73424 
   21650    106.99447    -981.0057    89249.471   -21893.927    1601.0295   -23494.957    65.171186    237.66028 
   21700    105.02473   -698.55587    89315.936   -21903.148    1571.5551   -23474.703    65.380987    233.28503 
   21750    108.23922   -819.56936    89417.889   -21900.175    1619.6556   -23519.831    65.640588    240.42517 
   21800    106.69697   -871.29599    89435.899   -21913.709    1596.5779   -23510.287    65.874792    236.99947 
   21850     108.5752   -752.28965     89468.83   -21877.195    1624.6831   -23501.879    65.983142    241.17147 
   21900    108.61158   -665.94363    89558.628    -21846.38    1625.2275   -23471.608    65.848961    241.25227 
   21950    107.57937   -642.16444    89552.653   -21841.575    1609.7818   -23451.357    65.781396    238.95948 
   22000     106.4003   -878.39787    89512.694    -21840.91    1592.1386   -23433.049    65.805624     236.3405 
   22050    105.22337   -786.46025    89474.975   -21840.911    1574.5273   -23415.439    65.787546    233.72624 
   22100    108.63062   -1088.9075     89492.08   -21823.113    1625.5124   -23448.625    65.899273    241.29457 
   22150    107.99488   -994.22342    89430.973   -21821.646    1615.9994   -23437.646    66.074007    239.88244 
   22200    110.32652   -883.84157    89491.931    -21806.44    1650.8892   -23457.329    66.170433    245.06156 
   22250    108.94665   -1078.3903    89515.841   -21772.922    1630.2413   -23403.164    66.279809    241.99654 
   22300    112.04794   -946.35749    89498.973   -21719.065     1676.648   -23395.713    66.476069    248.88525 
   22350    109.59292   -1173.6468    89492.157   -21696.064     1639.912   -23335.976    66.599852    243.43207 
   22400    111.61994   -1126.8396    89386.855   -21742.626    1670.2436    -23412.87     66.75732    247.93456 
   22450    111.28013   -965.72647    89301.762   -21775.532    1665.1588   -23440.691    67.098702    247.17976 
   22500    108.58271   -994.60587    89252.288   -21742.151    1624.7954   -23366.946     67.23671    241.18814 
   22550    111.59296   -991.78793    89248.465   -21755.119    1669.8398   -23424.958    67.601461    247.87463 
   22600    109.03978   -653.96352    89245.683   -21813.279    1631.6349   -23444.914    67.786343     242.2034 
   22650    108.03145   -516.41511    89304.924   -21798.173    1616.5466   -23414.719    68.057992    239.96367 
   22700    108.51371   -729.26161    89379.976   -21781.569     1623.763   -23405.332    68.189449    241.03488 
   22750    108.54081   -898.72932    89389.799   -21786.084    1624.1684   -23410.253    68.344837    241.09507 
   22800    109.39271   -874.85358    89351.779   -21832.146    1636.9161   -23469.063    68.339351    242.98736 
   22850    107.90016   -1235.3689    89288.037   -21842.745     1614.582   -23457.327    68.674026    239.67204 
   22900    107.37799   -1229.9155    89246.324   -21865.154    1606.7684   -23471.923    68.775502    238.51217 
   22950    107.25099   -912.45092    89248.555   -21853.845    1604.8681   -23458.713     68.86639    238.23009 
   23000    108.61481   -850.36297    89261.314   -21823.032    1625.2757   -23448.308    68.872177    241.25944 
   23050    105.51309   -831.63779    89195.327   -21840.276    1578.8627   -23419.139    68.971987    234.36978 
   23100    104.35779    -877.0838    89229.459   -21866.599    1561.5752   -23428.175    69.131038    231.80359 
   23150    105.33785   -730.40876    89277.443   -21854.276    1576.2405   -23430.516    69.234448    233.98054 
   23200    105.45148   -621.04066    89343.699   -21858.024    1577.9408   -23435.965    69.432212    234.23294 
   23250    105.91704   -976.31662    89378.026   -21846.974    1584.9072   -23431.881    69.599538    235.26705 
   23300    105.79546   -817.45121    89407.242   -21827.808     1583.088   -23410.896    69.508177    234.99699 
   23350    107.97915   -772.11389    89393.245   -21850.099     1615.764   -23465.863    69.754241    239.84749 
   23400    107.63921   -1083.4332    89472.223   -21839.607    1610.6772   -23450.285    70.227457    239.09241 
   23450    107.70975   -1015.6963    89455.051   -21824.756    1611.7328   -23436.489    70.399696    239.24909 
   23500    109.91203   -652.65471    89496.441    -21834.37    1644.6869   -23479.057     70.20788    244.14087 
   23550    107.06806   -850.12167    89552.441   -21864.608    1602.1308   -23466.739    70.165665    237.82375 
   23600    104.00681   -1152.1833    89519.615   -21871.225    1556.3232   -23427.548    70.501754    231.02397 
   23650    106.97192   -657.79474    89505.612   -21864.925    1600.6922   -23465.617    70.605157     237.6102 
   23700    108.59312   -911.34258    89514.395   -21873.374    1624.9513   -23498.325    70.916572    241.21128 
   23750    105.10028   -947.57058    89509.422   -21870.394    1572.6856    -23443.08     71.43482    233.45284 
   23800     105.4256   -1039.3705    89453.138   -21883.577    1577.5536   -23461.131    71.913911    234.17545 
   23850    107.32243   -886.95417    89491.853    -21864.06     1605.937   -23469.997    71.745529    238.38876 
   23900    106.42942   -1190.5472    89475.442   -21857.294    1592.5743   -23449.868    71.795387    236.40517 
   23950    108.81948   -992.12122    89415.323   -21859.001    1628.3385    -23487.34    72.050677    241.71408 
   24000    110.89884   -903.43142    89362.487   -21844.908    1659.4533   -23504.362    72.086504    246.33283 
   24050    106.32333   -907.46869    89296.644   -21860.339    1590.9869   -23451.326     71.96129    236.16953 
   24100    108.57187   -606.04143    89329.121   -21849.872    1624.6333   -23474.506     71.70791    241.16407 
   24150    105.26945    -698.5818    89361.125   -21840.225    1575.2169   -23415.442    71.496232    233.82859 
   24200     107.1972    -859.4393    89370.695   -21838.205    1604.0632   -23442.268    71.794014     238.1106 
   24250    105.36592     -815.399    89408.591   -21839.758    1576.6604   -23416.419     71.82235    234.04288 
   24300    107.00107   -609.08977    89390.782   -21810.988    1601.1283   -23412.116    71.920235    237.67493 
   24350    108.28048   -788.64234    89417.301   -21843.141    1620.2729   -23463.414    72.098775    240.51681 
   24400    106.25936   -928.49329     89438.22   -21806.231    1590.0296   -23396.261     72.30493    236.02743 
   24450     105.1201   -1028.8937    89422.377   -21819.023    1572.9822   -23392.006    72.412681    233.49687 
   24500    106.67605   -697.97796    89384.479   -21850.259    1596.2648   -23446.524    72.722172    236.95299 
   24550     107.5459   -735.53238    89491.191   -21828.889    1609.2809    -23438.17    73.060512    238.88513 
   24600    105.57728   -633.56134    89535.354   -21844.762    1579.8231   -23424.585    73.167004    234.51235 
   24650    106.44352   -709.93773    89543.605   -21883.116    1592.7853   -23475.901    73.298357    236.43649 
   24700     108.4624   -1003.2358    89593.315   -21863.017    1622.9952   -23486.012    73.556847    240.92091 
   24750    106.06465   -790.79761    89570.713   -21837.073    1587.1161   -23424.189    73.664119    235.59493 
   24800    109.05869   -588.80172    89623.955   -21810.582    1631.9179     -23442.5    73.717897    242.24541 
   24850     103.6929   -928.08726    89706.159   -21862.945     1551.626   -23414.571    74.026173    230.32671 
   24900    106.19435   -818.11181    89734.218   -21859.318    1589.0568   -23448.374    73.966657    235.88301 
   24950    107.41994   -878.15131    89834.079   -21796.465    1607.3962   -23403.861    74.291287    238.60536 
   25000     112.4516   -959.06253    89834.532   -21793.559    1682.6883   -23476.247    74.471123    249.78188 
   25050    106.55738   -703.52434    89791.619    -21787.55    1594.4891   -23382.039    74.442303    236.68941 
   25100    109.41828   -1039.1481    89923.039   -21772.029    1637.2987   -23409.327    74.630243    243.04415 
   25150    109.42215   -578.80066    89912.903   -21820.988    1637.3565   -23458.344    74.974834    243.05274 
   25200    106.17387   -805.95286    89887.448   -21783.436    1588.7504   -23372.187    75.416617    235.83753 
   25250    107.24536   -726.45409    89852.636   -21830.309    1604.7838   -23435.093    75.590992    238.21757 
   25300    107.93565    -985.1328    89900.358   -21809.792    1615.1131   -23424.905    75.770965    239.75087 
   25350    109.87038   -788.86524    89884.871   -21770.493    1644.0638   -23414.557    76.002197    244.04837 
   25400    111.99635   -925.03892    89893.102   -21732.624     1675.876     -23408.5    76.628234    248.77066 
   25450    110.25835   -604.98429    89973.848   -21733.307    1649.8692   -23383.176    76.798975    244.91015 
   25500    108.08905   -635.04176    90059.694   -21745.346    1617.4084   -23362.755    76.875414     240.0916 
   25550    110.96548   -887.46608    90129.625   -21746.428    1660.4504   -23406.878    77.278817    246.48084 
   25600    109.78155   -525.36635    90154.513    -21750.45    1642.7345   -23393.185     77.42166    243.85105 
   25650    107.57104   -1033.3648    90158.278   -21780.273    1609.6571    -23389.93    77.412274    238.94097 
   25700    111.99266   -1000.7316    90165.589   -21766.699    1675.8208    -23442.52    77.297172    248.76245 
   25750    108.58168   -838.23779    90145.742   -21762.231    1624.7801   -23387.011     77.20846    241.18586 
   25800     107.9384   -923.19893    90134.637   -21764.742    1615.1542   -23379.897    77.172606    239.75697 
   25850    110.91573   -641.47004    90108.804   -21790.849     1659.706   -23450.555    77.514843    246.37033 
   25900    109.47047   -1056.9423    90130.232   -21813.216    1638.0796   -23451.295    77.792524    243.16007 
   25950    109.46765   -977.51791    90089.387   -21805.654    1638.0374   -23443.691    78.051415     243.1538 
   26000    109.19911   -913.13919    90065.109   -21830.804    1634.0191   -23464.823    78.176562    242.55731 
   26050    111.59209   -965.87835     90016.45   -21795.376    1669.8268   -23465.202    78.099426    247.87269 
   26100    109.22669   -916.74796     90031.98   -21797.862    1634.4318   -23432.294    78.548326    242.61858 
   26150     106.8296   -1086.5468    89974.312   -21802.103    1598.5625   -23400.666    78.718783    237.29407 
   26200    106.37874    -1158.043    90021.295   -21803.184     1591.816       -23395    79.076873     236.2926 
   26250    111.18168   -856.19054    89999.181   -21753.723    1663.6856   -23417.409    79.444912    246.96108 
   26300    107.20736    -953.7036     89965.91   -21781.482    1604.2151   -23385.697      79.5059    238.13315 
   26350    111.00868   -841.18655    89910.684   -21754.372    1661.0969   -23415.469    79.311907     246.5768 
   26400    110.02928   -1064.0412     89939.14   -21757.287    1646.4414   -23403.729    79.350995    244.40132 
   26450    107.90828   -1127.6427    89914.248   -21802.659    1614.7034   -23417.362    79.303069    239.69006 
   26500    109.31929   -955.70988    89883.917   -21831.219    1635.8174   -23467.036     79.31126    242.82426 
   26550    106.38073   -1232.1818    89883.786   -21843.028    1591.8458   -23434.874    79.191759    236.29703 
   26600    107.44267   -1132.8187    89819.984   -21856.746    1607.7363   -23464.482    79.361698    238.65585 
   26650     109.7881    -903.1541    89803.682   -21860.815    1642.8326   -23503.647    79.700101    243.86561 
   26700    108.64921   -879.58037    89813.231   -21846.082    1625.7905   -23471.873    79.658364    241.33585 
   26750    107.20916    -910.6355    89803.535    -21832.56    1604.2421   -23436.802    79.697499    238.13716 
   26800    108.42421   -1033.1882    89780.289   -21836.584    1622.4237   -23459.008      79.7584    240.83608 
   26850    107.89979   -835.37159    89782.724    -21828.98    1614.5765   -23443.557    79.631551    239.67122 
   26900    107.42189   -739.64654     89769.81   -21828.619    1607.4253   -23436.045    79.916624    238.60967 
   26950     110.8251   -463.23138    89797.855   -21810.498    1658.3499   -23468.848    80.083588    246.16904 
   27000     107.2557   -987.74044    89793.063   -21822.735    1604.9386   -23427.674    80.307745    238.24055 
   27050    108.93059   -1002.0951    89753.903   -21812.452     1630.001   -23442.453    80.484734    241.96087 
   27100    109.41712   -794.13175    89709.682   -21815.674    1637.2813   -23452.955    80.476993    243.04157 
   27150     108.2906   -1048.4124    89577.186   -21806.584    1620.4244   -23427.008    80.715346     240.5393 
   27200     110.2544   -857.25393    89518.693   -21829.378      1649.81   -23479.188     80.92203    244.90136 
   27250     107.7417   -995.85092    89506.038   -21835.237    1612.2108   -23447.448    80.917919    239.32005 
   27300    110.09568   -693.68955    89500.149   -21825.994    1647.4351   -23473.429    80.946052    244.54881 
   27350    106.83686   -1104.7991    89457.474   -21842.344    1598.6711   -23441.015    81.352655    237.31019 
   27400    111.03706    -924.4369    89387.902   -21789.082    1661.5215   -23450.604    81.667021    246.63983 
   27450    108.39252   -1232.3283    89385.131   -21807.085    1621.9495   -23429.034    81.904548    240.76569 
   27500    108.98857   -571.73664    89314.938   -21801.149    1630.8686   -23432.018    81.975301    242.08965 
   27550    105.31838   -865.85826     89315.16   -21821.613    1575.9492   -23397.562    82.458477    233.93729 
   27600    106.74234   -761.07891    89269.034   -21856.508    1597.2567   -23453.764    82.332342    237.10024 
   27650    107.85703   -822.73427    89270.941   -21834.608    1613.9367   -23448.545    82.528846    239.57624 
   27700    108.35692   -982.19509    89290.293   -21804.342    1621.4168   -23425.759     82.99075    240.68661 
   27750    107.34666    -724.8267    89303.895   -21836.066    1606.2996   -23442.366    82.878809    238.44258 
   27800    106.90934   -869.10868    89402.777   -21839.608    1599.7557   -23439.363    82.883891    237.47118 
   27850    106.52916   -832.49046     89390.09   -21825.165    1594.0669   -23419.232    82.948316    236.62672 
   27900    109.13798   -630.93947    89403.983   -21796.851    1633.1044   -23429.955    82.784333    242.42154 
   27950    110.26372   -974.38158    89377.532   -21794.343    1649.9495   -23444.292    82.908281    244.92207 
   28000    107.72181   -894.58628    89341.957   -21789.841    1611.9132   -23401.754    82.911133    239.27587 
   28050    105.44806   -1109.9216    89356.514   -21778.458    1577.8896   -23356.347    83.211553    234.22534 
   28100    106.82203   -998.42757    89315.684   -21804.312    1598.4492   -23402.761     83.24591    237.27725 
   28150    108.29198   -680.75963    89354.085   -21739.576    1620.4451   -23360.021    83.648086    240.54236 
   28200    109.59429   -549.25227     89431.32   -21709.707    1639.9325   -23349.639    83.503233    243.43511 
   28250    110.20072   -1222.8848    89439.521   -21712.128    1649.0068   -23361.135    83.656938    244.78213 
   28300    109.79406    -708.8185    89415.911   -21710.517    1642.9217   -23353.438    83.633033    243.87885 
   28350    108.31409   -955.54331    89375.656   -21733.624    1620.7759     -23354.4    83.677524    240.59147 
   28400    113.23557   -1230.9489    89409.184   -21700.415    1694.4192   -23394.834    84.206006    251.52325 
   28450    108.70349   -568.78137    89427.376   -21711.429    1626.6028   -23338.032    84.597001    241.45643 
   28500    110.11725   -871.19672    89440.337   -21742.528    1647.7577   -23390.286    84.844262    244.59671 
   28550     110.6327   -1359.4021     89415.16   -21692.868    1655.4708   -23348.339    84.786167    245.74166 
   28600    108.67459   -614.22472    89401.478   -21690.731    1626.1703   -23316.902    84.806487    241.39223 
   28650    109.60197   -1043.9408    89437.118   -21703.833    1640.0473    -23343.88    85.100779    243.45215 
   28700    105.17985   -1060.4673    89337.764   -21739.069    1573.8762   -23312.946     85.26384    233.62958 
   28750    109.70613   -866.20911     89280.51   -21745.131    1641.6059   -23386.737      85.2622    243.68353 
   28800    108.09206   -1067.9649    89276.535   -21765.046    1617.4536   -23382.499    85.680187     240.0983 
   28850    107.64837   -1530.1609     89230.05   -21786.132    1610.8143   -23396.946    86.044506    239.11276 
   28900    106.00207   -968.93853    89172.796   -21778.588    1586.1796   -23364.767    86.156637    235.45592 
   28950    106.67963   -816.55263      89122.3   -21795.051    1596.3184   -23391.369    86.454389    236.96094 
   29000    108.59276   -726.92712    89077.724   -21730.703    1624.9459   -23355.649    86.658742    241.21047 
   29050    107.00327   -850.04649    89135.413   -21764.327    1601.1613   -23365.488    86.841144    237.67984 
   29100    109.72769   -1154.0075    89070.304   -21755.133    1641.9285   -23397.061    87.201032    243.73142 
   29150    108.75477     -1128.73    89039.761   -21775.699    1627.3701   -23403.069    87.624818    241.57033 
   29200    106.39854   -1162.0951    88983.318   -21792.067    1592.1122   -23384.179    87.944145    236.33657 
   29250    106.02048   -938.65339    89016.433    -21798.08    1586.4551   -23384.535    87.933115    235.49682 
   29300    111.62696   -955.19687    89010.868   -21778.417    1670.3487   -23448.766    87.901305    247.95016 
   29350    106.66455   -787.90585     89033.94   -21799.145    1596.0927   -23395.238    87.986849    236.92745 
   29400    107.08453   -752.86937    89083.888   -21797.896    1602.3772   -23400.273    87.884394    237.86032 
   29450    108.27402   -799.36897    89095.884   -21787.751    1620.1764   -23407.928    88.122427    240.50248 
   29500    108.64171    -940.1814    89087.094    -21775.87    1625.6783   -23401.548    88.308543    241.31919 
   29550    107.96617   -970.30547      89047.1   -21786.799    1615.5698   -23402.369    88.217004    239.81867 
   29600    107.46271   -944.91238    89121.908   -21740.826    1608.0361   -23348.862    88.280414    238.70035 
   29650    107.33642   -942.25466    89123.712   -21767.512    1606.1464   -23373.659    88.726999    238.41984 
   29700    109.59849    -779.0976    89186.842   -21707.849    1639.9952   -23347.845    89.057802    243.44443 
   29750    109.52866     -883.797    89155.503   -21692.226    1638.9503   -23331.177    89.058687    243.28932 
   29800    109.29113   -1030.4521    89185.215   -21706.287     1635.396   -23341.683    89.619934    242.76171 
   29850    111.50085   -1286.2901    89186.399   -21645.892    1668.4615   -23314.354    89.789794    247.67002 
   29900    108.94665   -897.73095    89208.147   -21712.683    1630.2413   -23342.924    89.760248    241.99654 
   29950    113.87671   -795.19004    89223.784   -21719.668    1704.0131   -23423.681    89.739825    252.94738 
   30000    111.55507   -972.94969    89220.503   -21684.965    1669.2729   -23354.238    89.669684    247.79047 
   30050     111.3783   -950.52298     89218.37    -21713.33    1666.6277   -23379.958    89.797005    247.39781 
   30100    112.21555   -770.02664    89211.813   -21727.957    1679.1561   -23407.113    89.905489    249.25755 
   30150    113.46121   -956.81267    89196.445   -21759.558    1697.7958   -23457.354    90.395839    252.02447 
   30200    106.24358   -878.21777    89204.704   -21801.443    1589.7935   -23391.236    90.557374    235.99238 
   30250    110.79028   -1052.2262     89226.61   -21783.747    1657.8288   -23441.576    90.462647    246.09169 
   30300    109.54589   -1191.5382    89201.108   -21764.109    1639.2082   -23403.318    90.685734     243.3276 
   30350    108.63062   -912.86765    89195.683   -21755.757    1625.5124    -23381.27    90.591732    241.29457 
   30400    111.92937   -788.88261    89211.587   -21738.475    1674.8738   -23413.348    90.726569    248.62188 
   30450    109.83473   -870.85851    89274.591   -21722.841    1643.5303   -23366.372    90.699894    243.96918 
   30500    108.77576   -892.51721    89157.162   -21755.471    1627.6842   -23383.155    90.817892    241.61695 
   30550    110.78411   -828.26047     89105.45   -21750.364    1657.7365     -23408.1     90.85529    246.07798 
   30600    105.67426   -774.85224    89123.017    -21781.03    1581.2744   -23362.304    91.074224    234.72778 
   30650    109.17415    -783.0841    89137.904    -21765.22    1633.6455   -23398.865    91.518858    242.50186 
   30700    110.78575   -852.80854    89208.481   -21746.151     1657.761   -23403.912    91.884575    246.08162 
   30750     107.9141   -712.62022    89197.862   -21761.047    1614.7906   -23375.838     92.03111    239.70301 
   30800    108.17418    -866.0427    89213.884   -21820.839    1618.6823   -23439.522    92.196664     240.2807 
   30850    106.52539   -890.61635    89198.197   -21780.375    1594.0105   -23374.386    92.319238    236.61835 
   30900    109.37967   -671.21421    89184.296   -21790.998    1636.7209   -23427.719    92.585601    242.95838 
   30950    109.37667   -839.65459    89212.354   -21808.185    1636.6761   -23444.861    92.974811    242.95173 
   31000    109.88104   -841.33712    89139.138   -21803.202    1644.2232   -23447.425     93.21504    244.07204 
   31050     107.0076    -534.9681     89210.29   -21837.273     1601.226   -23438.499    93.435453    237.68944 
   31100    109.55418   -1143.9777    89233.052   -21800.973    1639.3322   -23440.305    93.686202    243.34602 
   31150    104.99614   -850.70183    89202.107    -21826.23    1571.1273   -23397.357    93.484929    233.22152 
   31200    104.28491   -781.28456    89200.471   -21881.092    1560.4846   -23441.576    93.578196     231.6417 
   31250    105.74734   -937.05464      89268.2   -21881.346     1582.368   -23463.714    93.687616    234.89012 
   31300    106.67697   -838.68389    89250.245   -21878.699    1596.2786   -23474.978     93.60976    236.95504 
   31350    111.07536   -1112.9862    89274.268   -21837.509    1662.0947   -23499.604    93.773515    246.72492 
   31400    109.19037   -864.05121    89313.812   -21857.319    1633.8883   -23491.208    93.611127    242.53791 
   31450    107.44016   -850.03776    89363.447   -21833.951    1607.6987    -23441.65    94.040299    238.65026 
   31500    108.24228   -1001.4752    89411.779   -21850.516    1619.7014   -23470.217    94.245431    240.43197 
   31550    105.59827   -1206.9368    89383.493    -21874.75    1580.1373   -23454.887    94.243246    234.55899 
   31600     106.1045   -997.16608      89416.9   -21859.525    1587.7123   -23447.237    94.402331    235.68345 
   31650    108.76703   -1095.8612    89412.462   -21831.325    1627.5536   -23458.878    94.538042    241.59756 
   31700    107.27476   -979.39456    89363.398   -21856.909    1605.2237   -23462.133    94.394156    238.28287 
   31750    106.26667   -568.73536    89382.091   -21846.929     1590.139   -23437.068    94.482596    236.04367 
   31800    107.56928   -889.86955    89367.062   -21828.598    1609.6308   -23438.229    94.605885    238.93707 
   31850    106.70648   -711.37421    89347.899   -21843.107    1596.7202   -23439.827    94.542547    237.02059 
   31900    105.87084   -1013.8139    89395.141   -21873.677     1584.216   -23457.893    94.897175    235.16444 
   31950    107.02782   -473.04653    89439.284   -21866.709    1601.5286   -23468.237    95.126761    237.73436 
   32000    107.46635   -586.42949    89589.201   -21853.244    1608.0906   -23461.335    95.064706    238.70844 
   32050      104.958   -867.28377    89582.453   -21876.388    1570.5565   -23446.945    95.092553     233.1368 
   32100    110.70151   -859.15856     89550.98   -21813.363    1656.5005   -23469.863     95.19177    245.89451 
   32150    109.74696   -972.85692    89509.914   -21853.788    1642.2169   -23496.005    95.296436    243.77423 
   32200    109.89648   -1023.3939    89440.431   -21848.388    1644.4543   -23492.842    95.879014    244.10635 
   32250    109.06133   -1139.8849    89451.163   -21834.949    1631.9573   -23466.906    96.113447    242.25126 
   32300    110.47742   -587.09766    89503.458   -21798.213    1653.1473    -23451.36    96.363423    245.39675 
   32350      110.949   -1071.7574    89605.633   -21780.513    1660.2039   -23440.717    96.514295    246.44425 
   32400    108.73989   -1303.7606    89487.223   -21845.227    1627.1475   -23472.374    97.134348    241.53728 
   32450    108.90406   -773.04984        89425   -21833.872     1629.604   -23463.476    97.436823    241.90194 
   32500    105.89228   -937.84268    89410.634   -21777.161    1584.5368   -23361.698    97.675992    235.21206 
   32550    109.71597   -943.65745    89382.264   -21758.951    1641.7532   -23400.704    98.020064    243.70538 
   32600    108.34272   -819.13111    89323.444   -21783.741    1621.2043   -23404.946    98.083521    240.65507 
   32650    105.81722   -786.80562    89290.304   -21818.564    1583.4136   -23401.978    97.894778    235.04533 
   32700    107.26632   -804.56628    89278.484   -21880.441    1605.0974   -23485.538    98.102036    238.26413 
   32750    106.00896   -774.72882    89312.523   -21822.957    1586.2828    -23409.24    98.029532    235.47124 
   32800    107.63553   -916.22567    89363.403   -21826.947    1610.6222   -23437.569    97.955523    239.08424 
   32850    107.97872   -820.22217    89319.895   -21814.537    1615.7576   -23430.294    97.759939    239.84654 
   32900    108.33054   -668.64683    89318.773   -21807.938     1621.022    -23428.96    98.009792      240.628 
   32950    108.70972   -853.57256    89343.663   -21768.121     1626.696   -23394.817    98.082849    241.47027 
   33000    108.84772   -599.62185    89364.177   -21786.093    1628.7609   -23414.854     98.23909    241.77679 
   33050    106.31661   -694.70787    89288.355   -21786.813    1590.8863   -23377.699    98.322451    236.15459 
   33100    109.24869   -633.72064    89344.416   -21791.474     1634.761   -23426.235    98.420578    242.66745 
   33150    106.64094   -773.02903    89425.618   -21799.153    1595.7394   -23394.893    98.887382      236.875 
   33200    107.21042   -1112.4394    89422.006   -21827.013     1604.261   -23431.274     99.35488    238.13996 
   33250    103.41105    -1000.356    89390.821    -21829.08    1547.4085   -23376.488    99.346614    229.70066 
   33300    104.65939   -1007.7566    89338.969   -21840.744    1566.0882   -23406.832      99.4092    232.47351 
   33350    105.95065   -789.49784     89303.69   -21862.575    1585.4102   -23447.985    99.556319    235.34172 
   33400    106.33689    -856.3818    89279.181    -21816.58    1591.1897    -23407.77    99.701644    236.19963 
   33450    110.01377   -940.95869    89227.988   -21787.139    1646.2094   -23433.349     99.76765    244.36687 
   33500    107.67287   -1077.0898     89123.13   -21817.533    1611.1809   -23428.713    100.07569    239.16716 
   33550    109.27163   -936.09928     89061.57   -21835.259    1635.1042   -23470.363    100.23469    242.71839 
   33600    108.35874   -1176.5432    89033.609   -21782.426     1621.444    -23403.87     100.4204    240.69064 
   33650    110.82036   -869.38092    88990.406   -21755.127    1658.2789   -23413.406    100.36457     246.1585 
   33700    106.80531   -767.63865    88926.365   -21756.981    1598.1991    -23355.18    100.48072    237.24012 
   33750    107.21862   -762.88264    88955.937   -21780.915    1604.3836   -23385.299     100.2093    238.15816 
   33800    106.16239   -723.72426    88916.397   -21767.882    1588.5786    -23356.46    100.45556    235.81204 
   33850    108.89415   -747.40272    88907.229   -21773.913    1629.4557   -23403.369    100.65959    241.87992 
   33900    109.44269   -976.85039    88955.602   -21782.782    1637.6639   -23420.446    100.68867    243.09836 
   33950    107.69329   -550.91253    88909.852   -21752.815    1611.4865   -23364.301    100.39861    239.21253 
[...]
   92000    106.77225   -925.01754    89195.392   -21832.909    1597.7043   -23430.613    271.28589    237.16667 
   92050    108.20708   -901.11865    89160.056   -21784.563    1619.1747   -23403.738    271.70387    240.35379 
   92100    110.48389   -812.96043     89148.35   -21759.741    1653.2441   -23412.985    271.91658    245.41112 
   92150    109.49579    -747.5241    89204.829   -21774.316    1638.4584   -23412.774    272.04593    243.21631 
   92200    106.86097   -840.85967    89141.068   -21786.177     1599.032   -23385.209    272.10042    237.36375 
   92250    108.16516   -853.24399    89156.359    -21775.13    1618.5473   -23393.677     272.4548    240.26066 
   92300    108.59243   -637.74576    89206.161   -21784.106     1624.941   -23409.047    272.26685    241.20974 
   92350    106.96771   -533.92124    89289.335   -21778.105    1600.6291   -23378.734    272.69893    237.60084 
   92400    110.69683   -829.98432    89356.278   -21743.939    1656.4304    -23400.37    272.98889    245.88411 
   92450    107.68657   -1115.0732     89301.23   -21768.126    1611.3859   -23379.511    272.86625    239.19759 
   92500    111.36279   -761.93253     89339.47   -21745.374    1666.3956   -23411.769    273.10092    247.36336 
   92550    108.79903   -883.39126    89348.385   -21749.628    1628.0324   -23377.661    273.37956    241.66864 
   92600    109.91401   -854.86503    89366.718   -21754.993    1644.7166    -23399.71    273.60871    244.14528 
   92650    107.49439   -924.79778    89337.002   -21803.505    1608.5102   -23412.016    273.58982    238.77072 
   92700    106.43158   -682.39136    89318.016   -21788.465    1592.6067   -23381.071     273.4933    236.40998 
   92750    108.70821   -608.16857    89352.448   -21777.629    1626.6733   -23404.302    273.07542     241.4669 
   92800    108.30586   -1057.9453    89303.025   -21803.324    1620.6527   -23423.977    273.50434    240.57318 
   92850    110.33813   -710.91845    89300.553   -21823.567     1651.063    -23474.63    273.84502    245.08735 
   92900    108.94488   -937.19653    89302.416   -21796.266    1630.2148   -23426.481    273.73217    241.99261 
   92950    108.77509   -630.50183    89313.113   -21787.793    1627.6742   -23415.467    273.54054    241.61547 
   93000    108.82898   -586.45724    89441.786   -21766.677    1628.4805   -23395.158    273.24708    241.73516 
   93050    110.24264   -770.18735    89399.935   -21737.015    1649.6341   -23386.649    273.50727    244.87525 
   93100    110.10619   -261.76821    89468.209   -21756.455    1647.5922   -23404.048    273.87476    244.57215 
   93150    110.53468   -422.39512    89607.198   -21729.831    1654.0041   -23383.835    274.23871    245.52394 
   93200    109.24716   -702.39583    89640.829   -21745.433     1634.738   -23380.171    273.99701    242.66404 
   93250    109.79882    -889.8768    89720.374   -21769.008    1642.9929   -23412.001    274.27486    243.88941 
   93300    109.04951   -791.34479    89669.069   -21786.546    1631.7806   -23418.327    274.82989    242.22503 
   93350    108.53236   -759.95815     89615.24   -21798.093     1624.042   -23422.136    275.03319     241.0763 
   93400    109.81215   -837.54507    89612.854   -21802.001    1643.1924   -23445.193    275.22959    243.91903 
   93450    111.51828   -792.46672    89569.857   -21792.345    1668.7224   -23461.067    275.46941    247.70875 
   93500    106.52762   -1060.3791    89523.625   -21802.259    1594.0438   -23396.303    275.95369     236.6233 
   93550    106.39062   -794.04683    89435.189   -21842.135    1591.9937   -23434.128    276.04231    236.31898 
   93600     106.5532   -1013.1509    89326.463   -21859.526    1594.4265   -23453.953     275.9717    236.68011 
   93650    106.66129   -766.82009    89306.779   -21851.263     1596.044   -23447.307    276.13149    236.92022 
   93700    107.71599   -800.62154    89273.426   -21828.355    1611.8261   -23440.181    276.72685    239.26295 
   93750    109.88099   -903.79953    89214.998   -21844.536    1644.2226   -23488.759    277.00586    244.07194 
   93800    107.32667   -922.19637    89211.784   -21864.738    1606.0005   -23470.739    277.17147    238.39818 
   93850    105.91012   -908.14303    89152.132   -21845.818    1584.8037   -23430.622    277.53815    235.25168 
   93900    107.45149   -842.70357    89197.255   -21855.532    1607.8683     -23463.4    277.89141    238.67544 
   93950    105.82329   -726.58911    89154.337   -21900.845    1583.5044    -23484.35     277.9043    235.05881 
   94000    106.93587   -753.88125     89105.71   -21868.412    1600.1527   -23468.564    278.07427    237.53011 
   94050     103.6171   -720.67969    89100.892   -21913.184    1550.4918   -23463.675    278.52979    230.15835 
   94100     107.0744   -793.88188    89047.219   -21906.268    1602.2256   -23508.494    278.68277    237.83783 
   94150    105.17658   -791.57072    88996.111   -21904.089    1573.8272   -23477.916     278.5931    233.62231 
   94200    106.83204   -823.07265     88974.05   -21887.354    1598.5991   -23485.953     278.6343     237.2995 
   94250    106.05016   -986.08372    88934.444   -21866.757    1586.8992   -23453.656    278.08707    235.56274 
   94300    106.69477   -924.22914    88937.696   -21880.849     1596.545   -23477.394    278.04537    236.99458 
   94350    107.59759    -1006.967    88953.413   -21867.677    1610.0545   -23477.732    278.66913    238.99996 
   94400    107.22339   -1269.3108    88918.218   -21875.316    1604.4551   -23479.771     278.7972    238.16878 
   94450     106.8216   -834.96235    88891.907   -21855.652    1598.4428   -23454.095    278.48172     237.2763 
   94500    106.21364   -1060.5814    88801.533   -21881.188    1589.3454   -23470.533     278.5126    235.92587 
   94550    106.47511   -819.23942    88752.932   -21845.346    1593.2581   -23438.604    278.64748    236.50667 
   94600    108.08479   -561.34054     88760.04   -21803.073    1617.3447   -23420.418    279.15307    240.08214 
   94650    106.86359   -1199.4316    88818.092   -21779.002    1599.0711   -23378.073    279.31189    237.36956 
   94700    110.45698    -883.2415    88767.338   -21806.361    1652.8414   -23459.202    279.36534    245.35134 
   94750    109.14091   -795.93464    88832.873   -21824.054    1633.1482   -23457.202    279.34827    242.42804 
   94800    109.89539   -943.19165    88861.023   -21804.962     1644.438     -23449.4    279.56256    244.10393 
   94850    105.07868   -659.51356    88865.104   -21790.379    1572.3623   -23362.742    279.50126    233.40485 
   94900    108.15093   -718.88707    88819.535   -21810.467    1618.3345   -23428.801    278.84471    240.22906 
   94950    110.53062    -798.0842    88813.385   -21784.516    1653.9434    -23438.46    279.01974    245.51493 
   95000    109.61342   -562.73417    88828.423   -21778.493    1640.2187   -23418.712    278.98732     243.4776 
   95050    105.00747   -815.89007    88905.853   -21770.513    1571.2967   -23341.809    278.95278    233.24668 
   95100    109.03695   -587.58409    88923.328   -21741.685    1631.5926   -23373.277    278.86581    242.19712 
   95150    110.59946   -827.63839    89007.209   -21738.095    1654.9734   -23393.068    279.03848    245.66783 
   95200    113.64627    -791.1342     89034.62   -21692.334    1700.5649   -23392.899    279.30748    252.43552 
   95250     108.2716   -916.88947    89075.384   -21719.392      1620.14   -23339.532    279.37485    240.49708 
   95300    107.05913   -724.74793    89084.722   -21718.374    1601.9971   -23320.371    279.04867    237.80391 
   95350    110.84379   -932.62238    89040.054    -21742.75    1658.6294    -23401.38    278.89952    246.21053 
   95400    109.26658   -687.30105    89051.716   -21755.733    1635.0286   -23390.761    279.26302    242.70718 
   95450    107.93283   -592.66154    89086.531   -21780.522    1615.0709   -23395.593    279.48488    239.74461 
   95500    108.83417   -722.20468    89141.681   -21815.611    1628.5582    -23444.17    280.55766    241.74669 
   95550    105.51694    -775.4068    89191.052   -21843.831    1578.9202   -23422.751    280.32129    234.37833 
   95600    108.97483   -681.07146    89167.028   -21811.035     1630.663   -23441.698    280.65929    242.05913 
   95650     105.6605    -727.7711    89135.731   -21800.857    1581.0685   -23381.926    280.79282    234.69722 
   95700    107.17182    -789.8808    89118.772   -21781.003    1603.6834   -23384.686    281.04731    238.05422 
   95750    110.87228   -722.80164    89135.967   -21725.591    1659.0558   -23384.647    280.98502    246.27382 
   95800    111.64954   -677.78755    89100.274   -21729.711    1670.6865   -23400.397    281.34146    248.00031 
   95850    109.76709   -617.88656    89083.607   -21756.897    1642.5181   -23399.415    282.03953    243.81893 
   95900    104.84531    -1016.285    89053.924   -21783.971    1568.8703   -23352.842    282.05562    232.88649 
   95950    108.32634   -894.32294    89062.325   -21763.328    1620.9592   -23384.288    282.08756    240.61867 
   96000    107.34638   -762.41564    89120.147   -21755.067    1606.2955   -23361.362    282.60932    238.44197 
   96050    110.00184    -903.9873    89124.946   -21768.492    1646.0308   -23414.522    283.02597    244.34036 
   96100    107.83348   -800.44739    89182.925   -21778.128    1613.5842   -23391.713    283.26082    239.52393 
   96150    108.70615   -920.09209    89199.607   -21727.923    1626.6426   -23354.566    283.21971    241.46233 
   96200    107.25355   -890.85582    89179.325   -21777.269    1604.9064   -23382.175     282.9964    238.23577 
   96250    109.18317   -734.13007    89137.008   -21802.655    1633.7805   -23436.436    283.22219     242.5219 
   96300    106.80976   -739.43199    89144.835   -21799.221    1598.2656   -23397.487    283.94908    237.24999 
   96350    106.68619   -1025.6603    89137.571   -21852.828    1596.4166   -23449.245    284.00984    236.97553 
   96400    105.72744   -621.99348    89198.975    -21884.46    1582.0702    -23466.53    283.92742    234.84591 
   96450       105.55   -1126.9028     89196.95    -21837.18     1579.415   -23416.595    284.13405    234.45177 
   96500    107.21039   -1283.2047    89102.034   -21808.299    1604.2605    -23412.56    284.15503     238.1399 
   96550     112.7198   -681.68857    89132.309   -21740.937    1686.7015   -23427.638    284.25898    250.37761 
   96600    110.62354   -909.89802    89159.531   -21758.923    1655.3337   -23414.256    284.15406    245.72131 
   96650    108.44241   -803.09074    89199.352   -21763.865    1622.6961   -23386.561    283.92048    240.87651 
   96700    106.93826   -803.45716    89275.111   -21802.325    1600.1884   -23402.513    284.51628    237.53542 
   96750    106.21311    -785.5437    89357.245   -21796.601    1589.3375   -23385.939    284.84767    235.92469 
   96800    111.61855   -515.91143    89434.684    -21765.81    1670.2228   -23436.033    285.37175    247.93147 
   96850    107.57976   -686.75594    89543.521   -21715.001    1609.7876   -23324.789    285.35907    238.96035 
   96900     109.1732   -991.98474    89521.623   -21697.152    1633.6313   -23330.783    285.92208    242.49976 
   96950    110.21965   -1258.7794    89479.925   -21713.895      1649.29   -23363.185    286.09749    244.82417 
   97000    109.70437   -1026.0903    89390.533   -21739.091    1641.5796    -23380.67    286.20154    243.67961 
   97050    109.02386   -682.89962    89355.579   -21735.062    1631.3967   -23366.459    286.14427    242.16804 
   97100    108.15852     -883.428    89259.206   -21738.235     1618.448   -23356.683    286.01616    240.24591 
   97150    107.23021   -1008.2314    89163.183   -21723.272    1604.5572   -23327.829    286.32693    238.18393 
   97200    108.48999     -967.658    89049.643   -21749.464     1623.408   -23372.872    286.02341    240.98219 
   97250    108.04089   -889.49827    89092.103   -21756.621    1616.6879   -23373.309    286.30522    239.98463 
   97300    105.45585   -798.11189    89055.559   -21788.345    1578.0061   -23366.352    286.09167    234.24263 
   97350    108.88495   -1138.0032    89084.734   -21764.128    1629.3181   -23393.447    286.23545     241.8595 
   97400    109.70322   -807.03194    89080.329   -21790.944    1641.5624   -23432.506    285.49569    243.67706 
   97450    105.34233    -885.8604    89056.723   -21797.077    1576.3074   -23373.385    285.06095    233.99048 
   97500    111.36238   -901.59663    89068.704   -21787.984    1666.3895   -23454.374    284.80078    247.36245 
   97550    105.69646   -879.55572    89072.062   -21805.855    1581.6066   -23387.462    285.16695     234.7771 
   97600     113.1726   -974.35528    89080.116   -21790.549     1693.477   -23484.026    285.44981    251.38338 
   97650     110.5271   -865.91978    89137.392   -21756.792    1653.8907   -23410.683    285.87485     245.5071 
   97700    112.22781   -872.44031    89151.787   -21763.369    1679.3395   -23442.708    286.10405    249.28478 
   97750    110.69646   -779.03376    89116.433   -21772.706     1656.425   -23429.131    285.87255     245.8833 
   97800     110.9186   -853.26686    89165.933   -21736.478    1659.7489   -23396.227    286.01134    246.37671 
   97850    107.74865   -652.48521    89229.959   -21767.721    1612.3148   -23380.036    285.83926    239.33549 
   97900    110.64825   -864.32407    89208.107   -21773.752    1655.7035   -23429.455    285.14354    245.77621 
   97950    108.85123   -646.62364    89215.969   -21745.344    1628.8134   -23374.158    284.77181    241.78458 
   98000    109.52515   -633.54724    89299.548   -21738.042    1638.8978   -23376.939     284.5324    243.28153 
   98050    111.90376   -880.32808    89370.366   -21720.518    1674.4905   -23395.008     284.4063    248.56498 
   98100    110.26734   -855.76401    89351.881   -21760.339    1650.0037   -23410.343    284.46887    244.93011 
   98150     108.1615    -1025.635    89317.024   -21756.382    1618.4926   -23374.874    284.90665    240.25254 
   98200    109.40444   -720.65616    89284.572   -21752.629    1637.0915   -23389.721    284.28133    243.01339 
   98250    106.90877   -764.41001    89293.879   -21782.721    1599.7471   -23382.468    284.62392    237.46992 
   98300    109.21183   -1123.4913    89235.822   -21802.151    1634.2094    -23436.36    284.82602    242.58557 
   98350     110.0872   -737.27603    89292.079   -21780.026    1647.3082   -23427.334     284.5737    244.52998 
   98400    110.66958   -683.53136    89307.957   -21768.161    1656.0226   -23424.183    285.28242    245.82357 
   98450    107.13202    -864.9806    89331.238   -21804.081    1603.0879   -23407.169    286.04047    237.96582 
   98500    108.77525   -897.87617    89326.428   -21787.054    1627.6766   -23414.731    286.28942    241.61582 
   98550    106.49151   -607.92314     89278.84   -21804.947    1593.5035   -23398.451    286.64658    236.54309 
   98600    108.67465   -806.60298    89339.446   -21821.854    1626.1712   -23448.025    287.13985    241.39237 
   98650     106.0359   -508.01408    89426.115   -21832.602    1586.6858   -23419.287    287.43717    235.53107 
   98700    105.25297    -870.5201    89471.805   -21857.158    1574.9704   -23432.128    287.70703      233.792 
   98750    109.82542   -908.50298    89406.849    -21826.93    1643.3909   -23470.321     287.6628    243.94849 
   98800    106.10988   -330.33932    89423.871   -21848.177    1587.7929    -23435.97    287.31377    235.69541 
   98850    106.07915   -772.66692    89483.628   -21901.721     1587.333   -23489.054    288.10111    235.62714 
   98900    106.26334   -710.84983    89582.535   -21847.292    1590.0892   -23437.381    288.44878    236.03628 
   98950    108.83922   -915.42207    89652.128   -21836.097    1628.6338   -23464.731    288.94675    241.75792 
   99000    107.09888   -734.97484     89630.05   -21817.894    1602.5919   -23420.486    289.06171    237.89221 
   99050    107.89613   -1054.3534    89568.603   -21793.512    1614.5217   -23408.034    289.04189    239.66308 
   99100    109.18339    -1332.268    89481.471   -21783.518    1633.7838   -23417.301    289.41804    242.52239 
   99150    109.42505   -1021.1356    89444.451   -21770.894       1637.4   -23408.294    289.30738    243.05919 
   99200    107.37425   -851.45135    89414.149   -21811.442    1606.7124   -23418.155    289.42251    238.50386 
   99250    109.33238   -894.53436     89400.11   -21835.273    1636.0132   -23471.286    289.41413    242.85334 
   99300    106.28846   -848.97496    89418.928    -21812.61     1590.465   -23403.075    289.48246    236.09206 
   99350    105.90664   -816.97553    89371.093   -21808.437    1584.7517   -23393.189    290.59715    235.24396 
   99400    107.59769   -935.91441    89388.871   -21731.061     1610.056   -23341.117    290.84659    239.00019 
   99450    110.83666   -674.53148    89436.446    -21757.08    1658.5229   -23415.603     291.1028    246.19471 
   99500    111.63547   -699.49925    89449.469   -21716.186     1670.476   -23386.662    291.89633    247.96906 
   99550    110.48536   -804.21803    89478.109   -21745.893     1653.266   -23399.159    291.83897    245.41438 
   99600    108.83248   -916.17106    89496.943   -21737.328    1628.5329   -23365.861    291.69901    241.74294 
   99650    108.80057   -1079.5141    89501.491   -21798.011    1628.0554   -23426.066    291.92657    241.67205 
   99700    107.90359   -798.64829     89468.06   -21832.225    1614.6333   -23446.858    292.12486    239.67965 
   99750     109.2992   -894.60055     89455.48    -21841.17    1635.5168   -23476.686    291.67702    242.77964 
   99800    106.84531   -885.63165    89474.329   -21848.173    1598.7976   -23446.971    291.49858    237.32896 
   99850    107.76433   -889.02774    89433.942   -21824.349    1612.5494   -23436.898     292.2162    239.37032 
   99900    110.10553   -709.10069    89424.711   -21788.342    1647.5824   -23435.925    291.98707    244.57069 
   99950    111.03463   -975.66439    89392.012   -21784.526    1661.4852   -23446.011    291.71191    246.63445 
  100000    110.80982   -1092.4217    89359.311   -21760.739    1658.1211    -23418.86    292.33638    246.13508 
Loop time of 43.916 on 80 procs for 100000 steps with 5021 atoms

Performance: 983.696 ns/day, 0.024 hours/ns, 2277.074 timesteps/s
100.0% CPU use with 80 MPI tasks x no OpenMP threads

MPI task timing breakdown:
Section |  min time  |  avg time  |  max time  |%varavg| %total
---------------------------------------------------------------
Pair    | 6.1999     | 18.249     | 26.134     | 176.2 | 41.55
Neigh   | 0.4677     | 1.2149     | 3.3369     |  94.1 |  2.77
Comm    | 9.8507     | 17.476     | 29.552     | 172.0 | 39.79
Output  | 0.1203     | 0.12373    | 0.25485    |   4.2 |  0.28
Modify  | 4.2139     | 5.9932     | 7.5463     |  37.6 | 13.65
Other   |            | 0.8593     |            |       |  1.96

Nlocal:    62.7625 ave 144 max 29 min
Histogram: 53 7 0 0 0 0 0 0 5 15
Nghost:    670.9 ave 839 max 384 min
Histogram: 20 0 0 0 0 0 0 40 0 20
Neighs:    0 ave 0 max 0 min
Histogram: 80 0 0 0 0 0 0 0 0 0
FullNghs:  5945.9 ave 18780 max 1110 min
Histogram: 60 0 0 0 0 0 0 0 0 20

Total # of neighbors = 475672
Ave neighs/atom = 94.7365
Neighbor list builds = 5760
Dangerous builds = 0

write_data		${DIR}/data.eq-${NAME}-${TEMP}
write_data		run_14/data.eq-${NAME}-${TEMP}
write_data		run_14/data.eq-het_freeze_14-${TEMP}
write_data		run_14/data.eq-het_freeze_14-240
undump          1

reset_timestep  0

unfix           2
unfix           3
unfix           4


################################################
#######         Run Simulation         #########
################################################

log				${DIR}/log.run_${NAME}
log				run_14/log.run_${NAME}
log				run_14/log.run_het_freeze_14
