LAMMPS data file via write_data, version 29 Oct 2020, timestep = 50000

6337 atoms
2 atom types

0.0 49.22 xlo xhi
0.0 49.019635930410494 ylo yhi
0.9097992619910293 59.15220073800883 zlo zhi

Masses

1 18.015
2 12.01

Atoms # atomic

1795 1 1.9281899237613354 3.7401477389002458 2.0816207409754446 1 0 1
1 1 1.045964333364327 1.6433195440385366 4.022592017171458 0 1 0
1864 1 5.51086100151334 1.6053138978702572 3.0130437532323238 0 1 0
117 1 3.33498697515721 21.048505081399856 1.7388565146224566 0 0 1
1685 1 9.296282365780062 2.292617201280019 1.9630986103689505 0 0 0
1254 1 11.96510236098728 1.9487458075350357 3.0923111552821045 1 0 1
335 1 23.235747262434064 0.751639992064099 18.677945498181277 0 0 0
43 1 16.334239172293426 1.955562424147852 4.724787061151527 0 1 0
5227 1 22.917226187582 10.44618809633457 17.06920641619808 0 0 0
3486 1 22.508293581450758 4.198144499271023 3.156140145888766 -1 -1 1
3023 1 2.9565812731244456 5.902469099219674 3.461030336367513 0 1 1
1808 1 4.556378136687142 4.57984344369947 5.333814768775795 0 0 0
4568 1 7.252973050821596 3.869495373827253 3.617960585809691 1 0 1
1541 1 5.401539541084773 22.816823687526526 1.798101843990766 1 0 1
1536 1 14.602485903715632 5.819758086025737 3.698452764701436 0 0 1
70 1 18.505450820322903 5.764364699173014 2.6035991880180562 0 1 1
6289 1 24.58279648291306 17.22938879509856 3.3123280978810064 0 1 1
279 1 19.225771716788127 20.84494904991095 17.0825365271379 1 0 0
4819 1 23.372829790727167 0.21693435528814023 1.2287483040294909 0 1 0
3478 1 24.1387911327696 17.634765917537244 11.195519804493427 0 0 0
79 1 4.403295528156585 9.885228427641998 4.260185685573523 1 0 1
1446 1 4.1389551819064945 8.101140699633874 2.0938081298523246 0 0 1
3479 1 24.566433453793575 22.744963545811018 6.347263275170669 0 0 0
3535 1 8.370490355143811 9.218118296670756 4.983931877853769 0 0 0
1495 1 11.266537490103145 8.981939177327344 4.580170473103877 1 1 1
6195 1 15.710982146201081 9.180736045709468 3.9580745233999415 -1 1 1
358 1 16.998903827885357 16.628011765730573 20.031247739487384 0 0 0
1683 1 20.44258341308 8.959279816439745 5.058859663763635 0 1 0
1684 1 24.095776660756368 9.095816712384565 1.9671498444708864 0 1 0
233 1 12.796074437618644 2.2806858255875406 10.128268939600636 0 0 0
152 1 16.962429937014374 1.1682779653383668 9.210816384517448 0 1 0
4536 1 2.206405194016295 9.957307350569732 5.669036104788879 1 1 1
3337 1 1.4198511389694672 12.388717911992412 4.0067752706076565 0 0 0
1494 1 14.964248068653621 1.4025943899786226 2.311118339346096 0 1 1
78 1 4.202856582188376 12.877392281203202 4.268485506385082 1 0 1
1584 1 6.906750973621701 11.848597751289192 4.37607102269089 1 0 0
106 1 8.185304388186252 13.633636180442563 6.260457520840528 0 0 0
1997 1 22.36986383496075 20.706016827934523 1.1015508357504555 0 0 0
24 1 14.811717720021418 12.969687904283282 6.3913031169093415 0 1 1
212 1 17.187179654370787 11.207182917712082 5.211770660220005 0 0 0
38 1 20.733594912016805 13.701730241776302 2.101496606668227 0 0 1
1397 1 21.899537682254966 15.488773654792606 3.899863196679952 0 0 0
235 1 4.052526973625836 14.672830006771363 1.6454131232651248 0 1 0
3237 1 4.046142134168616 16.69723567657103 3.4545738739230796 0 0 0
119 1 9.972442773025291 16.098844207876933 2.36805951464703 0 0 1
1588 1 12.830565522288909 12.813029085892584 2.379459928468898 0 1 0
40 1 13.616010439226262 14.597838122318603 4.348422676496314 0 1 0
226 1 0.8827648486133609 17.874393905053992 5.809666019905292 0 0 0
1621 1 17.580724461513867 15.023737743528793 2.3886372018909587 0 0 0
3595 1 18.33783049908833 4.797202399348332 19.878875056119305 0 -1 1
1740 1 13.589166759747048 1.7826577152452014 7.534035270777232 0 0 0
3252 1 1.2853581961276646 17.877375275261556 2.9720417488505837 0 0 0
96 1 12.058855607809795 20.348590362646284 1.9700621233161812 0 1 0
181 1 6.231982471659088 18.266658679692483 2.285940213881265 0 1 0
1549 1 3.9895233384587656 20.834947236869446 4.537731821654279 0 0 0
1643 1 6.857716061272659 20.632217297520096 3.761144061450226 0 0 1
4952 1 23.054204392325126 11.87030949510757 2.3086418883836872 0 1 0
289 1 11.168990138844986 18.906909166650777 4.55630699065078 0 0 0
177 1 15.404130278412415 16.42001541213347 3.2769540800013868 0 0 0
1638 1 15.668957676004242 6.509689094216001 20.142618030361742 0 0 0
3140 1 20.027137590801097 19.62223944144826 2.4687875117815485 0 -1 0
1512 1 19.10176798175742 1.3488556457947105 2.8413091277487768 0 0 1
190 1 6.9292770688293865 5.015927554418745 19.83557010439295 1 0 1
1760 1 19.72882396094782 24.441814373832656 4.890423601407643 1 0 0
1838 1 3.5068538714821575 23.052209565909695 6.080480760592764 0 -1 0
1510 1 15.425224211240142 13.298906402691918 1.2072036189773712 0 0 1
1691 1 14.899845940328024 22.122566963273187 5.631677179655002 0 0 1
1625 1 14.72418545949903 21.082331023086827 2.6375209051409194 0 0 0
374 1 23.246678126518773 11.80330556041377 19.461758580592544 0 0 0
266 1 9.093734918720724 5.415004181617417 18.266847031040335 0 0 0
4791 1 19.41045202477966 21.262033296424633 4.782040906816063 0 0 1
1974 1 23.08195248128385 23.844714748563597 1.4119649627014768 0 0 0
1521 1 3.1855346967077733 1.7631927504113651 9.324619664277899 1 0 0
3358 1 1.2875993574523483 3.0350370785868446 7.350855681000892 1 -1 0
1720 1 5.770820263889916 0.6634531646580822 6.724061858795877 0 0 1
227 1 3.294800834331503 1.992433469682357 5.726458715674566 0 0 0
77 1 8.436271613624742 2.419399253275577 7.58065882119379 0 0 1
133 1 5.893620921224784 1.4590599150790795 9.525600893207516 0 1 0
1717 1 5.732601868392132 23.70506043119274 4.342000417295328 1 -1 1
6319 1 16.937337827780986 4.727133378401778 4.8025046385182 0 0 1
3455 1 15.277188209890031 2.0962157900391003 11.146756617412008 0 0 1
5158 1 23.124249512127363 24.227220011008303 8.087865210653959 0 0 0
1455 1 18.009951692930514 8.50923516254765 1.8219858358799554 0 0 1
95 1 1.6891297403499101 9.641219548917407 15.441943507642431 0 0 0
3507 1 1.2417090050388537 3.5161226901880576 19.792207122221125 0 0 0
1565 1 3.9704098775692223 6.705599415291921 7.1402906506810675 0 0 1
216 1 11.124267955490582 6.262197701198202 6.651535106544733 1 0 0
1735 1 6.939423452283485 4.480379611071452 9.875162275129965 0 1 1
1571 1 7.080216883801418 4.757007851996273 6.956909425173227 0 0 0
3360 1 9.88338692439406 4.174504107581306 5.445395808044339 0 1 1
1515 1 12.819169593759636 5.517839487747953 8.791638973663261 1 1 1
1283 1 14.47433080853972 4.18776808640247 6.858001006296668 0 0 1
4602 1 19.067610602445193 4.8898568835351774 6.519897232885512 0 0 1
427 1 16.73831644166972 7.1343597547040085 6.331980260669633 0 0 0
66 1 20.893599733937357 6.060161928338991 4.622276425605988 0 0 0
312 1 23.113317123755547 6.084529744628816 6.739887391209342 0 0 0
161 1 1.2884246018061971 7.659785668334161 7.183847451723791 0 0 0
208 1 12.542244168009343 16.040187054674306 19.248725214725255 0 1 0
3474 1 0.9402102083744315 24.161884146532767 4.096040127398195 1 0 1
1304 1 5.343630680160052 9.996291600643824 9.222636092501777 0 1 1
3087 1 5.719772174334541 8.865791968610077 6.81945436293501 0 1 0
229 1 8.273579535538758 7.314452442261676 7.160293068676034 0 0 0
5 1 7.994284338468164 10.126201482448932 9.550183530867937 0 0 1
1320 1 12.960536362878711 10.437402309857335 6.828615734243304 0 -1 1
3400 1 13.640234294168987 7.604006578758618 5.816437227515397 0 1 0
22 1 14.548931380618628 9.919013956108033 9.423242543720786 0 -1 1
111 1 18.356373911604447 9.371732514157276 6.644844517460212 0 1 0
108 1 20.635026299277694 10.534158018573336 8.765684039695028 0 0 0
2850 1 16.36326223715408 23.442880648259052 1.9811208218848493 0 0 1
3219 1 1.2806589829420012 11.403057696982392 8.193812567507749 0 1 1
34 1 6.363304644444464 14.719833380425195 8.082829338966636 0 0 0
3340 1 5.274554738463822 12.704718991096502 9.86084419703716 0 0 0
3212 1 10.089595578576995 10.803645704045058 7.561217012543049 0 0 1
3267 1 16.237208195309712 14.979536520129175 8.333860253892347 0 0 0
390 1 20.319536911799936 13.599538239780744 8.10198677176335 0 0 0
185 1 19.19467521372415 12.102841252980898 10.80886229771898 0 0 0
3211 1 22.51269342333197 10.499376504472746 6.211006249973391 0 0 0
3556 1 2.4227851624674717 15.808767037558482 8.32494321235716 0 0 0
3261 1 4.252551737382329 15.141709801924497 6.030237453301811 1 0 1
104 1 8.279710099085177 18.811227357469 8.342188263939079 1 0 1
1746 1 8.617153154035972 16.15174934972239 8.697936060760952 0 0 0
68 1 9.061504195057315 15.275477961375437 11.39421917395203 0 0 1
21 1 10.855862594321685 15.271100137046842 7.281729274052176 1 0 1
1607 1 11.186886548231627 16.104117074046012 4.656120656998937 1 0 0
1533 1 17.93098122646186 16.32400670479862 5.128482786563424 0 0 0
268 1 15.83662667414864 17.534383116503 7.1477094754113395 1 0 1
1689 1 18.114530893496188 14.018440931367774 6.515154162320083 0 0 0
1578 1 20.356330386375166 17.475236633499662 4.643650699712157 1 0 1
1595 1 22.504497964238293 13.617809770241637 6.013055535501605 0 0 1
3589 1 13.225148429289296 5.764531823187707 19.514386144470425 0 1 0
41 1 3.748090353214201 18.182638255426937 6.10974851494191 1 0 1
1663 1 3.972765460962787 19.690700783173515 8.35830815663693 0 0 0
45 1 9.004649046015208 19.862769954028323 5.879392914472827 0 0 1
4971 1 6.212078187003072 20.23773080406628 9.744754503587423 1 -1 1
339 1 13.319246035116146 19.20021186225781 6.457087614213375 0 0 0
3536 1 12.792587985638766 21.71082746206526 7.633294154459539 1 0 0
44 1 15.64531109187711 19.054239127476745 4.402415138811832 0 1 1
3231 1 19.332530743709142 20.89108456864974 8.777773950941503 0 0 0
1650 1 21.168501631675667 18.991838370636827 6.656318206806698 0 0 1
155 1 7.915428503569677 22.53058518957788 9.26606196610035 1 0 1
4757 1 5.396226789175989 23.46381121007188 8.309509654873201 1 0 0
1956 1 12.830855975809262 23.599532307771653 18.62934440541485 0 0 0
1757 1 9.842152794499873 21.75874370067999 7.478684935782286 0 0 0
1692 1 18.134927914915746 23.732463086117647 7.198659485149448 0 0 0
3255 1 18.7527054071188 12.11669572565895 3.3997053651436757 -1 0 1
217 1 17.4141091317552 20.577800493972607 6.377630720855345 0 0 1
3280 1 23.71626751456624 19.719731079806838 5.80889562420054 0 0 1
124 1 2.6785193083928527 6.083230193090897 19.301568880797372 0 1 0
265 1 0.8285137622137926 1.3659624383203648 12.464437451824303 1 0 0
1741 1 23.21794838343698 1.5673413466278232 5.892046662533617 0 0 0
18 1 2.4540840786682794 3.7508842316931794 11.140455980627724 0 1 0
145 1 11.803330859501026 4.853129075476411 3.492420535058431 0 0 1
3144 1 9.143582655310395 1.1732345032663622 12.059771663557456 1 0 1
1572 1 9.58838563551015 2.8853809114671147 10.116009666006274 0 1 1
3386 1 22.531522828989054 1.6964315242949406 15.864564447223136 0 1 0
257 1 11.551042583855297 1.9380809343271328 5.737601784010677 0 1 0
3433 1 16.43259596922863 4.42938973996123 8.936747311205336 0 0 0
1743 1 19.244615461905262 2.256170698926098 11.820897093703469 0 0 0
3690 1 0.4165518326694 5.742129859062344 12.544961996801543 0 1 0
157 1 1.7269265624490524 8.32448336424671 12.192939431495024 0 1 0
192 1 4.116572213906619 5.883342394395758 9.85518128761499 0 0 0
94 1 8.297488614573325 7.476012670475782 10.084023230970535 1 0 1
1516 1 11.471897046380931 4.952084086292946 11.058031150739632 1 0 0
252 1 13.080881605900851 5.437689321927263 13.382664153964578 0 0 1
71 1 15.478999605702771 4.600886013498152 11.802661413091586 0 0 1
6028 1 19.21152428512991 3.1868757591932195 8.73293564204715 0 0 0
239 1 17.682539747977863 5.876738384178953 12.996405992299055 0 0 0
3373 1 19.723476778620764 4.997790999598006 11.143475931125344 0 1 0
204 1 23.080587795407116 6.420460086548734 9.75034415957448 0 1 0
93 1 1.1095409335535709 11.081745580258094 12.76579886601817 0 0 0
3108 1 8.117085897345948 21.795362990396633 1.3121203110280344 0 0 1
139 1 4.564425048223254 8.158933310266182 11.116088421730726 0 1 0
131 1 12.438729326252888 9.469558750637255 11.2754916869149 0 0 0
170 1 10.428005223419134 7.50896607229119 11.883493455842189 0 0 0
466 1 14.88450564029355 7.3570757507563345 8.49359369860067 0 0 0
72 1 15.111781059444157 7.699021826496249 14.040454374395022 0 0 0
3463 1 17.40444608519617 6.944357447153573 10.193537792553647 0 0 0
205 1 20.558710160583022 7.746913305453076 9.608243747015603 -1 0 0
3442 1 21.6437013734612 8.50187953873419 12.254041183032568 0 0 0
16 1 2.7441140395910097 13.309123705957514 9.629318296131766 0 0 1
17 1 1.9454958837602796 13.625163163307851 12.066004311373973 0 1 0
242 1 6.019446541839402 12.826732981104247 12.61179739612994 0 0 0
267 1 8.286538938619808 11.126451298429384 12.331680108776258 0 0 0
166 1 10.872052634178118 11.926501026511485 10.851104003371631 0 0 0
281 1 11.828750547386804 12.963026560772173 8.38503895443633 0 0 1
158 1 12.244782397677657 13.893565274993303 12.806035436105345 0 0 0
107 1 14.415348307294678 12.913429873813024 9.285586985416266 0 0 0
330 1 14.869602129165292 14.926196923845193 11.546136169380027 0 0 0
162 1 17.42845922258764 9.663801804198824 9.479989738814442 0 0 0
3609 1 23.636022936156177 18.21442127840766 18.625315075202124 0 0 0
3554 1 22.877007020024013 13.729643379799818 11.208050167054672 0 0 0
1721 1 2.486747979721627 18.116641243385978 9.954220411226729 0 0 1
2014 1 21.59723963897921 22.357725394013602 14.494574423306831 0 0 0
1984 1 6.887129842212323 15.532570708551583 13.531866614426526 0 1 0
3382 1 9.777026769451927 18.7514344831759 11.805466113178081 1 0 1
314 1 13.642946322450246 17.271229849099814 10.820681302911536 1 0 0
168 1 12.640156622945225 16.914889967413682 8.157672999202779 1 0 1
52 1 17.53564598303555 14.157961239225362 10.510814868527365 0 0 1
333 1 21.652678391390285 15.696961526672958 9.517690490245624 0 0 0
297 1 19.435084852325677 16.53487728654673 11.241513871337347 0 0 0
6087 1 23.232341728846556 17.672920575487627 8.301595692863199 0 0 0
1962 1 15.876806337812267 0.09072416767172299 6.713621452431904 0 1 0
1624 1 2.971342674384619 17.350380368936577 12.511107101466058 0 0 1
285 1 5.709927486576783 20.21092383580661 12.693395747294579 0 0 0
188 1 7.396114595775989 18.280757725094617 13.287731072898683 0 0 0
480 1 10.829059897888126 19.039308838862812 9.391726479323424 0 0 0
1761 1 13.201826638658442 20.625355828430664 10.28828751611452 0 0 1
36 1 16.148098568810518 19.383856373116203 9.245526281113092 0 1 1
1881 1 18.566893669988342 19.250113484889532 11.191395905183214 0 0 1
3151 1 18.76061946815807 21.08965027154512 13.856261647431559 0 0 1
1882 1 22.90709584974456 21.631734199973895 11.88397997203613 0 0 0
3107 1 1.771335515217943 22.432798292897473 9.9885823953272 1 -1 0
3097 1 1.7001844056369473 21.275265204539902 7.413684786457806 1 0 0
174 1 9.161050672656337 23.849433956781674 11.525402867593174 0 0 1
1486 1 11.790418736951754 23.04189596314806 11.702361879066752 1 0 1
1690 1 13.967613349745355 23.844642185434136 9.760869622329853 0 1 0
3276 1 21.792706125923864 1.8795212491225097 8.128960414001785 0 0 1
356 1 16.6379819550124 22.260804796972064 9.209728872905133 0 0 0
4871 1 21.15315101091586 22.78290355751992 9.542463624072107 0 0 0
3235 1 17.524207396590928 23.18889526009058 11.617079353339209 0 0 0
361 1 0.3364535544361821 6.780423897966915 4.079994562804601 0 0 0
1764 1 3.8866888497586456 24.050711645007546 10.677863154733261 0 0 1
1919 1 3.025280534664704 0.7934389482570794 14.242476339295846 0 1 0
172 1 24.034650015704077 19.830354542535026 3.0225434029803804 0 0 1
83 1 0.45077108713396163 19.97097586817556 10.662827485118136 0 0 0
4755 1 13.579728206242727 0.3632833656757278 13.592527226251216 0 0 0
225 1 16.345109102402557 1.2537667317073298 15.045423291982287 1 1 1
4627 1 22.57683329518246 4.757554104334608 12.11655754868878 0 1 1
150 1 19.659167003828582 6.868189858104072 15.13042132364828 0 0 1
1236 1 10.525497866174746 24.218077637880455 5.6220882465681425 0 0 0
3264 1 17.886999417189262 3.2006182049585457 14.223515590134134 0 1 0
1796 1 10.75699650760853 6.5142118653902195 1.5838984769416786 1 1 1
2046 1 2.5823090118197447 5.088484070205219 15.046407943158401 1 0 0
1789 1 4.363835309963079 3.8234179964048405 13.267261279918717 0 1 0
1927 1 6.145435216791387 5.630958851617984 14.29841516166818 0 0 0
1873 1 8.691069803965522 4.766399705555401 15.67137221207206 1 0 1
196 1 9.953208502946987 2.4579857862577987 14.397959662112886 0 0 0
218 1 12.806348529756397 3.1135307136273886 14.950969413437583 0 1 0
262 1 13.191938163989619 3.513080454153058 17.644806303506922 0 0 0
3491 1 20.22950039694293 6.539661045091275 18.91947064716303 0 0 1
220 1 5.4071099194346575 12.307646817308848 15.130056666688988 0 0 1
264 1 4.377595036800417 5.89584584030668 16.977800096315086 1 1 0
442 1 3.9806721860362946 7.964506234037769 14.440955780298872 0 0 0
315 1 6.792633386328245 7.381491592751674 12.305377521967467 0 1 0
348 1 10.128369847831069 8.979840498602504 16.52547831562329 0 1 0
129 1 9.879844588874784 7.0618488581302 14.689623117271141 1 1 1
329 1 13.745462762550964 10.025748612909505 13.518035618816617 0 0 0
173 1 12.85008977338885 6.328830841045328 16.34253352760559 0 0 0
163 1 17.890399914557577 9.34277984506094 14.213064530354835 0 0 1
3409 1 15.53932030796036 7.330765438686871 16.52633762850265 0 0 0
1702 1 20.281523402669606 10.294765036228895 13.75143047361782 0 1 0
450 1 23.434159631631367 22.727551968436543 17.19666624747746 0 0 0
200 1 2.63421894141406 13.255453099044017 16.324383096881995 0 1 0
3492 1 16.42966121554178 22.9475931567015 20.03278133859288 1 0 0
73 1 5.7331812006783505 9.746097669048641 15.922551219091394 1 0 0
1866 1 7.77103321280202 9.175942924517939 13.987699994645752 0 1 0
85 1 9.962532952788502 12.70828654086947 13.915149740118993 1 0 1
3424 1 11.608488539896364 10.903876167256213 15.37738478632209 0 0 0
1579 1 15.158123208087956 12.782492304361007 13.462842634618454 0 0 0
283 1 15.102739071437993 13.706753658064024 16.321841772635295 0 1 0
3281 1 16.674290331055786 10.922783200796664 12.238508063276576 0 0 1
530 1 20.68386106587226 13.080636743811336 13.139843542582982 0 1 0
3540 1 20.231572455665457 10.642435031275626 16.584980085023453 0 0 0
340 1 3.4123178067273865 17.319307327902877 15.900337633906535 0 1 0
3322 1 3.5971962526139443 14.922540241353092 13.843997174543517 1 0 1
3351 1 8.535849413640792 14.63781613876494 15.283144654524348 0 1 0
3293 1 11.256226781848115 16.63214289276609 12.349674404710573 0 0 0
222 1 11.86539617826506 17.533951838633936 15.23771771307355 0 0 0
395 1 16.872841287288896 16.61560359491636 12.73867206951958 0 0 0
304 1 17.66988430955581 15.54069075826528 15.314242207537658 0 0 0
273 1 20.348007506869465 16.1998213621852 13.896679163796971 0 0 0
237 1 23.985733858952518 13.608281337961591 13.87512370939309 0 0 0
248 1 23.010174433329954 16.097689725725303 14.978331503585325 0 0 0
1629 1 0.6901523029899285 20.078941144006542 15.663024814661112 1 0 0
293 1 0.678755844246843 17.461124305478208 15.431143278345475 0 0 0
243 1 3.4413800426041172 19.71720926552586 13.861375804854267 0 0 0
56 1 5.756464575819258 18.743856314386377 17.963717997979856 0 0 1
1885 1 7.989061213998513 19.48825603873167 15.926857368260869 0 1 0
284 1 11.073808380902493 20.844372216833463 13.196215738105264 0 0 1
1641 1 9.291426707256552 21.92130790459382 15.063646352025957 1 0 1
1835 1 13.01530485472622 19.941374894298548 14.87365297012448 0 0 0
403 1 15.680874086633892 20.352512297460542 14.407417075225256 0 0 0
1819 1 15.672528490431617 18.952101458587048 12.08158368366194 0 0 0
3214 1 20.015126480553235 18.896932829784987 14.827206726318515 0 0 0
128 1 11.61441836735516 0.3539570250896945 11.458916156259006 0 1 0
3311 1 22.797650090569384 19.05425844279763 13.312750100749538 0 0 0
35 1 7.913816025356682 12.32196240205151 1.7115169709514106 0 0 1
1949 1 2.5071656444945427 22.230429758399204 13.554094933970921 0 0 0
369 1 2.6512268877823204 23.621819050997043 16.497694287482503 1 0 0
3416 1 7.5432053046591765 22.24090515742284 13.315410633624323 0 0 1
1899 1 24.112363138996372 8.62886098085661 14.81013396485839 0 0 1
288 1 11.587035873702108 21.125225422234347 17.113646477317545 0 0 0
295 1 21.067425641436074 15.642314219101083 17.13410108580297 0 0 0
1973 1 16.29330659832516 23.459842230397697 14.068956816828965 0 -1 0
354 1 22.882829041468504 20.017415745241173 15.884861359241748 0 0 0
244 1 20.648317086594787 23.483994169898587 11.948834150678525 0 0 1
2027 1 0.31209941988600265 21.781083277384855 19.38043393100554 0 0 0
1744 1 1.9614005536925936 2.51927579482394 16.191212320468583 0 0 0
1550 1 0.8490248510840984 22.211197846120346 2.1932480019070835 0 0 0
3197 1 6.161780689709161 5.981488937779738 2.2673409299956315 1 0 1
1817 1 10.35473688494316 24.19774428289461 16.422437106788486 0 0 0
7 1 1.6722406849975457 24.291512412633672 18.809006324057535 0 0 0
1407 1 10.490582120350036 13.412218501460758 1.0680733687549508 0 0 1
223 1 19.15930116453226 2.524481694956299 19.084276588740625 1 0 0
3325 1 24.399980960207255 5.327635513746306 18.100678418857576 0 0 0
3503 1 20.00632703454338 2.592333794686854 16.282526852289493 0 0 0
1754 1 0.48743030854334396 7.986409355814502 19.39993141225876 0 0 0
1875 1 3.7269635385425337 0.254124388391695 19.597173698787106 0 1 0
149 1 3.679275842825015 2.688015071652894 18.418637500677534 1 0 0
144 1 6.035928301490666 3.958295357391438 17.525977470729572 0 1 1
4639 1 1.451883352133037 13.641357555920308 1.3084837203273916 1 0 1
138 1 13.58908970270996 0.4285708740627026 16.621459247929906 0 1 0
64 1 15.750235790028118 2.4349754054133523 17.57104983478135 0 1 0
1788 1 8.672737582165613 23.112839971247645 18.244564656939897 0 0 0
437 1 17.085434469298768 4.917508976792471 16.8266393894728 0 0 0
1816 1 16.556616216278435 19.876763462996486 17.140328890672976 0 0 0
1646 1 0.40217037822639806 9.112130953820369 9.651490801408077 0 0 1
290 1 10.853504270929585 3.4971205108510612 19.163392450232788 0 0 1
387 1 21.663559651029633 4.68678612597671 17.245319261671224 0 0 0
4698 1 8.385945423799487 7.740802048176395 2.5205809603460607 1 1 0
90 1 7.17210322676816 1.184370470791574 18.19827476216487 0 0 0
199 1 3.2772557763923778 10.822185454318525 17.52412836545112 0 1 0
1926 1 13.126225153298615 9.997503259367141 3.0335616452209244 0 1 0
379 1 5.013851120639761 7.582834933319734 20.12741360981332 0 0 0
4822 1 23.174823961250286 0.9999966132778904 10.379158040512904 0 1 1
99 1 11.007149570963312 7.769046090617121 18.818774641328744 1 0 1
59 1 14.451738407912027 9.588523887761891 18.37747944690063 1 1 0
3639 1 17.017053146488237 9.918679710387552 16.971776119238122 0 0 0
479 1 17.985054253101037 8.072121583820238 18.958527279079007 0 0 0
4972 1 23.176300631944034 14.64542437607812 18.547573628308857 0 0 0
1704 1 12.056906938218638 13.195964799516156 19.51176550038423 0 0 0
334 1 7.5942518724156995 10.173712908893982 17.94850972277381 0 0 0
311 1 7.141911999326899 13.050631874633188 17.33585105099171 0 0 0
105 1 13.270088982230128 11.775305332673634 17.364440573986617 1 0 0
3745 1 20.707658160438633 9.960038213044733 2.225414860592648 0 1 1
210 1 16.701299181512248 13.87743477318518 20.28676072518945 0 0 0
3423 1 3.434850316478225 20.575749081160563 16.92435936088661 1 0 0
415 1 17.27963484773447 12.684245852210182 17.842288283852106 0 0 0
1338 1 10.851317917807709 22.722535222972535 1.1089828811000237 0 0 1
3407 1 3.4334034759816054 15.376382415625137 18.18367058039 0 0 0
3350 1 5.5849444774301595 14.172332829669386 19.33701633812953 0 0 0
338 1 9.491921515555447 17.1418229467399 16.368790327207535 0 0 0
2013 1 10.062085616991551 16.85110980358628 18.97136687634986 1 0 0
343 1 14.042309943118255 16.184890682425035 16.785887590273266 0 1 0
1497 1 19.43916438598053 16.99839473064928 1.0742467816615966 0 0 1
552 1 20.932509907822123 18.3138911566201 17.72564284483105 0 0 0
2008 1 19.503914058293955 13.472217107863775 16.06235481737177 0 0 0
164 1 16.39266243818076 17.3070822509129 17.206447232744566 0 0 0
320 1 9.842835987265556 1.1962562630430422 18.093768341727706 0 1 0
251 1 21.12508373631142 22.078661828639238 18.829049929543757 0 0 0
5209 1 2.9162232260394085 19.886447284623646 19.725540047953835 1 0 1
407 1 9.101616345215264 20.307956773661477 18.575223645586465 0 0 0
186 1 14.588144457966429 21.33155035989466 18.570391063094775 0 0 0
448 1 21.7783841841688 1.3915501634132128 3.2507527307432227 0 1 0
3370 1 23.035756443568683 10.918791114805261 10.623736969912127 -1 0 0
215 1 3.005617002636672 9.711917104372196 20.067360851940364 0 0 0
3520 1 20.139765507225576 12.25707725975954 19.173813066353148 0 0 0
143 1 17.054085931667238 0.8902674473900679 19.80315258385459 0 0 0
2030 1 18.34317597694588 23.63934004931143 17.93041278799372 0 0 0
3494 1 22.337500767435778 6.298787911406756 14.357530376513694 0 0 0
3315 1 0.2387403673021864 24.410951403487132 10.582400686352074 0 0 0
1642 1 21.947663926443514 2.209340712314742 12.584610148206783 0 0 0
4 1 7.894847528952967 0.06693449367673196 2.6397695474769005 0 1 1
3226 1 24.236280051362133 8.313906207347381 6.441441152068058 0 0 1
1546 1 13.515833373685219 23.949176884480487 13.890916436639731 0 0 1
3222 1 24.482166743045145 11.82169620765687 8.192129226955739 -1 1 1
444 1 19.492122383130464 17.83074669256605 20.247343038940095 0 1 0
1281 1 14.904151857413824 6.8699790278764254 0.9279320951796635 0 0 1
349 1 22.241281977229935 9.70276848107296 21.134886389542768 0 0 0
499 1 4.957678554145943 14.206760052380364 38.629175085503846 0 0 0
352 1 10.291947027815427 23.282321291656576 20.381504861549335 0 0 1
3604 1 11.411296311612407 8.963576920850523 21.39462001413948 1 0 0
298 1 2.300514742262468 10.35066304730431 23.02243403370998 0 0 1
385 1 4.8778988666054195 11.715194849498058 20.65809289584092 1 1 0
3357 1 0.12294141181256132 19.02273281618089 20.612925458845552 0 0 0
355 1 18.687037103171765 22.606462209193566 24.311915715217207 0 0 0
3627 1 15.752454659467316 1.374687402370823 22.77486479990157 0 0 1
1680 1 10.803745066803994 19.305667995130822 20.784165907468196 0 0 0
382 1 21.110260045423153 1.0866757955853596 22.76003546513901 0 0 0
413 1 5.939536483829912 16.65655697512147 21.13274841226859 0 0 0
3584 1 0.02429890596874589 6.825602276509519 23.865271645404246 0 0 0
376 1 2.92711533783702 5.176177724448778 22.195235224391183 0 0 0
1830 1 14.249081926152183 24.184809457214783 20.853918412369833 0 0 1
510 1 6.575919612275693 3.1207478627201444 22.033533084976177 0 1 0
197 1 4.617191631723927 3.7715591125661 23.891559943210318 0 0 0
428 1 11.176046853024097 3.633246209851554 22.120026197700398 0 0 0
474 1 23.241927139303986 4.349650677689105 23.640888645344823 0 0 0
319 1 8.934670021836649 3.2837306228822842 23.994574561654094 0 0 0
360 1 7.106486634274574 23.17195769261208 21.49681319052683 1 1 0
4476 1 2.896717083912637 22.42873331968261 39.15060457736464 1 1 0
3533 1 13.152614125488183 5.723587814355512 22.521586397402547 1 0 0
2033 1 15.605029619891596 3.8026377850071134 23.994009379726755 0 1 0
3568 1 18.992259338722643 4.778665667589128 22.536187748551097 0 0 0
228 1 20.917989804962115 3.348613609485383 24.088759535918083 0 0 0
280 1 13.717922255881247 19.96312592168935 20.930451336500184 0 0 1
305 1 8.333142255887214 14.82843094808551 20.495719898604893 0 0 0
3515 1 2.7606410406630206 7.737763666720776 23.73859711126492 1 1 0
546 1 7.024975595293143 5.342613224903331 24.31989014833055 1 1 0
3590 1 6.346220076080767 7.492331789579332 22.362536286863104 1 0 0
350 1 8.416657187023063 7.868572153827417 20.426109660706384 0 0 0
465 1 0.17945508515697 11.251949004398346 38.7148139817448 0 0 0
5216 1 1.563860878263887 22.250962717442896 36.45134973668 0 -1 0
255 1 11.049681822993302 7.021037379296145 23.364095875744848 0 1 0
6330 1 3.515765190216823 0.41864281269063996 38.49542413401142 1 1 0
2 1 22.169363598603287 9.19109078919651 23.959065141661263 0 0 0
447 1 10.619138990718257 0.6623487995671159 23.96453767495817 0 0 0
341 1 6.7596071799597235 10.212961097774157 23.9264156609537 0 0 0
3720 1 17.536581810520307 23.72497307722764 38.340052917897296 0 0 0
394 1 9.475834021722132 12.580897234352275 21.066895867160255 0 0 0
325 1 13.133407675557631 13.292411584740146 23.905759224340013 1 0 0
336 1 14.332341817970402 12.698873407873213 21.409675949158864 0 1 0
445 1 18.922555251782388 9.71402882396896 21.192705505216594 0 0 0
291 1 20.530767903981143 14.080553213155463 23.48788053471005 0 0 0
5201 1 19.65130787329431 7.844332670268955 23.502367165442546 1 1 1
414 1 22.477229178093925 12.00992309489071 23.836636224021078 0 0 1
1358 1 1.369390032050744 18.01323762322145 39.11815987194833 0 0 0
3470 1 15.109597314838549 7.758318731946453 22.658933465041745 0 0 0
5175 1 3.873238359488037 12.45912518260305 23.089944879577953 1 0 0
250 1 5.986519311462377 14.736119227468654 23.531685278533516 0 1 0
3346 1 23.960855716793652 6.795740603485725 23.835737216672257 0 0 1
180 1 8.72388665167265 15.294656799637234 23.701526926376633 0 1 0
366 1 13.263495910518058 16.207467580509256 23.53066559058203 0 0 0
3524 1 15.29877307436059 17.87753231831162 24.331825559695474 0 0 0
287 1 21.377029405315948 16.467722179867316 21.96870546156407 0 0 0
156 1 6.3839897027714585 0.6177105451958965 21.22316086294279 0 0 0
378 1 1.9799775550343937 14.273987994367607 23.38760573673994 0 1 0
5091 1 2.9067968099725046 17.19019265774218 23.42137101322254 1 0 0
294 1 5.566261057481652 17.539986819994738 24.073748939959586 0 1 0
274 1 6.545555477596758 20.072482577259322 23.681166319459738 0 0 0
324 1 7.427509492202721 10.49416883161004 20.93595228078988 0 0 0
331 1 21.424989139353773 2.153309230835748 20.344778924374317 0 0 0
398 1 9.334856772907107 20.276218881519224 23.622103830654257 0 0 0
30 1 14.558911530588679 20.27857307839406 23.365896022929203 0 0 0
359 1 18.075918689543535 18.408664267337393 23.053188923283674 1 0 0
151 1 17.064588356781513 21.180556439431424 22.450381566689554 0 1 0
313 1 20.225839351166137 19.70481653458787 24.20082980064477 0 1 0
231 1 20.90587289947649 21.656010215750314 22.236386756291036 -1 0 1
388 1 14.05807050615364 0.26384904061648046 20.697092517821034 0 0 0