LAMMPS data file via write_data, version 29 Oct 2020, timestep = 50000

6337 atoms
2 atom types

0.0 49.22 xlo xhi
0.0 49.019635930410494 ylo yhi
0.9097992619910293 59.15220073800883 zlo zhi

Masses

1 18.015
2 12.01

Atoms # atomic

160 1 23.13017286996177 22.94802282387568 11.006623413545107 1 0 0
4830 1 24.067466937266083 3.4792394819832304 10.40659018713324 0 1 0
245 1 22.588089566302916 23.843755201471776 14.338301146665584 0 0 1
1620 1 17.53355014502783 1.5565491934960711 2.4385281419741394 0 0 0
545 1 16.329779163001263 17.00125055030511 1.3637439349527603 0 0 1
175 1 23.801028448882494 23.41946754709801 8.435932223582089 0 1 1
96 1 17.346503309015116 22.90142194425552 1.6214636138222278 0 1 0
1803 1 14.985598418299515 0.418295382808335 3.049552657405589 0 1 0
171 1 22.018022928385488 5.753268878077447 7.782240921891389 0 0 0
1497 1 23.227506459324072 1.839683268098771 4.0495724507612625 0 0 1
202 1 13.094140900193649 23.74726768919666 14.932495867162977 0 1 0
6247 1 24.160358823642785 6.503505457571 9.676787799051596 0 0 0
1572 1 6.984372704858582 3.833347728885674 3.3506998745681096 0 1 1
1543 1 8.108848183572293 22.27855449536449 4.1728534348858775 0 0 1
1525 1 12.024029265115937 4.682739286471234 2.4679339332742987 0 0 0
203 1 11.349150927812392 3.2153083048016806 4.967901054012075 1 1 0
327 1 17.86474453677604 4.29583506390722 2.3566179350737135 0 0 0
4 1 19.176950659789515 4.125975589813513 5.087330823318167 0 1 1
5024 1 1.0925596674909999 4.803108067835287 17.863599385092414 1 0 0
1547 1 3.5411273500708598 7.721750595614605 3.5156566095677557 1 -1 0
4687 1 1.4914071510269382 9.83638536765875 3.0117954643686486 1 1 1
1397 1 6.27420637844645 10.243994589459431 2.3719183197787297 0 0 0
3237 1 5.935507038036885 8.920563921140142 4.860497537576 0 0 0
87 1 9.40855925564596 5.6550919809882725 2.8635357913703356 0 0 1
44 1 13.855261790657984 6.6024295537179105 2.43789374199741 0 1 1
1622 1 12.707720664964047 9.290315535334818 2.824311845773586 0 1 1
237 1 16.055858368212387 6.079939500891122 3.8120937265993007 0 0 0
150 1 18.1459440178647 8.213292145640743 3.4179688939512345 0 0 1
347 1 20.024858216598272 6.806132381053109 5.1213056285359935 0 0 0
3183 1 22.355941767645465 6.963963108730892 3.482938888272984 0 1 1
4665 1 23.257386956240342 9.761736915637973 1.917748411124044 0 0 1
3392 1 2.0584591441844315 12.368770444445786 2.458799072943004 0 0 0
1550 1 13.661925031123031 23.656869638316845 4.978455548733616 0 0 0
157 1 9.045743186681715 10.974727572028062 1.6828347820873004 0 1 0
40 1 11.292536156495148 12.661192739948115 2.0703113053640045 0 1 0
83 1 13.671759420800134 10.830299755980768 1.0395267851883379 0 0 0
89 1 15.104431396065628 12.863921520718698 1.9232643636490157 0 0 1
13 1 18.7513500525885 9.48362810500762 0.9225849417487318 0 1 1
1614 1 5.4719226933427105 1.348201691550887 3.5537973629740613 0 0 1
3423 1 5.801514975368782 14.468574036159591 3.487577241333592 1 0 0
531 1 10.06699023133169 12.561250801361458 19.92005703188146 0 1 0
346 1 10.95601541069388 14.298954537528996 4.225039060806452 1 0 0
28 1 12.29861251826936 17.107369807801064 3.9283217097499765 0 1 0
1471 1 14.125009073627076 15.707233099008622 2.154198448159239 0 0 1
272 1 18.016112316069076 13.010638578758908 2.7010878074602127 0 0 0
32 1 16.2913246929458 19.68825975678762 1.4751924956449982 0 0 1
34 1 18.768372292136647 15.87669083592529 2.7349980791668123 0 0 0
3526 1 24.294277343802694 15.06750749741133 15.98309076978887 0 1 1
1545 1 23.30105737045006 15.488738108016602 1.4258156859686015 0 0 1
1533 1 2.3601691743645508 19.246986547814895 6.704561230461047 0 0 0
3279 1 1.2414765281554436 18.01652427746844 3.5420046059964965 1 0 0
3210 1 1.221502664404474 5.820150203102416 7.367751192106057 0 0 0
147 1 7.756938519396544 19.50862175394864 3.7861724668508057 0 0 0
1621 1 5.69085788582192 20.175386450506362 2.247022055630297 0 0 0
77 1 9.961248978640889 18.194525997266258 2.654685328084944 0 0 1
1393 1 13.97827067769501 19.396652815861675 3.5447942591828117 0 0 1
1532 1 11.840502309963549 19.88510754328849 1.5955281810289377 0 0 1
168 1 18.786528674307572 19.511950275661817 4.89925131165621 1 0 1
4598 1 19.073559880091967 20.478550200756843 2.261453131816692 0 0 1
1691 1 5.102819008322995 22.55158819430116 4.99298216917419 0 0 1
303 1 19.64412314548147 24.404911823279136 13.958248631374266 0 1 0
518 1 23.73639118971808 23.600360995610874 19.243243567415867 0 0 0
5164 1 7.6574485446419205 12.800211591615238 18.634297760566557 1 0 0
26 1 20.009274070329134 23.956925709139835 5.77899257949478 -1 0 1
3659 1 0.7239304092988673 15.932569394085267 16.421241771245413 0 0 0
102 1 10.47179648399707 22.579438816034262 2.513898086126501 0 0 0
369 1 4.4075169034126755 21.203829773306254 19.786681516642084 1 0 0
367 1 18.055503920152276 21.98834163798832 16.91614992276512 0 0 0
1950 1 19.44364029910251 15.360458236001888 20.089570582445862 0 0 0
3042 1 1.2934871769815546 0.5996702674015016 2.6510540242647687 0 0 1
180 1 22.19632175505163 12.591653449648852 19.989317439862294 0 1 0
98 1 23.259220804696486 11.149746462478774 4.541381361607411 0 1 0
109 1 23.520078513138078 22.797308167182774 2.7047588774184925 0 0 1
269 1 2.916968351313215 1.3002141985547861 4.865767586481421 0 1 1
4905 1 4.6534979767785405 2.2918439138686555 7.157684899817072 0 1 1
1877 1 7.240953386697484 1.3716514842770933 6.192322033618883 0 0 0
1810 1 13.400911183900709 0.9300467169262147 7.898094338196511 0 0 0
141 1 16.236026562251617 1.1862787872345448 7.963635177884062 0 0 0
1504 1 20.701635823240427 1.7604958774895259 4.769200508890141 0 0 1
217 1 20.987743829523954 3.050468189096568 7.729189711341798 0 0 1
3551 1 23.382854333004726 1.7524027141897938 8.405925584435705 0 1 0
3076 1 1.5939312443310318 3.1729283310238166 7.220716090025431 0 1 1
1556 1 3.5812960106453815 7.128338648453229 6.631301076371875 0 1 1
165 1 6.073398910299829 6.719227841868399 8.129355697497722 1 0 0
207 1 8.194399782405151 7.863369216517572 4.538236393837575 1 1 1
1584 1 8.807145240187046 3.5484388514339793 5.5160243514553295 1 0 0
78 1 8.592608601060524 6.004589500657497 6.71861387189353 1 0 1
88 1 12.844285602838834 3.7312855681584565 7.021204042377039 0 0 0
363 1 14.890782931265091 5.507524111959534 6.637812594614425 0 0 0
2996 1 17.166102380564734 3.867372245004656 7.203146388097759 0 1 1
4771 1 2.789476074023585 9.750020702549682 7.364650205975812 1 0 0
414 1 22.437032176046596 22.682439855806685 16.85528514428985 0 0 1
99 1 4.999837597853012 10.905511743134424 6.363393818833868 1 0 1
136 1 9.992918456356312 9.496268088404092 3.8230284674864867 0 1 0
3391 1 9.68039761508806 11.47327317571083 6.245905357808738 0 0 1
244 1 14.408873931382287 10.201684605585777 4.980715644342328 0 0 1
149 1 12.887433972490564 9.180584174170889 7.017241808036878 1 0 0
1566 1 17.50557727161228 9.329213583536722 8.213778378446857 0 1 1
1867 1 15.047446063823807 7.733183073667035 8.196484559517152 0 1 0
1516 1 20.357248754197993 8.260930642327976 7.56984199657753 1 0 0
319 1 18.782050779908868 7.92469410066315 10.50690628527546 0 0 0
277 1 15.16421643504914 18.167669049888044 17.618808562481206 0 0 0
388 1 21.08613215434261 1.2815802130708231 17.578812992471967 0 0 0
1396 1 4.808450089081688 12.111288408202661 3.704937828361807 1 0 1
21 1 11.909864289297971 13.11695940906783 6.516072184686096 1 0 1
1549 1 14.2928348102456 13.101855501251135 4.6945023964358885 0 0 0
225 1 17.2322850181018 9.750346396401033 5.32384882371901 1 1 1
214 1 16.323862778060654 13.80630499051492 6.761868365798939 1 -1 0
236 1 18.353733976160456 12.14078506017827 5.380191513229481 0 0 0
320 1 22.873770292263853 11.999474927940241 7.381589625236842 0 1 0
268 1 20.61638264392015 10.61316548022781 6.036718483087786 1 0 1
1372 1 2.029023866884038 16.551524232579307 5.919450735231463 0 1 1
62 1 8.335768686252514 0.6712535980170773 8.522759677346858 1 1 0
334 1 8.183455198944957 13.59697954357483 4.676327136784974 0 0 0
104 1 6.846429815956355 18.35109176775288 6.199512895360054 1 0 1
4641 1 6.8273479800066035 15.117617579540969 8.10035015299085 0 0 1
74 1 12.733545220254587 16.768029980037856 6.430056667911847 0 0 0
120 1 15.464210852302408 16.65499888664693 6.872530230179503 0 0 1
238 1 19.043600382591258 15.002269036363 7.142454101541741 0 0 0
1576 1 23.140149912866463 13.881856489483154 3.8568660645388984 1 0 0
212 1 21.967903267059768 14.875677447432576 6.308329190740258 0 0 0
289 1 14.510200802551676 23.79389177791196 19.029461524229628 0 0 0
53 1 4.992260753170675 20.26906474464245 6.751774203221903 0 0 0
354 1 9.773160238383301 20.649952394160817 6.2197647516630346 0 0 0
24 1 12.595645104553125 19.562214983263303 7.318144078579066 0 1 1
38 1 16.19736001747287 19.129173077168534 5.523531669558799 0 0 1
306 1 17.0907328621607 18.525651841197075 9.591899769004945 0 0 0
1649 1 19.981495354409702 17.131290792107027 5.315511991840923 0 0 0
6 1 19.416720694038357 21.594728965069987 6.753545971236049 1 0 1
3198 1 22.75744063797707 18.310746620190155 6.531920233206972 0 0 0
313 1 14.928327083040365 16.29391604990788 20.12371063004992 0 1 0
1837 1 24.422164365535888 21.32866985944718 13.251646987880735 0 0 0
342 1 1.3537390990931455 20.726173394027217 4.801008519724728 0 1 0
226 1 9.017604487122728 23.41397418308463 7.025967927004074 0 0 0
1968 1 2.3753271001273433 7.689069832893671 19.333322348706687 0 1 0
42 1 14.803502611932824 21.357274459021383 6.988887143072743 1 0 1
1427 1 12.096213791095554 21.25733770103862 4.911605311152815 0 0 0
1606 1 22.061248222703504 21.016671644410465 7.218574014489783 0 0 0
153 1 23.379262129376023 1.0598741088705745 13.929316680702254 0 0 1
510 1 1.0846257475781913 1.471483355588428 11.240406569080712 0 1 0
3272 1 2.7120547794715173 3.8497558678907096 10.202217745870307 0 0 1
3322 1 5.402981940322839 4.08455557553015 9.084772830780995 1 0 1
1979 1 8.21398811390359 5.291491874844304 10.194913397534396 0 0 0
5137 1 9.323184539754783 2.5974313873868575 10.254310411505527 0 0 0
368 1 13.666485960099164 3.38467099324423 13.102103311323432 0 0 0
396 1 23.663825934305216 7.743597000331988 12.171164785413994 -1 0 0
2101 1 16.167006052221627 5.0177766522461935 11.483006720859883 1 1 0
4943 1 18.237943770592768 1.6935121693241202 12.054366297689137 -1 1 0
1941 1 15.306775814107102 2.1796306993548904 10.624763682095205 0 1 0
441 1 20.552491908367355 20.017479539248235 20.172702573688607 0 0 0
2015 1 8.765066402219867 22.898797143806068 19.07380515287698 1 0 0
3197 1 1.6545669903688196 6.162173895667785 10.303508588476081 1 0 1
1977 1 5.890107349075552 8.255711909224365 10.476679881327314 0 1 1
1866 1 10.241150615510698 7.051559019290787 8.866136793260136 0 1 0
1507 1 12.315311922652114 2.694751132496141 10.042362341495553 1 0 0
46 1 12.083499103102897 5.532988502737895 10.419507416959698 0 1 0
310 1 14.363101643846035 7.009489358327122 10.69937352967744 0 1 0
3203 1 20.046013631392153 3.161933088184398 10.402430152602415 0 0 0
67 1 2.957986792408568 5.810168508921351 1.0750455734532591 1 0 0
205 1 22.234693222111094 3.326145306822701 12.375205410135166 -1 0 0
3515 1 2.875048966728634 8.696244145118468 10.101297618783203 1 1 0
4696 1 1.2810994555781086 10.90483477756264 9.98383399242286 0 0 0
3261 1 7.532762496783457 10.576830054602668 10.039518823521073 1 0 1
378 1 9.918782615455857 9.261799337819006 10.95032439016909 0 1 0
3315 1 12.343036018771802 10.244040013669123 11.079882523170525 0 0 0
267 1 18.240807263860905 5.263156764203022 9.653648870944853 0 0 0
3557 1 19.676602975906402 7.17023264613564 13.14727219088185 0 0 0
3386 1 21.919686937715348 5.930335848081462 13.380563028729199 0 1 0
3455 1 21.06088109462502 8.384276387007787 19.695316677642506 0 0 1
323 1 7.0816090588658165 12.318080914669737 7.624288267371067 1 0 0
340 1 6.044467989051248 15.060606721825033 10.918574033345154 0 1 0
3332 1 13.16109158484691 11.780656914854251 9.128958065069959 0 1 0
249 1 14.233300916465256 13.841451531966397 10.806536599518616 1 1 1
192 1 16.266303838876098 11.949536585260882 8.880471217726226 0 0 0
257 1 19.967890015045782 10.547569166318368 12.015165546123281 0 1 0
379 1 18.227120469778512 12.822173265217549 10.942434353680465 0 0 0
148 1 22.51840741574854 10.203263365513614 11.024194148721591 0 1 0
75 1 5.25313494753761 16.08060796974724 5.798208160836985 1 0 0
117 1 2.906537498349457 17.947506147119814 13.3692491397076 0 0 1
1564 1 2.0564641584888013 23.43285129571893 4.993264521818456 1 0 1
435 1 9.210105592949308 16.407941226775986 9.258346122416713 0 0 0
329 1 11.61276033543667 15.233240458727813 8.212692697002286 0 0 0
139 1 12.46148508123216 15.852493265440375 10.901119378556688 0 1 0
325 1 19.258601429149817 17.28062075477094 11.20617147399565 1 0 0
10 1 16.131044122646127 13.698278854793374 12.69538935776146 1 1 0
295 1 19.801256443598152 14.734188237886903 10.09708485484625 0 0 0
343 1 23.13970968401815 14.757593219902024 9.094678469270319 0 1 0
3408 1 22.540952844431214 13.869600699726291 11.883050534643273 0 1 0
3019 1 1.7029375842211871 19.39172824302214 9.18292481311065 0 0 1
95 1 0.5781059572168404 18.601863450380417 11.768077606500396 0 0 0
301 1 5.336940387681902 21.79447292503277 8.757521824230249 1 0 1
25 1 8.703995936962652 19.000086072952207 8.131481367433118 0 0 1
7 1 6.995960272271794 19.83203906227033 10.052157179707358 0 0 0
400 1 12.542330548464323 20.22321538691862 10.076095291559458 0 0 0
326 1 14.916213991854704 19.495279345761656 11.136258311405843 0 0 1
131 1 14.002051216066793 17.459326493705426 12.563191113869674 0 0 0
3347 1 17.822100642364674 21.220702953305825 9.920084898188883 0 0 0
4707 1 23.40665921997286 17.537805168282304 9.085732047483003 0 0 1
119 1 21.721285635405735 18.908823370283482 10.650922908623032 0 0 1
138 1 12.412723894849337 0.4565735644323436 5.423614214731665 0 1 0
1689 1 6.506873252415106 24.09715464674566 8.228426981115422 0 0 0
49 1 9.93417158781895 23.73602822480296 11.82093567519618 0 0 1
167 1 7.955330765085554 21.76081698404949 12.168173549157677 0 0 0
177 1 12.535809563053812 23.135635555417405 10.500798924485505 0 0 0
107 1 5.22695109561466 23.009116257130554 2.097614237595454 0 0 0
358 1 16.92954926543912 22.76226196655278 7.925953626083501 0 0 0
121 1 18.395172892036836 23.63649531710506 11.618093424318765 0 0 1
3503 1 20.947150417881247 21.341364355063682 9.872325477260576 0 0 0
172 1 22.608450253874164 18.860184912372148 13.279588021458581 0 0 1
3441 1 1.8195005399961648 6.173308248020123 13.131002067843996 1 1 0
122 1 2.6903916608707505 3.074127749323264 13.21246313410868 0 0 1
1557 1 20.87629785759151 16.811378402027977 0.9679761015594228 0 1 1
206 1 9.150892055181526 2.9569307702548726 13.097302299151544 0 1 0
1934 1 13.956908119551146 2.9708210783871762 15.825679772089496 0 1 0
2016 1 11.275334767559086 4.730554960599427 13.0556452741593 0 1 0
336 1 17.373399454089306 5.885975252591523 13.612661227609943 0 1 0
3269 1 1.6737607682078086 10.93587336106345 12.550931652293965 1 0 1
2052 1 18.16301206330422 3.269119987323322 14.657757085230093 0 0 0
5167 1 16.739227494833624 20.158609640903556 15.392680882308161 0 0 0
1939 1 0.5484747384914619 24.488837278723043 20.001551721672666 0 0 0
193 1 16.927304946458193 22.15507029727971 19.49413220749932 1 0 0
3444 1 3.0710159395238015 8.712098164087367 13.217686830993294 0 0 0
146 1 15.970040405048731 11.922865824780905 19.701833386042175 0 0 0
3375 1 5.321019438976533 10.414573247069619 12.797009720452415 1 0 0
274 1 4.642681544947715 5.129637828250108 13.929097311574129 0 0 0
331 1 7.008394747817702 6.678527290643215 12.575069803999511 0 0 0
383 1 7.315580125198656 4.119998984932188 14.613358875708444 0 0 0
1925 1 11.445876643554136 7.138617430047325 13.923749643934366 1 1 1
197 1 15.574159181219578 6.878597456905058 15.37182135818308 0 0 0
416 1 21.93748323245961 5.616023442780139 16.24483790429498 0 0 0
3271 1 3.5654222687501895 12.626816267013913 14.27434458044205 0 0 0
246 1 1.3709173013727507 14.179888743492631 10.914677029045922 0 0 0
3340 1 9.04291060309979 8.445636305810337 13.528828895499032 0 0 0
3524 1 11.607828637384957 7.051770156599085 16.659606663392424 0 0 0
287 1 14.003492733188498 8.346516182556144 13.419485527585799 0 0 0
224 1 17.001362449326436 8.738229234434009 17.09767545924183 0 1 0
1642 1 19.433774255240387 9.080739100494556 15.685535441658802 0 0 0
337 1 12.606583177082033 19.090394685388354 16.684808723779447 0 0 0
93 1 3.807076847233609 15.297321237383407 12.371232539410371 0 0 0
4777 1 6.935158909896669 12.676058745298171 11.949671637404938 1 0 0
5087 1 6.200280031823628 10.409216217476448 15.507524547084527 0 0 0
3584 1 3.559544795836892 11.392579007968202 16.8663232720278 0 0 0
398 1 8.762441259716997 13.413651613124207 14.187828881409564 0 0 0
1857 1 8.839034225786037 10.833564844118536 15.174027088254457 0 1 0
361 1 13.238887144686592 12.184506403481283 13.28923021161194 0 0 0
90 1 13.478663210804868 11.152279877968239 17.815619073236675 0 0 0
71 1 16.703050220576362 12.33218374241554 14.847683097848254 0 0 1
3435 1 14.560986444645776 10.418755745931515 15.203898307146654 0 0 0
282 1 19.449243347810068 11.675985608534933 14.719243656672571 0 0 0
293 1 5.137158498500415 15.710327086876706 17.3058298118786 0 0 0
3232 1 23.546672442866424 17.399627212176014 16.971927326489634 0 0 0
255 1 5.846545457366747 18.071819834777013 12.009824317857081 0 1 0
86 1 11.175316039722807 14.708626702275328 13.328739723457458 1 0 0
487 1 9.3996905760537 16.755824304809398 11.95761334831534 1 0 0
248 1 17.624192797870645 17.300002955422872 15.663126312100927 0 0 0
158 1 14.484119761775741 15.036652183452212 17.344035526961772 0 0 0
397 1 16.682416298927713 16.28002151502301 12.942766539370036 0 0 0
3333 1 21.808801374460856 14.372437630897686 14.429166114016306 0 0 0
387 1 20.932549235529628 13.058359433422284 16.904834364924298 0 0 0
3296 1 3.2719169120642575 17.548836707052214 16.23237428624309 1 0 0
4921 1 2.948790606039963 21.020680115290602 15.893947216395288 1 0 0
156 1 3.3395865503636437 21.387974111275998 10.71704811341346 0 0 0
101 1 4.539847760588627 20.41666136784283 13.5806544483318 0 0 0
442 1 7.558170317788304 17.15020645112021 13.98584302922548 0 0 0
273 1 8.547592623045297 19.10515376770412 15.925287390926965 0 0 0
1811 1 12.743473508905286 16.528216817894414 15.283388868564064 0 1 0
1879 1 11.189860657930133 18.806244715708104 12.178979807763863 0 1 0
164 1 20.312837878731163 16.87616819714756 13.810449875349718 0 0 0
2 1 20.85116048672938 17.857802177117716 16.630706502154613 0 0 0
3309 1 2.3968130377012424 23.6970601405913 11.91684423441011 0 0 0
3366 1 1.9222905747946717 23.65895395494673 14.926968289647856 0 0 0
4863 1 6.594104053588512 22.32711502531302 14.611969784023689 0 0 0
152 1 24.300880979492252 21.257472741507858 5.218325608066586 0 1 0
3275 1 7.772329831997067 21.560100083096607 16.830814808707746 0 0 0
355 1 1.1633199833254555 14.196821871156072 14.08339401926033 0 0 0
290 1 11.300009301325634 20.059578038574504 14.774821193918374 0 0 1
228 1 16.580907734874987 21.38189426887596 12.631520159122852 0 0 0
222 1 14.508650080237683 23.278586436706508 12.437819177255154 0 0 0
420 1 14.134996757085178 21.683040866167715 16.992382101914053 0 0 0
3379 1 3.491864561444789 1.0589750072999666 19.58061102452608 1 1 0
3228 1 12.222208775727038 0.7404898564991476 16.272562025681523 1 0 1
4957 1 4.4277237982617335 1.9585004456317836 17.04230909114384 1 1 1
259 1 7.708455611816182 2.839035343315481 17.07580830418527 0 0 1
2032 1 10.498390498892975 2.2513870009997796 17.549092315993224 1 1 0
3516 1 15.945486305667483 2.992993663275593 19.304380612440056 0 0 0
284 1 16.34437745108728 1.9634089268750206 16.62728033646545 0 0 1
5142 1 22.68215686346861 1.1741221584316852 1.305865763529823 0 1 0
360 1 10.60690155176654 22.956934071257344 14.282303651843725 1 1 0
3572 1 20.652484554572403 20.455899469737822 17.132362308594434 0 0 0
3452 1 0.9375873222830226 6.815592811709336 15.710566576786324 1 0 0
1882 1 4.380609605736093 24.168621806618866 19.43359672932 0 0 0
5125 1 3.893726943026352 4.842823181699018 16.827714769553886 1 0 0
315 1 9.546292041663225 5.2854995004807135 17.948878542092054 0 1 0
285 1 1.7122875853467932 21.962567880253822 19.29886824420632 0 0 0
1933 1 14.839538033538119 5.480652976582991 19.37074783652174 0 1 0
1924 1 14.017142126124778 5.58627770597243 16.99362638706088 0 1 0
64 1 19.852268489457213 3.905882741992957 19.45397446381403 0 1 0
335 1 20.08669500060515 3.829233900300592 16.50033859980786 0 0 0
143 1 22.94127885151811 8.979289540379412 8.505169225547778 0 0 0
261 1 23.989732432689184 3.9323300554613527 17.672511429336573 0 1 0
3522 1 1.0684431344835736 11.963512904398204 17.917560307888213 0 0 0
3460 1 2.693695399147214 8.846662150880768 16.418686790809872 1 0 0
59 1 5.564105929878642 7.718155934735895 15.452552709351476 1 1 0
428 1 8.54909257263322 10.438327486926562 17.87346278366163 0 0 0
294 1 7.1830677612300775 7.193041255910138 17.64855851413634 0 1 0
1465 1 14.741083936560983 23.977155769730807 2.4179939546852522 0 1 1
278 1 11.443488956104268 9.378668166693913 18.121145830755545 0 1 0
2039 1 16.511697140491766 7.576955885344588 19.509567345319784 0 1 0
3609 1 24.101143408855883 17.265512231835526 19.717019073193832 0 0 0
1834 1 12.314020574605706 1.27793479106455 12.815864356152238 0 1 0
395 1 24.1607423290835 10.056397472470517 16.858553314711664 0 0 0
239 1 21.80651439647492 8.365844342232325 17.23445179056806 0 0 0
3329 1 1.0682799151570042 14.416582503874196 19.071126467549092 1 0 0
1984 1 4.504987689547912 14.66590054773525 19.780188394087013 0 1 0
406 1 4.868458895199226 12.064668841955173 19.260984919383162 0 0 0
3555 1 6.139042519882114 4.733555728591983 18.612977533046752 0 1 0
302 1 10.450691559291343 18.270706462052406 18.35932409503006 0 0 0
316 1 12.430815420465581 13.468808363754539 18.686604843971224 1 0 0
4640 1 0.5847376410665643 10.014775576119002 5.855303028570422 1 0 0
291 1 16.699385867070543 13.69157042558684 17.52758327111559 0 0 0
2152 1 24.18786009730273 1.2811148454393677 16.759984130656477 0 1 0
410 1 23.692278157594117 12.642386418284811 17.5787261566545 0 1 0
31 1 2.854834469521955 17.283904613216635 1.3462510350331534 0 0 1
3666 1 5.319923584769188 20.467228953188247 17.345505652311928 1 0 0
348 1 6.574925319768997 18.0828047413196 18.134890939932983 0 1 0
4907 1 6.639355467413638 0.255777127301684 16.711834314136908 0 0 0
548 1 8.079862153544836 14.691247149922745 16.79444080797381 0 0 0
3328 1 5.820436993685595 14.567265005067547 14.654350206699746 0 0 1
405 1 10.873634146945037 15.716500463650448 17.63478087473572 1 0 0
108 1 2.801909749484885 24.306594384241365 2.3577462016860293 0 0 0
5025 1 2.7383660970562556 0.8554681574769163 15.111149733301938 1 1 0
39 1 19.13398665531919 15.473271291469324 17.463401958341713 0 0 1
1938 1 16.282007856315417 19.638388987569 20.014221225506645 0 0 0
204 1 23.754626184372036 5.789300666139177 5.766148501636116 0 1 0
201 1 9.939027004870399 0.3367913149749269 14.31107652684324 0 1 0
1858 1 7.397856755545722 8.782229963181903 20.148067419545185 0 1 0
1874 1 22.52902364721991 3.934889843622743 20.271529793861898 0 1 0
33 1 4.974996716621924 15.437409291853763 1.029048545864832 0 0 0
546 1 2.391515020968677 2.2937945686109256 23.91798028110217 1 1 0
241 1 1.5197664254487249 2.375040000246495 21.24428755244042 0 0 0
3690 1 5.09998683168925 3.1022628734354813 23.430084293658485 0 1 0
2041 1 6.402287737926818 0.807781323749677 24.05735493486005 0 1 0
1292 1 7.323828426299031 23.122819847649524 36.28768853007828 1 0 0
5297 1 22.043416306237006 0.4349031579443879 36.276601583206926 0 1 0
370 1 11.127056850908552 2.2443024630974335 24.212574075855564 1 0 1
2111 1 13.690048177887329 1.3891831225356412 23.63925796003825 0 0 0
3378 1 6.980978525181881 21.821017922936562 21.131997284030994 0 0 0
298 1 17.276897993351717 23.49195732626338 23.145139394914427 0 0 1
2066 1 11.118355048804958 22.481252460291756 20.604394481512923 0 0 0
4575 1 24.416418715091538 10.925406485508125 35.898904386426345 0 1 0
1923 1 18.81911631481707 1.7507491887175983 24.10849123777715 0 0 0
1836 1 21.64758517974231 1.6979346688739763 23.705566819703098 0 0 0
1861 1 23.32877486022551 1.1660421085321258 21.108358988878997 0 0 0
3446 1 0.17291870649638053 4.440293796495464 23.954886596541893 1 0 0
3517 1 4.372127766129905 7.808485029174877 23.646313913562693 0 0 0
5327 1 6.216867847841622 5.796329538017082 23.360762631420396 0 1 0
5131 1 8.421335838808995 7.227430909052148 24.494389154588404 1 1 0
270 1 10.517947534500419 5.217608891072109 23.94405549345932 0 0 1
5017 1 7.610332977123133 6.067282397385272 20.948426522897453 1 1 0
481 1 0.8564706891043864 22.96082646092786 37.59434929833289 1 0 0
2023 1 13.244794243814326 5.7673968155163955 23.64664965301228 0 1 0
2051 1 17.795324381044257 4.140153272128401 23.0561564643694 1 0 0
2048 1 19.05056997988118 6.8117803521596505 20.422150579350863 0 1 0
446 1 18.58032309250488 18.316467922185762 20.79710550640633 0 0 0
1864 1 23.446636929764196 3.7622994678538815 23.192698652046634 0 1 0
3495 1 5.3437904732419295 10.72361554960392 23.95860372966704 0 0 0
3456 1 0.29432162753569946 12.04915074776303 24.101752439944164 1 0 0
3701 1 22.938215532023193 6.380208187785371 38.99027285408862 -1 0 -1
1928 1 8.077543954499918 11.56479418976817 23.880851904581522 0 1 0
5082 1 9.015283073223078 8.858482623722479 22.38176449664989 1 1 0
382 1 11.62462557099093 9.923051252175688 23.33935026894615 0 0 0
423 1 14.036498331235824 8.458444040852402 24.117906854269453 0 0 0
209 1 16.613947641351515 9.093118635850539 23.65454551440186 0 1 1
321 1 18.750685450795498 6.737467117040878 23.06208756861374 0 0 0
373 1 21.967950476156606 6.403493599004596 23.96162657831033 0 0 0
1390 1 1.8616959749954034 3.8677732451372426 38.978377811741325 0 0 0
3570 1 3.031569479528608 12.470397487607986 23.4151721123624 1 1 0
5173 1 9.96330836587914 4.76137735590634 20.929402640603342 1 1 0
390 1 7.043581203082223 14.67139693134669 21.07438280721754 0 0 0
3643 1 4.723748010891849 14.839406020913602 23.920358993828657 1 1 0
322 1 10.481882923106395 12.411124632205587 22.64964981807486 0 1 0
439 1 14.388583203388263 13.864428411893071 20.906216287007844 0 0 0
417 1 13.03546108225484 14.230239380091724 23.50947543259648 0 0 0
126 1 10.912666242164159 1.8637765758232918 21.12952436979204 0 0 0
407 1 21.14916340297382 9.172333044834813 23.542713410487355 0 0 0
376 1 18.79128943351094 10.831707477239641 24.289076565781674 0 0 0
465 1 6.821563398126851 0.10015399279275528 36.07098071015771 0 0 0
339 1 23.95253638551336 10.972048903465543 23.898596346424004 0 0 0
495 1 22.244025360971765 3.6556238007659734 39.609283943572976 0 0 0
5234 1 5.71710048500222 23.657517967210573 24.25699572724666 1 0 0
3544 1 2.8669861736429385 16.81169065411684 24.014184504786147 0 0 0
3547 1 4.375211918242001 19.52279669792934 23.85020764329715 1 0 0
333 1 9.68366052234626 15.449714294313182 20.683644867872946 0 0 0
328 1 6.457269709247151 20.947072744299756 23.785503881194312 0 0 0
263 1 10.2494622927737 15.504053047842897 23.474675344529675 0 0 0
5221 1 11.16920418648855 18.24746473027919 23.92032082940805 1 0 0
427 1 11.056141122544515 17.95502325454299 20.960039575874752 0 0 0
351 1 21.867744794592685 23.743879310995297 21.763864444059607 0 0 1
297 1 15.89904526935081 15.33070883602189 23.76149254495094 0 0 0
30 1 18.48528072892056 13.719089366453337 23.7042871174503 0 0 0
161 1 20.22324135356029 15.968393192517832 23.995353869438922 0 0 0
411 1 22.84201696521721 15.228573090010874 23.63384337874298 -1 0 0
3287 1 22.026511098745164 15.567556115398608 20.64203726914615 0 0 0
4853 1 0.41592566696856675 20.189285579493237 20.96961585530417 0 0 1
3431 1 1.5385755884935126 23.405598154363894 23.91485458361426 1 0 0
474 1 4.717544471016536 18.66239520107414 21.044008365600767 0 0 0
3586 1 1.9069446158225474 21.076310991980545 23.208971876779426 1 0 0
271 1 9.33016984454613 20.310293762570275 24.100320224409373 0 1 0
2058 1 13.842008084406057 19.550564137322826 24.122846252532224 0 0 0
371 1 16.178011045081156 17.916874674819912 24.10877793315687 0 0 0
3409 1 18.7819088296644 18.2434792644241 23.368117493398664 0 0 0
2014 1 5.812581647118379 2.737780041681733 20.658814412221822 0 1 0
1865 1 12.462838632051636 6.232556882338013 20.76023061457712 0 1 0
362 1 23.892345956662073 17.81193467525146 23.807462554293988 0 0 0
345 1 23.171148447204367 19.390954143983258 21.200519829942326 0 1 0
1821 1 22.578436274642815 20.38991030425245 24.06223136365645 0 0 0
1298 1 15.203468674081694 23.805240839011454 35.84103732086879 0 1 0
124 1 13.953835533808629 1.4042106691571288 20.654198985354668 0 1 0
1418 1 3.6143036305348355 17.13038225938681 39.266446655156486 0 0 0
3421 1 0.24740119261962712 16.997816886870353 24.30398368197468 1 0 0
252 1 7.934543490444634 1.0012403227749542 21.087457362491396 0 0 1
3457 1 2.6423027268668138 16.533488965185118 21.14620611884037 1 0 0
227 1 10.340849920044658 23.214877711616168 23.29226042805165 0 0 0
3702 1 18.045145428823865 10.963267980906414 39.09778096307322 0 0 0
1502 1 15.280077523256804 15.645249285926736 39.090241007878426 0 1 -1
469 1 7.191220916689502 17.60850080285722 20.766235148431598 0 0 0
1754 1 14.88448656866371 22.364886826614573 24.25149924467769 0 0 0
288 1 19.29694218265407 22.213646851372456 21.396923060775954 0 0 0
47 1 19.906759527337673 20.673730997866823 23.83574781015951 0 0 0
1946 1 23.86890210429067 22.618535022408086 23.843453367336252 0 0 0
3660 1 1.5673257968903853 6.986397440634008 23.931004273703774 0 0 0
554 2 0.0 2.8417180249513345 26.677 0 0 0
556 2 0.0 0.0 26.677 0 0 0
558 2 1.2305 0.7104295062378347 26.677 0 0 0
565 2 1.2305 2.1312885187135 26.677 0 0 0
567 2 2.461 2.8417180249513345 26.677 0 0 0
569 2 2.461 0.0 26.677 0 0 0
571 2 3.6915 0.7104295062378347 26.677 0 0 0
586 2 3.6914999999999996 2.1312885187135 26.677 0 0 0
588 2 4.922 2.841718024951334 26.677 0 0 0
590 2 4.922 0.0 26.677 0 0 0
592 2 6.1525 0.7104295062378343 26.677 0 0 0
615 2 6.1525 2.1312885187134993 26.677 0 0 0