LAMMPS data file via write_data, version 29 Oct 2020, timestep = 150000

4065 atoms
2 atom types

0.0 49.22 xlo xhi
0.0 49.019635930410494 ylo yhi
2.082955991275508 25.75787625500899 zlo zhi

Masses

1 18.015
2 12.01

Atoms # atomic

83 2 0.0 2.8417180249513345 3.5090211652998864 0 0 0
85 2 0.0 0.0 3.5090211652998864 0 0 0
87 2 1.2305000000000001 0.7104295062378347 3.5090211652998864 0 0 0
94 2 1.2305000000000001 2.1312885187135 3.5090211652998864 0 0 0
96 2 2.4610000000000003 2.8417180249513345 3.5090211652998864 0 0 0
98 2 2.4610000000000003 0.0 3.5090211652998864 0 0 0
100 2 3.6915000000000004 0.7104295062378347 3.5090211652998864 0 0 0
115 2 3.6914999999999996 2.1312885187135 3.5090211652998864 0 0 0
117 2 4.922000000000001 2.841718024951333 3.5090211652998864 0 0 0
119 2 4.922000000000001 0.0 3.5090211652998864 0 0 0
121 2 6.1525 0.7104295062378341 3.5090211652998864 0 0 0
144 2 6.1525 2.131288518713499 3.5090211652998864 0 0 0
146 2 7.382999999999999 2.8417180249513345 3.5090211652998864 0 0 0
148 2 7.382999999999999 0.0 3.5090211652998864 0 0 0
150 2 8.613499999999998 0.7104295062378341 3.5090211652998864 0 0 0
181 2 8.613499999999998 2.1312885187135002 3.5090211652998864 0 0 0
183 2 9.844000000000001 2.841718024951333 3.5090211652998864 0 0 0
185 2 9.844000000000001 0.0 3.5090211652998864 0 0 0
187 2 11.074500000000002 0.7104295062378333 3.5090211652998864 0 0 0
226 2 11.074500000000002 2.1312885187135002 3.5090211652998864 0 0 0
228 2 12.305 2.841718024951333 3.5090211652998864 0 0 0
230 2 12.305 0.0 3.5090211652998864 0 0 0
232 2 13.5355 0.7104295062378352 3.5090211652998864 0 0 0
273 2 13.5355 2.1312885187134984 3.5090211652998864 0 0 0
275 2 14.765999999999998 2.841718024951335 3.5090211652998864 0 0 0
277 2 14.765999999999998 0.0 3.5090211652998864 0 0 0
279 2 15.996500000000003 0.7104295062378352 3.5090211652998864 0 0 0
320 2 15.996500000000003 2.1312885187135002 3.5090211652998864 0 0 0
580 2 17.226999999999997 2.841718024951333 3.5090211652998864 0 0 0
582 2 17.227 0.0 3.5090211652998864 0 0 0
584 2 18.457499999999996 0.7104295062378333 3.5090211652998864 0 0 0
591 2 18.4575 2.1312885187135002 3.5090211652998864 0 0 0
593 2 19.688000000000002 2.8417180249513363 3.5090211652998864 0 0 0
595 2 19.688000000000002 0.0 3.5090211652998864 0 0 0
597 2 20.918499999999998 0.7104295062378405 3.5090211652998864 0 0 0
612 2 20.918499999999998 2.1312885187135002 3.5090211652998864 0 0 0
614 2 22.149000000000004 2.8417180249513407 3.5090211652998864 0 0 0
616 2 22.149000000000004 0.0 3.5090211652998864 0 0 0
618 2 23.3795 0.7104295062378405 3.5090211652998864 0 0 0
641 2 23.3795 2.1312885187135002 3.5090211652998864 0 0 0
90 2 0.0 4.262577037427 3.5090211652998864 0 0 0
92 2 1.2305000000000001 4.973006543664834 3.5090211652998864 0 0 0
107 2 1.2305000000000001 6.393865556140498 3.5090211652998864 0 0 0
111 2 2.4610000000000003 4.262577037427 3.5090211652998864 0 0 0
113 2 3.6914999999999996 4.973006543664834 3.5090211652998864 0 0 0
136 2 3.6914999999999996 6.393865556140498 3.5090211652998864 0 0 0
140 2 4.922000000000001 4.262577037426998 3.5090211652998864 0 0 0
142 2 6.1525 4.973006543664834 3.5090211652998864 0 0 0
173 2 6.1525 6.393865556140498 3.5090211652998864 0 0 0
177 2 7.382999999999999 4.262577037427 3.5090211652998864 0 0 0
179 2 8.6135 4.973006543664834 3.5090211652998864 0 0 0
218 2 8.6135 6.393865556140498 3.5090211652998864 0 0 0
222 2 9.844000000000001 4.2625770374270004 3.5090211652998864 0 0 0
224 2 11.074500000000002 4.973006543664834 3.5090211652998864 0 0 0
265 2 11.074500000000002 6.393865556140498 3.5090211652998864 0 0 0
269 2 12.305 4.262577037426998 3.5090211652998864 0 0 0
271 2 13.5355 4.973006543664834 3.5090211652998864 0 0 0
312 2 13.5355 6.393865556140498 3.5090211652998864 0 0 0
316 2 14.766000000000002 4.262577037426998 3.5090211652998864 0 0 0
318 2 15.996499999999997 4.973006543664834 3.5090211652998864 0 0 0
354 2 15.996500000000003 6.393865556140498 3.5090211652998864 0 0 0
587 2 17.226999999999997 4.2625770374270004 3.5090211652998864 0 0 0
589 2 18.4575 4.973006543664837 3.5090211652998864 0 0 0
604 2 18.457499999999996 6.393865556140501 3.5090211652998864 0 0 0
608 2 19.688000000000002 4.2625770374270004 3.5090211652998864 0 0 0
610 2 20.9185 4.973006543664837 3.5090211652998864 0 0 0
633 2 20.9185 6.393865556140501 3.5090211652998864 0 0 0
637 2 22.149000000000004 4.2625770374270004 3.5090211652998864 0 0 0
639 2 23.3795 4.973006543664837 3.5090211652998864 0 0 0
665 2 23.3795 6.393865556140501 3.5090211652998864 0 0 0
88 2 0.0 7.104295062378334 3.5090211652998864 0 0 0
103 2 0.0 8.525154074854 3.5090211652998864 0 0 0
105 2 1.2305000000000001 9.235583581091834 3.5090211652998864 0 0 0
109 2 2.4610000000000003 7.104295062378334 3.5090211652998864 0 0 0
132 2 2.4610000000000003 8.525154074854 3.5090211652998864 0 0 0
134 2 3.6915000000000004 9.235583581091834 3.5090211652998864 0 0 0
138 2 4.922000000000001 7.104295062378334 3.5090211652998864 0 0 0
169 2 4.922000000000001 8.525154074854 3.5090211652998864 0 0 0
171 2 6.1525 9.235583581091834 3.5090211652998864 0 0 0
175 2 7.383000000000001 7.104295062378334 3.5090211652998864 0 0 0
214 2 7.383000000000001 8.525154074854 3.5090211652998864 0 0 0
216 2 8.613499999999998 9.235583581091834 3.5090211652998864 0 0 0
220 2 9.844000000000001 7.104295062378334 3.5090211652998864 0 0 0
261 2 9.844000000000001 8.525154074853996 3.5090211652998864 0 0 0
263 2 11.074500000000002 9.235583581091834 3.5090211652998864 0 0 0
267 2 12.305 7.104295062378334 3.5090211652998864 0 0 0
308 2 12.305 8.525154074854 3.5090211652998864 0 0 0
310 2 13.5355 9.235583581091829 3.5090211652998864 0 0 0
314 2 14.765999999999998 7.104295062378331 3.5090211652998864 0 0 0
350 2 14.765999999999998 8.525154074854 3.5090211652998864 0 0 0
352 2 15.996500000000003 9.235583581091836 3.5090211652998864 0 0 0
585 2 17.227 7.104295062378336 3.5090211652998864 0 0 0
600 2 17.226999999999997 8.525154074854 3.5090211652998864 0 0 0
602 2 18.4575 9.235583581091836 3.5090211652998864 0 0 0
606 2 19.688000000000002 7.104295062378336 3.5090211652998864 0 0 0
629 2 19.688000000000002 8.525154074854001 3.5090211652998864 0 0 0
631 2 20.9185 9.235583581091834 3.5090211652998864 0 0 0
635 2 22.149000000000004 7.104295062378334 3.5090211652998864 0 0 0
661 2 22.149000000000004 8.525154074854001 3.5090211652998864 0 0 0
663 2 23.3795 9.235583581091834 3.5090211652998864 0 0 0
101 2 0.0 11.366872099805333 3.5090211652998864 0 0 0
124 2 0.0 12.787731112280996 3.5090211652998864 0 0 0
126 2 1.2305000000000001 13.49816061851883 3.5090211652998864 0 0 0
128 2 1.2305000000000001 10.656442593567498 3.5090211652998864 0 0 0
130 2 2.4610000000000003 11.366872099805333 3.5090211652998864 0 0 0
161 2 2.4610000000000003 12.787731112280996 3.5090211652998864 0 0 0
163 2 3.6915000000000004 13.49816061851883 3.5090211652998864 0 0 0
165 2 3.6914999999999996 10.6564425935675 3.5090211652998864 0 0 0
167 2 4.922000000000001 11.366872099805333 3.5090211652998864 0 0 0
206 2 4.922000000000001 12.787731112280996 3.5090211652998864 0 0 0
208 2 6.152499999999999 13.49816061851883 3.5090211652998864 0 0 0
210 2 6.1525 10.6564425935675 3.5090211652998864 0 0 0
212 2 7.382999999999999 11.366872099805333 3.5090211652998864 0 0 0
253 2 7.382999999999999 12.787731112280996 3.5090211652998864 0 0 0
255 2 8.6135 13.498160618518835 3.5090211652998864 0 0 0
257 2 8.613499999999998 10.656442593567498 3.5090211652998864 0 0 0
259 2 9.844000000000001 11.366872099805333 3.5090211652998864 0 0 0
300 2 9.844000000000001 12.787731112280996 3.5090211652998864 0 0 0
302 2 11.074500000000002 13.49816061851883 3.5090211652998864 0 0 0
304 2 11.074500000000002 10.656442593567498 3.5090211652998864 0 0 0
306 2 12.304999999999998 11.366872099805333 3.5090211652998864 0 0 0
342 2 12.305 12.787731112280996 3.5090211652998864 0 0 0
344 2 13.5355 13.498160618518835 3.5090211652998864 0 0 0
346 2 13.5355 10.6564425935675 3.5090211652998864 0 0 0
348 2 14.765999999999998 11.366872099805333 3.5090211652998864 0 0 0
376 2 14.765999999999998 12.787731112280996 3.5090211652998864 0 0 0
378 2 15.996500000000003 13.498160618518835 3.5090211652998864 0 0 0
380 2 15.996499999999997 10.6564425935675 3.5090211652998864 0 0 0
598 2 17.227 11.366872099805333 3.5090211652998864 0 0 0
621 2 17.227 12.787731112280996 3.5090211652998864 0 0 0
623 2 18.4575 13.49816061851883 3.5090211652998864 0 0 0
625 2 18.4575 10.6564425935675 3.5090211652998864 0 0 0
627 2 19.688000000000002 11.366872099805333 3.5090211652998864 0 0 0
653 2 19.688000000000002 12.787731112280996 3.5090211652998864 0 0 0
655 2 20.9185 13.498160618518835 3.5090211652998864 0 0 0
657 2 20.918499999999998 10.6564425935675 3.5090211652998864 0 0 0
659 2 22.149000000000004 11.366872099805333 3.5090211652998864 0 0 0
685 2 22.149000000000004 12.787731112280996 3.5090211652998864 0 0 0
687 2 23.3795 13.498160618518835 3.5090211652998864 0 0 0
689 2 23.3795 10.656442593567498 3.5090211652998864 0 0 0
122 2 0.0 15.629449137232333 3.5090211652998864 0 0 0
153 2 0.0 17.050308149708 3.5090211652998864 0 0 0
157 2 1.2305000000000001 14.919019630994494 3.5090211652998864 0 0 0
159 2 2.4610000000000003 15.629449137232328 3.5090211652998864 0 0 0
198 2 2.4610000000000003 17.050308149708 3.5090211652998864 0 0 0
202 2 3.6915000000000004 14.919019630994494 3.5090211652998864 0 0 0
204 2 4.922000000000001 15.629449137232333 3.5090211652998864 0 0 0
245 2 4.922000000000001 17.050308149708 3.5090211652998864 0 0 0
249 2 6.152499999999999 14.919019630994494 3.5090211652998864 0 0 0
251 2 7.382999999999999 15.629449137232333 3.5090211652998864 0 0 0
292 2 7.383000000000001 17.050308149708 3.5090211652998864 0 0 0
296 2 8.6135 14.919019630994494 3.5090211652998864 0 0 0
298 2 9.844000000000001 15.629449137232328 3.5090211652998864 0 0 0
334 2 9.844000000000001 17.050308149708 3.5090211652998864 0 0 0
338 2 11.074500000000002 14.919019630994494 3.5090211652998864 0 0 0
340 2 12.305 15.629449137232333 3.5090211652998864 0 0 0
368 2 12.304999999999998 17.050308149708 3.5090211652998864 0 0 0
372 2 13.5355 14.919019630994494 3.5090211652998864 0 0 0
374 2 14.766000000000002 15.629449137232333 3.5090211652998864 0 0 0
394 2 14.766000000000002 17.050308149708 3.5090211652998864 0 0 0
398 2 15.996500000000003 14.9190196309945 3.5090211652998864 0 0 0
619 2 17.227 15.629449137232333 3.5090211652998864 0 0 0
645 2 17.226999999999997 17.050308149708002 3.5090211652998864 0 0 0
649 2 18.4575 14.9190196309945 3.5090211652998864 0 0 0
651 2 19.688000000000002 15.629449137232333 3.5090211652998864 0 0 0
677 2 19.688000000000002 17.05030814970799 3.5090211652998864 0 0 0
681 2 20.918499999999998 14.919019630994494 3.5090211652998864 0 0 0
683 2 22.149000000000004 15.629449137232333 3.5090211652998864 0 0 0
704 2 22.149000000000004 17.05030814970799 3.5090211652998864 0 0 0
708 2 23.3795 14.919019630994494 3.5090211652998864 0 0 0
151 2 0.0 19.89202617465933 3.5090211652998864 0 0 0
155 2 1.2305000000000001 17.76073765594583 3.5090211652998864 0 0 0
194 2 1.2305000000000001 19.181596668421495 3.5090211652998864 0 0 0
196 2 2.4610000000000003 19.89202617465933 3.5090211652998864 0 0 0
200 2 3.6914999999999996 17.76073765594583 3.5090211652998864 0 0 0
241 2 3.6914999999999996 19.181596668421495 3.5090211652998864 0 0 0
243 2 4.922000000000001 19.89202617465933 3.5090211652998864 0 0 0
247 2 6.1525 17.76073765594583 3.5090211652998864 0 0 0
288 2 6.1525 19.181596668421495 3.5090211652998864 0 0 0
290 2 7.382999999999999 19.89202617465933 3.5090211652998864 0 0 0
294 2 8.613499999999998 17.76073765594583 3.5090211652998864 0 0 0
330 2 8.6135 19.181596668421495 3.5090211652998864 0 0 0
332 2 9.844000000000001 19.892026174659335 3.5090211652998864 0 0 0
336 2 11.074500000000002 17.760737655945835 3.5090211652998864 0 0 0
364 2 11.074500000000002 19.181596668421495 3.5090211652998864 0 0 0
366 2 12.305000000000005 19.892026174659335 3.5090211652998864 0 0 0
370 2 13.5355 17.760737655945835 3.5090211652998864 0 0 0
390 2 13.5355 19.181596668421495 3.5090211652998864 0 0 0
392 2 14.766000000000002 19.89202617465933 3.5090211652998864 0 0 0
396 2 15.996500000000003 17.76073765594583 3.5090211652998864 0 0 0
408 2 15.996500000000003 19.181596668421495 3.5090211652998864 0 0 0
643 2 17.227 19.892026174659335 3.5090211652998864 0 0 0
647 2 18.4575 17.76073765594583 3.5090211652998864 0 0 0
673 2 18.457499999999996 19.181596668421495 3.5090211652998864 0 0 0
675 2 19.688000000000002 19.892026174659335 3.5090211652998864 0 0 0
679 2 20.9185 17.76073765594583 3.5090211652998864 0 0 0
700 2 20.918499999999998 19.181596668421495 3.5090211652998864 0 0 0
702 2 22.149000000000004 19.892026174659335 3.5090211652998864 0 0 0
706 2 23.3795 17.760737655945835 3.5090211652998864 0 0 0
719 2 23.3795 19.181596668421495 3.5090211652998864 0 0 0
188 2 0.0 24.154603212086325 3.5090211652998864 0 0 0
190 2 0.0 21.312885187135 3.5090211652998864 0 0 0
192 2 1.2304999999999993 22.023314693372832 3.5090211652998864 0 0 0
233 2 1.2304999999999993 23.4441737058485 3.5090211652998864 0 0 0
235 2 2.4610000000000003 24.154603212086325 3.5090211652998864 0 0 0
237 2 2.4610000000000003 21.312885187134995 3.5090211652998864 0 0 0
239 2 3.6914999999999996 22.023314693372832 3.5090211652998864 0 0 0
280 2 3.6915000000000004 23.4441737058485 3.5090211652998864 0 0 0
282 2 4.922000000000001 24.154603212086325 3.5090211652998864 0 0 0
284 2 4.922000000000001 21.312885187134995 3.5090211652998864 0 0 0
286 2 6.152499999999999 22.023314693372832 3.5090211652998864 0 0 0
322 2 6.1525 23.4441737058485 3.5090211652998864 0 0 0
324 2 7.383000000000001 24.154603212086336 3.5090211652998864 0 0 0
326 2 7.382999999999999 21.312885187135 3.5090211652998864 0 0 0
328 2 8.6135 22.023314693372832 3.5090211652998864 0 0 0
356 2 8.613499999999998 23.4441737058485 3.5090211652998864 0 0 0
358 2 9.844000000000001 24.154603212086336 3.5090211652998864 0 0 0
360 2 9.844000000000001 21.312885187135 3.5090211652998864 0 0 0
362 2 11.074500000000002 22.023314693372832 3.5090211652998864 0 0 0
382 2 11.074500000000002 23.4441737058485 3.5090211652998864 0 0 0
384 2 12.305 24.154603212086325 3.5090211652998864 0 0 0
386 2 12.305 21.312885187135 3.5090211652998864 0 0 0
388 2 13.5355 22.023314693372832 3.5090211652998864 0 0 0
400 2 13.5355 23.4441737058485 3.5090211652998864 0 0 0
402 2 14.766000000000002 24.154603212086325 3.5090211652998864 0 0 0
404 2 14.765999999999998 21.312885187135 3.5090211652998864 0 0 0
406 2 15.996500000000003 22.023314693372832 3.5090211652998864 0 0 0
410 2 15.996499999999997 23.44417370584849 3.5090211652998864 0 0 0
667 2 17.227 24.154603212086325 3.5090211652998864 0 0 0
669 2 17.226999999999997 21.312885187134995 3.5090211652998864 0 0 0
671 2 18.4575 22.023314693372832 3.5090211652998864 0 0 0
692 2 18.4575 23.44417370584849 3.5090211652998864 0 0 0
694 2 19.688000000000002 24.154603212086336 3.5090211652998864 0 0 0
696 2 19.688000000000002 21.312885187134995 3.5090211652998864 0 0 0
698 2 20.9185 22.023314693372832 3.5090211652998864 0 0 0
711 2 20.9185 23.4441737058485 3.5090211652998864 0 0 0
713 2 22.149000000000004 24.154603212086336 3.5090211652998864 0 0 0
715 2 22.149000000000004 21.312885187134995 3.5090211652998864 0 0 0
717 2 23.3795 22.023314693372832 3.5090211652998864 0 0 0
721 2 23.3795 23.4441737058485 3.5090211652998864 0 0 0
84 2 0.0 1.420859012475665 6.361151513348748 0 0 0
86 2 0.0 0.0 6.361151513348748 0 0 0
95 2 1.2305000000000001 2.1312885187135 6.361151513348748 0 0 0
97 2 2.4610000000000003 1.420859012475665 6.361151513348748 0 0 0
99 2 2.4610000000000003 0.0 6.361151513348748 0 0 0
412 2 0.0 2.8417180249513345 9.213281861397114 0 0 0
413 2 0.0 0.0 9.213281861397114 0 0 0
414 2 1.2305000000000001 0.7104295062378347 9.213281861397114 0 0 0
418 2 1.2305000000000001 2.1312885187135 9.213281861397114 0 0 0
419 2 2.4610000000000003 2.8417180249513345 9.213281861397114 0 0 0
420 2 2.4610000000000003 0.0 9.213281861397114 0 0 0
116 2 3.6914999999999996 2.1312885187135 6.361151513348748 0 0 0
118 2 4.922000000000001 1.420859012475665 6.361151513348748 0 0 0
120 2 4.922000000000001 0.0 6.361151513348748 0 0 0
145 2 6.1525 2.131288518713499 6.361151513348748 0 0 0
421 2 3.6915000000000004 0.7104295062378347 9.213281861397114 0 0 0
429 2 3.6914999999999996 2.1312885187135 9.213281861397114 0 0 0
430 2 4.922000000000001 2.841718024951333 9.213281861397114 0 0 0
431 2 4.922000000000001 0.0 9.213281861397114 0 0 0
432 2 6.1525 0.7104295062378341 9.213281861397114 0 0 0
444 2 6.1525 2.131288518713499 9.213281861397114 0 0 0
147 2 7.382999999999999 1.420859012475666 6.361151513348748 0 0 0
149 2 7.382999999999999 0.0 6.361151513348748 0 0 0
182 2 8.613499999999998 2.1312885187135002 6.361151513348748 0 0 0
184 2 9.844000000000001 1.420859012475666 6.361151513348748 0 0 0
186 2 9.844000000000001 0.0 6.361151513348748 0 0 0
445 2 7.382999999999999 2.8417180249513345 9.213281861397114 0 0 0
446 2 7.382999999999999 0.0 9.213281861397114 0 0 0
447 2 8.613499999999998 0.7104295062378341 9.213281861397114 0 0 0
463 2 8.613499999999998 2.1312885187135002 9.213281861397114 0 0 0
464 2 9.844000000000001 2.841718024951333 9.213281861397114 0 0 0
465 2 9.844000000000001 0.0 9.213281861397114 0 0 0
227 2 11.074500000000002 2.1312885187135002 6.361151513348748 0 0 0
229 2 12.305 1.420859012475665 6.361151513348748 0 0 0
231 2 12.305 0.0 6.361151513348748 0 0 0
274 2 13.5355 2.1312885187134984 6.361151513348748 0 0 0
466 2 11.074500000000002 0.7104295062378333 9.213281861397114 0 0 0
486 2 11.074500000000002 2.1312885187135002 9.213281861397114 0 0 0
487 2 12.305 2.841718024951333 9.213281861397114 0 0 0
488 2 12.305 0.0 9.213281861397114 0 0 0
489 2 13.5355 0.7104295062378352 9.213281861397114 0 0 0
510 2 13.5355 2.1312885187134984 9.213281861397114 0 0 0
276 2 14.765999999999998 1.420859012475665 6.361151513348748 0 0 0
278 2 14.765999999999998 0.0 6.361151513348748 0 0 0
321 2 15.996500000000003 2.1312885187135002 6.361151513348748 0 0 0
581 2 17.226999999999997 1.420859012475665 6.361151513348748 0 0 0
583 2 17.227 0.0 6.361151513348748 0 0 0
511 2 14.765999999999998 2.841718024951335 9.213281861397114 0 0 0
512 2 14.765999999999998 0.0 9.213281861397114 0 0 0
513 2 15.996500000000003 0.7104295062378352 9.213281861397114 0 0 0
534 2 15.996500000000003 2.1312885187135002 9.213281861397114 0 0 0
723 2 17.226999999999997 2.841718024951333 9.213281861397114 0 0 0
724 2 17.227 0.0 9.213281861397114 0 0 0
592 2 18.4575 2.1312885187135002 6.361151513348748 0 0 0
594 2 19.688000000000002 1.420859012475663 6.361151513348748 0 0 0
596 2 19.688000000000002 0.0 6.361151513348748 0 0 0
613 2 20.918499999999998 2.1312885187135002 6.361151513348748 0 0 0
725 2 18.457499999999996 0.7104295062378333 9.213281861397114 0 0 0
729 2 18.4575 2.1312885187135002 9.213281861397114 0 0 0
730 2 19.688000000000002 2.8417180249513363 9.213281861397114 0 0 0
731 2 19.688000000000002 0.0 9.213281861397114 0 0 0
732 2 20.918499999999998 0.7104295062378405 9.213281861397114 0 0 0
740 2 20.918499999999998 2.1312885187135002 9.213281861397114 0 0 0
615 2 22.149000000000004 1.4208590124756595 6.361151513348748 0 0 0
617 2 22.149000000000004 0.0 6.361151513348748 0 0 0
642 2 23.3795 2.1312885187135002 6.361151513348748 0 0 0
741 2 22.149000000000004 2.8417180249513407 9.213281861397114 0 0 0
742 2 22.149000000000004 0.0 9.213281861397114 0 0 0
743 2 23.3795 0.7104295062378405 9.213281861397114 0 0 0
755 2 23.3795 2.1312885187135002 9.213281861397114 0 0 0
89 2 0.0 5.683436049902664 6.361151513348748 0 0 0
91 2 0.0 4.262577037427 6.361151513348748 0 0 0
93 2 1.2305000000000001 3.5521475311891644 6.361151513348748 0 0 0
108 2 1.2305000000000001 6.393865556140498 6.361151513348748 0 0 0
110 2 2.4610000000000003 5.683436049902664 6.361151513348748 0 0 0
112 2 2.4610000000000003 4.262577037427 6.361151513348748 0 0 0
416 2 0.0 4.262577037427 9.213281861397114 0 0 0
417 2 1.2305000000000001 4.973006543664834 9.213281861397114 0 0 0
425 2 1.2305000000000001 6.393865556140498 9.213281861397114 0 0 0
427 2 2.4610000000000003 4.262577037427 9.213281861397114 0 0 0
114 2 3.6914999999999996 3.5521475311891644 6.361151513348748 0 0 0
137 2 3.6914999999999996 6.393865556140498 6.361151513348748 0 0 0
139 2 4.922000000000001 5.683436049902664 6.361151513348748 0 0 0
141 2 4.922000000000001 4.262577037426998 6.361151513348748 0 0 0
143 2 6.1525 3.5521475311891644 6.361151513348748 0 0 0
174 2 6.1525 6.393865556140498 6.361151513348748 0 0 0
428 2 3.6914999999999996 4.973006543664834 9.213281861397114 0 0 0
440 2 3.6914999999999996 6.393865556140498 9.213281861397114 0 0 0
442 2 4.922000000000001 4.262577037426998 9.213281861397114 0 0 0
443 2 6.1525 4.973006543664834 9.213281861397114 0 0 0
459 2 6.1525 6.393865556140498 9.213281861397114 0 0 0
176 2 7.382999999999999 5.683436049902664 6.361151513348748 0 0 0
178 2 7.382999999999999 4.262577037427 6.361151513348748 0 0 0
180 2 8.613499999999998 3.5521475311891657 6.361151513348748 0 0 0
219 2 8.6135 6.393865556140498 6.361151513348748 0 0 0
221 2 9.844000000000001 5.683436049902664 6.361151513348748 0 0 0
223 2 9.844000000000001 4.2625770374270004 6.361151513348748 0 0 0
461 2 7.382999999999999 4.262577037427 9.213281861397114 0 0 0
462 2 8.6135 4.973006543664834 9.213281861397114 0 0 0
482 2 8.6135 6.393865556140498 9.213281861397114 0 0 0
484 2 9.844000000000001 4.2625770374270004 9.213281861397114 0 0 0
225 2 11.074500000000002 3.5521475311891644 6.361151513348748 0 0 0
266 2 11.074500000000002 6.393865556140498 6.361151513348748 0 0 0
268 2 12.305 5.683436049902664 6.361151513348748 0 0 0
270 2 12.305 4.262577037426998 6.361151513348748 0 0 0
272 2 13.5355 3.5521475311891644 6.361151513348748 0 0 0
313 2 13.5355 6.393865556140498 6.361151513348748 0 0 0
485 2 11.074500000000002 4.973006543664834 9.213281861397114 0 0 0
506 2 11.074500000000002 6.393865556140498 9.213281861397114 0 0 0
508 2 12.305 4.262577037426998 9.213281861397114 0 0 0
509 2 13.5355 4.973006543664834 9.213281861397114 0 0 0
530 2 13.5355 6.393865556140498 9.213281861397114 0 0 0
315 2 14.765999999999998 5.683436049902664 6.361151513348748 0 0 0
317 2 14.766000000000002 4.262577037426998 6.361151513348748 0 0 0
319 2 15.996499999999997 3.5521475311891644 6.361151513348748 0 0 0
355 2 15.996500000000003 6.393865556140498 6.361151513348748 0 0 0
586 2 17.226999999999997 5.683436049902661 6.361151513348748 0 0 0
588 2 17.226999999999997 4.2625770374270004 6.361151513348748 0 0 0
532 2 14.766000000000002 4.262577037426998 9.213281861397114 0 0 0
533 2 15.996499999999997 4.973006543664834 9.213281861397114 0 0 0
551 2 15.996500000000003 6.393865556140498 9.213281861397114 0 0 0
727 2 17.226999999999997 4.2625770374270004 9.213281861397114 0 0 0
590 2 18.457499999999996 3.5521475311891617 6.361151513348748 0 0 0
605 2 18.457499999999996 6.393865556140501 6.361151513348748 0 0 0
607 2 19.688000000000002 5.683436049902661 6.361151513348748 0 0 0
609 2 19.688000000000002 4.2625770374270004 6.361151513348748 0 0 0
611 2 20.918499999999995 3.552147531189163 6.361151513348748 0 0 0
634 2 20.9185 6.393865556140501 6.361151513348748 0 0 0
728 2 18.4575 4.973006543664837 9.213281861397114 0 0 0
736 2 18.457499999999996 6.393865556140501 9.213281861397114 0 0 0
738 2 19.688000000000002 4.2625770374270004 9.213281861397114 0 0 0
739 2 20.9185 4.973006543664837 9.213281861397114 0 0 0
751 2 20.9185 6.393865556140501 9.213281861397114 0 0 0
636 2 22.149000000000004 5.683436049902664 6.361151513348748 0 0 0
638 2 22.149000000000004 4.2625770374270004 6.361151513348748 0 0 0
640 2 23.3795 3.552147531189159 6.361151513348748 0 0 0
666 2 23.3795 6.393865556140501 6.361151513348748 0 0 0
753 2 22.149000000000004 4.2625770374270004 9.213281861397114 0 0 0
754 2 23.3795 4.973006543664837 9.213281861397114 0 0 0
767 2 23.3795 6.393865556140501 9.213281861397114 0 0 0
102 2 0.0 9.946013087329664 6.361151513348748 0 0 0
104 2 0.0 8.525154074854 6.361151513348748 0 0 0
106 2 1.2305000000000001 7.814724568616164 6.361151513348748 0 0 0
131 2 2.4610000000000003 9.946013087329664 6.361151513348748 0 0 0
133 2 2.4610000000000003 8.525154074854 6.361151513348748 0 0 0
415 2 0.0 7.104295062378334 9.213281861397114 0 0 0
423 2 0.0 8.525154074854 9.213281861397114 0 0 0
424 2 1.2305000000000001 9.235583581091834 9.213281861397114 0 0 0
426 2 2.4610000000000003 7.104295062378334 9.213281861397114 0 0 0
438 2 2.4610000000000003 8.525154074854 9.213281861397114 0 0 0
135 2 3.6914999999999996 7.814724568616164 6.361151513348748 0 0 0
168 2 4.922000000000001 9.946013087329664 6.361151513348748 0 0 0
170 2 4.922000000000001 8.525154074854 6.361151513348748 0 0 0
172 2 6.1525 7.814724568616164 6.361151513348748 0 0 0
439 2 3.6915000000000004 9.235583581091834 9.213281861397114 0 0 0
441 2 4.922000000000001 7.104295062378334 9.213281861397114 0 0 0
457 2 4.922000000000001 8.525154074854 9.213281861397114 0 0 0
458 2 6.1525 9.235583581091834 9.213281861397114 0 0 0
213 2 7.383000000000001 9.946013087329664 6.361151513348748 0 0 0
215 2 7.383000000000001 8.525154074854 6.361151513348748 0 0 0
217 2 8.6135 7.814724568616164 6.361151513348748 0 0 0
260 2 9.844000000000001 9.946013087329664 6.361151513348748 0 0 0
262 2 9.844000000000001 8.525154074853996 6.361151513348748 0 0 0
460 2 7.383000000000001 7.104295062378334 9.213281861397114 0 0 0
480 2 7.383000000000001 8.525154074854 9.213281861397114 0 0 0
481 2 8.613499999999998 9.235583581091834 9.213281861397114 0 0 0
483 2 9.844000000000001 7.104295062378334 9.213281861397114 0 0 0
504 2 9.844000000000001 8.525154074853996 9.213281861397114 0 0 0
264 2 11.074500000000002 7.814724568616164 6.361151513348748 0 0 0
307 2 12.305 9.946013087329664 6.361151513348748 0 0 0
309 2 12.305 8.525154074854 6.361151513348748 0 0 0
311 2 13.5355 7.814724568616164 6.361151513348748 0 0 0
505 2 11.074500000000002 9.235583581091834 9.213281861397114 0 0 0
507 2 12.305 7.104295062378334 9.213281861397114 0 0 0
528 2 12.305 8.525154074854 9.213281861397114 0 0 0
529 2 13.5355 9.235583581091829 9.213281861397114 0 0 0
349 2 14.765999999999998 9.946013087329659 6.361151513348748 0 0 0
351 2 14.765999999999998 8.525154074854 6.361151513348748 0 0 0
353 2 15.996499999999997 7.814724568616161 6.361151513348748 0 0 0
599 2 17.226999999999997 9.946013087329662 6.361151513348748 0 0 0
601 2 17.226999999999997 8.525154074854 6.361151513348748 0 0 0
531 2 14.765999999999998 7.104295062378331 9.213281861397114 0 0 0
549 2 14.765999999999998 8.525154074854 9.213281861397114 0 0 0
550 2 15.996500000000003 9.235583581091836 9.213281861397114 0 0 0
726 2 17.227 7.104295062378336 9.213281861397114 0 0 0
734 2 17.226999999999997 8.525154074854 9.213281861397114 0 0 0
603 2 18.457499999999996 7.814724568616161 6.361151513348748 0 0 0
628 2 19.688000000000002 9.946013087329662 6.361151513348748 0 0 0
630 2 19.688000000000002 8.525154074854001 6.361151513348748 0 0 0
632 2 20.918499999999998 7.814724568616161 6.361151513348748 0 0 0
735 2 18.4575 9.235583581091836 9.213281861397114 0 0 0
737 2 19.688000000000002 7.104295062378336 9.213281861397114 0 0 0
749 2 19.688000000000002 8.525154074854001 9.213281861397114 0 0 0
750 2 20.9185 9.235583581091834 9.213281861397114 0 0 0
660 2 22.149000000000004 9.946013087329662 6.361151513348748 0 0 0
662 2 22.149000000000004 8.525154074854001 6.361151513348748 0 0 0
664 2 23.379499999999997 7.814724568616164 6.361151513348748 0 0 0
691 2 24.609999999999996 9.946013087329664 6.361151513348748 0 0 0
752 2 22.149000000000004 7.104295062378334 9.213281861397114 0 0 0
765 2 22.149000000000004 8.525154074854001 9.213281861397114 0 0 0
766 2 23.3795 9.235583581091834 9.213281861397114 0 0 0
125 2 0.0 12.787731112280996 6.361151513348748 0 0 0
127 2 1.2305000000000001 12.077301606043163 6.361151513348748 0 0 0
129 2 1.2305000000000001 10.656442593567498 6.361151513348748 0 0 0
162 2 2.4610000000000003 12.787731112280996 6.361151513348748 0 0 0
422 2 0.0 11.366872099805333 9.213281861397114 0 0 0
434 2 0.0 12.787731112280996 9.213281861397114 0 0 0
435 2 1.2305000000000001 13.49816061851883 9.213281861397114 0 0 0
436 2 1.2305000000000001 10.656442593567498 9.213281861397114 0 0 0
437 2 2.4610000000000003 11.366872099805333 9.213281861397114 0 0 0
453 2 2.4610000000000003 12.787731112280996 9.213281861397114 0 0 0
164 2 3.6914999999999996 12.077301606043163 6.361151513348748 0 0 0
166 2 3.6914999999999996 10.6564425935675 6.361151513348748 0 0 0
207 2 4.922000000000001 12.787731112280996 6.361151513348748 0 0 0
209 2 6.1525 12.077301606043163 6.361151513348748 0 0 0
211 2 6.1525 10.6564425935675 6.361151513348748 0 0 0
454 2 3.6915000000000004 13.49816061851883 9.213281861397114 0 0 0
455 2 3.6914999999999996 10.6564425935675 9.213281861397114 0 0 0
456 2 4.922000000000001 11.366872099805333 9.213281861397114 0 0 0
476 2 4.922000000000001 12.787731112280996 9.213281861397114 0 0 0
477 2 6.152499999999999 13.49816061851883 9.213281861397114 0 0 0
478 2 6.1525 10.6564425935675 9.213281861397114 0 0 0
254 2 7.382999999999999 12.787731112280996 6.361151513348748 0 0 0
256 2 8.6135 12.077301606043163 6.361151513348748 0 0 0
258 2 8.613499999999998 10.656442593567498 6.361151513348748 0 0 0
301 2 9.844000000000001 12.787731112280996 6.361151513348748 0 0 0
479 2 7.382999999999999 11.366872099805333 9.213281861397114 0 0 0
500 2 7.382999999999999 12.787731112280996 9.213281861397114 0 0 0
501 2 8.6135 13.498160618518835 9.213281861397114 0 0 0
502 2 8.613499999999998 10.656442593567498 9.213281861397114 0 0 0
503 2 9.844000000000001 11.366872099805333 9.213281861397114 0 0 0
524 2 9.844000000000001 12.787731112280996 9.213281861397114 0 0 0
303 2 11.074500000000002 12.077301606043163 6.361151513348748 0 0 0
305 2 11.074500000000002 10.656442593567498 6.361151513348748 0 0 0
343 2 12.305 12.787731112280996 6.361151513348748 0 0 0
345 2 13.5355 12.07730160604316 6.361151513348748 0 0 0